LAMMPS (10 Feb 2015)
Reading data file ...
  triclinic box = (0 0 0) to (4.2565 4.2565 4.2565) with tilt (0 0 0)
  1 by 1 by 1 MPI processor grid
  reading atoms ...
  8 atoms
4 atoms in group Mg
4 atoms in group O
Setting atom values ...
  4 settings made for charge
Setting atom values ...
  4 settings made for charge
PPPM initialization ...
  G vector (1/distance) = 0.352512
  grid = 8 8 8
  stencil order = 5
  estimated absolute RMS force accuracy = 3.81673e-05
  estimated relative force accuracy = 2.65057e-06
  using double precision FFTs
  3d grid and FFT values/proc = 3375 512
Neighbor list info ...
  1 neighbor list requests
  update every 1 steps, delay 0 steps, check yes
  master list distance cutoff = 11
Setting up minimization ...
Memory usage per processor = 4.06549 Mbytes
Step PotEng Lx Ly Lz Xy Xz Yz Press Pxx Pyy Pzz Pxy Pxz Pyz eatoms 
       0   -105.55076       4.2565       4.2565       4.2565            0            0            0    126453.59    126453.59    126453.59    126453.59 4.0363335e-11 4.044677e-11 1.0723156e-10   -105.55076 
      10   -105.69165     4.299065     4.299065     4.299065            0            0            0    68786.015    68786.015    68786.015    68786.015 -1.0242962e-10 -4.708445e-11 -3.569371e-11   -105.69165 
      20   -105.75532      4.34163      4.34163      4.34163            0            0            0    18126.479    18126.479    18126.479    18126.479 7.5197513e-11 1.703257e-11 -3.0007315e-11   -105.75532 
      27   -105.76066    4.3583247    4.3583247    4.3583247            0            0            0    1.3863117    1.3863117    1.3863117    1.3863117 -6.2572681e-11 -1.3142723e-10 -3.2118437e-11   -105.76066 
Loop time of 0.0137601 on 1 procs for 27 steps with 8 atoms

Minimization stats:
  Stopping criterion = linesearch alpha is zero
  Energy initial, next-to-last, final = 
        -105.550764672     -105.760658065     -105.760658065
  Force two-norm initial, final = 18.26 0.000217628
  Force max component initial, final = 18.26 0.000209876
  Final line search alpha, max atom move = 0.25 5.24691e-05
  Iterations, force evaluations = 27 40

Pair  time (%) = 0.00362158 (26.3194)
Kspce time (%) = 0.0021975 (15.9701)
Neigh time (%) = 0 (0)
Comm  time (%) = 0.000446558 (3.24531)
Outpt time (%) = 2.69413e-05 (0.195793)
Other time (%) = 0.00746751 (54.2693)

Nlocal:    8 ave 8 max 8 min
Histogram: 1 0 0 0 0 0 0 0 0 0
Nghost:    2189 ave 2189 max 2189 min
Histogram: 1 0 0 0 0 0 0 0 0 0
Neighs:    2344 ave 2344 max 2344 min
Histogram: 1 0 0 0 0 0 0 0 0 0

Total # of neighbors = 2344
Ave neighs/atom = 293
Neighbor list builds = 0
Dangerous builds = 0
pypospack:output_section:begin
tot_energy = -105.760658064539
num_atoms = 8
xx = 4.35832471527479
yy = 4.35832471527479
zz = 4.35832471527479
xy = 0
xz = 0
yz = 0
tot_press = 1.38631174704167
pxx = 1.38631174709188
pyy = 1.38631174731354
pzz = 1.3863117467196
pxy = -6.25726806975275e-11
pxz = -1.31427228854923e-10
pyz = -3.21184365171528e-11
pypospack:output_section:done
pypospack:lammps_sim:done
PPPM initialization ...
  G vector (1/distance) = 0.351503
  grid = 8 8 8
  stencil order = 5
  estimated absolute RMS force accuracy = 3.99806e-05
  estimated relative force accuracy = 2.7765e-06
  using double precision FFTs
  3d grid and FFT values/proc = 3375 512
Setting up run ...
Memory usage per processor = 3.06549 Mbytes
Step Temp PotEng KinEng TotEng Press Lx Ly Lz Press Pxx Pyy Pzz Pxy Pxz Pyz Volume 
       0         1000   -105.76067   0.90482102   -104.85585    11673.333    4.3583247    4.3583247    4.3583247    11673.333    19057.387    5833.8131    10128.799    513.25178    1950.7556    407.10386    82.786353 
     100    214.87055   -104.92895   0.19441939   -104.73453   -11505.658    4.3802979    4.3802979    4.3802979   -11505.658    -8599.911   -10491.119   -15425.945   -4046.0165   -13150.476    2228.9646    84.044818 
     200    765.63961   -105.17279   0.69276681   -104.48003    -10685.59    4.3873739    4.3873739    4.3873739    -10685.59   -8164.4875    2458.6522   -26350.935    3526.6502   -3435.3464    3829.9566    84.452777 
     300    886.15482   -105.07985    0.8018115   -104.27803    13923.971    4.3855319    4.3855319    4.3855319    13923.971    25103.588    18367.887    -1699.562    5542.1266   -8787.5013    1649.0155    84.346454 
     400    493.88579   -104.56401   0.44687824   -104.11713   -10051.397    4.3855444    4.3855444    4.3855444   -10051.397   -25339.716    21989.067   -26803.542   -4279.1181   -11377.728    7688.2991    84.347172 
     500    1225.8495   -105.10885    1.1091744   -103.99968    9332.5847    4.3890859    4.3890859    4.3890859    9332.5847    14393.115   -4281.0108     17885.65   -274.54955    5122.6606   -1555.5189    84.551683 
     600    983.34918   -104.83689     0.889755   -103.94713   -14665.135    4.4055143    4.4055143    4.4055143   -14665.135   -24325.211    8370.3298   -28040.525    1146.5673   -17402.335    7656.9467    85.504674 
     700    1066.6821   -104.88817    0.9651564   -103.92302   -15039.852    4.3869038    4.3869038    4.3869038   -15039.852   -22516.875   -28292.705    5690.0246   -2375.2851    9526.3758   -7825.8209    84.425634 
     800    1061.6679    -104.8848   0.96061946   -103.92418    18966.194    4.3890928    4.3890928    4.3890928    18966.194    778.40196    43704.812    12415.368    1880.6914   -12123.554   -1092.6832    84.552078 
     900    904.25325   -104.75031   0.81818734   -103.93212    -20771.78    4.4060198    4.4060198    4.4060198    -20771.78    -45242.17     7733.586   -24806.755    4601.5015    5542.9287    1839.2307    85.534111 
    1000    1000.7624   -104.84178   0.90551086   -103.93627   -5469.8015    4.3876612    4.3876612    4.3876612   -5469.8015   -14770.011   -17045.649    15406.255    1958.1572   -1494.9228   -825.83003    84.469368 
    1100    1287.6067   -105.09546    1.1650536    -103.9304    5582.5653    4.3915808    4.3915808    4.3915808    5582.5653     -8163.77    18074.547    6836.9189    5172.9126    -11951.15    3665.2102    84.695946 
    1200    730.10201   -104.60405   0.66061164   -103.94344   -8869.1107     4.393356     4.393356     4.393356   -8869.1107   -34739.103    -308.4971     8440.268     4531.014    7461.1965   -860.56332      84.7987 
    1300    907.31323   -104.76438   0.82095608   -103.94343    24476.997    4.3918457    4.3918457    4.3918457    24476.997    15114.026    25204.331    33112.634   -3179.6474   -11326.308   -17902.815    84.711277 
    1400    1065.0625   -104.90424   0.96369092   -103.94054   -125.01094    4.3986351    4.3986351    4.3986351   -125.01094   -25846.855    10870.271    14601.551   -1407.9155     4310.869   -3221.5868     85.10475 
    1500    807.02153    -104.6684   0.73021004   -103.93819    8380.2568    4.3857595    4.3857595    4.3857595    8380.2568   -1438.8704   -14021.367    40601.008     2123.332    -4800.264   -539.27031    84.359585 
    1600    1088.7853   -104.92558   0.98515583   -103.94043    4330.5697    4.3929613    4.3929613    4.3929613    4330.5697    461.97221    16292.379    -3762.642    6286.6007    2076.4448    10687.456    84.775847 
    1700    954.90776   -104.80283   0.86402061   -103.93881   -2210.3647    4.4012864    4.4012864    4.4012864   -2210.3647   -27025.563    9199.5464    11194.923     9503.467      1903.46    1087.2922    85.258733 
    1800    1088.0879   -104.91273    0.9845248   -103.92821      2354.48    4.3946358    4.3946358    4.3946358      2354.48    15761.484    -14906.23    6208.1859   -909.19191    2834.5247   -16674.496    84.872829 
    1900    1114.0407   -104.93233    1.0080074   -103.92432   -9829.3875    4.3993005    4.3993005    4.3993005   -9829.3875   -23182.558   -20316.909    14011.305    3211.7084     7106.714   -5138.9318    85.143378 
    2000    1009.3136   -104.83763   0.91324811   -103.92438    15739.353    4.3903697    4.3903697    4.3903697    15739.353    6372.3557   -16928.302    57774.004   -12518.889    5765.3893   -5900.9335    84.625894 
    2100    938.95489   -104.78119   0.84958612    -103.9316   -12692.756    4.3985879    4.3985879    4.3985879   -12692.756   -8798.0096   -12741.734   -16538.524    2784.5926    7015.6085    11829.016    85.102012 
    2200    899.26952   -104.74619   0.81367796   -103.93251    10250.411    4.3855083    4.3855083    4.3855083    10250.411   -27811.999    16930.986    41632.247   -8177.7908   -9903.7936    2862.1487    84.345093 
    2300    1189.2716   -105.01535     1.076078   -103.93927     3149.736    4.3861693    4.3861693    4.3861693     3149.736    9597.1289    20121.323   -20269.244    1587.0775    8780.5281   -9352.2067    84.383234 
    2400    925.26615   -104.77651   0.83720025   -103.93931   -33332.917    4.4043991    4.4043991    4.4043991   -33332.917   -42501.931   -39624.395   -17872.424   -2111.1867   -8983.7398   -7166.3511    85.439755 
    2500     1157.243   -104.97929    1.0470978   -103.93219    5640.3393    4.3849064    4.3849064    4.3849064    5640.3393   -21665.009    9194.7667     29391.26    16.259148   -1090.2683    3936.8325     84.31037 
    2600     923.0882   -104.77221    0.8352296   -103.93698    2306.8383    4.3930941    4.3930941    4.3930941    2306.8383    2701.6207    1750.8992    2467.9951   -3374.5693     9456.591    6400.9034    84.783534 
    2700    856.43468   -104.71271    0.7749201   -103.93779   -2942.7134     4.396308     4.396308     4.396308   -2942.7134   -27661.192    9825.4164    9007.6351   -12911.971   -7448.0696    12780.094    84.969747 
    2800    896.44477   -104.74173   0.81112206   -103.93061    7304.2505    4.3983191    4.3983191    4.3983191    7304.2505    32824.057     7970.297   -18881.602   -8127.2079    23526.782   -618.10993     85.08641 
    2900    887.23569   -104.73224    0.8027895   -103.92945   -1480.6601    4.3923942    4.3923942    4.3923942   -1480.6601    10202.562   -3035.0243   -11609.518    -19571.74   -10520.567    13.168484    84.743016 
    3000    803.40835   -104.66085   0.72694076   -103.93391    19037.168    4.3846055    4.3846055    4.3846055    19037.168    15038.501    24434.203      17638.8   -6870.6433    2715.4553   -4150.4722    84.293011 
    3100    1028.8512    -104.8627   0.93092616   -103.93177    1345.3291    4.3998475    4.3998475    4.3998475    1345.3291   -7087.5063    7410.8162    3712.6774   -9240.9526    10316.317   -12599.226    85.175141 
    3200    886.45567   -104.73421   0.80208372   -103.93213    5154.0814    4.3924708    4.3924708    4.3924708    5154.0814   -23701.907    17482.873    21681.278   -5157.3055    -12027.96   -1668.4055    84.747453 
    3300    999.94656   -104.83926   0.90477266   -103.93448   -419.74411    4.3886386    4.3886386    4.3886386   -419.74411   -5379.1674    20306.479   -16186.544    5891.4178    31455.162   -3089.8437    84.525831 
    3400    1250.2687   -105.06663    1.1312694   -103.93536    2178.6409    4.3913561    4.3913561    4.3913561    2178.6409    2087.5734     1369.769    3078.5802    65.699894   -10683.801    3647.5824    84.682947 
    3500    894.35443    -104.7502   0.80923068   -103.94097    -11757.38     4.390426     4.390426     4.390426    -11757.38   -9892.9497   -1028.7694   -24350.421   -369.35467    20330.866    945.07149    84.629149 
    3600    1012.9233   -104.85018   0.91651427   -103.93366    14056.377    4.3924883    4.3924883    4.3924883    14056.377    77.339672    23951.106    18140.684    4419.4146    655.36957   -2218.4419    84.748465 
    3700    936.12908   -104.77991   0.84702927   -103.93288    4573.6851    4.3906337    4.3906337    4.3906337    4573.6851   -9353.5544     10948.47    12126.139   -9054.6194    3428.7443   -10002.996    84.641165 
    3800     770.4973   -104.63725   0.69716214   -103.94009     8813.949    4.3893556    4.3893556    4.3893556     8813.949   -16887.321    35167.959    8161.2089    15516.244     14114.69   -6436.7552    84.567268 
    3900    1253.0586   -105.06789    1.1337937    -103.9341   -1310.7091    4.3963993    4.3963993    4.3963993   -1310.7091   -5537.4302    4752.3737   -3147.0707    -3983.595    2205.4353    582.09459    84.975042 
    4000    911.37359   -104.76326   0.82462997   -103.93863   -15095.065    4.3895286    4.3895286    4.3895286   -15095.065   -20750.139   -5974.5132   -18560.543    14043.278    21743.208    9139.9767    84.577265 
    4100    1104.4071   -104.93497   0.99929074   -103.93568    10605.656    4.3863715    4.3863715    4.3863715    10605.656   -3376.4088   -3385.2291    38578.607    12110.771    1386.9681   -4465.6929    84.394906 
    4200    812.11457   -104.67614   0.73481833   -103.94132   -9.6510339    4.3949786    4.3949786    4.3949786   -9.6510339    -27799.35    43347.507   -15577.111   -4888.7651    18018.863   -2042.6874    84.892692 
    4300    909.67727    -104.7622   0.82309511   -103.93911    7572.1253    4.3905512    4.3905512    4.3905512    7572.1253   -18328.861    11881.844    29163.393    12242.125   -1670.2687   -6075.1923    84.636391 
    4400     959.0294   -104.80039   0.86774996   -103.93264    -1127.904    4.4005283    4.4005283    4.4005283    -1127.904   -17553.865    20685.024   -6514.8709   -6727.9876    9479.8595    349.07866    85.214689 
    4500    1067.5368   -104.89604   0.96592976   -103.93011   -22962.482    4.3856225    4.3856225    4.3856225   -22962.482   -42585.428   -37068.021    10766.003    20450.968    5689.3698    11796.234    84.351679 
    4600     1177.232   -104.99211    1.0651842   -103.92692    8146.2889    4.3904349    4.3904349    4.3904349    8146.2889   -16094.345    27721.635    12811.577   -8612.6599   -4656.8272    3838.1323    84.629666 
    4700    792.06835   -104.64623   0.71668009   -103.92955   -33378.843     4.403219     4.403219     4.403219   -33378.843   -46528.287   -18246.794   -35361.446    18468.711    17320.436    4412.4741    85.371097 
    4800    934.70558   -104.77713   0.84574125   -103.93139    17819.407    4.3780919    4.3780919    4.3780919    17819.407   -23656.616    16433.604    60681.234    7216.6211   -10721.439   -1416.1272    83.917901 
    4900    1197.5015   -105.01965    1.0835245   -103.93612    15486.894    4.3828454    4.3828454    4.3828454    15486.894   -11075.133    9194.7247    48341.092      2797.02    11633.637   -12568.719    84.191543 
    5000    573.11735   -104.46663   0.51856862   -103.94807   -22293.118    4.4073421    4.4073421    4.4073421   -22293.118   -57385.004   -37290.588    27796.238    15527.775    4437.7372    9082.4271    85.611142 
    5100    1487.8497   -105.27648    1.3462376   -103.93024    -9729.019    4.3920206    4.3920206    4.3920206    -9729.019   -16059.026   -13335.616    207.58494   -7777.1573    2599.6316   -4382.2896    84.721395 
    5200    887.71628   -104.73558   0.80322435   -103.93235    6969.9751    4.3704821    4.3704821    4.3704821    6969.9751   -24192.668     6588.642    38513.951    24592.813    13440.636   -768.74967    83.481074 
    5300     1080.022   -104.91825   0.97722658   -103.94102   -5205.0676     4.395268     4.395268     4.395268   -5205.0676   -21683.085   -21381.957    27449.839   -9789.0022   -2889.8644    -1401.474    84.909458 
    5400    724.09976   -104.59259   0.65518068   -103.93741    5594.5613    4.3961103    4.3961103    4.3961103    5594.5613   -38447.589    8942.3687    46288.904    17198.005    4580.5431   -12937.791    84.958285 
    5500    1123.2961   -104.94741    1.0163819   -103.93103   -5552.4123    4.3867979    4.3867979    4.3867979   -5552.4123   -27216.699   -5572.8984    16132.361   -2232.3926    2605.5314    6773.3204    84.419523 
    5600    1148.4445   -104.96848    1.0391367   -103.92934    1855.3858    4.3856303    4.3856303    4.3856303    1855.3858   -2272.4173   -2238.3372    10076.912    1907.9743     435.7756   -6803.7378    84.352132 
    5700     817.2985   -104.68008   0.73950886   -103.94057   -14429.014    4.3976421    4.3976421    4.3976421   -14429.014   -59516.874   -3208.4713    19438.304     17728.83    12015.563    2593.9044    85.047129 
    5800    1467.3489   -105.25963    1.3276881   -103.93195    1907.6901    4.3917158    4.3917158    4.3917158    1907.6901   -4964.4462   -6497.1519    17184.668   -8774.6263   -1372.4364    2941.3554     84.70376 
    5900    243.82874   -104.16943   0.22062137   -103.94881    18238.068     4.376228     4.376228     4.376228    18238.068   -31944.237    48529.543    38128.897    24661.058    9751.4286   -13127.033    83.810769 
    6000    1591.9316   -105.38285    1.4404132   -103.94244   -7828.5989    4.3944094    4.3944094    4.3944094   -7828.5989   -23656.896   -1969.2529    2140.3521   -8641.9014    -123.9496    8801.3353    84.859713 
    6100    728.63836   -104.60617    0.6592873   -103.94688    2726.1399    4.3928342    4.3928342    4.3928342    2726.1399    -17064.29   -2744.2091    27986.918    20805.354    6758.5733   -2566.9695    84.768489 
    6200    1100.6192   -104.93138   0.99586337   -103.93551   -12622.157    4.3913257    4.3913257    4.3913257   -12622.157   -22265.543    -17977.15    2376.2227    3741.7524   -1515.3798   -204.55588    84.681189 
    6300    1379.2655   -105.16967    1.2479884   -103.92168   -419.76631    4.3912278    4.3912278    4.3912278   -419.76631   -12298.032   -20372.093    31410.826     7293.498   -6684.8478    8055.6512    84.675528 
    6400    565.06038   -104.44279    0.5112785   -103.93151    1085.3995    4.3923235    4.3923235    4.3923235    1085.3995   -18830.025   -7678.2939    29764.518    13029.596    2352.1798   -13270.138    84.738926 
    6500    1191.3997   -104.99775    1.0780035   -103.91975    2564.2363    4.3925878    4.3925878    4.3925878    2564.2363   -917.90993   -14112.607    22723.226    -3663.198   -3316.4296     914.7591    84.754223 
    6600    943.58479   -104.78248   0.85377534   -103.92871   -10494.497    4.3860805    4.3860805    4.3860805   -10494.497   -37167.256   -14911.513    20595.276    24111.651    5816.4716   -7719.9462    84.378112 
    6700    1002.9911   -104.83731   0.90752746   -103.92979    11950.238    4.3883412    4.3883412    4.3883412    11950.238    37472.978    9455.2467    -11077.51   -1789.4325    4987.0776   -4060.4423    84.508649 
    6800    943.54233   -104.79244   0.85373693    -103.9387   -11359.663    4.3895721    4.3895721    4.3895721   -11359.663    1645.3125   -39640.652     3916.352    22429.758    994.05167    7441.0874    84.579783 
    6900    1029.0328   -104.86821   0.93109051   -103.93712    1867.9965    4.3969605    4.3969605    4.3969605    1867.9965    11760.275    5265.2374   -11421.523   -3978.2631    5493.8813   -4406.9221    85.007589 
    7000    1194.6487    -105.0105    1.0809433   -103.92956   -2552.7829    4.3879878    4.3879878    4.3879878   -2552.7829    21904.362   -27534.314   -2028.3972     10182.51   -3421.7847    2705.6302    84.488234 
    7100    766.05623   -104.62945   0.69314378   -103.93631    9244.0135    4.3828279    4.3828279    4.3828279    9244.0135    10633.713   -2049.1838    19147.511    8309.2355    14327.666    -1426.137    84.190534 
    7200    1269.0155   -105.07453    1.1482319    -103.9263    6527.3461      4.39925      4.39925      4.39925    6527.3461    36874.679    4642.3595       -21935   -2202.5328    3630.7859    883.48569    85.140446 
    7300    663.68415   -104.53652   0.60051536   -103.93601     13619.86     4.384987     4.384987     4.384987     13619.86    31627.033   -18773.911    28006.458    21384.817    7824.7346    168.57101    84.315019 
    7400    1085.4054   -104.91092   0.98209759   -103.92882    17282.051    4.3905869    4.3905869    4.3905869    17282.051     14958.62    19928.972    16958.563     -15332.9    13415.874   -7224.1037    84.638458 
    7500    1102.2222   -104.92664   0.99731383   -103.92932   -15319.711    4.3952042    4.3952042    4.3952042   -15319.711   -10227.751   -26515.635   -9215.7474    12476.155   -7580.0298    8738.9763    84.905763 
    7600    883.01284   -104.73039   0.79896858   -103.93142    13931.671     4.385955     4.385955     4.385955    13931.671     2470.437    10916.682    28407.894   -13093.551     14815.34   -4817.7402    84.370867 
    7700    1153.7959   -104.96869    1.0439788   -103.92471   -9396.1992     4.397438     4.397438     4.397438   -9396.1992     454.0286   -12324.104   -16318.523     8406.073   -15450.844    9606.4397    85.035286 
    7800    688.32403   -104.55821   0.62281005    -103.9354    -4667.237    4.3892397    4.3892397    4.3892397    -4667.237   -18182.013    11989.951   -7809.6481    7801.0638    1765.3307    4324.1381    84.560572 
    7900    1358.7524   -105.16033    1.2294277    -103.9309    3458.4505    4.3822701    4.3822701    4.3822701    3458.4505    19927.386   -1559.3518    -7992.683   -6671.4359   -6956.5906   -7366.2852     84.15839 
    8000      781.421   -104.65268   0.70704615   -103.94564   -2764.7281    4.3906205    4.3906205    4.3906205   -2764.7281   -19953.783    26061.191   -14401.592    15374.673   -11008.745    6963.4345    84.640397 
    8100    1130.6083   -104.96047    1.0229981   -103.93747   -16565.134    4.4006462    4.4006462    4.4006462   -16565.134   -8514.4033    -11223.82   -29957.179    -5435.559    6136.7458    -6912.712    85.221539 
    8200    1089.4265   -104.92062   0.98573597   -103.93488     182.1105    4.3819227    4.3819227    4.3819227     182.1105   -5262.8372    19127.998   -13318.829    9807.5241   -22646.198   -8813.5044    84.138379 
    8300    909.14306   -104.75854   0.82261174   -103.93593    13866.801    4.3820475    4.3820475    4.3820475    13866.801   -1337.0947    30176.954    12760.543    12591.616    13295.331    4920.2977    84.145566 
    8400    1030.6476   -104.86458   0.93255157   -103.93203   -17231.315    4.4017357    4.4017357    4.4017357   -17231.315    1994.8912   -12829.294   -40859.541   -8494.7366   -22303.584   -22656.225    85.284848 
    8500    1006.9113   -104.84001   0.91107451   -103.92894    25399.269    4.3809232    4.3809232    4.3809232    25399.269    6476.4768    40425.914    29295.417    18506.977    5535.5181    6076.2762    84.080818 
    8600    918.56246   -104.76856   0.83113462   -103.93743    5599.5643     4.383308     4.383308     4.383308    5599.5643     3349.499    22789.958   -9340.7639    3073.8701   -6022.2073   -15455.506    84.218202 
    8700    1070.3601   -104.90565   0.96848427   -103.93716    7634.4005    4.3920012    4.3920012    4.3920012    7634.4005   -5652.3133    13505.816    15049.699    1018.0869   -11219.874   -1880.3875    84.720274 
    8800    1127.4564    -104.9579    1.0201463   -103.93775    -15473.34    4.3974474    4.3974474    4.3974474    -15473.34    -24985.89   -13805.729   -7628.4019    20280.625    10137.363    5242.6597    85.035831 
    8900    961.91282   -104.80662   0.87035894   -103.93626    28385.653    4.3804164    4.3804164    4.3804164    28385.653    11808.496    64409.704    8938.7594   -10600.116    -15307.33   -12806.861    84.051637 
    9000    1057.9372   -104.90079   0.95724385   -103.94354   -10385.973    4.3882525    4.3882525    4.3882525   -10385.973    -16891.47   -13868.204   -398.24397     21578.33    12697.061     14808.99    84.503527 
    9100    903.62138   -104.75492   0.81761561   -103.93731     10774.26     4.395858     4.395858     4.395858     10774.26    4443.0699    50021.131   -22141.422   -688.05607   -4542.2047   -13371.135    84.943661 
    9200    1136.3562   -104.96117     1.028199   -103.93297   -922.14197    4.3849539    4.3849539    4.3849539   -922.14197   -1854.2112    3994.5694   -4906.7842    10051.156    8523.7689    8622.5099    84.313106 
    9300    599.77201   -104.48574   0.54268632   -103.94306   -7893.1805    4.3897061    4.3897061    4.3897061   -7893.1805   -1747.9177   -7160.6024   -14771.021    10750.169    4761.1876    2069.1218    84.587529 
    9400    1562.8185   -105.34549     1.414071   -103.93142    1424.7459    4.3869501    4.3869501    4.3869501    1424.7459   -5162.1941     23031.38   -13594.948   -10287.346   -302.54417   -4622.4138    84.428309 
    9500    460.78822   -104.37044   0.41693086   -103.95351   -16682.513    4.3872823    4.3872823    4.3872823   -16682.513   -17114.367   -15993.078   -16940.093    5994.9758    10088.776    15036.202    84.447488 
    9600    1388.1195   -105.19458    1.2559997   -103.93858    9573.6254    4.3903571    4.3903571    4.3903571    9573.6254    7089.9163    31005.735   -9374.7755    8139.9492    3744.7945   -9224.4674    84.625169 
    9700    714.84879   -104.59395    0.6468102   -103.94714   -9623.5273    4.3944211    4.3944211    4.3944211   -9623.5273   -7892.6954   -20800.303   -177.58369   -10559.069    7746.7025    10094.779     84.86039 
    9800    1033.0868   -104.87252   0.93475866   -103.93776    5143.6705    4.3824743    4.3824743    4.3824743    5143.6705      6440.78    4211.8928    4778.3389    13097.974    7522.3101    181.93135    84.170157 
    9900    1149.9414   -104.97318    1.0404911   -103.93269    9868.5663    4.3904094    4.3904094    4.3904094    9868.5663   -2167.3044    34758.248   -2985.2449   -13664.212    736.12467   -2614.7326    84.628189 
   10000    636.09231   -104.51556   0.57554969   -103.94001    1601.9149    4.3921963    4.3921963    4.3921963    1601.9149   -16887.985    4306.1887    17387.541    12097.663    11963.816    14668.486    84.731563 
   10100    1340.0687   -105.13543    1.2125223   -103.92291    4542.6755    4.3948962    4.3948962    4.3948962    4542.6755    1787.9303     14595.56   -2755.4636    2157.0723    -10001.57   -11776.169    84.887915 
   10200    914.19413   -104.75846   0.82718206   -103.93128   -13376.377     4.388211     4.388211     4.388211   -13376.377   -33680.785   -14562.849    8114.5029    10902.349     12114.27    2723.9957    84.501127 
   10300    894.59783   -104.74019   0.80945091   -103.93074    25042.084    4.3814051    4.3814051    4.3814051    25042.084    15985.262    20739.846    38401.144    9425.0627   -7292.7701   -2363.6515    84.108563 
   10400    1270.6329   -105.07574    1.1496953   -103.92604   -24407.492    4.4018853    4.4018853    4.4018853   -24407.492   -24235.401   -18106.302   -30880.775    2613.9446   -7426.0864   -14242.943    85.293544 
   10500    688.14317    -104.5501    0.6226464   -103.92745    10820.968    4.3852678    4.3852678    4.3852678    10820.968   -3337.2923   -5516.6508    41316.848    15745.364     4497.346    7332.7481    84.331214 
   10600    1258.0955     -105.065    1.1383513   -103.92664    -2950.996     4.380963     4.380963     4.380963    -2950.996   -1643.1457    13757.836   -20967.678      -806.01   -19591.344   -17764.428    84.083106 
   10700    974.20182   -104.81587   0.88147828   -103.93439    1144.0939    4.3937394    4.3937394    4.3937394    1144.0939   -9152.1954   -14571.064    27155.541    19326.057    8068.5239    2742.7875    84.820902 
   10800    1027.8297   -104.86045   0.93000188   -103.93045   -4527.2893    4.3990867    4.3990867    4.3990867   -4527.2893   -19029.207    11056.669   -5609.3304     3266.892   -20713.232   -4288.7208    85.130965 
   10900    995.23493   -104.82775   0.90050948   -103.92724    15833.989    4.3815074    4.3815074    4.3815074    15833.989    13998.655    13515.994    19987.317     8927.729   -276.18586   -16245.987     84.11446 
   11000     912.4573   -104.75598   0.82561054   -103.93037    16657.607    4.3827002    4.3827002    4.3827002    16657.607    12685.941    12039.668    25247.213    18007.687   -5152.1759    7559.8379    84.183173 
   11100    1243.8137   -105.04885    1.1254288   -103.92342   -15315.013    4.4037754    4.4037754    4.4037754   -15315.013   -11898.511    1663.1857   -35709.715   -4568.9433   -7700.0669   -18249.467    85.403461 
   11200    765.70584   -104.61591   0.69282673   -103.92309    10306.416     4.389423     4.389423     4.389423    10306.416    7646.1074   -5236.3098    28509.451    24224.376    10543.256    8328.1408    84.571166 
   11300    1317.5743   -105.11188    1.1921689   -103.91971   -3924.6364    4.3829439    4.3829439    4.3829439   -3924.6364   -2551.3004    11297.599   -20520.208   -1295.7368   -10720.157   -12215.271    84.197215 
   11400    894.81568   -104.74058   0.80964803   -103.93094    10587.964    4.3863454    4.3863454    4.3863454    10587.964    1989.3596   -5519.7388    35294.271    13832.736    5796.6501   -1604.1963    84.393401 
   11500    896.60392   -104.74651   0.81126607   -103.93524    -1485.429    4.3961582    4.3961582    4.3961582    -1485.429   -3652.5979   -9019.5808    8215.8918    3443.3564    -5060.359    1171.7509    84.961062 
   11600    1197.5942   -105.01089    1.0836084   -103.92728    5017.2198     4.392761     4.392761     4.392761    5017.2198    168.19448   -99.019439    14982.484    5373.9021   -2364.4657   -5060.2183    84.764249 
   11700    797.82728   -104.65629   0.72189089    -103.9344    5160.3445    4.3757565    4.3757565    4.3757565    5160.3445   -764.36969   -14483.566    30728.969    12036.286    10832.066    6215.7218    83.783681 
   11800    1333.4307   -105.14011    1.2065161   -103.93359    6122.5849    4.3891544    4.3891544    4.3891544    6122.5849    11838.343    6890.5598   -361.14842   -7903.9691    -8908.486     5315.449    84.555639 
   11900     751.5312   -104.61899   0.68000123   -103.93899    -3982.821    4.3977708    4.3977708    4.3977708    -3982.821   -16310.773   -16444.607    20806.917    23599.444    9651.3398    7279.6074    85.054591 
   12000    1217.3942    -105.0273    1.1015239   -103.92578    967.87339    4.3970253    4.3970253    4.3970253    967.87339   -5581.9787    9817.3024   -1331.7035   -11631.129   -140.57963    8246.8614    85.011347 
   12100    957.97327   -104.79281   0.86679435   -103.92602    21577.516     4.377331     4.377331     4.377331    21577.516    38266.692   -5975.6993    32441.556    18398.024   -8174.8978   -68.681394    83.874153 
   12200    848.80788   -104.70841   0.76801921   -103.94039    941.50998    4.3896928    4.3896928    4.3896928    941.50998   -15858.211    14339.062    4343.6795   -4305.1163    8777.9866    12134.178    84.586761 
   12300    1348.1945   -105.14285    1.2198747   -103.92297    -4473.278     4.398155     4.398155     4.398155    -4473.278    21347.535   -24722.153   -10045.217    7430.2449   -9797.4407   -8259.0804    85.076888 
   12400    623.48593   -104.49478   0.56414317   -103.93063    15279.603    4.3785806    4.3785806    4.3785806    15279.603    -6694.467    8826.9515    43706.323    9858.1881     9429.413    3143.5116    83.946005 
   12500    1450.0487   -105.23568    1.3120346   -103.92364   -3665.5062    4.3897353    4.3897353    4.3897353   -3665.5062    3641.1851    654.00127   -15291.705    323.90003    1251.9968   -1613.1305    84.589213 
   12600    679.65493   -104.54737   0.61496607    -103.9324    9387.8227    4.3905957    4.3905957    4.3905957    9387.8227    21883.731   -17604.925    23884.662    19123.555   -1316.1893   -13508.751    84.638962 
   12700    1282.3056   -105.08209    1.1602571   -103.92184   -4250.8194    4.3959096    4.3959096    4.3959096   -4250.8194   -6475.2524   -2231.8178   -4045.3881   -4458.4171    9532.6997    9453.6583    84.946647 
   12800    789.33475   -104.64523   0.71420667   -103.93102    786.60572    4.3827558    4.3827558    4.3827558    786.60572    27813.607   -20019.427   -5434.3623    16465.052   -8548.1516   -31112.759    84.186374 
   12900    1093.1736   -104.92038   0.98912647   -103.93125    21339.283    4.3810667    4.3810667    4.3810667    21339.283    14048.077    14105.435    35864.338    4398.3129    9791.4793    15975.779    84.089079 
   13000    1029.7488   -104.86335   0.93173833   -103.93161   -17839.943    4.4032071    4.4032071    4.4032071   -17839.943    7822.7782    -35582.16   -25760.447    3524.3238   -2544.4998   -28333.358    85.370404 
   13100    840.23603   -104.68995   0.76026322   -103.92969    10046.395    4.3871362    4.3871362    4.3871362    10046.395    8458.1031   -582.66798    22263.751    11304.293    7868.5878    842.96344    84.439052 
   13200    1378.6062   -105.17231    1.2473918   -103.92492     4120.657    4.3799104    4.3799104    4.3799104     4120.657    30864.273   -6886.7648   -11615.537   -1930.6023    11063.806   -15435.587    84.022514 
   13300    587.56524   -104.47508   0.53164137   -103.94344    8362.7696    4.3867154    4.3867154    4.3867154    8362.7696    23236.981    3052.7871   -1201.4597    10612.959   -4276.8243   -16760.513     84.41476 
   13400    1364.3097   -105.16244    1.2344561   -103.92799   -3473.5417       4.4009       4.4009       4.4009   -3473.5417    15662.358   -21920.865    -4162.118   -6845.2311    9572.7697    407.26047    85.236282 
   13500    728.06192   -104.59435   0.65876572   -103.93558   -8195.7132    4.3881784    4.3881784    4.3881784   -8195.7132    21320.617   -13400.149   -32507.608    13515.313   -7258.9668   -32116.575    84.499247 
   13600    1198.2806   -105.00696    1.0842295   -103.92273    26564.147    4.3721227    4.3721227    4.3721227    26564.147    27214.018    3297.5962    49180.828   -1607.3079   -975.21381    7977.6958    83.575123 
   13700    952.91452   -104.79637   0.86221708   -103.93416   -12062.906    4.3976395    4.3976395    4.3976395   -12062.906    21707.314    -20732.13   -37163.902    120.68091    369.16557   -31034.513    85.046979 
   13800    956.00553   -104.79425   0.86501389   -103.92923    1739.7295    4.3939697    4.3939697    4.3939697    1739.7295    19015.301   -14532.028     735.9162    11392.513    -5210.784    1232.5974    84.834241 
   13900    1128.4148   -104.94186    1.0210134   -103.92085    10995.502     4.383161     4.383161     4.383161    10995.502    28594.551   -8567.5757    12959.533   -11181.284    2425.0266    -20138.81    84.209728 
   14000    881.33492   -104.72599   0.79745035   -103.92854   -9202.4173    4.3876868    4.3876868    4.3876868   -9202.4173    17683.435    -16045.49   -29245.197    19791.032   -8469.4141   -16269.149    84.470848 
   14100    1097.6918   -104.91769   0.99321462   -103.92447    12610.645    4.3896476    4.3896476    4.3896476    12610.645    5589.7729    563.94767    31678.213   -3939.9254   -4619.4696    777.56295    84.584148 
   14200    952.25713   -104.79081   0.86162226   -103.92919   -14102.958    4.3929597    4.3929597    4.3929597   -14102.958    9020.4005   -23699.408   -27629.868    6364.4517   -431.08153   -31295.957    84.775756 
   14300    999.25909   -104.82833   0.90415063   -103.92418    17734.094    4.3855046    4.3855046    4.3855046    17734.094    11994.943    20781.546    20425.792    12390.992   -13465.939    11650.374    84.344876 
   14400    1086.3975   -104.91261   0.98299531   -103.92961   -10020.143    4.3889121    4.3889121    4.3889121   -10020.143    4123.5693   -20771.433   -13412.566   -5765.0154    3164.8854   -34862.583    84.541636 
   14500    988.89566   -104.82722   0.89477358   -103.93245     9810.771    4.3906457    4.3906457    4.3906457     9810.771    -6471.618    27550.411    8353.5197    13635.157   -11042.521    10667.168    84.641856 
   14600    978.46204   -104.82125   0.88533302   -103.93591    2442.4732    4.3862828    4.3862828    4.3862828    2442.4732    8990.0677   -8683.0663    7020.4183   -6209.3987   -5205.6722   -21170.175    84.389788 
   14700    1089.0046   -104.92313   0.98535424   -103.93778   -5491.7583    4.3906009    4.3906009    4.3906009   -5491.7583   -11262.618    380.78355   -5593.4407   -137.16691   -1912.1138   -11380.826    84.639266 
   14800    924.30563   -104.77316   0.83633115   -103.93683    13855.368    4.3853545    4.3853545    4.3853545    13855.368   -5247.9947    15946.872    30867.226    6889.7065   -13765.989    -4465.079     84.33622 
   14900    964.95695   -104.81081   0.87311333   -103.93769   -1402.2116    4.3927583    4.3927583    4.3927583   -1402.2116    15984.562   -7495.0169    -12696.18   -10029.274    4533.0217    -35368.39    84.764092 
   15000    1069.6942   -104.89819   0.96788178   -103.93031    8159.7279    4.3905152    4.3905152    4.3905152    8159.7279    -33943.16    35880.168    22542.176    12018.583   -9478.0006    9000.8216    84.634308 
   15100    924.35235   -104.77023   0.83637343   -103.93385    8341.7133    4.3844409    4.3844409    4.3844409    8341.7133    26330.446    5853.0167    -7158.323   -2525.5496    755.52436   -46368.912     84.28352 
   15200    1220.8696   -105.03143    1.1046685   -103.92676    7509.6586    4.3954475    4.3954475    4.3954475    7509.6586   -15414.915    48428.497   -10484.606    5427.5687   -606.48992    10362.535    84.919862 
   15300     885.9499   -104.73331   0.80162609   -103.93169   -9187.2658    4.3891925    4.3891925    4.3891925   -9187.2658   -14820.382   -5404.6722   -7336.7431     12658.94   -4700.0295   -36109.994    84.557843 
   15400    1186.2498   -105.00004    1.0733437   -103.92669    22397.768    4.3818924    4.3818924    4.3818924    22397.768     23216.68    42076.678    1899.9457   -1093.6276    342.98936   -4659.6532    84.136631 
   15500    839.34911   -104.69218   0.75946072   -103.93272   -5198.9633     4.394848     4.394848     4.394848   -5198.9633   -12655.458    9168.1293   -12109.561    16226.755   -5528.3478   -13182.291    84.885119 
   15600    987.58105   -104.82695   0.89358409   -103.93336   -11924.486    4.3925231    4.3925231    4.3925231   -11924.486   -9670.1432   -14376.566    -11726.75   -794.77355    1214.3432   -30854.756    84.750477 
   15700    1230.6221   -105.03995    1.1134927   -103.92645    20721.894    4.3804271    4.3804271    4.3804271    20721.894    1206.3697    45458.414    15500.898    6088.8081   -5772.0579    8348.7228    84.052253 
   15800    429.19984    -104.3401   0.38834904   -103.95175   -18238.037    4.3955532    4.3955532    4.3955532   -18238.037    2717.5971   -27775.617   -29656.089    4573.2974    629.44199   -44209.574    84.925992 
   15900    1742.3339   -105.50806    1.5765004   -103.93156   -6370.4634    4.3929832    4.3929832    4.3929832   -6370.4634   -22403.786     12754.82    -9462.424    -425.1125    694.84207    12284.118    84.777114 
   16000    485.68613   -104.39313   0.43945902   -103.95367   -16455.617    4.3889699    4.3889699    4.3889699   -16455.617   -3784.1079   -4019.6289   -41563.114    5024.9958   -6020.8553   -46989.079    84.544978 
   16100    1206.3921   -105.04032    1.0915689   -103.94875    12405.584    4.3817284    4.3817284    4.3817284    12405.584    8538.9201    34128.544   -5450.7119      4914.12    4587.8962   -9793.8297    84.127186 
   16200    1162.3438   -105.00296    1.0517131   -103.95124   -14585.896    4.3975183    4.3975183    4.3975183   -14585.896   -17139.404   -9247.3204   -17370.964   -5487.5376   -3580.8935    -15125.65    85.039946 
   16300    472.45265   -104.37951   0.42748509   -103.95203    7152.7421    4.3904341    4.3904341    4.3904341    7152.7421    -15140.97    46498.538   -9899.3417    9256.9801    1138.6257   -31217.893    84.629621 
   16400    1673.4162   -105.44769    1.5141421   -103.93354    5434.1637    4.3850107    4.3850107    4.3850107    5434.1637    2244.4836    2300.5368    11757.471    -4841.213   -835.15874    8097.2946    84.316381 
   16500    344.93442   -104.26967   0.31210391   -103.95757    10096.576     4.388527     4.388527     4.388527    10096.576    4975.7766    46141.756   -20827.804    4074.2807   -4022.5905   -45990.889    84.519386 
   16600    1433.3236   -105.24032    1.2969013   -103.94342   -7619.7705    4.3968511    4.3968511    4.3968511   -7619.7705   -27273.406    3579.2751    834.81895    12608.723   -2426.5526    8699.7585    85.001241 
   16700    1016.5024   -104.86667   0.91975277   -103.94692   -3599.4461    4.3831683    4.3831683    4.3831683   -3599.4461    9336.1942   -2061.9167   -18072.616   -8281.2025   -581.72206     -34928.4    84.210151 
   16800    694.90111   -104.57987   0.62876113   -103.95111   -196.92139    4.3864527    4.3864527    4.3864527   -196.92139   -20348.104    28044.375   -8287.0349    27291.634   -4928.7645   -7044.0492    84.399592 
   16900    1560.3366   -105.35139    1.4118253   -103.93957   -15772.294    4.3914459    4.3914459    4.3914459   -15772.294   -14884.091   -12249.296   -20183.494   -6129.0081    495.96524   -10830.536    84.688141 
   17000    617.07866   -104.50754   0.55834574   -103.94919   -17851.262    4.3940601    4.3940601    4.3940601   -17851.262   -12070.225   -10577.514   -30906.046    20589.473   -7181.1427   -26567.158    84.839476 
   17100    1173.1532   -104.99893    1.0614937   -103.93744     13087.49    4.3821623    4.3821623    4.3821623     13087.49   -18826.966     48691.02    9398.4154    7740.8775    4371.1961    6157.9782    84.152181 
   17200    1095.6018   -104.93261   0.99132355   -103.94129   -14471.632    4.3902886    4.3902886    4.3902886   -14471.632     8993.869    -17594.16   -34814.605    3232.1623   -7168.9351   -34397.553    84.621205 
   17300    742.87069   -104.61226   0.67216502    -103.9401    7117.4921    4.3925968    4.3925968    4.3925968    7117.4921   -30063.804    44319.515    7096.7648    23121.352    1157.3451    5223.3998    84.754746 
   17400    1292.6461   -105.10367    1.1696133   -103.93406   -4356.9733    4.3903033    4.3903033    4.3903033   -4356.9733   -134.08533    3662.3669   -16599.201   -6030.0374     2822.963   -18360.672    84.622056 
   17500    643.20576   -104.52659   0.58198609    -103.9446    21380.705    4.3808317    4.3808317    4.3808317    21380.705   -9860.5998    51125.128    22877.588    20474.842   -4689.5162    -4514.975    84.075549 
   17600    1229.9143   -105.05273    1.1128523   -103.93988   -5477.2751    4.3974249    4.3974249    4.3974249   -5477.2751   -19275.963    3064.5847   -220.44658    4751.2616    7133.1708    5284.6091    85.034526 
   17700     961.0379   -104.80918   0.86956729   -103.93962    -1189.229    4.3903536    4.3903536    4.3903536    -1189.229   -6208.1001    26913.156   -24272.743    6460.5457   -4152.2696   -10042.703    84.624963 
   17800    816.13368   -104.68438    0.7384549   -103.94592     3381.577    4.3826291    4.3826291    4.3826291     3381.577   -31406.759    20020.747    21530.742     39467.08    2842.7334    1596.3412    84.179075 
   17900    1255.7203   -105.07767    1.1362021   -103.94147    11466.993    4.3866077    4.3866077    4.3866077    11466.993   -727.08985    44872.992   -9744.9228   -10797.752   -1653.6157   -7198.9128     84.40854 
   18000    692.48123   -104.57373   0.62657157   -103.94716    -32139.08    4.4003315    4.4003315    4.4003315    -32139.08   -46851.549   -39361.068   -10204.623    53741.528   -2538.2995   -9391.3548    85.203256 
   18100    1272.0074   -105.07879     1.150939   -103.92785    20485.508    4.3842394    4.3842394    4.3842394    20485.508    4718.1807    45920.911    10817.432   -8792.8239    1015.5539    57.168845    84.271901 
   18200    832.34614    -104.6926   0.75312427   -103.93948   -13773.317      4.38185      4.38185      4.38185   -13773.317   -13275.595    -29507.71    1463.3533    44539.081   -7304.8343   -14376.374     84.13419 
   18300    965.23907    -104.8135   0.87336859   -103.94013    -2013.324    4.3954554    4.3954554    4.3954554    -2013.324   -13756.897    19229.515    -11512.59    8499.9902    9773.0689   -2367.6923    84.920323 
   18400    1081.0747   -104.91219   0.97817909   -103.93401   -12282.838     4.394845     4.394845     4.394845   -12282.838   -13647.974    -18938.23   -4262.3096     17809.73   -11335.667   -4441.1071    84.884947 
   18500    723.04699   -104.59186   0.65422811   -103.93764   -8311.1869    4.3839059    4.3839059    4.3839059   -8311.1869   -32219.378    9088.7706   -1802.9532    30143.304    9412.0894   -12534.796    84.252667 
   18600    1357.7703   -105.15822    1.2285391   -103.92968    12046.606    4.3843902    4.3843902    4.3843902    12046.606     4024.709    45337.226   -13222.117   -9025.1801    4185.6694    4299.6221    84.280595 
   18700    732.80688   -104.60956   0.66305906    -103.9465   -38017.181    4.4004901    4.4004901    4.4004901   -38017.181   -53970.119   -48271.011   -11810.412    44612.896   -6530.5541   -7962.4021     85.21247 
   18800     1138.144    -104.9652    1.0298166   -103.93538    18379.244    4.3893474    4.3893474    4.3893474    18379.244    5735.9071    65521.097   -16119.273   -12960.301    14041.955    252.21258    84.566796 
   18900    974.57788   -104.82218   0.88181854   -103.94036   -8201.0591    4.3789828    4.3789828    4.3789828   -8201.0591   -4507.6159   -29148.864    9053.3024    41349.621   -8421.2928    5872.0015    83.969143 
   19000    893.89508   -104.75217   0.80881506   -103.94335   -2115.7733    4.3961699    4.3961699    4.3961699   -2115.7733   -2407.5824      18149.1   -22088.837    6775.6856    3710.1383   -13048.016    84.961744 
   19100    1139.5551   -104.96342    1.0310934   -103.93233    4551.3541    4.3936299    4.3936299    4.3936299    4551.3541    10947.594   -667.32576    3373.7941    14971.215    2025.8532    12636.961    84.814563 
   19200    854.22289    -104.7045   0.77291883   -103.93158   -2307.7982    4.3820591    4.3820591    4.3820591   -2307.7982   -16735.248    8021.0151     1790.838    28418.654   -7069.1413   -19007.838    84.146237 
   19300    1290.2829   -105.09396    1.1674751   -103.92648    13061.106    4.3893254    4.3893254    4.3893254    13061.106    17169.668    35951.095   -13937.445   -3528.0886    1033.3141     2848.284    84.565522 
   19400    767.35319    -104.6279   0.69431729   -103.93358    2424.0793    4.3941097    4.3941097    4.3941097    2424.0793   -9670.8534    5405.6701    11537.421    37632.276   -3548.2686   -6820.6667    84.842349 
   19500    1131.8749   -104.95046    1.0241442   -103.92631    11256.039    4.3930411    4.3930411    4.3930411    11256.039     14183.18     31780.83   -12195.895   -14395.804   -4874.7718    -13171.38    84.780468 
   19600    1035.7094   -104.86831   0.93713167   -103.93118    13652.752    4.3786052    4.3786052    4.3786052    13652.752     13413.56    21422.954    6121.7411    23316.128   -33.321498    5400.6304    83.947423 
   19700    847.00503   -104.71359   0.76638795    -103.9472    2630.8177     4.391615     4.391615     4.391615    2630.8177    6074.5878    9184.0971   -7366.2317    3451.2095   -7175.7745   -19657.712    84.697926 
   19800    1250.0044    -105.0663    1.1310302   -103.93527   -2809.7313    4.3952832    4.3952832    4.3952832   -2809.7313   -11141.211    4685.3403   -1973.3238    2031.1834   -2406.5776    -1440.647    84.910344 
   19900     736.7183   -104.60265    0.6665982   -103.93605    1713.7365     4.387544     4.387544     4.387544    1713.7365    21539.947   -3469.5163   -12929.221    20491.416   -1444.8892   -5982.0937    84.462604 
   20000    1360.5668   -105.15502    1.2310694   -103.92396    692.00595    4.3890481    4.3890481    4.3890481    692.00595   -438.18752    17926.199   -15411.993   -12730.415   -9065.8228   -13920.706    84.549498 
   20100    776.78642   -104.63665   0.70285268   -103.93379   -2274.9428    4.3910221    4.3910221    4.3910221   -2274.9428    11894.831   -20990.477    2270.8171    31403.209   -1409.0746    9810.9274    84.663629 
   20200    1103.6134   -104.92875   0.99857257   -103.93017    4588.8144    4.3940994    4.3940994    4.3940994    4588.8144    31304.375    17333.649    -34871.58   -7282.4042   -8704.0965   -15276.989    84.841751 
   20300    1041.1218   -104.88069   0.94202889   -103.93866   -5305.2461    4.3834741    4.3834741    4.3834741   -5305.2461     8918.544   -16610.445    -8223.837    18308.386    1307.4516     10780.99    84.227774 
   20400    873.49435   -104.73909   0.79035605   -103.94873    4592.2728    4.3912734    4.3912734    4.3912734    4592.2728    47021.969   -18570.322   -14674.829    1874.7306   -4399.5787   -1373.5288    84.678163 
   20500    1169.6069   -104.99821    1.0582849   -103.93992   -4092.3806    4.4000339    4.4000339    4.4000339   -4092.3806   -15569.688    12333.115   -9040.5685    2869.5526    1706.7563   -539.08824    85.185966 
   20600    770.57402   -104.63827   0.69723156   -103.94104   -2932.7366    4.3843937    4.3843937    4.3843937   -2932.7366    31567.279   -36102.006   -4263.4824    8962.1335   -1100.6956    9595.4657    84.280797 
   20700    1375.8917   -105.17523    1.2449357    -103.9303    16656.526     4.389532     4.389532     4.389532    16656.526    13393.744    39441.753   -2865.9194    3019.7959    2362.0358   -5871.4087    84.577463 
   20800    590.05328    -104.4805   0.53389261    -103.9466   -8423.2598    4.3948754    4.3948754    4.3948754   -8423.2598   -28700.367   -12272.066    15702.653     8376.082    1834.4499    10239.442    84.886707 
   20900    1385.4574    -105.1864     1.253591   -103.93281    9994.4142    4.3924093    4.3924093    4.3924093    9994.4142    39858.706   -1873.7511    -8001.712     4831.025   -2775.8168   -9876.6903    84.743893 
   21000    804.04899   -104.66647   0.72752043   -103.93895   -2264.0279    4.3937775    4.3937775    4.3937775   -2264.0279   -24770.657    9024.1855    8954.3881    8759.1833    6793.5471     7662.941     84.82311 
   21100    947.88659   -104.79831    0.8576677   -103.94064    395.97453    4.3854939    4.3854939    4.3854939    395.97453    5047.3781   -23739.998    19880.544    6119.9227    2485.2761   -3735.4727     84.34426 
   21200    1325.6373   -105.12996    1.1994645    -103.9305    515.04608     4.398034     4.398034     4.398034    515.04608    8961.6477    7758.2641   -15174.774    1316.3998   -1684.3186    4207.2302    85.069866 
   21300    462.40653   -104.36442   0.41839515   -103.94602   -7184.7942    4.3907325    4.3907325    4.3907325   -7184.7942   -37209.618   -17475.411    33130.646    4549.1228    6654.7749     36.63494    84.646875 
   21400    1487.4877   -105.27854    1.3459101   -103.93263    6846.6388    4.3864273    4.3864273    4.3864273    6846.6388    18286.042    712.26017    1541.6147   -3918.3859   -10337.752     2265.236    84.398129 
   21500    749.62393   -104.62005   0.67827549   -103.94178   -14787.551    4.3996545    4.3996545    4.3996545   -14787.551   -34779.833   -8218.8332   -1363.9883    7405.9353    3391.2591    1331.8145    85.163937 
   21600    1050.4296   -104.88645   0.95045076     -103.936   -3126.5699    4.3896035    4.3896035    4.3896035   -3126.5699   -24734.625   -16651.275     32006.19    -8302.117   -9859.6473    3847.8205    84.581594 
   21700    1143.2467   -104.96816    1.0344337   -103.93372   -7570.0292     4.391356     4.391356     4.391356   -7570.0292   -9592.5368    10076.626   -23194.177    10181.968   -8288.6405   -2058.0322    84.682943 
   21800    731.82092   -104.60176   0.66216695   -103.93959   -5327.7135    4.3919448    4.3919448    4.3919448   -5327.7135   -31748.282   -27388.443    43153.585    2465.4416    2881.6133    11547.852    84.717013 
   21900    1158.1281   -104.98003    1.0478987   -103.93214   -3674.7704    4.3924098    4.3924098    4.3924098   -3674.7704   -11917.327    7991.6178   -7098.6015   -4435.7264   -13850.014   -5352.9299    84.743919 
   22000     941.7908    -104.7823   0.85215211   -103.93015   -17777.627    4.3971081    4.3971081    4.3971081   -17777.627   -23183.206   -35003.746      4854.07    17545.376     5360.609    1157.6874    85.016149 
   22100    1031.8813   -104.85848   0.93366786   -103.92481    5650.1292    4.3868714    4.3868714    4.3868714    5650.1292   -12918.306     9220.093    20648.601   -13038.507   -13828.902   -1958.0565    84.423762 
   22200    1020.0959   -104.85408   0.92300422   -103.93107   -11303.796    4.3915752    4.3915752    4.3915752   -11303.796   -1506.7838   -6530.6572   -25873.947    15939.497   -2972.1106   -3647.3546    84.695625 
   22300    1086.2749   -104.91259   0.98288432   -103.92971    -11083.44     4.402434     4.402434     4.402434    -11083.44    -30509.56   -21188.815    18448.054    -11638.74   -7810.4078     10143.57    85.325443 
   22400    809.27589    -104.6649   0.73224983   -103.93265    8081.5236    4.3867677    4.3867677    4.3867677    8081.5236    5225.8789    30556.657   -11537.965    5579.4393   -13539.654   -14913.865    84.417778 
   22500    1009.6753   -104.85293   0.91357546   -103.93936    9084.5909    4.3777858    4.3777858    4.3777858    9084.5909    3315.0541    56.491362    23882.227   -2934.5668    2707.2943    7894.0109    83.900302 
   22600    1235.8135   -105.05807      1.11819   -103.93988    -2388.167    4.4030184    4.4030184    4.4030184    -2388.167   -22584.221    21026.266   -5606.5458    1939.8577   -7672.7513   -25.819425    85.359432 
   22700    773.44408   -104.64814   0.69982846   -103.94832   -13169.447    4.3900348    4.3900348    4.3900348   -13169.447   -2018.3561   -5168.7785   -32321.205    10086.611     1031.844     -7864.69    84.606528 
   22800    1353.9194   -105.16109    1.2250547   -103.93604    22791.141    4.3829262    4.3829262    4.3829262    22791.141    3135.0553    35114.187    30124.182     205.4573    2998.6586    18075.934    84.196198 
   22900    760.41755   -104.63322   0.68804178   -103.94518   -5644.4428    4.3986544    4.3986544    4.3986544   -5644.4428   -24947.459    17864.899   -9850.7683    15175.311   -4685.1369   -20434.107    85.105873 
   23000     964.8929   -104.81637   0.87305538   -103.94331    4833.0277    4.3884587    4.3884587    4.3884587    4833.0277    -8949.718    18508.919    4939.8821   -707.75853    7197.5656    14076.071    84.515438 
   23100     1218.923   -105.03869    1.1029072   -103.93579    5315.1958    4.3937473    4.3937473    4.3937473    5315.1958   -25462.673    17096.098    24312.161    3751.3078   -1304.4028   -1728.1817    84.821361 
   23200    584.87142   -104.47371   0.52920395   -103.94451   -18522.153    4.3989588    4.3989588    4.3989588   -18522.153   -26646.919    8619.8655   -37539.404    2090.0694    1324.1922    2744.6489     85.12354 
   23300    1391.0589   -105.19067    1.2586593   -103.93201    14918.383    4.3797619    4.3797619    4.3797619    14918.383   -1702.8905    24171.146    22286.893   -6995.3652    7480.8439   -3146.9933    84.013972 
   23400    893.05719   -104.75703   0.80805691   -103.94897   -15733.682    4.3943947    4.3943947    4.3943947   -15733.682   -21179.238   -16458.052    -9563.757    13340.725   -4637.0682   -8449.8675    84.858859 
   23500    882.37196   -104.74133    0.7983887   -103.94295   -12765.721    4.3995077    4.3995077    4.3995077   -12765.721   -19239.626   -14682.492   -4375.0459    -4300.731    9443.9914    7507.4252    85.155409 
   23600    1095.4597   -104.92417   0.99119496   -103.93297    20138.112    4.3723363    4.3723363    4.3723363    20138.112    7691.4492    26744.428    25978.457    9794.6325   -1526.2546    -3074.566    83.587373 
   23700     917.9689   -104.77697   0.83059755   -103.94637   -16808.931    4.3958019    4.3958019    4.3958019   -16808.931   -5666.5476   -24253.195   -20507.051    4662.7646    4706.8455   -16809.561    84.940409 
   23800    1000.1384   -104.84252   0.90494626   -103.93758   -829.02895    4.3937143    4.3937143    4.3937143   -829.02895   -10832.232    13154.317   -4809.1721    418.85456    5298.7059    -583.5747    84.819448 
   23900    999.15126   -104.84276   0.90405306   -103.93871   -3169.0052     4.388842     4.388842     4.388842   -3169.0052   -3737.8117   -7080.6989    1311.4951    11238.707   -1536.6829   -7277.2851    84.537587 
   24000     1106.233   -104.93339    1.0009428   -103.93245    -524.4917    4.3959702    4.3959702    4.3959702    -524.4917    155.94444   -2795.5281    1066.1085   -5517.5604    11332.241   -9097.1764    84.950164 
   24100    714.65061   -104.58782   0.64663089   -103.94119   -3829.2237    4.3846199    4.3846199    4.3846199   -3829.2237   -19334.752   -7706.6721    15553.753    12856.141   -9176.2596     3258.581    84.293844 
   24200    1158.2754   -104.98993    1.0480319    -103.9419   -8276.8273    4.3972764    4.3972764    4.3972764   -8276.8273   -2927.0605   -22240.578    337.15686   -8009.7138    3625.2299   -17029.235    85.025909 
   24300    1038.3359   -104.87799   0.93950812   -103.93848    16639.728    4.3856629    4.3856629    4.3856629    16639.728    8171.2696    16260.172    25487.742    7557.4004   -6354.3643   -10923.358    84.354014 
   24400    665.39322   -104.55486   0.60206177    -103.9528   -15792.339    4.3917014    4.3917014    4.3917014   -15792.339   -24500.861   -16743.137   -6133.0204   -1558.5415   -2546.8962   -7651.4729    84.702927 
   24500    1325.9644   -105.13295    1.1997605   -103.93319    4654.7914    4.4002945    4.4002945    4.4002945    4654.7914    4195.4596    24813.363   -15044.448   -4193.8529    57.078924   -11966.751    85.201105 
   24600    900.53264   -104.75648   0.81482086   -103.94166    1969.4659    4.3801057    4.3801057    4.3801057    1969.4659   -10030.428   -20944.987    36883.812    11488.124   -8800.4719   -746.43073    84.033753 
   24700    925.69093   -104.78905   0.83758461   -103.95146   -15154.784    4.3911901    4.3911901    4.3911901   -15154.784   -21687.234   -9945.5383   -13831.578   -7648.3942    1434.1867   -9415.3666    84.673343 
   24800     1194.553   -105.02005    1.0808567    -103.9392    7512.6213    4.3965337    4.3965337    4.3965337    7512.6213      10938.4   -3489.8638    15089.328    9600.6263   -3657.7781   -2494.5126    84.982835 
   24900    750.30844   -104.62332   0.67889484   -103.94443   -14335.123    4.3922081    4.3922081    4.3922081   -14335.123    -38920.62   -19808.112    15723.363    -6575.581   -4179.4831   -8115.7188    84.732246 
   25000    988.19019   -104.83709   0.89413525   -103.94295   -6636.2282    4.3863202    4.3863202    4.3863202   -6636.2282   -2799.1594   -2155.1421   -14954.383   -2286.5961    8576.4594    225.74547    84.391943 
   25100    1088.9223   -104.92658   0.98527975    -103.9413     14890.39    4.3864639    4.3864639    4.3864639     14890.39    11933.357   0.31762558    32737.494   -4236.1441   -8503.7275   -1897.7666    84.400239 
   25200    774.67779   -104.64752   0.70094475   -103.94657   -40520.988    4.4034255    4.4034255    4.4034255   -40520.988   -49282.316   -33817.042   -38463.605   -6441.7742    5650.3326    789.97622    85.383106 
   25300    1080.5756   -104.91573   0.97772748     -103.938    10850.955    4.3803962    4.3803962    4.3803962    10850.955    30849.683   -6893.5602    8596.7418   -85.335682    9970.8057    20192.818    84.050479 
   25400    1171.7368   -105.00427    1.0602121   -103.94406   -3042.1353    4.3824361    4.3824361    4.3824361   -3042.1353   -13778.582   -11352.068    16004.244   -7583.3006   -2383.0235   -9363.6888    84.167953 
   25500    619.29102   -104.51093   0.56034753   -103.95058   -28472.539    4.4010061    4.4010061    4.4010061   -28472.539   -29383.406   -23324.476   -32709.734    225.91476    20810.912    11033.694     85.24245 
   25600    1491.7804   -105.28357    1.3497942   -103.93378    8762.9918    4.3897091    4.3897091    4.3897091    8762.9918    22772.174   -12304.297    15821.098   -2878.0414   -10068.968     2883.221    84.587701 
   25700    785.58165    -104.6604   0.71081079   -103.94959   -9380.8586    4.3839021    4.3839021    4.3839021   -9380.8586   -19385.522    11736.795    -20493.85   -3901.5787     5641.449    3084.9457    84.252449 
   25800    747.41835   -104.63214   0.67627983   -103.95586    18963.898    4.3822412    4.3822412    4.3822412    18963.898    51458.754   -6143.8496    11576.788     1555.206     8453.464    17681.965    84.156728 
   25900    1397.3864   -105.20487    1.2643845   -103.94048   -4543.0486    4.4045756    4.4045756    4.4045756   -4543.0486    -4353.044   -11925.607    2649.5047   -4399.8772   -6785.0448   -335.38204    85.450027 
   26000    563.34773   -104.46507   0.50972886   -103.95534    9202.8793    4.3783527    4.3783527    4.3783527    9202.8793    30182.374   -13189.322    10615.586    2652.4641    11937.991    17625.471    83.932901 
   26100    1119.1236   -104.97065    1.0126066   -103.95804    17179.789    4.3812193    4.3812193    4.3812193    17179.789    13655.395   -6228.7816    44112.752    6616.0734    -2932.124   -2014.5946    84.097865 
   26200    1491.4857   -105.29429    1.3495276   -103.94476   -8015.4362     4.397207     4.397207     4.397207   -8015.4362    17524.492   -25391.333   -16179.467    2671.9338     5969.647   -3525.6394    85.021884 
   26300    432.36133   -104.34403   0.39120962   -103.95282    2881.0261    4.3889662    4.3889662    4.3889662    2881.0261   -5787.9747   -28168.802    42599.855    10130.139    8579.0428    13071.971    84.544765 
   26400    1451.7036    -105.2533     1.313532   -103.93977   -5415.6418    4.3920499    4.3920499    4.3920499   -5415.6418    5531.2506   -15624.062   -6154.1142   -5010.2392   -3701.5349   -9864.8426    84.723093 
   26500    907.90937   -104.76818   0.82149548   -103.94669    13916.639    4.3788789    4.3788789    4.3788789    13916.639    14247.468    4465.4243    23037.023     10464.85     8729.849    13410.026    83.963165 
   26600    748.52753   -104.63681   0.67728344   -103.95952    -20091.14    4.3933939    4.3933939    4.3933939    -20091.14   -36648.142    -31221.31     7596.033    727.98419    4810.4142   -3270.9065    84.800895 
   26700    1338.9514   -105.15394    1.2115113   -103.94243    6509.8714    4.3906286    4.3906286    4.3906286    6509.8714    17731.348    4228.8804   -2430.6143    -56.60822   -7612.6468   -4429.1221    84.640865 
   26800    923.87602   -104.78111   0.83594244   -103.94517   -7269.4193    4.3886806    4.3886806    4.3886806   -7269.4193   -3161.3921   -27085.997    8439.1309    7731.9574    4037.2341     2743.308    84.528262 
   26900    836.63476   -104.70347   0.75700472   -103.94646   -10864.318     4.388228     4.388228     4.388228   -10864.318   -16139.914      4553.53    -21006.57    -6065.519   -13892.747   -16733.178    84.502107 
   27000    1405.4752   -105.21059    1.2717035   -103.93888    9089.9447    4.3872706    4.3872706    4.3872706    9089.9447    46271.842   -4847.6461   -14154.362   -1845.1858    1150.5308    3901.7967    84.446811 
   27100    796.65877   -104.66791    0.7208336   -103.94708   -5104.0972    4.3959175    4.3959175    4.3959175   -5104.0972   -6894.5958    6427.6798   -14845.376    611.53302   -4320.2921   -4887.3296    84.947108 
   27200    943.25244   -104.79564   0.85347463   -103.94217    810.30071    4.3910431    4.3910431    4.3910431    810.30071    13400.571     11641.16   -22610.829   -14200.187   -4492.6534   -806.49561    84.664843 
   27300    1362.1757   -105.16565    1.2325252   -103.93313    10921.529    4.3876661    4.3876661    4.3876661    10921.529    35940.293    -2306.582    -869.1228    10307.365    1799.4817    9096.1472    84.469652 
   27400    658.00254   -104.54339   0.59537452   -103.94801   -5751.2078    4.3893247    4.3893247    4.3893247   -5751.2078   -6848.3439   -8628.2376   -1777.0421   -9923.5818   -16272.328   -10314.352     84.56548 
   27500    1149.2691   -104.98236    1.0398828   -103.94247     2897.992    4.3904587    4.3904587    4.3904587     2897.992    34399.655    -8708.806   -16996.873   -4090.6193    3377.7707    7845.7261     84.63104 
   27600    1119.6583   -104.95311    1.0130904   -103.94002     -3929.18    4.3938419    4.3938419    4.3938419     -3929.18    12211.793     -7970.96   -16028.373   -1751.6064   -10722.322   -8484.3582    84.826837 
   27700    642.02573   -104.53027   0.58091837   -103.94935   -13946.045    4.3860202    4.3860202    4.3860202   -13946.045   -24513.149    10861.214   -28186.199   -12978.552   -2832.7149   -7971.8288    84.374632 
   27800    1274.8233   -105.09793    1.1534869   -103.94444    10613.671      4.38329      4.38329      4.38329    10613.671    26824.925    21679.829   -16663.741    9246.4357    9002.1173    9793.2662    84.217162 
   27900    937.64139   -104.79383   0.84839763   -103.94543   -13107.787    4.4026795    4.4026795    4.4026795   -13107.787   -14287.952    19428.614   -44464.023    -5144.103   -15275.442   -11720.418     85.33972 
   28000    894.25609   -104.74948    0.8091417   -103.94034    -7868.194    4.3880676    4.3880676    4.3880676    -7868.194   -10721.944    16974.329   -29856.967    3206.6149     12330.53    18721.165    84.492842 
   28100    1371.1316   -105.17402    1.2406287    -103.9334    9239.9062    4.3833149    4.3833149    4.3833149    9239.9062    29433.732    15015.628   -16729.642    8673.0728   -4855.9006   -570.12786    84.218601 
   28200     952.4949   -104.80723    0.8618374   -103.94539    154.28982    4.3863327    4.3863327    4.3863327    154.28982    1338.9345    20560.393   -21436.458   -10102.956   -1362.5647    3917.8235    84.392666 
   28300    762.07213   -104.63953   0.68953888   -103.94999   -3027.2887    4.4004665    4.4004665    4.4004665   -3027.2887    23218.582   -5932.4502   -26367.998    9339.0147    12024.228    12670.285    85.211096 
   28400    1550.7438   -105.33945    1.4031455    -103.9363    1637.4963    4.3873135    4.3873135    4.3873135    1637.4963    2851.4041    17791.819   -15730.734   -2410.6561   -4616.0602   -7555.0492     84.44929 
   28500    454.45482   -104.36148   0.41120027   -103.95028    20543.917    4.3774432    4.3774432    4.3774432    20543.917     32113.44    30088.644   -570.33177   -3883.4475    12598.477    15067.531    83.880607 
   28600    1182.3703   -105.01399    1.0698335   -103.94415   -17495.699    4.3998858    4.3998858    4.3998858   -17495.699   -4689.4965   -30787.921    -17009.68    11062.221    -3722.502    3804.3743    85.177369 
   28700     1032.139   -104.87534   0.93390107   -103.94144    29119.251     4.382787     4.382787     4.382787    29119.251    30765.546    55637.623    954.58342   -6772.5014    9403.7914    2762.8562    84.188176 
   28800    752.21852   -104.63262   0.68062312     -103.952   -17979.619    4.3885008    4.3885008    4.3885008   -17979.619   -16067.103    -18110.09   -19761.664    14404.199    2280.1475    22365.006    84.517868 
   28900     1131.483   -104.96077    1.0237896   -103.93698    21389.627    4.3920456    4.3920456    4.3920456    21389.627    20890.914     50982.07    -7704.105    5979.8097   -5053.1368   -8131.4296    84.722841 
   29000    1021.7152   -104.86633    0.9244694   -103.94186   -17300.445    4.3915018    4.3915018    4.3915018   -17300.445   -9488.3794   -25397.422   -17015.533    7985.4189    15090.058    17734.138    84.691379 
   29100    860.54606   -104.71915   0.77864016   -103.94051   -8639.9845    4.3922051    4.3922051    4.3922051   -8639.9845   -26530.172    14656.534   -14046.316    17716.155   -9039.7438    94.796831    84.732076 
   29200    1214.4026   -105.03252     1.098817    -103.9337    11623.843    4.3847753    4.3847753    4.3847753    11623.843    22347.712    22649.136   -10125.319    2437.0781    3793.1094   -2885.9615    84.302806 
   29300    765.92327   -104.64317   0.69302347   -103.95015   -20329.662    4.3907031    4.3907031    4.3907031   -20329.662   -34193.997   -20602.494   -6192.4942    22865.509   -2271.5139    13913.288    84.645176 
   29400    1092.5916   -104.93601   0.98859986   -103.94741   -5565.0382    4.3917842    4.3917842    4.3917842   -5565.0382   -22833.451    23230.671   -17092.334   -12071.255   -10637.729   -5154.0382    84.707716 
   29500     1233.752   -105.05856    1.1163247   -103.94223     6241.568    4.3814482    4.3814482    4.3814482     6241.568    15550.959    5113.5821   -1939.8368    9396.7694   -12.482486    12712.966    84.111048 
   29600    555.94752   -104.45846     0.503033   -103.95543   -9384.6099    4.3948936    4.3948936    4.3948936   -9384.6099   -50351.529     17659.86    4537.8395    9342.8945   -13614.457   -965.14721    84.887764 
   29700    1342.4761   -105.15666    1.2147006   -103.94196    15007.333    4.3850528    4.3850528    4.3850528    15007.333    11290.412    49652.315   -15920.729   -12389.073   -4213.8911   -1375.1748    84.318813 
   29800    924.21862   -104.78814   0.83625243   -103.95189   -9888.6551    4.3849251    4.3849251    4.3849251   -9888.6551   -22792.742   -17791.892    10918.669    30919.742   -8177.6529    7666.2707    84.311445 
   29900    935.97142   -104.79631   0.84688661   -103.94942     1430.991    4.3902837    4.3902837    4.3902837     1430.991   -13154.657    21589.763   -4142.1329   -3998.0062   -7819.7834    2398.9026    84.620924 
   30000    1087.4816   -104.92671   0.98397619   -103.94273    -1406.056    4.3938931    4.3938931    4.3938931    -1406.056   -1465.4011    5451.3565   -8204.1234    7955.6328    5059.5788    20240.714    84.829803 
   30100    827.16835   -104.68969   0.74843931   -103.94125   -10991.357    4.3902333    4.3902333    4.3902333   -10991.357   -33019.807    5631.3277   -5585.5912    20448.396   -14115.476    463.47992     84.61801 
   30200    1256.8688   -105.07032    1.1372413   -103.93307    14882.395    4.3765071    4.3765071    4.3765071    14882.395    19633.428    24092.416    921.34171   -14609.838    7385.4998    7605.8315    83.826805 
   30300     694.2385   -104.57596   0.62816158    -103.9478   -20910.035    4.3994032    4.3994032    4.3994032   -20910.035   -28412.455   -15964.974   -18352.676    23313.928   -9891.2726    5914.1642    85.149342 
   30400    1215.4975   -105.03802    1.0998077   -103.93821   -7688.2331    4.3907417    4.3907417    4.3907417   -7688.2331   -13208.829    17805.302   -27661.172    1743.0185   -5874.0273    -9076.413    84.647411 
   30500    937.27129   -104.78964   0.84806276   -103.94157    4524.1623    4.3835941    4.3835941    4.3835941    4524.1623    18608.714    9691.9181   -14728.145   -4266.9739    7771.4667    15630.533    84.234695 
   30600    988.63832   -104.84387   0.89454073   -103.94933   -6524.5736    4.3832234    4.3832234    4.3832234   -6524.5736   -22678.604    10521.622   -7416.7387    29611.803   -16904.661   -5564.5641    84.213324 
   30700    1110.2346   -104.94602    1.0045636   -103.94145   -5284.4036     4.402716     4.402716     4.402716   -5284.4036     6546.478     20086.97   -42486.659   -20431.743    12493.626    477.27715    85.341845 
   30800     996.7442   -104.84426    0.9018751   -103.94239   -16176.102     4.388296     4.388296     4.388296   -16176.102   -33270.112   -2210.6288   -13047.567    24344.789   -17445.891     5797.473     84.50604 
   30900    938.34192   -104.79079   0.84903149   -103.94176    24891.509    4.3707504    4.3707504    4.3707504    24891.509    11560.358    58594.766    4519.4022    7511.5104     749.1669   -15829.626    83.496451 
   31000    1153.1472   -104.99007    1.0433918   -103.94668    7041.6535    4.3954705    4.3954705    4.3954705    7041.6535   -11787.981    46189.901    -13276.96    1570.1581    2923.6385   -960.66705    84.921197 
   31100    855.53473    -104.7207    0.7741058    -103.9466   -24865.035    4.4047943    4.4047943    4.4047943   -24865.035   -57454.711   -8527.8093   -8612.5858    18493.286   -8188.2941    3572.8652    85.462759 
   31200    1014.5863   -104.85528   0.91801898   -103.93726    20828.411    4.3806588    4.3806588    4.3806588    20828.411    8385.2116    64462.651   -10362.629   -2557.3152    11913.321   -12243.932    84.065593 
   31300    1026.0649   -104.86918   0.92840512   -103.94078    2312.6482    4.3782402    4.3782402    4.3782402    2312.6482   -17050.962    7168.7904    16820.116    14201.113   -12831.075    6130.8982    83.926428 
   31400      754.204   -104.62236   0.68241963   -103.93994   -21740.872    4.4033312    4.4033312    4.4033312   -21740.872   -31390.721    3798.7677   -37630.661    4671.2828    12550.946   -16117.089     85.37762 
   31500    1245.6877   -105.05682    1.1271244   -103.92969   -4491.8113    4.3892153    4.3892153    4.3892153   -4491.8113   -2893.7347    11877.523   -22459.222    6503.6493   -15051.758   -6607.1507     84.55916 
   31600    867.99926   -104.72294   0.78538397   -103.93755    1578.1912    4.3836908    4.3836908    4.3836908    1578.1912   -13266.523    32913.448   -14912.351    5862.5063    7440.1226   -8934.0327     84.24027 
   31700    1029.1754   -104.87319   0.93121953   -103.94197   -2611.0329    4.3878559    4.3878559    4.3878559   -2611.0329   -1987.4833    33464.944    -39310.56      2379.57   -734.90326   -10824.535    84.480616 
   31800     1154.638   -104.98133    1.0447407   -103.93659   -16814.253    4.4009654    4.4009654    4.4009654   -16814.253   -36454.605    13508.367   -27496.522    13928.139   -5476.9264    6279.4096     85.24008 
   31900    906.50043   -104.75626   0.82022064   -103.93603    5935.3612    4.3789885    4.3789885    4.3789885    5935.3612    2883.5598    39606.836   -24684.312    1806.8927    17342.999   -21233.573    83.969472 
   32000     1071.953   -104.91073   0.96992561    -103.9408   -8704.2757    4.3860959    4.3860959    4.3860959   -8704.2757   -19265.471    283.20409   -7130.5602    10707.091   -8643.3393    18911.139    84.379002 
   32100    914.41628   -104.76899   0.82738306   -103.94161    12887.839    4.3910543    4.3910543    4.3910543    12887.839   -25589.335    80826.689   -16573.835   -3682.2019    16437.394   -4562.1685    84.665491 
   32200    867.83328   -104.72854   0.78523379   -103.94331   -15996.025    4.3983324    4.3983324    4.3983324   -15996.025   -7584.8058    -15080.06   -25323.209   -2380.4821   -2937.8399    3739.7757    85.087181 
   32300    1047.0016   -104.88207   0.94734906   -103.93472    8952.6398    4.3804282    4.3804282    4.3804282    8952.6398   -9064.2841    54698.879   -18776.675    2907.5911    16730.481    7601.9569     84.05232 
   32400     1135.089   -104.96708    1.0270524   -103.94003   -10920.079    4.3850186    4.3850186    4.3850186   -10920.079    2022.7919   -3431.5575   -31351.472   -1681.5519    2681.8493   -17817.708    84.316842 
   32500    705.76253   -104.57846   0.63858877   -103.93987     -10685.7    4.3966485    4.3966485    4.3966485     -10685.7    347.95136    16223.924   -48628.974    7191.8546    3417.8962    22878.264    84.989493 
   32600    1370.4227   -105.16936    1.2399873   -103.92938   -9853.3554    4.3896369    4.3896369    4.3896369   -9853.3554   -10986.631    8376.0279   -26949.463    1108.5022    14292.151   -6631.9737    84.583526 
   32700     634.6909    -104.5158   0.57428166   -103.94152    4371.5306    4.3816818    4.3816818    4.3816818    4371.5306    33713.689   -7251.0627   -13348.034    2029.9676   -8932.7123     16191.07      84.1245 
   32800    1013.3047   -104.86484   0.91685938   -103.94798    619.88341     4.383004     4.383004     4.383004    619.88341    1036.2044    20716.976    -19893.53   -2578.7061     24452.42    5296.9215    84.200678 
   32900     1167.324   -104.99402    1.0562193    -103.9378   -4077.6484    4.4004592    4.4004592    4.4004592   -4077.6484    7300.2282   -3227.2631    -16305.91    3432.0555   -10080.062   -99.652945    85.210672 
   33000    736.98641   -104.60638   0.66684079   -103.93954   -6100.7056    4.3799052    4.3799052    4.3799052   -6100.7056    22037.199   -4682.4264   -35656.889   -3017.2371    29304.591    17132.885    84.022217 
   33100    1264.1753   -105.08063    1.1438524   -103.93678    7864.4166     4.383855     4.383855     4.383855    7864.4166   -3965.5448    38034.604   -10475.809   -2177.6136    1354.6542   -3923.9464    84.249733 
   33200    1035.5053   -104.87652   0.93694692   -103.93958    2497.9534    4.3937561    4.3937561    4.3937561    2497.9534    32381.685   -15967.127   -8920.6979    3795.8049    9592.6191    16917.774    84.821867 
   33300    733.67939   -104.61086   0.66384853   -103.94701   -7517.6384    4.3870288    4.3870288    4.3870288   -7517.6384   -12810.686    18421.396   -28163.625   -4933.7281    12841.557   -2182.9042    84.432849 
   33400    1280.6117   -105.09437    1.1587243   -103.93565    9718.2559    4.3848723    4.3848723    4.3848723    9718.2559    22091.225    5146.7565     1916.786    3195.7558   -19289.357    6302.7453      84.3084 
   33500    900.02627   -104.75781   0.81436269   -103.94344   -8218.0178      4.38469      4.38469      4.38469   -8218.0178    7110.6127    231.11063   -31995.777    5666.5144    33904.338    8378.7804    84.297888 
   33600    1018.7939   -104.86661    0.9218261   -103.94479   -14521.275    4.3920589    4.3920589    4.3920589   -14521.275   -19354.817    10046.104   -34255.111   -5993.8867    -20141.43   -6730.2663    84.723611 
   33700      1074.72   -104.90716   0.97242922   -103.93473    3007.8181    4.3897721    4.3897721    4.3897721    3007.8181     17257.48   -7154.6973   -1079.3284    9972.0481    13529.944    17267.859    84.591341 
   33800    709.68688   -104.58236    0.6421396   -103.94022   -13064.493    4.3852624    4.3852624    4.3852624   -13064.493   -20564.862    3451.3758   -22079.993   -2014.4848   -2330.6325    561.97981    84.330903 
   33900    1173.1079   -105.00057    1.0614526   -103.93912    2930.5052    4.3832291    4.3832291    4.3832291    2930.5052    6032.4591    11495.643   -8736.5863    6722.4227    -17532.34     2153.996    84.213657 
   34000     952.6555   -104.80216   0.86198272   -103.94017   -16285.759    4.3959556    4.3959556    4.3959556   -16285.759   -10205.182   -13612.061   -25040.035    5532.7734    20860.729    20267.744    84.949317 
   34100    846.49397   -104.70667   0.76592553   -103.94074   -7740.0113    4.3811353    4.3811353    4.3811353   -7740.0113   -1652.5015    6747.7315   -28315.264   -6420.1561   -32674.242   -11328.002    84.093026 
   34200    1293.4701   -105.10474    1.1703589   -103.93438    12130.195    4.3817177    4.3817177    4.3817177    12130.195    23589.763    10660.663    2140.1597    10258.725    11984.492    5650.6776    84.126571 
   34300    673.42375   -104.55228   0.60932796   -103.94295   -9577.0825    4.3969924    4.3969924    4.3969924   -9577.0825     7119.328    -3741.793   -32108.783   -4425.9491   -22732.392    2646.2539    85.009437 
   34400    1104.2394    -104.9324   0.99913899   -103.93326   -2103.1546    4.3876051    4.3876051    4.3876051   -2103.1546    29180.876   -12483.179   -23007.161    4147.0478   -11177.801   -18251.302    84.466129 
   34500    1129.9481   -104.95424    1.0224008   -103.93183    12564.575    4.3807556    4.3807556    4.3807556    12564.575    27667.852    7996.8738    2028.9981    5560.2801   -2679.0124    8809.8613    84.071166 
   34600    779.37802   -104.65242   0.70519761   -103.94723   -6775.3336    4.3838094    4.3838094    4.3838094   -6775.3336    41955.509   -15329.737   -46951.772    777.11027   -22955.034   -14262.081    84.247108 
   34700    1372.3971   -105.18066    1.2417737   -103.93889    3321.8336    4.3932861    4.3932861    4.3932861    3321.8336    43641.969   -28530.048   -5146.4203    7624.0388    3015.6929   -324.57394    84.794649 
   34800    823.03518   -104.68654   0.74469953   -103.94185    5698.1492    4.3872444    4.3872444    4.3872444    5698.1492    29310.218    1365.8585   -13581.629      3561.87   -25095.424   -7740.7705      84.4453 
   34900    896.75769   -104.75354    0.8114052   -103.94214    1491.9871    4.3837782    4.3837782    4.3837782    1491.9871    49752.415   -22312.357   -22964.096     4394.102    1466.3764   -8626.2776    84.245308 
   35000      1341.38   -105.14911    1.2137088    -103.9354    18325.796    4.3827072    4.3827072    4.3827072    18325.796     39624.55   -4871.0435    20223.882    4839.5102   -3907.9085    4726.5819    84.183577 
[...]
   91200    1139.7972   -104.97554    1.0313124   -103.94422    14993.429    4.3744055    4.3744055    4.3744055    14993.429    18127.369    9031.5811    17821.337    2838.5763   -18403.083   -4429.3039    83.706103 
   91300     1032.069   -104.88186   0.93383773   -103.94803   -1300.9414    4.3912626    4.3912626    4.3912626   -1300.9414   -11507.171   -22610.691    30215.037   -11386.251     14007.37    7601.8463    84.677539 
   91400    724.39611   -104.60417   0.65544882   -103.94872   -12033.845    4.3943415    4.3943415    4.3943415   -12033.845    12274.671   -20061.244   -28314.962    329.05522      1231.71   -15684.175    84.855776 
   91500    1366.0061   -105.16967     1.235991   -103.93368    5682.0378    4.3753389    4.3753389    4.3753389    5682.0378   -10501.686   -2374.0513    29921.851   -11273.839   -13063.284    7150.3985    83.759695 
   91600     908.7687   -104.76696   0.82227302   -103.94469    8935.8986    4.3796212    4.3796212    4.3796212    8935.8986     29243.07   -8785.7634     6350.389   -7097.5833    18451.899   -13541.846    84.005873 
   91700    935.28411   -104.79625   0.84626472   -103.94999   -13346.688    4.3949288    4.3949288    4.3949288   -13346.688   -24493.036   -16979.796     1432.769    -2755.108   -8579.4203   -725.46977    84.889803 
   91800    1028.4369   -104.87927   0.93055132   -103.94872    11093.456    4.3826676    4.3826676    4.3826676    11093.456   -594.70939    518.33029    33356.747   -9994.0873   -9518.5388    8669.0366    84.181293 
   91900    1135.8886   -104.97247    1.0277759   -103.94469    7216.2794    4.3761861    4.3761861    4.3761861    7216.2794    16058.263   -1652.7506    7243.3257    46.696225    11397.148   -15213.496    83.808364 
   92000    716.91948   -104.59707   0.64868381   -103.94839    -12345.29    4.3959664    4.3959664    4.3959664    -12345.29   -22257.508   -10933.007   -3845.3557   -4533.9563   -26292.151    12023.333    84.949945 
   92100    1366.2606   -105.17171    1.2362213   -103.93549    14273.383    4.3829543    4.3829543    4.3829543    14273.383    11879.626   -19655.144    50595.666   -2823.9876     4353.257   -9656.5141    84.197815 
   92200    769.06944   -104.64458   0.69587019   -103.94871   -3362.0671    4.3796892    4.3796892    4.3796892   -3362.0671   -8240.9099   -2628.1442    782.85273   -209.64562   -20336.635   -7085.3946    84.009788 
   92300    780.30381     -104.664   0.70603529   -103.95797   -11415.716     4.383365     4.383365     4.383365   -11415.716   -8704.1195   -19419.381   -6123.6481   -10940.773   -16014.668    19197.127    84.221488 
   92400    1605.1333    -105.3995    1.4523584   -103.94714     3215.284    4.3893577    4.3893577    4.3893577     3215.284   -1580.9887   -7453.9921    18680.833    938.30316   -2654.3418   -12709.317    84.567389 
   92500    416.08688   -104.34179   0.37648415    -103.9653   -18236.898    4.3881097    4.3881097    4.3881097   -18236.898    -25840.02   -18639.085   -10231.588   -9180.2754   -22776.904    17693.808    84.495279 
   92600    1059.7975   -104.91416   0.95892708   -103.95524    19618.042    4.3755162    4.3755162    4.3755162    19618.042    23145.732   -2189.8481    37898.241   -10086.684    1753.5105    1656.5343     83.76988 
   92700    1380.1725   -105.19866     1.248809   -103.94985   -6716.6619    4.3925223    4.3925223    4.3925223   -6716.6619   -19870.996   -2810.8661    2531.8767   -1978.6002   -10537.125    3087.6906    84.750432 
   92800    538.33894   -104.44196   0.48710038   -103.95486   -11801.637    4.3889741    4.3889741    4.3889741   -11801.637    2389.9904   -20357.035   -17437.865   -19027.169   -3938.7063    19869.343     84.54522 
   92900    1233.5343   -105.05222    1.1161278    -103.9361    19649.094    4.3868103    4.3868103    4.3868103    19649.094    -6162.914    17817.038    47293.156   -1868.0637    13203.922   -555.62357    84.420237 
   93000    963.64034   -104.81438   0.87192203   -103.94246   -2258.1092     4.385925     4.385925     4.385925   -2258.1092   -23299.595   -15300.719    31825.986    -17925.39   -7370.1274    21005.744    84.369138 
   93100    669.43086   -104.55276   0.60571511   -103.94704   -421.87252    4.3862928    4.3862928    4.3862928   -421.87252   -2952.1868   -4950.8882    6637.4574    -4771.675    11281.556    6051.8263    84.390362 
   93200    1377.5099   -105.18404    1.2463999   -103.93764   -9788.7779    4.3909311    4.3909311    4.3909311   -9788.7779   -18590.333   -16851.477    6075.4763   -5416.2275    6538.0596   -7262.0317    84.658361 
   93300    884.11477    -104.7447   0.79996562   -103.94474    1282.6418    4.3827689    4.3827689    4.3827689    1282.6418   -6260.1788   -17041.932    27150.036    -12671.34   -760.85073    11828.783    84.187131 
   93400    784.96095   -104.66189   0.71024916   -103.95165   -10497.213    4.3843279    4.3843279    4.3843279   -10497.213   -12363.758   -10440.563   -8687.3167    5669.3213    8971.0358   -16287.598    84.277005 
   93500    1245.8827   -105.07601    1.1273008   -103.94871       7954.7    4.3867281    4.3867281    4.3867281       7954.7   -12859.008   -7702.1692    44425.277   -13719.552    2287.1844     839.2366    84.415488 
   93600    1033.3993   -104.88845   0.93504143   -103.95341   -4447.8868    4.3858835    4.3858835    4.3858835   -4447.8868   -14739.588   -10192.517    11588.445    4387.1432    4099.3049   -19492.214    84.366743 
   93700     550.6235   -104.45409   0.49821572   -103.95587    15549.432    4.3863684    4.3863684    4.3863684    15549.432    -20663.68   -3670.8394    70982.816   -10939.055    2174.0179   -22058.561    84.394728 
   93800    1516.1368   -105.30862    1.3718324   -103.93679   -10821.141    4.3948837    4.3948837    4.3948837   -10821.141   -31996.401   -20390.678    19923.655   -7109.8733   -10133.197    -8794.744     84.88719 
   93900    722.15907    -104.5999    0.6534247   -103.94648   -3625.8277    4.3818665    4.3818665    4.3818665   -3625.8277   -15356.032    7115.9703   -2637.4214   -2253.3475    8843.1954   -18085.372    84.135142 
   94000    1098.4672   -104.94179   0.99391621   -103.94787   -5427.1809    4.3847272    4.3847272    4.3847272   -5427.1809   -23864.878   -27069.622    34652.957   -18658.458   -15198.835    5278.3014    84.300034 
   94100    1295.2077   -105.11196    1.1719311   -103.94003    2108.5045     4.391646     4.391646     4.391646    2108.5045   -15097.691   -4190.2639    25613.468     4416.001    9255.1412   -278.19429    84.699721 
   94200    531.77959   -104.42976   0.48116535    -103.9486    -962.2391    4.3868178    4.3868178    4.3868178    -962.2391   -9011.0517   -28057.592    34181.926   -21306.921    8075.2962    -11196.41    84.420668 
   94300    1406.7145   -105.21256    1.2728248   -103.93974   -4406.3329    4.3875761    4.3875761    4.3875761   -4406.3329   -4636.2497   -18467.526    9884.7771    3185.3771   -2498.7007     23582.48    84.464453 
   94400    1024.8873   -104.87228   0.92733956   -103.94494    7340.7611    4.3870482    4.3870482    4.3870482    7340.7611   -2654.3983   -19770.868     44447.55   -14008.506    4646.7295     -14877.2    84.433973 
   94500    639.75529   -104.52966   0.57886403    -103.9508   -11781.479    4.3957966    4.3957966    4.3957966   -11781.479   -6801.8361   -43309.631    14767.029   -4246.2552   -4291.2656    32633.745    84.940102 
   94600    1290.9072   -105.10107      1.16804   -103.93303    8691.7756    4.3829437    4.3829437    4.3829437    8691.7756    10234.511   -11346.025    27186.841   -3836.6559   -5654.5882   -1339.4388    84.197207 
   94700    722.01024   -104.59543   0.65329004   -103.94214     1800.293    4.3824421    4.3824421    4.3824421     1800.293     5305.284   -24267.362    24362.957   -14323.656    2193.9419    7143.2233    84.168298 
   94800    1008.2218   -104.85516   0.91226029    -103.9429   -10767.361     4.391552     4.391552     4.391552   -10767.361    13124.458   -28334.261    -17092.28    4538.6253   -7651.0812    17515.151    84.694282 
   94900    1013.1185   -104.85649   0.91669095    -103.9398    19172.471    4.3866143    4.3866143    4.3866143    19172.471    -6683.039   -9174.6086    73375.061   -19459.383    12780.653   -11463.812     84.40892 
   95000    782.54571   -104.65683    0.7080638   -103.94876   -2915.8529    4.3868039    4.3868039    4.3868039   -2915.8529    9846.2547   -22758.521    4164.7072    3192.4225   -11676.399     27018.84    84.419866 
   95100     1170.394    -104.9999    1.0589971    -103.9409   -2602.4792    4.3839802    4.3839802    4.3839802   -2602.4792   -18015.966   -6773.3305    16981.858   -22855.028    7579.7478    -4250.753    84.256955 
   95200    1044.0917   -104.88325   0.94471612   -103.93853    9330.3266    4.3842406    4.3842406    4.3842406    9330.3266   -626.95203     5664.865    22953.067   -4979.2473   -3457.0812    20910.176     84.27197 
   95300     872.3921   -104.72828    0.7893587   -103.93892   -10786.935    4.3917333    4.3917333    4.3917333   -10786.935   -39895.582   -12913.712    20448.488    -11447.62    969.70358    7684.7902    84.704771 
   95400    1213.3087   -105.03028    1.0978272   -103.93245   -916.42617    4.3838383    4.3838383    4.3838383   -916.42617   -23621.962    11229.528    9643.1551   -14291.572    17800.355    1297.3802    84.248771 
   95500    982.16175   -104.82462   0.88868059   -103.93594    8631.2035    4.3852008    4.3852008    4.3852008    8631.2035   -10971.781   -11113.444    47978.836    7626.8007   -7624.2825    27442.999    84.327349 
   95600    1077.8129   -104.91565   0.97522778   -103.94042   -7752.9006    4.3866693    4.3866693    4.3866693   -7752.9006   -36605.483    3745.8194    9600.9617   -16936.111    8298.7497   -11508.937    84.412096 
   95700    984.99291   -104.82997   0.89124228   -103.93873      15190.1    4.3902396    4.3902396    4.3902396      15190.1    7742.6643   -13482.312    51309.947    8852.1335   -3602.3765    21229.906    84.618373 
   95800    1077.8379   -104.91327   0.97525039   -103.93802   -7415.9499    4.3900195    4.3900195    4.3900195   -7415.9499   -5173.7618   -11473.813   -5600.2744   -6982.0696   -3234.0653   -7581.2084    84.605645 
   95900    731.22334   -104.59907   0.66162625   -103.93744    30018.682    4.3775762    4.3775762    4.3775762    30018.682    25015.993    9622.6515      55417.4   -8530.2776    9301.1855    1220.5608     83.88825 
   96000    1211.5653   -105.03017    1.0962497   -103.93392   -15001.914     4.399031     4.399031     4.399031   -15001.914   -3516.1179   -28720.361   -12769.263    9630.2816    -2721.328    9932.1959    85.127732 
   96100    884.36939   -104.73378   0.80019601   -103.93358    15826.147    4.3852631    4.3852631    4.3852631    15826.147   -8581.7553    20112.219    35947.977   -14794.474    3561.6083   -12955.897    84.330945 
   96200    962.02793   -104.80749   0.87046309   -103.93702    -8112.876    4.3821788    4.3821788    4.3821788    -8112.876   -18232.508   -22786.238    16680.118    20431.968   -323.38728    16223.754     84.15313 
   96300    1210.1163   -105.03052    1.0949387   -103.93559    2130.4789    4.3863646    4.3863646    4.3863646    2130.4789   -26137.194    12262.977    20265.654    14095.648    -3012.849   -6617.5778    84.394511 
   96400    910.16903   -104.76661   0.82354007   -103.94307     2049.739    4.3877852    4.3877852    4.3877852     2049.739    -14825.39   -6870.0136    27844.621    2149.0938     3026.969    4350.8282    84.476534 
   96500    807.32197   -104.67689   0.73048188   -103.94641   -17075.485    4.3959716    4.3959716    4.3959716   -17075.485   -19218.186   -19930.312   -12077.956    32292.016     1326.344    15435.542    84.950243 
   96600    1313.3785    -105.1207    1.1883725   -103.93232    37110.538    4.3734375    4.3734375    4.3734375    37110.538    34965.373    39015.136    37351.106   -14110.641    58.894961   -5922.7576    83.650543 
   96700     520.7817   -104.42764   0.47121422   -103.95643   -28462.045    4.3930374    4.3930374    4.3930374   -28462.045   -38058.201   -53018.314    5690.3794    43518.592   -2161.3066    16912.842    84.780249 
   96800    1400.1986   -105.20289    1.2669291   -103.93596   -2343.6613    4.3886858    4.3886858    4.3886858   -2343.6613   -8530.2516     7821.516   -6322.2483    3941.7899   -294.81996    2350.3293    84.528557 
   96900    932.27703   -104.78338   0.84354385   -103.93983    5784.2475    4.3798901    4.3798901    4.3798901    5784.2475   -15663.101    2941.8634     30073.98    20241.423    589.28259    7744.3983    84.021345 
   97000    804.33531   -104.67097   0.72777949   -103.94319   -17606.529     4.394475     4.394475     4.394475   -17606.529    -26686.34   -16670.963   -9462.2844     8917.884   -3238.0548     14840.29    84.863512 
   97100    1357.9714   -105.15762    1.2287211    -103.9289    654.95009     4.389379     4.389379     4.389379    654.95009    7327.6622   -6573.1342    1210.3223   -8076.1306    5747.5347   -10458.895    84.568622 
   97200    603.35577   -104.48314   0.54592898   -103.93721    -6732.591    4.3891448    4.3891448    4.3891448    -6732.591   -22813.503     -21827.2     24442.93    27102.569   -1945.7302    18483.299    84.555084 
   97300    1284.2543   -105.09164    1.1620203   -103.92962   -1714.3994    4.3795182    4.3795182    4.3795182   -1714.3994    13283.675   -10263.405   -8163.4684   -17977.315    3547.4985   -13095.618    83.999948 
   97400    774.80016   -104.64125   0.70105547    -103.9402    5778.9389    4.3893599    4.3893599    4.3893599    5778.9389   -7558.0318     5821.682    19073.167    21930.756    9457.3383   -3795.9301    84.567518 
   97500    933.16812   -104.78031   0.84435013   -103.93596   -9147.4553    4.3895637    4.3895637    4.3895637   -9147.4553   -8967.4304   -7934.9598   -10539.976   -5679.2404     2386.648    6809.1111    84.579298 
   97600    1110.1635     -104.937    1.0044992    -103.9325   -4139.6819    4.3885934    4.3885934    4.3885934   -4139.6819   -408.09689   -4763.1657    -7247.783   -5006.5319     2100.495   -14502.623    84.523219 
   97700     997.1971   -104.83275    0.9022849   -103.93047   -3703.3673    4.3887344    4.3887344    4.3887344   -3703.3673     -11048.2    6112.6667    -6174.569    4511.8702    4062.8931    17345.821     84.53137 
   97800    906.71493   -104.75606   0.82041473   -103.93565   -4311.1865    4.3767298    4.3767298    4.3767298   -4311.1865   -8515.0072    1026.9427   -5445.4949   -19209.423   -728.84998   -10012.591    83.839599 
   97900    1240.4438   -105.05627    1.1223796    -103.9339    -5718.476    4.3949978    4.3949978    4.3949978    -5718.476    -18768.21    10775.565   -9162.7826    13082.079    4270.9347   -4522.5462    84.893803 
   98000    741.69357   -104.60991   0.67109992   -103.93881   -3299.2009    4.3861158    4.3861158    4.3861158   -3299.2009   -6305.8216    -12539.61    8947.8289   -15254.306    594.92973    10920.301     84.38015 
   98100    1187.6475   -105.01149    1.0746084   -103.93688   -5290.9829    4.3832408    4.3832408    4.3832408   -5290.9829   -6172.9217    5118.3879   -14818.415   -3151.3986    4153.7902   -20062.914    84.214328 
   98200    1116.0598   -104.94288    1.0098343   -103.93305    10764.062    4.3888012    4.3888012    4.3888012    10764.062   -6471.0182    26624.669    12138.535    -100.7402    693.43039    10865.683    84.535229 
   98300    561.69607   -104.45358   0.50823441   -103.94534   -3851.8805    4.3920229    4.3920229    4.3920229   -3851.8805      5297.35   -2620.3643   -14232.627   -24456.166    636.01616   -19544.246    84.721531 
   98400    1465.7729   -105.25066    1.3262622   -103.92439    5173.0389    4.3911481    4.3911481    4.3911481    5173.0389    -4762.789    13179.966    7101.9402    13902.734   -1960.0185    4034.5896    84.670915 
   98500    575.17014   -104.45394   0.52042603   -103.93352    20860.626     4.379441     4.379441     4.379441    20860.626     21157.28    29523.832    11900.767   -21071.838   -6089.2165   -17152.686    83.995504 
   98600    1158.8965   -104.97951    1.0485939   -103.93091   -11450.521    4.3965554    4.3965554    4.3965554   -11450.521   -8627.0678    -9710.156   -16014.338    12966.702   -260.42571   -2950.6889    84.984093 
   98700    1042.4857    -104.8729   0.94326301   -103.92964    8745.0739    4.3835175    4.3835175    4.3835175    8745.0739    9443.2835    18612.341   -1820.4026    4381.1878     -86.1621   -7938.8065    84.230277 
   98800    870.89529   -104.72695   0.78800436   -103.93894    2238.1556     4.382521     4.382521     4.382521    2238.1556    7709.5529   -4113.6629    3118.5768   -12100.493   -883.00944   -9369.3865    84.172845 
   98900    1132.7854   -104.95525     1.024968   -103.93028   -5142.8496    4.3934348    4.3934348    4.3934348   -5142.8496   -1662.2888   -9648.7045   -4117.5555    30823.078    4605.8351    7504.4798    84.803259 
   99000    1163.5466   -104.98214    1.0528014   -103.92934   -6633.6687    4.3888971    4.3888971    4.3888971   -6633.6687   -7467.0303   -805.07183   -11628.904   -15297.168    -2355.873   -16979.924     84.54077 
   99100     672.7443   -104.54474   0.60871318   -103.93603    5502.8492    4.3872856    4.3872856    4.3872856    5502.8492   -4013.4315   -12460.978    32982.957    23396.081   -2541.8106    4326.4257    84.447677 
   99200    1296.8251   -105.10453    1.1733946   -103.93114    5843.5538    4.3866466    4.3866466    4.3866466    5843.5538    23529.647    5115.5333   -11114.519    2829.9221   -5367.8713   -9033.6481    84.410784 
   99300    720.20807   -104.58851    0.6516594   -103.93685   -10270.921    4.3914063    4.3914063    4.3914063   -10270.921   -14013.694   -25720.916    8921.8484    5618.9771   -2906.6818   -1698.0408    84.685855 
   99400    947.50024   -104.79155   0.85731813   -103.93423    9426.7072    4.3816489    4.3816489    4.3816489    9426.7072      10186.3   -6099.2093    24193.031    28146.998   -3859.3287    2569.5121    84.122607 
   99500    1335.6355   -105.13719     1.208511   -103.92867   -2182.6901    4.3938868    4.3938868    4.3938868   -2182.6901   -15286.781    14386.342   -5647.6315    548.61298   -82.321743   -3229.5053     84.82944 
   99600    522.83735   -104.41559   0.47307422   -103.94252   -12072.389    4.3873751    4.3873751    4.3873751   -12072.389   -30937.331   -18699.161    13419.324    37649.894    3047.5371    8962.8225     84.45285 
   99700    1606.0273   -105.38386    1.4531673   -103.93069    4254.4316    4.3853925    4.3853925    4.3853925    4254.4316    2562.3624     18275.12   -8074.1871   -16977.211    793.30415    7088.1051    84.338412 
   99800    742.43182   -104.61912   0.67176791   -103.94735    4908.8148    4.3856017    4.3856017    4.3856017    4908.8148   -25352.838    21063.049    19016.234    48282.251    4954.8624   -4464.9082    84.350482 
   99900    974.59281   -104.82758   0.88183206   -103.94574   -11486.283    4.3963357    4.3963357    4.3963357   -11486.283    5612.9688   -14940.485   -25131.333   -14916.189   -3051.2971    15877.182    84.971353 
  100000    1104.7896   -104.93409   0.99963687   -103.93446    1600.2932    4.3883304    4.3883304    4.3883304    1600.2932   -12488.331    27805.624   -10516.414      27345.9   -1213.3421   -2529.0016    84.508023 
Loop time of 22.0429 on 1 procs for 100000 steps with 8 atoms

Pair  time (%) = 6.71553 (30.4658)
Kspce time (%) = 5.44368 (24.6958)
Neigh time (%) = 0 (0)
Comm  time (%) = 1.10648 (5.01967)
Outpt time (%) = 0.0260928 (0.118373)
Other time (%) = 8.75111 (39.7004)

Nlocal:    8 ave 8 max 8 min
Histogram: 1 0 0 0 0 0 0 0 0 0
Nghost:    2189 ave 2189 max 2189 min
Histogram: 1 0 0 0 0 0 0 0 0 0
Neighs:    2056 ave 2056 max 2056 min
Histogram: 1 0 0 0 0 0 0 0 0 0

Total # of neighbors = 2056
Ave neighs/atom = 257
Neighbor list builds = 0
Dangerous builds = 0
seeds:4664526
