# ['Ni']

18 atoms
1 atom types

    0.0000     2.3311 xlo xhi
    0.0000     4.0376 ylo yhi
    0.0000    34.2545 zlo zhi

    0.0000     0.0000    -0.0004 xy xz yz

Atoms

1 1     0.0000     0.0000     0.0000
2 1     1.1655     0.6729     1.9030
3 1     0.0000     1.3459     3.8060
4 1     1.1655     2.0188     0.0000
5 1     0.0000     2.6917     1.9030
6 1     1.1655     3.3647     3.8060
7 1     0.0000     0.0000     5.7091
8 1     1.1655     0.6729     7.6121
9 1     0.0000     1.3459     9.5151
10 1     1.1655     2.0188     5.7091
11 1     0.0000     2.6917     7.6121
12 1     1.1655     3.3647     9.5151
13 1     0.0000     0.0000    11.4181
14 1     1.1655     0.6729    13.3212
15 1     0.0000     1.3459    15.2242
16 1     1.1655     2.0188    11.4181
17 1     0.0000     2.6917    13.3212
18 1     1.1655     3.3647    15.2242
