LAMMPS (10 Feb 2015)
Reading data file ...
  triclinic box = (0 0 0) to (4.2565 4.2565 4.2565) with tilt (0 0 0)
  1 by 1 by 1 MPI processor grid
  reading atoms ...
  8 atoms
4 atoms in group Mg
4 atoms in group O
Setting atom values ...
  4 settings made for charge
Setting atom values ...
  4 settings made for charge
PPPM initialization ...
  G vector (1/distance) = 0.35265
  grid = 8 8 8
  stencil order = 5
  estimated absolute RMS force accuracy = 3.8734e-05
  estimated relative force accuracy = 2.68993e-06
  using double precision FFTs
  3d grid and FFT values/proc = 3375 512
Neighbor list info ...
  1 neighbor list requests
  update every 1 steps, delay 0 steps, check yes
  master list distance cutoff = 11
Setting up minimization ...
Memory usage per processor = 4.06549 Mbytes
Step PotEng Lx Ly Lz Xy Xz Yz Press Pxx Pyy Pzz Pxy Pxz Pyz eatoms 
       0   -107.83625       4.2565       4.2565       4.2565            0            0            0    103722.55    103722.55    103722.55    103722.55 -7.9651797e-11 -6.6040977e-11 3.4954802e-10   -107.83625 
      10   -107.94585     4.299065     4.299065     4.299065            0            0            0    48505.206    48505.206    48505.206    48505.206 -1.814552e-10 -8.0829294e-11 -4.0355362e-11   -107.94585 
      20   -107.98099     4.341612     4.341612     4.341612            0            0            0  -0.16598057  -0.16598057  -0.16598058  -0.16598057 -1.539671e-10 -9.8603927e-12 -7.0562295e-11   -107.98099 
      24     -107.981    4.3416118    4.3416118    4.3416118            0            0            0 -0.022137581 -0.022137581 -0.022137581 -0.022137581 -7.2866315e-11 -1.1353573e-10 -3.1341588e-11     -107.981 
Loop time of 0.0126491 on 1 procs for 24 steps with 8 atoms

Minimization stats:
  Stopping criterion = linesearch alpha is zero
  Energy initial, next-to-last, final = 
        -107.836253395     -107.981002151     -107.981002151
  Force two-norm initial, final = 14.9776 3.56003e-06
  Force max component initial, final = 14.9776 3.3258e-06
  Final line search alpha, max atom move = 0.5 1.6629e-06
  Iterations, force evaluations = 24 36

Pair  time (%) = 0.00339556 (26.8443)
Kspce time (%) = 0.00213361 (16.8677)
Neigh time (%) = 0 (0)
Comm  time (%) = 0.000380516 (3.00826)
Outpt time (%) = 3.40939e-05 (0.269537)
Other time (%) = 0.00670528 (53.0101)

Nlocal:    8 ave 8 max 8 min
Histogram: 1 0 0 0 0 0 0 0 0 0
Nghost:    2189 ave 2189 max 2189 min
Histogram: 1 0 0 0 0 0 0 0 0 0
Neighs:    2344 ave 2344 max 2344 min
Histogram: 1 0 0 0 0 0 0 0 0 0

Total # of neighbors = 2344
Ave neighs/atom = 293
Neighbor list builds = 0
Dangerous builds = 0
pypospack:output_section:begin
tot_energy = -107.981002151143
num_atoms = 8
xx = 4.34161184326772
yy = 4.34161184326772
zz = 4.34161184326772
xy = 0
xz = 0
yz = 0
tot_press = -0.0221375810241508
pxx = -0.0221375810918532
pyy = -0.0221375807194137
pzz = -0.0221375812611855
pxy = -7.28663154154814e-11
pxz = -1.13535727889352e-10
pyz = -3.13415884666446e-11
pypospack:output_section:done
pypospack:lammps_sim:done
PPPM initialization ...
  G vector (1/distance) = 0.3518
  grid = 8 8 8
  stencil order = 5
  estimated absolute RMS force accuracy = 4.02804e-05
  estimated relative force accuracy = 2.79732e-06
  using double precision FFTs
  3d grid and FFT values/proc = 3375 512
Setting up run ...
Memory usage per processor = 3.06549 Mbytes
Step Temp PotEng KinEng TotEng Press Lx Ly Lz Press Pxx Pyy Pzz Pxy Pxz Pyz Volume 
       0          800   -107.98101   0.72385681   -107.25716    9445.5029    4.3416118    4.3416118    4.3416118    9445.5029    3906.5218    17871.489    6558.4982    1079.1761   -2499.7573    3910.9415    81.837618 
     100    137.88609   -107.28396   0.12476223    -107.1592   -2086.9032    4.3694608    4.3694608    4.3694608   -2086.9032   -13359.528    18101.677   -11002.858   -2399.5271    1393.4609   -2724.6707    83.422565 
     200    659.78531   -107.55852   0.59698761   -106.96153   -17237.544    4.3759471    4.3759471    4.3759471   -17237.544   -26318.879   -6013.1244   -19380.628   -533.31487   -522.12667    5205.9276    83.794628 
     300    781.73535    -107.4963   0.70733058   -106.78897    16467.864    4.3650072    4.3650072    4.3650072    16467.864   -2612.8383    45369.153    6647.2759   -1001.5316   -5.3186861    3797.9321    83.167736 
     400    529.70518   -107.14347   0.47928838   -106.66418   -2999.5495     4.376222     4.376222     4.376222   -2999.5495   -23183.896    14930.836   -745.58836    2417.7989    2720.0813   -6500.9071    83.810422 
     500    781.51042   -107.27604   0.70712705   -106.56891    6348.7102    4.3869709    4.3869709    4.3869709    6348.7102   -13699.262    34778.334    -2032.941   -1271.1788    1932.1976    12019.038     84.42951 
     600    805.15852   -107.25651   0.72852435   -106.52799     2552.837    4.3809009    4.3809009    4.3809009     2552.837   -28038.475    38548.161   -2851.1746   -161.48118    1124.8373   -103.82144    84.079533 
     700    608.40072   -107.06888   0.55049375   -106.51839    6760.9653    4.3720828    4.3720828    4.3720828    6760.9653   -18534.835    17936.954    20880.777   -2879.7949    1930.7399    1591.3728    83.572833 
     800    1038.0946   -107.45805    0.9392898   -106.51876   -1432.6702    4.3896528    4.3896528    4.3896528   -1432.6702   -26579.013    31093.221    -8812.218    1089.0333    2643.5603   -3014.7041    84.584446 
     900    619.42661   -107.08372   0.56047022   -106.52325    4651.9975    4.3855618    4.3855618    4.3855618    4651.9975   -37546.774    56579.802   -5077.0348    8436.8082   -965.34513   -10571.347     84.34818 
    1000    590.36244   -107.06365   0.53417234   -106.52948   -5790.5846    4.3776494    4.3776494    4.3776494   -5790.5846   -33920.226    15483.579    1064.8936   -9165.5026    402.08843   -5362.0937    83.892462 
    1100    983.27559   -107.41975   0.88968841   -106.53007    12230.175    4.3706039    4.3706039    4.3706039    12230.175    14187.837    29016.055   -6513.3681   -405.19155    -2217.115    12596.093    83.488056 
    1200    795.70931   -107.26393   0.71997451   -106.54395   -23073.881    4.3873366    4.3873366    4.3873366   -23073.881   -48640.988   -3723.3758   -16857.278    811.70148    2259.9896   -2270.8028    84.450625 
    1300    621.65263   -107.09816   0.56248436   -106.53567   -2851.5764    4.3886253    4.3886253    4.3886253   -2851.5764   -10406.818     34982.58   -33130.491   -2700.2371   -2708.7191    5669.4947    84.525063 
    1400    966.79472   -107.39562   0.87477618   -106.52084    7760.9773    4.3711451    4.3711451    4.3711451    7760.9773    9741.6136    20834.613   -7293.2947    10217.096   -1506.1972    4987.9989    83.519074 
    1500    606.81959   -107.07993   0.54906312   -106.53087    1633.4735    4.3764465    4.3764465    4.3764465    1633.4735   -21830.858    18219.379    8511.8997   -6584.4217    1496.5706   -6841.1029    83.823325 
    1600    848.89993   -107.29502    0.7681025   -106.52691   -12886.753    4.3957132    4.3957132    4.3957132   -12886.753   -14953.148    11263.237   -34970.349   -1239.4639   -4082.0435   -3182.3854    84.935267 
    1700    886.85656   -107.32676   0.80244645   -106.52431    14728.822    4.3686296    4.3686296    4.3686296    14728.822   -4385.6845    44431.495    4140.6565    472.81592   -1289.9607   -1007.6219    83.374968 
    1800    692.31876   -107.16618   0.62642456   -106.53975   -11031.752    4.3802419    4.3802419    4.3802419   -11031.752   -33223.135   -3419.0995    3546.9785    117.52394   -2119.7609    2819.9477    84.041592 
    1900     1198.545   -107.60648    1.0844687   -106.52202   -10880.706    4.3881344    4.3881344    4.3881344   -10880.706   -23980.053    16995.625   -25657.691   -2588.6076    -1254.433    -1108.998    84.496705 
    2000     633.8697   -107.09414   0.57353862    -106.5206    7821.5685     4.374139     4.374139     4.374139    7821.5685   -10596.564    33335.392    725.87739   -1496.4317   -6.2095594    1271.1429    83.690804 
    2100    754.27525   -107.20858    0.6824841   -106.52609   -15573.022    4.3829836    4.3829836    4.3829836   -15573.022    -43822.95   -5700.8859    2804.7687    5674.0748   -427.94297    872.54536    84.199503 
    2200    1162.7683   -107.57052    1.0520972   -106.51843     7768.609    4.3770173    4.3770173    4.3770173     7768.609    12418.063    30788.055    -19900.29   -3491.9723   -313.67751   -5446.6721    83.856125 
    2300    377.58297   -106.87781     0.341645   -106.53616    -12423.98    4.3846722    4.3846722    4.3846722    -12423.98   -33017.816    15491.769   -19745.894   -89.490493   -835.44069    1550.8959    84.296859 
    2400    947.51953   -107.39011   0.85733558   -106.53277     3824.684     4.372869     4.372869     4.372869     3824.684   -3068.6638    17484.424   -2941.7088   -5029.1188    1744.5941    2848.7541    83.617928 
    2500    876.86773   -107.32981   0.79340835    -106.5364   -9087.3324    4.3864338    4.3864338    4.3864338   -9087.3324   -19963.147    6980.7447   -14279.595    10685.114   -2292.5159   -4781.3298    84.398503 
    2600    606.25567   -107.08706   0.54855287    -106.5385   -7059.7201    4.3712795    4.3712795    4.3712795   -7059.7201   -17974.283   -860.81741   -2344.0602   -708.04441   -1736.1374    5413.8792     83.52678 
    2700    955.56544   -107.40088   0.86461569   -106.53626    13360.469    4.3755335    4.3755335    4.3755335    13360.469   -7576.7821    45238.028    2420.1616    2722.7069   -5698.3571   -8509.7834    83.770872 
    2800    728.72115   -107.19145   0.65936221   -106.53209   -21513.007    4.3975521    4.3975521    4.3975521   -21513.007    -20207.71   -16739.941    -27591.37    2179.9633   -4300.6095    529.61019    85.041907 
    2900    829.74519   -107.27491   0.75077089   -106.52414     14119.96    4.3562935    4.3562935    4.3562935     14119.96    5753.3326    31106.079     5500.469   -9048.8117    45.458024    356.00485    82.670657 
    3000    990.95157   -107.43197    0.8966338   -106.53534    1514.7391    4.3848752    4.3848752    4.3848752    1514.7391   -9687.0195    24594.198   -10362.961    2270.8977   -1187.1334   -310.17988     84.30857 
    3100    769.69746   -107.22355   0.69643843   -106.52712   -13838.326    4.3920279    4.3920279    4.3920279   -13838.326   -12401.584   -4147.8091   -24965.585   -1329.6313   -8386.9324     6339.132    84.721821 
    3200    543.83545   -107.00745   0.49207374   -106.51537    31661.499    4.3559212    4.3559212    4.3559212    31661.499   -3012.6156    85310.286    12686.828    7693.1681    1972.5847    2921.0817    82.649467 
    3300    1117.8553    -107.5346     1.011459   -106.52314   -16738.551    4.3898387    4.3898387    4.3898387   -16738.551   -4478.2276   -17445.578   -28291.847   -3550.1284   -1729.8481    2420.9642    84.595192 
    3400    711.28629   -107.16774   0.64358678   -106.52415   -4579.7271    4.3869856    4.3869856    4.3869856   -4579.7271   -12663.736    19444.338   -20519.783   -244.68494   -3176.7867    5772.3228    84.430356 
    3500    871.61038   -107.31066   0.78865139   -106.52201    -1204.596    4.3731497    4.3731497    4.3731497    -1204.596   -15242.073     24454.55   -12826.265   -167.19975    8655.7417   -1633.7311    83.634029 
    3600    998.49917   -107.42498   0.90346303   -106.52152    9726.7894    4.3784298    4.3784298    4.3784298    9726.7894    20386.921    17105.691   -8312.2432   -1045.8375   -5455.8883   -410.94734    83.937336 
    3700    560.49678   -107.03616   0.50714926   -106.52901    242.66184    4.3851798    4.3851798    4.3851798    242.66184   -31689.962    30100.089     2317.859    705.75806   -3178.4086   -3348.0284    84.326141 
    3800    789.05357   -107.24169   0.71395226   -106.52773    1162.8154    4.3783744    4.3783744    4.3783744    1162.8154    20567.283   -4908.4663   -12170.371    1493.4653    3437.4443   -5573.6375    83.934148 
    3900    987.12299   -107.41742   0.89316963   -106.52425     22492.25    4.3638919    4.3638919    4.3638919     22492.25    784.45083        42532    24160.298    2202.9289    -4521.527   -4385.9276    83.104006 
    4000    537.83315   -107.02405   0.48664274    -106.5374   -19905.364    4.3934103    4.3934103    4.3934103   -19905.364   -10385.072    -22505.84   -26825.179   -2646.9869      8345.21   -3111.0701    84.801844 
    4100    1065.9941   -107.48832   0.96453385   -106.52378   -11216.578    4.3798478    4.3798478    4.3798478   -11216.578    -7986.399   -17680.719   -7982.6161   -4757.0256   -3585.0872   -4919.7203    84.018915 
    4200    920.92141   -107.35028   0.83326905   -106.51701    22451.295    4.3569121    4.3569121    4.3569121    22451.295    28486.684    22546.412    16320.789   -1312.0022    1533.5931    2783.8015    82.705882 
    4300    504.30322   -106.99013   0.45630415   -106.53383   -21655.915    4.3959232    4.3959232    4.3959232   -21655.915   -10734.167   -27198.101   -27035.477    2891.6083    2618.6561    -5506.287    84.947439 
    4400    1001.0917   -107.43075   0.90580879   -106.52494    5853.3421    4.3752053    4.3752053    4.3752053    5853.3421    2928.1316    14437.043    194.85177    7572.2011    1482.2477    2852.5327    83.752024 
    4500    685.33192   -107.14309   0.62010272   -106.52299    28078.416    4.3541839    4.3541839    4.3541839    28078.416    48153.112    29019.841     7062.294    -8.531554     7143.813   -1884.0715    82.550614 
    4600    723.49681   -107.18423   0.65463512    -106.5296   -37947.267    4.4013935    4.4013935    4.4013935   -37947.267   -50956.361   -25072.105   -37813.336   -5066.2827    3430.0128   -3540.3679    85.264963 
    4700    957.14265   -107.38398   0.86604278   -106.51793    19873.856    4.3691593    4.3691593    4.3691593    19873.856    47438.919    13180.175   -997.52474    710.46872    8225.7093     4163.558    83.405298 
    4800    693.04454     -107.152   0.62708126   -106.52492   -3597.3707    4.3635633    4.3635633    4.3635633   -3597.3707      2901.03   -4926.0556   -8767.0866   -10979.642    5406.6163   -12481.526    83.085233 
    4900    796.81799   -107.25105   0.72097766   -106.53007   -23725.856    4.3913963    4.3913963    4.3913963   -23725.856   -3493.8159   -35863.486   -31820.265   -12629.567   -7077.6294    4724.8852    84.685275 
    5000    916.90829   -107.35836   0.82963789   -106.52872     13320.94    4.3701057    4.3701057    4.3701057     13320.94    33394.182    6803.1135   -234.47553    5043.0183   -5660.6567   -7648.4869    83.459509 
    5100    719.83488   -107.18768   0.65132172   -106.53636   -18782.004    4.3735461    4.3735461    4.3735461   -18782.004   -21717.583   -29898.763   -4729.6664   -11945.744    9980.9461   -4486.1357    83.656778 
    5200    666.40785   -107.13474   0.60297983   -106.53176   -11116.267    4.3844846    4.3844846    4.3844846   -11116.267    1521.9188    -22205.49    -12665.23    5183.7764   -1806.6755    3910.6282    84.286042 
    5300    897.86221   -107.33492    0.8124046   -106.52252    1945.5808    4.3741241    4.3741241    4.3741241    1945.5808    23439.098   -10710.648   -6891.7082   -4100.4225    5375.1201   -8021.8161    83.689948 
    5400    741.11421   -107.19871   0.67057572   -106.52813   -24080.497    4.3796606    4.3796606    4.3796606   -24080.497   -23466.747   -30292.225   -18482.519    1986.3919     10565.81    4528.1107     84.00814 
    5500    745.35968   -107.20705    0.6744171   -106.53263    897.69704    4.3679346    4.3679346    4.3679346    897.69704    26925.936   -15170.309   -9062.5355     10638.76   -15289.665   -4310.9559    83.335183 
    5600    914.40239   -107.36909    0.8273705   -106.54172    2637.1374    4.3730232    4.3730232    4.3730232    2637.1374     31393.71    -17838.91   -5643.3882   -7275.3436    6974.1517   -2463.9038    83.626772 
    5700    569.18522   -107.05197   0.51501075   -106.53696   -30150.566    4.3961417    4.3961417    4.3961417   -30150.566   -22523.485   -37256.096   -30672.116    3471.1135   -9600.4213    4083.9334    84.960109 
    5800    939.84454   -107.37137   0.85039109   -106.52098    16270.252    4.3520726    4.3520726    4.3520726    16270.252    29983.564    5330.6399    13496.552    277.17614    1132.7007   -8093.9962    82.430588 
    5900    874.37308   -107.33197   0.79115114   -106.54082    1313.3439    4.3741281    4.3741281    4.3741281    1313.3439    17286.327   -25214.448    11868.153   -6553.8657    -6438.561    -21.22905    83.690176 
    6000    421.16841   -106.91438   0.38108203    -106.5333    -19767.41     4.396111     4.396111     4.396111    -19767.41   -8290.7417   -26796.813   -24214.676    635.98844    6018.3543    1339.6512    84.958328 
    6100    1082.1783   -107.49249   0.97917768   -106.51331    21675.001    4.3508878    4.3508878    4.3508878    21675.001    23846.964    8961.5887    32216.449   -1115.4337   -12409.869   -11283.036    82.363285 
    6200    791.25581   -107.24886   0.71594489   -106.53292   -13255.875    4.3834964    4.3834964    4.3834964   -13255.875    -11814.35   -24580.802   -3372.4714   -954.05177    22488.257    2968.5765    84.229064 
    6300    479.56259   -106.96483   0.43391831   -106.53091    -14120.21    4.3834315    4.3834315    4.3834315    -14120.21    -1075.015   -14202.261   -27083.354    8064.9443    963.84855    -3002.433    84.225319 
    6400    1188.9782   -107.59129    1.0758125   -106.51548     6039.509    4.3621158    4.3621158    4.3621158     6039.509    12899.608   -3102.8304    8321.7498    3021.0464   -2320.8014   -6092.7016    83.002574 
    6500    560.68913   -107.03418    0.5073233   -106.52686   -9902.9809    4.3867021    4.3867021    4.3867021   -9902.9809    8118.6416   -20417.109   -17410.475      2446.04    14723.007    1555.6718    84.413989 
    6600     822.1027   -107.27145    0.7438558   -106.52759   -16202.926     4.368128     4.368128     4.368128   -16202.926   -20138.189   -7715.6223   -20754.967    4999.2568   -19153.975   -7207.7431    83.346253 
    6700    919.03301   -107.36098   0.83156038   -106.52942    16783.849    4.3711053    4.3711053    4.3711053    16783.849    50307.817   -11623.556    11667.286   -6918.1241    5612.2801    5128.7895    83.516792 
    6800    574.05442   -107.05457   0.51941651   -106.53515   -30696.686    4.3899569    4.3899569    4.3899569   -30696.686   -35607.371   -29146.614   -27336.072    7027.0384   -10683.835   -3119.9831    84.602026 
    6900    775.47309   -107.22671   0.70166435   -106.52504    4790.9005     4.355454     4.355454     4.355454    4790.9005    10295.594    4992.5503   -915.44324   -3056.9153   -13195.842   -38.767028    82.622875 
    7000    876.81689   -107.32661   0.79336235   -106.53324     4173.632    4.3786537    4.3786537    4.3786537     4173.632    27274.338   -27016.894    12263.452    2180.7861    2011.8084    11173.026    83.950213 
    7100    665.27336   -107.13947   0.60195331   -106.53752   -33699.039    4.3872673    4.3872673    4.3872673   -33699.039   -46621.281   -17802.326    -36673.51    2369.9304   -3188.5871   -3140.3426    84.446623 
    7200    887.97691   -107.32908   0.80346017   -106.52562     18819.26    4.3549059    4.3549059    4.3549059     18819.26    50984.361   -1045.5867    6519.0068    354.18162   -4899.6797    9972.4355    82.591684 
    7300    892.27702    -107.3391     0.807351   -106.53175   -7660.2817    4.3815409    4.3815409    4.3815409   -7660.2817    5962.1091   -17595.765   -11347.189     4939.774    10228.318    2741.5793    84.116384 
    7400    473.75912   -106.96123   0.42866721   -106.53257   -3737.3225    4.3774747    4.3774747    4.3774747   -3737.3225    18444.763   -4376.1138   -25280.617   -884.68001   -6218.4332   -559.95621    83.882419 
    7500    1008.6867   -107.43606   0.91268096   -106.52338    5333.1663    4.3687911    4.3687911    4.3687911    5333.1663    15574.808   -11823.435    12248.126   -2322.9881    3562.0267    6562.3527    83.384211 
    7600     762.0768   -107.21533    0.6895431   -106.52579    4134.4272    4.3791477    4.3791477    4.3791477    4134.4272    31325.576   -10794.718   -8127.5758    3679.7732    666.91853   -3322.4805    83.978632 
    7700     686.0659   -107.14989   0.62076684   -106.52912   -16399.323    4.3762141    4.3762141    4.3762141   -16399.323   -10108.493   -12414.345   -26675.132    3146.7906   -6750.0539    7705.4792    83.809971 
    7800    896.53489   -107.33611   0.81120361   -106.52491    18344.519    4.3715522    4.3715522    4.3715522    18344.519    58290.676   -12884.647    9627.5285    3609.0395    7697.2049    4413.7843    83.542411 
    7900    772.63539   -107.23061   0.69909674   -106.53152   -14392.972    4.3788956    4.3788956    4.3788956   -14392.972    -17436.28    -8602.656    -17139.98    3470.4008     -2239.37    815.93891    83.964124 
    8000    578.30859   -107.05675   0.52326576   -106.53348   -4587.3954    4.3744756    4.3744756    4.3744756   -4587.3954     20866.17   -12329.982   -22298.375    1544.7854   -2163.0982    8002.5737    83.710126 
    8100    920.98924   -107.35825   0.83333041   -106.52492    16974.558    4.3747374    4.3747374    4.3747374    16974.558    24347.032   -4531.4435    31108.085   -6562.1749    16008.481   -3127.1618    83.725156 
    8200    677.64907   -107.14611   0.61315112   -106.53296   -20285.448    4.3804564    4.3804564    4.3804564   -20285.448   -6446.7136   -19337.786   -35071.844   -1007.0058   -15428.805    9504.5999    84.053939 
    8300    708.01049   -107.16981   0.64062277   -106.52919    9022.1231    4.3670675    4.3670675    4.3670675    9022.1231    22158.269   -588.66796    5496.7684   -3542.8378    2845.3321   -10633.135    83.285561 
    8400    878.16078   -107.32664   0.79457833   -106.53206    4141.5491    4.3780922    4.3780922    4.3780922    4141.5491    6751.4021   -11485.924    17159.169    2514.6921   -3462.4757   -3764.8809    83.917918 
    8500     704.0654   -107.17138   0.63705317   -106.53433   -14483.975    4.3767543    4.3767543    4.3767543   -14483.975   -9161.1511   -9933.3066   -24357.468    9057.6352   -6012.6632    159.81865     83.84101 
    8600    692.48362   -107.15404   0.62657373   -106.52747    11957.049    4.3748218    4.3748218    4.3748218    11957.049    27118.652   -10508.979    19261.473    1309.2589    9516.4753   -16100.173    83.730005 
    8700    775.79887   -107.22231   0.70195912   -106.52035   -5820.6782    4.3850606    4.3850606    4.3850606   -5820.6782    -251.2478   -14691.389   -2519.3978    9936.8918   -1152.0161      1361.16    84.319262 
    8800    686.04435   -107.14461   0.62074735   -106.52387   -339.05412    4.3636572    4.3636572    4.3636572   -339.05412    2885.3641    6101.7634    -10004.29    745.31359   -3923.6133   -4294.5329    83.090597 
    8900    817.12135   -107.26953   0.73934857   -106.53018     3465.378    4.3787619    4.3787619    4.3787619     3465.378    11285.325   -23784.522     22895.33    564.65969    878.96236   -5082.4331    83.956435 
    9000    876.41217   -107.31747   0.79299615   -106.52448   -11409.753    4.3825105    4.3825105    4.3825105   -11409.753   -17334.136   -14724.396   -2170.7281     4401.688   -1013.6049    4891.3745    84.172245 
    9100    669.74156   -107.12806   0.60599624   -106.52206    4745.4661     4.360112     4.360112     4.360112    4745.4661    23912.786    -3992.308   -5684.0798    -7109.185    4499.0479   -3716.8218    82.888244 
    9200    819.66302   -107.26981   0.74164832   -106.52816   -990.96751    4.3847875    4.3847875    4.3847875   -990.96751   -2730.2996   -26952.205    26709.602    6469.9879    3240.4544    1010.0512    84.303508 
    9300    1027.1763   -107.45189   0.92941069   -106.52248   -13755.283    4.3788176    4.3788176    4.3788176   -13755.283   -6039.9895   -17895.276   -17330.584     2550.001   -5921.9761   -791.87936    83.959639 
    9400    523.55898   -106.99704   0.47372717   -106.52331    10998.228    4.3623925    4.3623925    4.3623925    10998.228    27186.806   -3322.2535    9130.1308    3629.7547   -503.34973   -686.83357    83.018373 
    9500    1156.4767    -107.5717    1.0464044    -106.5253   -12630.813    4.3857201    4.3857201    4.3857201   -12630.813   -23590.616   -30117.926    15816.101    10883.667    2186.9419    6007.3711     84.35731 
    9600    759.74485   -107.22091   0.68743311   -106.53348    2886.8951    4.3743921    4.3743921    4.3743921    2886.8951    21288.178   -9616.5914   -3010.9016   -3339.2405    2283.9258   -1192.1954    83.705332 
    9700    630.78081   -107.10234   0.57074373    -106.5316    14007.731    4.3569497    4.3569497    4.3569497    14007.731    20980.677    8115.7067    12926.809    1645.1534    8414.9141     5022.188    82.708025 
    9800    1012.2125   -107.44396   0.91587111   -106.52809    106.07938    4.3861276    4.3861276    4.3861276    106.07938    12428.011   -22171.586    10061.814     5347.754    2767.0846    755.15257    84.380829 
    9900    715.59238   -107.17648   0.64748302   -106.52899    -4761.091    4.3793667    4.3793667    4.3793667    -4761.091    7671.8497   -7813.6107   -14141.512   -5656.2722    24.283879   -3114.7471    83.991231 
   10000    595.82302   -107.06285   0.53911319   -106.52373    23841.153    4.3568179    4.3568179    4.3568179    23841.153      17962.7    16033.218    37527.541    13889.409    3178.1549     5234.023    82.700518 
   10100    1135.0676    -107.5509     1.027033   -106.52387   -9283.4991    4.3866475    4.3866475    4.3866475   -9283.4991    6754.0818   -23962.282   -10642.297    6953.7601   -2575.5376   -7769.2633    84.410838 
   10200    591.80251   -107.06319   0.53547535   -106.52771    3290.9932    4.3747253    4.3747253    4.3747253    3290.9932    8430.4384    3597.0917   -2154.5506    7368.3767    5120.1156   -3064.1759    83.724464 
   10300    696.56374   -107.15099   0.63026551   -106.52072    16829.428    4.3668539    4.3668539    4.3668539    16829.428    15662.006    5561.3874    29264.889    3601.7574   -2962.4231    660.78007    83.273342 
   10400    1102.0447   -107.51436   0.99715321   -106.51721   -4860.4953    4.3769555    4.3769555    4.3769555   -4860.4953    -11289.93   -15443.992    12152.436   -6927.0547   -432.38204   -2870.4205    83.852571 
   10500    449.09113   -106.93544   0.40634709   -106.52909    9174.2446    4.3710492    4.3710492    4.3710492    9174.2446    25286.127   -3105.5938    5342.2004    11483.054    5175.5063    3205.0403    83.513575 
   10600    1038.6172    -107.4636   0.93976265   -106.52384   -5272.5481    4.3814221    4.3814221    4.3814221   -5272.5481   -23274.144   -15269.056    22725.556   -4813.2212   -4067.6245    6897.1047    84.109545 
   10700    944.31818   -107.37413   0.85443893   -106.51969    9638.2585     4.367416     4.367416     4.367416    9638.2585    18555.443   -2547.5876     12906.92   -2331.2409   -416.77638    3376.0179    83.305504 
   10800    416.62214   -106.90698   0.37696847   -106.53002     583.7336     4.375184     4.375184     4.375184     583.7336   -4586.6363   -10918.295    17256.132     12311.11    219.53707    702.55038    83.750802 
   10900    1171.0867   -107.57958    1.0596239   -106.51996   -6223.0311    4.3792271    4.3792271    4.3792271   -6223.0311   -18022.246    -14309.62    13662.772   -9155.8682   -5780.1728   -27.712127    83.983199 
   11000     852.1053   -107.29411   0.77100278   -106.52311    13894.918    4.3610584    4.3610584    4.3610584    13894.918    30412.051    3881.9448    7390.7584    2460.9358    6019.4497    -2724.041     82.94223 
   11100    566.69108   -107.04545     0.512754   -106.53269   -14974.359    4.3842507    4.3842507    4.3842507   -14974.359   -15124.665   -25816.205    -3982.207    7827.9133   -4019.5802    1722.2963    84.272551 
   11200    1146.6357   -107.55426    1.0375001   -106.51676   -6283.3276    4.3774851    4.3774851    4.3774851   -6283.3276   -16988.379   -6517.3769    4655.7731   -7386.8737   -8331.1315    5554.6472    83.883014 
   11300    555.24153   -107.02063   0.50239421   -106.51823     23002.27     4.359713     4.359713     4.359713     23002.27    33967.794    5233.2159    29805.802    9672.9057    8384.2357   -561.50068    82.865487 
   11400    823.37725   -107.27173   0.74500904   -106.52672    -17197.05    4.3852251    4.3852251    4.3852251    -17197.05   -23415.494   -20493.017   -7682.6383   -3688.8178   -11827.534    4441.1979    84.328751 
   11500    890.21113   -107.32547   0.80548174   -106.51999    969.61984    4.3751599    4.3751599    4.3751599    969.61984   -3284.2519    3737.8208    2455.2906   -4631.3582    2272.9015    4552.2841    83.749416 
   11600    569.60047   -107.03698   0.51538648    -106.5216    13624.482    4.3595287    4.3595287    4.3595287    13624.482    28400.631    826.36228    11646.454    8231.1099    5794.8335   -3262.1554     82.85498 
   11700    923.62933   -107.35791   0.83571923   -106.52219   -14484.608    4.3869713    4.3869713    4.3869713   -14484.608   -25611.865   -16418.449   -1423.5089   -11701.209   -7876.5876    4049.1169    84.429533 
   11800    877.11409    -107.3143   0.79363126   -106.52067    3847.3797    4.3709257    4.3709257    4.3709257    3847.3797    10298.616     6241.092   -4997.5684    3227.5165    1930.1295   -9896.3933    83.506499 
   11900     612.9322    -107.0811   0.55459394   -106.52651   -7757.2173    4.3665449    4.3665449    4.3665449   -7757.2173   -14161.879   -16188.776    7079.0025    3462.9533   -7161.8801    5025.2418    83.255667 
   12000    924.76942   -107.35935    0.8367508    -106.5226   -8331.3489    4.3828829    4.3828829    4.3828829   -8331.3489   -26920.245    1908.4524    17.745601    -15678.21   -2525.9971   -884.25386    84.193703 
   12100    894.32812   -107.33056   0.80920688   -106.52136    3199.1423     4.367468     4.367468     4.367468    3199.1423    19612.695   -4318.7734   -5696.4952     12771.99    -1530.728      -7609.6    83.308476 
   12200     549.0151   -107.02449    0.4967604   -106.52773    -1438.848    4.3727584    4.3727584    4.3727584    -1438.848   -8907.3304   -206.81699    4797.6034   -4617.7004   -2367.1806    7563.8619    83.611582 
   12300    790.15939   -107.23245   0.71495283    -106.5175    9670.7875    4.3807175    4.3807175    4.3807175    9670.7875    16792.122    167.08308    12053.157   -7501.6678    2874.6199   -1184.1106    84.068974 
   12400    823.59861    -107.2676   0.74520933   -106.52239   -5706.3534    4.3695632    4.3695632    4.3695632   -5706.3534   -7646.0505     3966.452   -13439.462    3986.6819   -4786.4104   -1773.5009    83.428429 
   12500    650.48765   -107.11595    0.5885749   -106.52738    4602.6276    4.3724413    4.3724413    4.3724413    4602.6276   -6783.4601    12704.298    7887.0449   -17816.131   -6048.6431    16207.405    83.593392 
   12600    961.73627   -107.38917   0.87019919   -106.51897   -7000.9383    4.3791364    4.3791364    4.3791364   -7000.9383    -28608.42   -631.16879     8236.774    6987.5363   -6225.7485   -2141.2588    83.977979 
   12700    698.10765    -107.1534   0.63166247   -106.52173   -20008.366    4.3749894    4.3749894    4.3749894   -20008.366   -26734.899   -6015.8668   -27274.333    1574.5692    -12546.86    1258.3325    83.739627 
   12800    888.50081   -107.32454    0.8039342   -106.52061    6107.0451    4.3695672    4.3695672    4.3695672    6107.0451    12335.675    -6686.373    12671.833   -11913.042    239.08862    661.87206     83.42866 
   12900    901.31844   -107.33957   0.81553187   -106.52404   -12472.304    4.3797936    4.3797936    4.3797936   -12472.304   -17074.212   -9953.7139   -10388.985    7721.3769   -7979.5047   -6745.1192    84.015795 
   13000    537.39419   -107.01185   0.48624556   -106.52561   -19353.766    4.3786469    4.3786469    4.3786469   -19353.766   -8720.4749   -20610.375   -28730.448    -18329.33   -237.40937    9089.6529     83.94982 
   13100    1082.4961   -107.49518   0.97946525   -106.51571    13016.024    4.3628295    4.3628295    4.3628295    13016.024   -4558.1812    796.91919    42809.334   -7872.4504    5483.5264   -591.11166    83.043325 
   13200    687.60493   -107.14944   0.62215939   -106.52728   -10961.737    4.3827427    4.3827427    4.3827427   -10961.737   -22910.726    10373.529   -20348.013   -2204.0296   -4137.8406    6395.7588     84.18562 
   13300    563.42974   -107.03384   0.50980307   -106.52403   -8591.5913    4.3777344    4.3777344    4.3777344   -8591.5913   -18995.847   -5527.7834   -1251.1438   -20285.273    2845.9636    6917.9517    83.897349 
   13400    946.42919   -107.36804   0.85634902   -106.51169    18654.088    4.3602267    4.3602267    4.3602267    18654.088   -9126.6834    45055.344    20033.602    7341.1159   -2833.9414   -194.59312    82.894785 
   13500    555.01011    -107.0322   0.50218481   -106.53002   -14881.434    4.3820135    4.3820135    4.3820135   -14881.434    -12308.12    1169.7199   -33505.901   -1788.0531    -2276.119    1926.0417    84.143606 
   13600    762.97625   -107.21776   0.69035694    -106.5274   -2323.0964    4.3745093    4.3745093    4.3745093   -2323.0964   -7402.8582   -11083.982    11517.551   -6806.6144    9901.3127   -7785.9343    83.712058 
   13700    925.16199   -107.35781   0.83710601   -106.52071    7332.9042    4.3688765    4.3688765    4.3688765    7332.9042    12291.296    16480.379   -6772.9626    6860.2999   -11486.545   -5351.9069    83.389105 
   13800    517.58252   -106.99022   0.46831954    -106.5219   -21682.405    4.3853343    4.3853343    4.3853343   -21682.405   -28195.556   -28240.911   -8610.7464   -18618.405    4312.3122    6048.8717    84.335051 
   13900    1155.1303   -107.55667    1.0451862   -106.51148    5353.5115    4.3671897    4.3671897    4.3671897    5353.5115    6398.0632    -5099.033    14761.504   -3935.8004    -2901.757   -5872.0014    83.292554 
   14000    801.01862   -107.24648   0.72477848    -106.5217   -2034.1846    4.3727872    4.3727872    4.3727872   -2034.1846     4874.502   -5806.3907   -5170.6649   -2550.1943   -5722.2163    9194.6168    83.613237 
   14100    663.12551   -107.12651    0.6000099    -106.5265   -14626.739    4.3726829    4.3726829    4.3726829   -14626.739   -26089.089   -5429.3673    -12361.76   -14737.468    4026.5673    5606.0775    83.607253 
   14200    955.94325   -107.38671   0.86495754   -106.52175     13310.71    4.3745207    4.3745207    4.3745207     13310.71    25063.622    17591.495   -2722.9881    4785.1352    3932.1501   -707.15935    83.712716 
   14300    666.91936   -107.13388   0.60344265   -106.53044    -16533.87    4.3764229    4.3764229    4.3764229    -16533.87    -35481.96    11360.044   -25479.695   -8975.5632    1620.9945      6871.73    83.821968 
   14400    728.69078   -107.18958   0.65933473   -106.53025    16996.698    4.3580837    4.3580837    4.3580837    16996.698    38931.152    12682.198   -623.25497   -16160.676    4176.2786   -5276.4214    82.772619 
   14500    952.39423   -107.38792   0.86174631   -106.52617   -5326.0812    4.3850461    4.3850461    4.3850461   -5326.0812   -11039.233    3851.2863   -8790.2969    4166.7928   -2941.2928   -8065.2007    84.318428 
   14600    503.92458   -106.97893   0.45596155   -106.52297   -15224.663    4.3771553    4.3771553    4.3771553   -15224.663   -39151.218   -1442.1254   -5080.6463   -13834.916    4856.8161    963.46027    83.864059 
   14700     949.7485   -107.37176   0.85935241   -106.51241     26438.17    4.3601334    4.3601334    4.3601334     26438.17    42727.505     16514.74    20072.264    1225.4151   -4523.9341   -6209.3043    82.889464 
   14800    943.69297    -107.3758   0.85387323   -106.52193   -4682.3802    4.3786672    4.3786672    4.3786672   -4682.3802   -27191.511   -8504.1844    21648.555    2186.4535    9.1741666    3207.2672    83.950987 
   14900    428.27149   -106.91732   0.38750905   -106.52981    3329.8677    4.3783156    4.3783156    4.3783156    3329.8677     13668.11   -2697.5788   -980.92769   -9978.5471      15991.7    3731.7556    83.930764 
   15000    1049.4232   -107.46835   0.94954019   -106.51881    11114.793    4.3702727    4.3702727    4.3702727    11114.793   -2334.1196    19083.853    16594.646    1921.8337    2728.7461   -1113.8379     83.46908 
   15100    733.45653   -107.19096   0.66364688   -106.52731    6656.2481     4.362018     4.362018     4.362018    6656.2481    16964.145    1816.7057    1187.8936   -11055.965    5088.7651    4512.0949    82.996995 
   15200    663.37593   -107.13456   0.60023648   -106.53432   -4063.0127    4.3810068    4.3810068    4.3810068   -4063.0127   -15664.442    31555.935   -28080.532    65.752613    6753.8481    1560.9543    84.085631 
   15300     1150.041   -107.56141    1.0405812   -106.52083   -3131.3057    4.3737159    4.3737159    4.3737159   -3131.3057   -13648.083   -690.80442    4944.9702    2107.9157    -5679.687    1547.2306     83.66652 
   15400     587.3992   -107.05352   0.53149114   -106.52203    5526.7922    4.3583695    4.3583695    4.3583695    5526.7922    6130.1248    11051.548   -601.29586   -13777.239    12633.058     3549.765    82.788904 
   15500    798.95624   -107.24869    0.7229124   -106.52578    -4411.897    4.3822668    4.3822668    4.3822668    -4411.897   -33962.024    29329.039   -8602.7052    2972.3741   -2390.8545    2910.8921    84.158201 
   15600    999.50137   -107.42483   0.90436984   -106.52046    777.67943    4.3740307    4.3740307    4.3740307    777.67943    568.65958   -17301.048    19065.427   -4844.9456    2498.5321   -1359.6922     83.68459 
   15700    461.30101   -106.94407   0.41739484   -106.52668    10885.359    4.3643098    4.3643098    4.3643098    10885.359   -12319.899    42185.217    2790.7603   -7809.4258    15338.464   -2675.5606    83.127881 
   15800    872.99206   -107.31111   0.78990156   -106.52121   -1326.1196    4.3792678    4.3792678    4.3792678   -1326.1196   -22207.679    12077.325    6151.9945    8611.2232   -11775.327   -3840.4369     83.98554 
   15900    978.82383   -107.40274   0.88566037   -106.51708   -2038.6609    4.3706688    4.3706688    4.3706688   -2038.6609    6875.1923   -10263.492   -2727.6834   -3667.3397    8201.0755   -2378.9247    83.491773 
   16000    590.94861   -107.05721   0.53470272   -106.52251   -5240.2887    4.3715897    4.3715897    4.3715897   -5240.2887   -33198.181    44271.782   -26794.468    357.81945   -5565.8578    1302.1291    83.544559 
   16100    1023.5457   -107.44683   0.92612563    -106.5207   -1581.8467      4.37179      4.37179      4.37179   -1581.8467   -5627.6539     6538.413   -5656.2991    1262.2209   -11627.275     6633.155    83.556047 
   16200    848.48552    -107.2934   0.76772753   -106.52567   -1246.2855    4.3731126    4.3731126    4.3731126   -1246.2855   -8898.0483    7278.4466   -2119.2549   -13277.296     9305.857   -29.801693    83.631905 
   16300    686.92208   -107.14963   0.62154153   -106.52808   -3080.3962    4.3717036    4.3717036    4.3717036   -3080.3962   -22835.626    19510.614   -5916.1763    5678.5014   -13248.856    1369.1806    83.551089 
   16400     991.1455   -107.41782   0.89680928   -106.52101    9697.1472    4.3730952    4.3730952    4.3730952    9697.1472    18677.262   -586.27878    11000.458    356.21221    7524.1021    1144.5223    83.630906 
   16500    535.36996   -107.01048   0.48441399   -106.52606   -4906.3208     4.380803     4.380803     4.380803   -4906.3208   -30804.305    27362.856   -11277.514   -941.62318   -3930.7701   -9592.2382    84.073898 
   16600    811.94679   -107.25269   0.73466652   -106.51802    9999.5841    4.3683844    4.3683844    4.3683844    9999.5841    3778.7276    22350.597    3869.4277    14999.879   -6094.2104   -136.23473     83.36093 
   16700    953.13985    -107.3797   0.86242097   -106.51728     9814.067    4.3713973    4.3713973    4.3713973     9814.067    2244.2182    38619.643   -11421.661   -2547.7526    4343.4755    2266.9976    83.533529 
   16800    620.43527   -107.09008   0.56138287    -106.5287   -18405.728    4.3798111    4.3798111    4.3798111   -18405.728   -31231.793    12075.471   -36060.863   -3241.2323   -14414.165    5289.7958    84.016799 
   16900    851.80436   -107.29617   0.77073049   -106.52544    9739.5462    4.3678303    4.3678303    4.3678303    9739.5462    23292.123    8533.7103   -2607.1948     323.3476    2480.8177     8058.742    83.329211 
   17000    953.28758   -107.38805   0.86255464    -106.5255   -3271.2361    4.3704987    4.3704987    4.3704987   -3271.2361   -8909.1378    12269.976   -13174.547   -8484.4924   -2547.4303   -2375.8397    83.482029 
   17100    663.65385   -107.12691   0.60048795   -106.52642   -13206.159    4.3807128    4.3807128    4.3807128   -13206.159   -3695.4616   -18187.462   -17735.552    9264.2969   -3006.3468    4998.2114    84.068704 
   17200    856.75829   -107.29214    0.7752129   -106.51693    3937.5754    4.3728717    4.3728717    4.3728717    3937.5754   -11738.963    15181.975     8369.715     11956.42    3020.5146   -2563.6674    83.618085 
   17300    693.76238   -107.14819   0.62773078   -106.52046   -3410.6072    4.3753812    4.3753812    4.3753812   -3410.6072   -21407.554    8031.7327    3143.9997    -2218.632   -6467.6563   -8163.1087    83.762125 
   17400     698.0717   -107.15078   0.63162994   -106.51915   -1139.8538    4.3814527    4.3814527    4.3814527   -1139.8538    2345.9146   -5922.2934    156.81732    10754.511    2528.6458   -410.21003    84.111306 
   17500    1049.5484    -107.4613   0.94965347   -106.51164   -719.00361    4.3694838    4.3694838    4.3694838   -719.00361   -18421.865    15016.977    1247.8774   -3673.8974   -14713.844   -11260.243    83.423884 
   17600    444.54768   -106.92404   0.40223608    -106.5218   -5309.4468    4.3722725    4.3722725    4.3722725   -5309.4468    2637.7441    2949.5408   -21515.625   -506.36626   -2291.4458    5425.6007    83.583716 
   17700    876.11152   -107.31455   0.79272411   -106.52183   -7241.5594    4.3726808    4.3726808    4.3726808   -7241.5594   -4861.1664   -9692.5025   -7171.0093    9440.5917    4321.4398   -4618.1862    83.607134 
   17800    1068.9326   -107.48916   0.96719267   -106.52197   -377.13781    4.3670693    4.3670693    4.3670693   -377.13781   -5196.6067    4228.8909   -163.69766    356.15088   -5547.4205    2041.9426    83.285662 
   17900    467.01044   -106.95424   0.42256086   -106.53168   -7199.3003    4.3753121    4.3753121    4.3753121   -7199.3003   -12056.016    8.0621659   -9549.9474    15693.443    7401.0197    3310.1562    83.758157 
   18000    1010.1653   -107.43543   0.91401877   -106.52141   -8020.4622    4.3774579    4.3774579    4.3774579   -8020.4622   -37594.729   -8447.5254    21980.868    3183.2661   -3925.5805   -8307.3069    83.881452 
   18100    689.83866   -107.14783   0.62418052   -106.52365   -2863.0201     4.373924     4.373924     4.373924   -2863.0201   -12208.605   -11120.545     14740.09    3224.6113   -4731.3409    3681.2714    83.678464 
   18200    652.49258   -107.11429     0.590389    -106.5239    2520.1891    4.3677759    4.3677759    4.3677759    2520.1891   -3312.9219    849.02776    10024.461    13726.966   -2678.6561     745.9992    83.326098 
   18300    1144.7429   -107.55283    1.0357875   -106.51704   -6195.6315    4.3782831    4.3782831    4.3782831   -6195.6315   -19949.462   -11435.981    12798.549   -9242.3765    -2751.916   -2121.3849    83.928898 
   18400    482.76792   -106.96016   0.43681856   -106.52335   -19173.341    4.3803008    4.3803008    4.3803008   -19173.341    -16273.41   -24066.698   -17179.915     17320.53    2378.8297    7868.9921    84.044983 
   18500    792.59468    -107.2385   0.71715632   -106.52135    20738.127    4.3600764    4.3600764    4.3600764    20738.127    547.82781     18843.91    42822.643   -414.74107    10702.595    2187.0786    82.886214 
   18600    1116.1342   -107.53564    1.0099017   -106.52574   -269.16153    4.3718884    4.3718884    4.3718884   -269.16153   -8043.3167   -12481.701    19717.533    3269.0676    1532.9724    878.25392    83.561687 
   18700     399.9579   -106.89012   0.36189031   -106.52823   -1953.1475     4.381843     4.381843     4.381843   -1953.1475   -37297.775    5937.9132    25500.419     15178.83    5455.2445   -6038.9407    84.133788 
   18800    949.44365   -107.37157   0.85907656    -106.5125    11051.806    4.3703164    4.3703164    4.3703164    11051.806   -21769.669    24105.367    30819.719   -5649.0824    1079.2238   -2463.8714    83.471581 
   18900    902.92514   -107.33698   0.81698564      -106.52    6628.7284     4.365901     4.365901     4.365901    6628.7284   -7389.5546    9323.9577    17951.782    9757.1774    -8808.204   -717.49742     83.21884 
   19000    698.75108   -107.15792   0.63224466   -106.52568    1573.1481    4.3827853    4.3827853    4.3827853    1573.1481   -19422.298     11237.64    12904.102   -6471.7865    2653.8956   -1047.7201    84.188077 
   19100    1029.2292   -107.44344   0.93126824   -106.51218   -5744.3564    4.3772023    4.3772023    4.3772023   -5744.3564    -9895.572    3173.6343   -10511.132    6506.2909    610.92956    1157.5744    83.866757 
   19200    705.08912   -107.15096   0.63797946   -106.51298    11076.801    4.3618319    4.3618319    4.3618319    11076.801    14072.152    12074.773    7083.4794    10073.804    4219.2855    3001.8669    82.986371 
   19300    814.30063   -107.25856   0.73679632   -106.52177    147.30789    4.3834065    4.3834065    4.3834065    147.30789   -9432.2605     18129.64   -8255.4554   -990.83161    9989.0851   -237.95492    84.223882 
   19400    1058.7799   -107.47459   0.95800634   -106.51658   -438.33091    4.3773317    4.3773317    4.3773317   -438.33091   -11376.549    14950.327   -4888.7708    18282.625    2398.5816   -1847.2262    83.874195 
   19500    578.63223   -107.04251    0.5235586   -106.51895    16841.602     4.355868     4.355868     4.355868    16841.602   -12081.278    47300.871    15305.213   -1878.5861    11240.837   -4857.5812    82.646438 
   19600    851.21439   -107.29676   0.77019667   -106.52656   -7725.4354    4.3824186    4.3824186    4.3824186   -7725.4354   -31998.323    12068.548   -3246.5315   -5190.7727   -2685.1511   -3108.6847    84.166948 
   19700    1112.2069   -107.52918    1.0063482   -106.52283   -622.76418    4.3738427    4.3738427    4.3738427   -622.76418   -10230.399    6192.8219    2169.2841    4564.5788    905.60695    2588.8354    83.673798 
   19800    564.81171    -107.0366   0.51105351   -106.52555    8344.5142    4.3580132    4.3580132    4.3580132    8344.5142   -9957.3186    25150.338    9840.5229   -9473.6351    192.81074    1662.6816    82.768603 
   19900    745.89756    -107.2034   0.67490379    -106.5285    1645.1634    4.3864138    4.3864138    4.3864138    1645.1634    -22192.23    39737.594   -12609.874    10978.176   -10088.872     11656.83    84.397345 
   20000    753.72809   -107.20622   0.68198902   -106.52423   -4560.3862    4.3826026    4.3826026    4.3826026   -4560.3862   -13642.891     17793.86   -17832.128     5200.771    3225.1873     2499.959    84.177549 
   20100    582.67689   -107.04404    0.5272183   -106.51683    22368.285    4.3561186    4.3561186    4.3561186    22368.285     9771.318    48286.509    9047.0268    1014.1968   -12956.662   -3228.1971    82.660704 
   20200    938.88564   -107.37004   0.84952346   -106.52051   -2764.8029     4.383177     4.383177     4.383177   -2764.8029    10466.032   -3795.7974   -14964.643    9591.8698    3818.4457   -2360.4634    84.210653 
   20300    639.68489   -107.09891   0.57880033   -106.52011   -28190.021    4.3857034    4.3857034    4.3857034   -28190.021    -21416.71   -22409.353       -40744   -10584.185    3570.6552   -4336.4905    84.356348 
   20400    977.93943   -107.39353   0.88486014   -106.50867    16567.801    4.3491965    4.3491965    4.3491965    16567.801    18403.326    10156.294    21143.783    -5713.491   -8875.7984   -6527.4821    82.267271 
   20500    1082.2242   -107.49988   0.97921922   -106.52066   -18801.564    4.3842825    4.3842825    4.3842825   -18801.564   -12042.541   -25607.103   -18755.048   -3809.4279    15933.206    3462.1122    84.274386 
   20600    678.79085   -107.13947   0.61418422   -106.52529   -28848.988    4.3782083    4.3782083    4.3782083   -28848.988   -45191.912   -17717.643   -23637.409    -15145.78   -7996.2867   -5822.1349    83.924596 
   20700    782.36339   -107.22699   0.70789883    -106.5191     28409.99    4.3580415    4.3580415    4.3580415     28409.99    45857.185    10405.539    28967.246    3441.6466   -8235.3319    11205.166    82.770218 
   20800    914.24662   -107.34934   0.82722955   -106.52211   -3694.3393    4.3823435    4.3823435    4.3823435   -3694.3393   -1824.3165   -20.049291    -9238.652    10523.515    349.47359    4248.3656    84.162623 
   20900    330.69284   -106.82428   0.29921783   -106.52506    11184.972    4.3754457    4.3754457    4.3754457    11184.972     14447.67    18017.183    1090.0642   -3784.7346   -13185.121    4728.9535    83.765829 
   21000    956.62648   -107.38024   0.86557574   -106.51467    9537.7094    4.3718936    4.3718936    4.3718936    9537.7094   -2716.7332    14473.352    16856.509    12061.899    1473.2137    15391.192    83.561983 
   21100    617.85607   -107.08223   0.55904915   -106.52318     8718.436    4.3711302    4.3711302    4.3711302     8718.436   -22331.741    48040.131    446.91885   -5787.2329   -9570.9983    2787.4372    83.518219 
   21200    823.87007   -107.27021   0.74545496   -106.52476   -18020.875     4.377998     4.377998     4.377998   -18020.875   -17295.122   -25238.126   -11529.378   -5880.9156   -2296.6931    5163.2998    83.912503 
   21300    1121.5548   -107.52897    1.0148064   -106.51416    -1225.807    4.3728288    4.3728288    4.3728288    -1225.807    -26324.79    15349.299    7298.0702   -1367.9749    5575.8739    -2172.019     83.61562 
   21400    730.52872   -107.18173   0.66099774   -106.52073   -21561.079    4.3729743    4.3729743    4.3729743   -21561.079   -35628.868    -13867.56   -15186.809   -12256.382   -11257.307   -10014.548    83.623967 
   21500    919.93385   -107.35191   0.83237548   -106.51953   -8700.1968    4.3747349    4.3747349    4.3747349   -8700.1968   -14374.491    6096.8162   -17822.916   -808.45599    7606.0902    3597.3539    83.725014 
   21600    1109.5144   -107.51862     1.003912   -106.51471   -6213.1492     4.374838     4.374838     4.374838   -6213.1492   -28350.768    22919.518   -13208.198   -3362.0322    -2454.575    -5525.072    83.730934 
   21700    570.11809    -107.0401   0.51585483   -106.52424    -21510.58     4.372623     4.372623     4.372623    -21510.58   -28552.703   -12277.902   -23701.134   -3217.0178   -4349.8368    6222.8795    83.603817 
   21800    913.72085   -107.34977   0.82675383   -106.52301    15253.009    4.3627772    4.3627772    4.3627772    15253.009    9548.6194    20063.327     16147.08    5840.2764     9273.123    6722.5047    83.040339 
   21900    957.51139   -107.39186   0.86637643   -106.52548   -16290.893    4.3819079    4.3819079    4.3819079   -16290.893   -28188.327   -24375.107    3690.7551   -8321.8698   -11895.903    1522.8479    84.137528 
   22000     432.4494   -106.92043    0.3912893   -106.52914    5322.9032    4.3665257    4.3665257    4.3665257    5322.9032    15686.209    -4891.619    5174.1195   -456.23085   -1855.2735    5982.8949    83.254566 
   22100    935.79799   -107.36846   0.84672969   -106.52173    18748.667    4.3616073    4.3616073    4.3616073    18748.667    12261.442    26986.354    16998.207    -7558.409     15.63675    345.15567    82.973552 
   22200    701.96765     -107.159   0.63515508   -106.52384   -9736.2585    4.3835718    4.3835718    4.3835718   -9736.2585   -28589.968   -182.17463   -436.63335   -11242.241    -6527.083   -1853.5033    84.233408 
   22300    628.13145   -107.08953   0.56834654   -106.52118    11054.496    4.3679909    4.3679909    4.3679909    11054.496    21834.946    15093.286   -3764.7447     2803.642    12031.713    7592.9193    83.338406 
   22400    1166.2083   -107.57281    1.0552098    -106.5176   -2146.4072    4.3696653    4.3696653    4.3696653   -2146.4072   -10342.773    523.75206    3379.7992   -3589.9557   -2110.9387   -141.98662    83.434282 
   22500     763.8544   -107.21368   0.69115151   -106.52253   -13502.828    4.3727887    4.3727887    4.3727887   -13502.828   -19497.365   -23763.765    2752.6452    6969.2475    8006.0356    8524.5451    83.613322 
   22600    829.33519   -107.27274   0.75039991   -106.52234    1768.2365    4.3744049    4.3744049    4.3744049    1768.2365     5465.077    9253.7578   -9414.1251   -839.55866    10592.406    4843.5301    83.706065 
   22700    997.69621   -107.42248    0.9027365   -106.51974   -9750.4959    4.3755847    4.3755847    4.3755847   -9750.4959   -17101.727   -10374.541   -1775.2202   -2972.0222   -7532.2041   -3046.8161    83.773815 
   22800    554.62788   -107.02425   0.50183896   -106.52241    16434.987    4.3587982    4.3587982    4.3587982    16434.987     5507.949     25514.23    18282.783   -1629.9565    10403.781    5525.6102    82.813336 
   22900    730.92932   -107.18723   0.66136021   -106.52587   -3041.9575    4.3844779    4.3844779    4.3844779   -3041.9575    -17601.87    4231.0806    4244.9167   -7816.8806   -9765.5146   -12035.933    84.285652 
   23000    600.49064   -107.06656   0.54333655   -106.52322    13937.029    4.3696678    4.3696678    4.3696678    13937.029   -19573.314    3153.9922    58230.409   -6111.2248   -6305.8645   -6606.0376    83.434424 
   23100    782.78544   -107.23049   0.70828071   -106.52221     851.1939    4.3621441    4.3621441    4.3621441     851.1939   -1464.6058    9347.1517   -5328.9642    203.73883     9927.791    10730.631    83.004191 
   23200    744.97026    -107.1919   0.67406475   -106.51784   -18469.153    4.3836196    4.3836196    4.3836196   -18469.153   -40814.949   -22494.934    7902.4231   -8907.1974   -11396.532    129.55798    84.236162 
   23300    956.96748   -107.37963   0.86588429   -106.51375   -12266.245    4.3643496    4.3643496    4.3643496   -12266.245   -16471.969   -13478.097   -6848.6682    7366.3388    11269.463     14987.87    83.130157 
   23400    875.22362   -107.31308   0.79192073   -106.52116   -15681.642    4.3720177    4.3720177    4.3720177   -15681.642   -23719.709   -4079.4341   -19245.783   -48.109831    5818.8172    8115.1524    83.569103 
   23500    805.99128   -107.25126   0.72927785   -106.52198   -16929.991    4.3766561    4.3766561    4.3766561   -16929.991    -26823.77   -25781.388    1815.1834    5218.8355   -7118.7956   -938.50148    83.835365 
   23600    821.73771   -107.26056   0.74352555   -106.51704    5012.0534    4.3639501    4.3639501    4.3639501    5012.0534   -6114.6358    6948.0074    14202.789    4155.3963    7935.5043    8734.0357    83.107332 
   23700    588.00728   -107.05484   0.53204135    -106.5228   -711.00749     4.380128     4.380128     4.380128   -711.00749   -2443.4774   -4216.1619    4526.6168   -12766.834   -13991.711   -4944.4179    84.035039 
   23800    543.75219   -107.01234   0.49199841   -106.52034    9070.5358    4.3747074    4.3747074    4.3747074    9070.5358    17950.167    -9632.247    18893.688    3122.8865   -11810.004   -1216.4826    83.723433 
   23900    759.04906    -107.2004   0.68680354   -106.51359    14349.317    4.3684856    4.3684856    4.3684856    14349.317    15990.909    12895.844      14161.2   -12090.698   -9336.3718   -125.19245     83.36672 
   24000    510.84866    -106.9795    0.4622266   -106.51727    1664.9046    4.3783619    4.3783619    4.3783619    1664.9046   -16600.501    824.58684    20770.628   -4404.1535   -13904.051   -9463.5192    83.933432 
   24100    752.13404   -107.19245   0.68054668    -106.5119   -2077.2819    4.3713273    4.3713273    4.3713273   -2077.2819   -23107.147    4657.4497    12217.851     6584.069   -682.73568    4141.3542    83.529516 
   24200    891.10164   -107.32094   0.80628749   -106.51465    2379.4628    4.3688843    4.3688843    4.3688843    2379.4628   -10707.947    6961.1745    10885.161   -3960.4865   -1829.3555   -2565.4875    83.389553 
   24300     655.9352   -107.11538   0.59350396   -106.52188   -13858.426    4.3737996    4.3737996    4.3737996   -13858.426    -18264.38   -26773.755    3462.8576    11652.133   -1645.2828    2981.6665    83.671324 
   24400    1006.3667   -107.42981   0.91058169   -106.51923   -9246.3895    4.3669229    4.3669229    4.3669229   -9246.3895   -7255.6578    -8072.137   -12411.374    2577.6335    3919.6558    14234.926    83.277286 
   24500    712.67761   -107.16902   0.64484568   -106.52417   -5590.9239    4.3720607    4.3720607    4.3720607   -5590.9239   -7318.1987    2012.3729   -11466.946   -7363.5533    -10050.81   -294.97979    83.571566 
   24600    720.78999   -107.17613   0.65218593   -106.52394   -5286.8118    4.3688194    4.3688194    4.3688194   -5286.8118   -5443.5749    7247.1107   -17663.971    5807.5427   -2122.8238    8448.0887    83.385835 
   24700    1152.2185   -107.56153    1.0425515   -106.51898   -11595.415    4.3742833    4.3742833    4.3742833   -11595.415    -8356.924   -306.96957   -26122.351   -963.84618   -4183.5971    4432.3034     83.69909 
   24800    522.28884   -106.99539   0.47257792   -106.52281   -9583.7152    4.3736855    4.3736855    4.3736855   -9583.7152   -22953.071   -4197.0311   -1601.0431    6236.7083   -11917.487   -7346.0402    83.664776 
   24900    1002.7832   -107.42289   0.90733929   -106.51556   -8109.1367    4.3651497    4.3651497    4.3651497   -8109.1367   -12000.861   -8423.0666    -3903.482    9396.3011    3672.6476    10778.926    83.175883 
   25000    926.89127   -107.35694    0.8386707   -106.51827   -7609.6771    4.3768074    4.3768074    4.3768074   -7609.6771   -20652.625    10798.467   -12974.874   -3145.7029    -1545.725   -6541.8041     83.84406 
   25100    579.51413   -107.04643   0.52435656   -106.52207    8366.0755     4.366017     4.366017     4.366017    8366.0755   -4999.0871    5250.3504    24846.963    10625.429   -3527.5772    8538.2128    83.225473 
   25200    742.69525   -107.19108   0.67200627   -106.51907    11460.184    4.3721482    4.3721482    4.3721482    11460.184   -13074.452    32231.238    15223.767   -5017.3124    10178.862    11226.033    83.576583 
   25300    656.33361   -107.11459   0.59386444   -106.52072   -9692.3231    4.3785025    4.3785025    4.3785025   -9692.3231   -38590.071   -15062.471    24575.573    3652.3554   -1425.9831   -3824.7069    83.941518 
   25400    693.59412   -107.14294   0.62757854   -106.51536    25587.255    4.3592966    4.3592966    4.3592966    25587.255    15868.057    16366.486    44527.222    1835.7025    8909.9801    8157.7218    82.841746 
   25500     937.4158   -107.36942   0.84819352   -106.52122   -5633.0356    4.3782393    4.3782393    4.3782393   -5633.0356   -11087.132   -16255.954    10443.979   -428.30421    8489.4817   -12153.924    83.926381 
   25600    694.19269   -107.14287   0.62812014   -106.51475   -14304.284    4.3825897    4.3825897    4.3825897   -14304.284   -26574.717   -21455.289    5117.1529    10347.125   -4680.3724   -8457.9428    84.176807 
   25700    1198.8995   -107.58927    1.0847895   -106.50448    14216.784    4.3578344    4.3578344    4.3578344    14216.784    18133.223    18211.089    6306.0397    888.18771    7563.9893   -2219.4779    82.758415 
   25800    757.77241   -107.20552    0.6856484   -106.51988   -6763.1229    4.3775552    4.3775552    4.3775552   -6763.1229   -8121.1007   -12486.443    318.17519    11149.394   -7552.6625   -8559.3369    83.887043 
   25900    868.04928     -107.301   0.78542923   -106.51557   -9344.8182    4.3812147    4.3812147    4.3812147   -9344.8182   -33713.081   -9818.4036     15497.03    1346.0785   -6586.4494    6598.4138    84.097602 
   26000    770.90012   -107.20847   0.69752663   -106.51094     19492.16    4.3630635    4.3630635    4.3630635     19492.16    724.10219    29381.406    28370.973    4410.4328    12464.114    3758.2766    83.056684 
   26100    671.54407    -107.1281   0.60762719   -106.52047    3258.9195    4.3736015    4.3736015    4.3736015    3258.9195   -682.78362   -9453.0856    19912.628    1336.2347   -3208.5127    2019.1221    83.659954 
   26200    800.23468   -107.24076   0.72406915   -106.51669    8338.4701    4.3769948    4.3769948    4.3769948    8338.4701    156.51704    19482.464    5376.4294   -9281.0388     21443.73    4991.6096     83.85483 
   26300    570.53478   -107.03348   0.51623186   -106.51725    14319.815    4.3678044    4.3678044    4.3678044    14319.815    39751.225   -11047.252    14255.471    1856.9876    13343.455   -2508.4102    83.327727 
   26400    826.24932   -107.26719   0.74760774   -106.51959   -3845.1504      4.36759      4.36759      4.36759   -3845.1504   -6665.8666   -13889.225    9019.6407    876.08312    2711.0289   -406.18506    83.315456 
   26500    803.86872   -107.24819   0.72735731   -106.52084    10174.694    4.3729754    4.3729754    4.3729754    10174.694    18672.932    14040.934   -2189.7833    702.20026     14735.57    1499.5806    83.624031 
   26600    937.98335   -107.36522   0.84870705   -106.51651   -18320.887    4.3836435    4.3836435    4.3836435   -18320.887   -27130.667   -34330.937    6498.9424    6597.6187    -7861.188   -5756.8032    84.237542 
   26700    659.87424   -107.11421   0.59706808   -106.51714    16081.738    4.3595658    4.3595658    4.3595658    16081.738    15622.033    25192.069    7431.1106   -3095.7637   -84.537867   -1485.7569    82.857098 
   26800    885.99135   -107.32559   0.80166359   -106.52392    2205.8076    4.3660151    4.3660151    4.3660151    2205.8076    9082.4575     5709.641   -8174.6757    -761.0376    5630.7139   -3937.8445    83.225361 
   26900    833.49528   -107.27404   0.75416404   -106.51987    -10551.59    4.3829059    4.3829059    4.3829059    -10551.59   -3288.8702   -9783.5419   -18582.357    1284.0376   -5801.7145   -5935.2277    84.195029 
   27000    835.74388   -107.27546   0.75619863   -106.51927    8707.5027    4.3565694    4.3565694    4.3565694    8707.5027    13485.242    15488.884   -2851.6175   -6103.0712    19138.002    3343.0774    82.686365 
   27100    906.31348   -107.34659   0.82005148   -106.52654    -4771.423    4.3701493    4.3701493    4.3701493    -4771.423   -13007.422   -1577.7088    270.86174    10134.438    992.99615   -8552.0438    83.462004 
   27200    784.14406   -107.23129   0.70951003   -106.52178   -2321.7397    4.3805477    4.3805477    4.3805477   -2321.7397    5449.2288    -18270.65    5856.2018    8128.5556    4355.0663    1035.4611    84.059198 
   27300    737.48109   -107.18758   0.66728839    -106.5203    6558.5824     4.362523     4.362523     4.362523    6558.5824    9024.1094    4073.4069     6578.231   -3194.0576    5412.6672   -5380.3755    83.025823 
   27400    889.63787   -107.32502   0.80496304   -106.52005    9574.9361    4.3650754    4.3650754    4.3650754    9574.9361    32483.522   -22529.796    18771.083     8239.247   -9048.9554   -12715.493    83.171636 
   27500    805.89389    -107.2504   0.72918973   -106.52121   -5131.2161    4.3785261    4.3785261    4.3785261   -5131.2161   -8421.9988   -3088.1942   -3883.4553   -7087.5848    12342.587   -1938.3245    83.942873 
   27600    780.60594    -107.2284   0.70630866   -106.52209   -14462.019    4.3708265    4.3708265    4.3708265   -14462.019   -9964.3114   -11353.826   -22067.919   -3031.9272    3547.0296   -17609.643    83.500815 
   27700    930.57204   -107.36086   0.84200114   -106.51886    15120.785       4.3615       4.3615       4.3615    15120.785    38329.963    5140.3319    1892.0596    9683.6558    9291.8794   -2426.6156     82.96743 
   27800    953.33085   -107.38314   0.86259379   -106.52055   -16658.327    4.3811127    4.3811127    4.3811127   -16658.327   -10160.142   -8881.2284   -30933.612    1783.1025    9897.0797   -6002.6736    84.091727 
   27900    602.79843   -107.06682   0.54542469    -106.5214   -2288.7595     4.369096     4.369096     4.369096   -2288.7595    34795.045   -17701.996   -23959.327    13635.673   -6808.7541     -8861.18    83.401673 
   28000    838.29916   -107.27646   0.75851069   -106.51795    17653.876    4.3635784    4.3635784    4.3635784    17653.876    11175.028    8577.3037    33209.297    11167.421   -2649.0803    9723.3875    83.086095 
   28100    758.94621   -107.20974   0.68671048   -106.52303   -7456.2603    4.3762218    4.3762218    4.3762218   -7456.2603   -12204.052   -16389.434    6224.7049    5685.7366   -738.35254    -4647.211    83.810409 
   28200    471.30407    -106.9518   0.42644583   -106.52535    19234.416    4.3698603    4.3698603    4.3698603    19234.416    28265.303   -2955.5866    32393.532    8537.1506   -10602.877     10711.88    83.445451 
   28300    1074.9564   -107.48642    0.9726431   -106.51378    7835.0988    4.3695769    4.3695769    4.3695769    7835.0988    1829.8128   -863.15719    22538.641    934.71655    1788.6284    10410.514    83.429218 
   28400    528.12804   -107.00151   0.47786135   -106.52365   -14129.205      4.36783      4.36783      4.36783   -14129.205   -17794.896   -10872.877   -13719.841    8390.2771   -179.98022    -8356.869    83.329195 
   28500     901.0985   -107.33912   0.81533286   -106.52378   -3428.4376    4.3690713    4.3690713    4.3690713   -3428.4376    8871.3606   -16248.126   -2908.5471    6058.7754   -5179.1413    9624.2249    83.400257 
   28600    1103.4566   -107.51823   0.99843075    -106.5198   -954.18414    4.3745426    4.3745426    4.3745426   -954.18414   -641.74735   -1577.9616   -642.84349   -2326.6519    3960.5464   -11033.512     83.71397 
   28700     544.6605   -107.02251   0.49282027   -106.52969   -19542.331    4.3664124    4.3664124    4.3664124   -19542.331   -21555.524   -31703.492   -5367.9773    13187.599   -8483.5636   -3283.5984    83.248085 
   28800    826.82742   -107.27648   0.74813083   -106.52835     17235.09    4.3608207    4.3608207    4.3608207     17235.09      261.145    17979.953    33464.172    1903.4151    114.11751    9058.3387    82.928668 
   28900    815.29915   -107.26594    0.7376998   -106.52824   -4741.4887    4.3752411    4.3752411    4.3752411   -4741.4887     -14677.1   -10771.099    11223.733   -1650.5679    366.44859   -6022.5563    83.754082 
   29000    494.42181   -106.97688   0.44736324   -106.52952   -6841.4288    4.3701234    4.3701234    4.3701234   -6841.4288   -22956.257   -3918.7077    6350.6781    13009.913   -7497.4059    10561.915    83.460524 
   29100    1099.7371   -107.51418   0.99506522   -106.51912    2640.2322    4.3641825    4.3641825    4.3641825    2640.2322   -11097.656    15264.606    3753.7464   -7000.0906    7539.0155   -4928.7256    83.120609 
   29200    801.41604   -107.25039   0.72513808   -106.52525   -14080.971    4.3719885    4.3719885    4.3719885   -14080.971   -14156.939   -9366.5337   -18719.441    7722.6559   -10137.513   -4616.9463    83.567429 
   29300    681.34989   -107.14332    0.6164997   -106.52682   -14401.368    4.3718417    4.3718417    4.3718417   -14401.368   -22187.297   -15000.467   -6016.3394    1659.8327    1914.3476    994.15346    83.559011 
   29400    1162.2681   -107.57066    1.0516446   -106.51902    70.725562    4.3681676    4.3681676    4.3681676    70.725562   -1340.0282   -3356.0686    4908.2735   -5296.4296    5516.4118   -2302.8844    83.348519 
   29500    792.87564   -107.23978   0.71741054   -106.52237   -2193.5565    4.3697426    4.3697426    4.3697426   -2193.5565   -9475.5962    -14593.62    17488.546    8286.3878   -9351.6037    4576.7438    83.438709 
   29600    586.88192   -107.05556   0.53102309   -106.52454   -6658.8998    4.3770955    4.3770955    4.3770955   -6658.8998   -21945.756    11472.319   -9503.2628   -5351.7812    8012.4347    8314.6919    83.860622 
   29700    969.50753    -107.3932   0.87723079   -106.51597    16524.342    4.3637892    4.3637892    4.3637892    16524.342    8943.8063    19940.378    20688.843    2582.6711   -4485.6208    6416.8309     83.09814 
   29800     565.8305   -107.03868   0.51197533   -106.52671    9070.4845    4.3689988    4.3689988    4.3689988    9070.4845    1090.2564     24396.71    1724.4868    9221.3642   -3999.7331    15019.341    83.396107 
   29900    592.97422   -107.06318   0.53653554   -106.52664   -11580.964    4.3801107    4.3801107    4.3801107   -11580.964   -16375.452    2663.2503   -21030.689   -7989.0763     5799.839    6343.3737    84.034046 
   30000    957.48425   -107.38179   0.86635187   -106.51544    30585.205    4.3508993    4.3508993    4.3508993    30585.205    22099.984    29460.971     40194.66    1248.1144   -5803.4664    1842.8802    82.363939 
   30100    567.01614   -107.04989   0.51304812   -106.53684   -17776.676    4.3787986    4.3787986    4.3787986   -17776.676   -13847.749    -10335.08   -29147.198   -3665.1274    9927.9979    9876.4524    83.958549 
   30200     771.3462   -107.22202   0.69793025   -106.52409   -19244.706    4.3795128    4.3795128    4.3795128   -19244.706   -6511.6878   -36297.557   -14924.874   -10778.049   -1305.1656    -12907.01    83.999635 
   30300    1270.6108   -107.65686    1.1496754   -106.50719    18023.118    4.3446864    4.3446864    4.3446864    18023.118    18734.452    8933.6698    26401.232    377.18372    9349.9131    760.07162    82.011604 
   30400    540.54602   -107.01743    0.4890974   -106.52833   -28489.477    4.3786096    4.3786096    4.3786096   -28489.477    -9014.434   -39098.475   -37355.522   -5558.6695     6903.908    870.74931    83.947678 
   30500      819.602    -107.2657   0.74159311   -106.52411   -9149.9101    4.3723002    4.3723002    4.3723002   -9149.9101     2194.278   -25282.094    -4361.914    617.77828   -514.13231   -12198.936      83.5853 
   30600    1063.0161   -107.47761   0.96183931   -106.51577      6298.59    4.3623326    4.3623326    4.3623326      6298.59   -4710.4994    4465.1249    19141.144    5549.3965    11277.345    8382.8727    83.014952 
   30700    442.72499   -106.92892   0.40058687   -106.52833   -12129.595    4.3701204    4.3701204    4.3701204   -12129.595   -705.34633   -12489.212   -23194.227   -4096.9494   -2608.4453   -5508.8359     83.46035 
   30800    695.15732   -107.15573   0.62899295   -106.52674    11584.563    4.3680021    4.3680021    4.3680021    11584.563   -16298.343    24008.034    27043.997    4029.2437    601.32467   -8473.4283    83.339044 
   30900    952.85015   -107.38687   0.86215884   -106.52471   -773.72517    4.3688927    4.3688927    4.3688927   -773.72517   -17066.201    17001.178   -2256.1524    2637.9277    6594.7847    621.55373    83.390033 
   31000    448.21657   -106.93899   0.40555577   -106.53343    3132.0819    4.3614174    4.3614174    4.3614174    3132.0819    -4184.601   -13323.427    26904.273   -6835.1296   -5386.9753   -19018.897    82.962715 
   31100    1172.9687   -107.58932    1.0613267   -106.52799   -8392.3329    4.3741218    4.3741218    4.3741218   -8392.3329   -22212.955   -14466.883     11502.84    299.27057   -3975.3885    856.92569    83.689819 
   31200    933.54317   -107.37232   0.84468948   -106.52763   -3415.2814    4.3676355    4.3676355    4.3676355   -3415.2814   -10171.052   -23504.463    23429.671   -4710.1251   -1797.4992   -5711.1995    83.318061 
   31300    499.62572   -106.98434   0.45207185   -106.53227   -434.12462    4.3634499    4.3634499    4.3634499   -434.12462   -8673.8492   -17210.047    24581.522   -4853.0146   -10652.759   -10663.465    83.078758 
   31400    1220.2401    -107.6257    1.1040989    -106.5216   -7348.5004    4.3792119    4.3792119    4.3792119   -7348.5004   -28180.534   -1015.3241    7150.3565   -1160.7079    3778.2994    1891.1942    83.982325 
   31500    521.40085   -106.99892   0.47177445   -106.52714    13665.343    4.3620683    4.3620683    4.3620683    13665.343   -9383.8825    12798.195    37581.717    -8897.305   -6713.6604   -22291.456    82.999865 
   31600    619.32308   -107.09306   0.56037654   -106.53268   -1583.6767    4.3628046    4.3628046    4.3628046   -1583.6767   -7480.2192    29775.358   -27046.169    77.380903   -4331.1959    2642.6668    83.041902 
   31700    868.12615   -107.31112   0.78549878   -106.52562   -2032.4062    4.3767716    4.3767716    4.3767716   -2032.4062   -33339.415    7706.2414    19535.955   -2354.8167    11444.939    4957.7542    83.842005 
   31800    768.47524   -107.22137   0.69533255   -106.52604   -8320.3136    4.3668921    4.3668921    4.3668921   -8320.3136   -10164.657   -10395.882   -4400.4025   -6170.4985   -11857.613   -14115.555    83.275523 
   31900    883.85507   -107.32305   0.79973064   -106.52332   -9419.3208    4.3646709    4.3646709    4.3646709   -9419.3208   -7025.9432   -12577.553   -8654.4666     2758.832    6131.4545    7691.8315    83.148516 
   32000    957.98154   -107.39016   0.86680183   -106.52336   -16280.471    4.3677985    4.3677985    4.3677985   -16280.471   -35059.035   -15176.024     1393.645   -2198.2749     5016.628   -4434.3352    83.327391 
   32100    666.47155   -107.12848   0.60303746   -106.52545   -19696.051    4.3760368    4.3760368    4.3760368   -19696.051   -15275.382   -17691.065   -26121.705    2240.3371   -7213.8546   -16333.329    83.799784 
   32200    740.74036   -107.19475   0.67023744   -106.52451    -1061.129    4.3600976    4.3600976    4.3600976    -1061.129   -18723.735    23851.343   -8310.9946    2428.9763    16528.064    10024.353    82.887422 
   32300    784.47155   -107.23835   0.70980635   -106.52854    7314.3577    4.3644886    4.3644886    4.3644886    7314.3577   -21344.039    35642.643     7644.469   -4081.7672   -3132.6388   -7421.0247    83.138099 
   32400    631.36856   -107.10103   0.57127554   -106.52976   -14853.002    4.3780873    4.3780873    4.3780873   -14853.002    -29658.65    9003.4075   -23903.764    1395.3131    2837.4217   -2545.9335    83.917638 
   32500    889.25351   -107.32688   0.80461526   -106.52226   -3975.7824    4.3593549    4.3593549    4.3593549   -3975.7824   -22263.417    3929.7268    6406.3436   -4442.7454    14665.931     12189.56    82.845072 
   32600    1051.6312   -107.47601   0.95153801   -106.52447   -9239.9941     4.371823     4.371823     4.371823   -9239.9941   -16755.841   -14381.608    3417.4657   -8412.1686   -1646.8274   -20964.833     83.55794 
   32700    757.63912   -107.21273    0.6855278    -106.5272   -9882.8961    4.3727065    4.3727065    4.3727065   -9882.8961   -22904.222    16162.998   -22907.464   -2063.0206    10299.721    2423.5642    83.608609 
   32800    724.83658   -107.18032   0.65584737   -106.52447    15880.297    4.3577153    4.3577153    4.3577153    15880.297   -16650.258    41940.265    22350.882   -3919.4708     585.7628    3612.5625    82.751629 
   32900     764.5369    -107.2184   0.69176905   -106.52663    -3626.794    4.3742256    4.3742256    4.3742256    -3626.794   -19721.641    12606.965   -3765.7053   -4731.5224    4972.8828   -3403.8588    83.695775 
   33000    706.09115   -107.16583   0.63888611   -106.52694     10138.77    4.3644206    4.3644206    4.3644206     10138.77   -14061.709    26858.331     17619.69    159.55591    4594.3446     10958.23    83.134211 
   33100    956.15854   -107.39126   0.86515234   -106.52611   -9598.2139    4.3679308    4.3679308    4.3679308   -9598.2139    -29036.13   -15015.862     15257.35   -1069.7024   -9315.7488   -1522.4952    83.334965 
   33200    836.40398   -107.28096    0.7567959   -106.52416   -4820.6925    4.3718493    4.3718493    4.3718493   -4820.6925   -24930.906    7551.3697    2917.4591   -2759.1758    9477.5254   -19351.567    83.559448 
   33300    912.37322   -107.35028   0.82553446   -106.52475   -11157.675    4.3684034    4.3684034    4.3684034   -11157.675   -24615.589    2596.1006   -11453.536    2734.7932   -6252.1475    2300.7687    83.362014 
   33400     738.5001    -107.1956   0.66821041   -106.52739    2227.4757    4.3678266    4.3678266    4.3678266    2227.4757   -26316.787    18356.444    14642.771    1337.3136   -3621.0923    690.00579    83.328998 
   33500    767.47325   -107.21788   0.69442592   -106.52346    5732.3845    4.3687706    4.3687706    4.3687706    5732.3845   -21679.774    27703.094    11173.834   -3393.0244    6459.8819    -1078.212    83.383042 
   33600    557.69134   -107.03409   0.50461084   -106.52948   -7.6087704    4.3703225    4.3703225    4.3703225   -7.6087704   -40139.875   -6684.1041    46801.153     925.2289   -7893.5287    13520.065     83.47193 
   33700    856.03491   -107.29942   0.77455837   -106.52486    12524.614    4.3655186    4.3655186    4.3655186    12524.614   -15862.179    20893.352    32542.669    1310.6561    4258.6363   -5271.6607    83.196973 
   33800    843.55987    -107.2889    0.7632707   -106.52563   -17016.733    4.3762838    4.3762838    4.3762838   -17016.733   -32409.254   -9943.2911   -8697.6533    -6149.562    817.43574   -10135.031    83.813977 
   33900     880.5825   -107.32169   0.79676955   -106.52492   -7256.4981    4.3617378    4.3617378    4.3617378   -7256.4981   -30403.835    1333.9094    7300.4311    -2394.993   -7971.3759    2269.8999    82.980998 
   34000     911.7857   -107.34918   0.82500286   -106.52418    15122.304    4.3654718    4.3654718    4.3654718    15122.304   -9589.9682    37965.791    16991.089    1949.2665    4819.3712   -7127.6296    83.194295 
   34100    669.28134   -107.13398   0.60557982    -106.5284   -15619.244     4.378007     4.378007     4.378007   -15619.244   -41596.735   -18001.707     12740.71   -6007.2157   -7567.6388    4220.9924    83.913023 
   34200    663.61799     -107.126    0.6004555   -106.52555    23487.938    4.3514193    4.3514193    4.3514193    23487.938   -14130.177    16289.718    68304.274   -1732.3551   -5154.9034    11149.723    82.393474 
   34300    1044.3143     -107.479    0.9449175   -106.53408     771.4225    4.3705358    4.3705358    4.3705358     771.4225   -13358.358     14036.15    1636.4749     1663.504    1110.5361   -15741.202    83.484155 
   34400    858.22297   -107.30701   0.77653818   -106.53047   -24171.144     4.382223     4.382223     4.382223   -24171.144   -48045.973   -19061.676   -5405.7832   -2000.7574   -11733.203    775.53229     84.15568 
   34500    855.45078   -107.29662   0.77402984   -106.52259    13022.753    4.3560143    4.3560143    4.3560143    13022.753   -8521.0669    16400.097    31189.231    2748.1229    814.20106   -5555.6422    82.654763 
   34600    800.35712   -107.24877   0.72417994   -106.52459    13216.148    4.3679019    4.3679019    4.3679019    13216.148    -15045.48    7722.8857    46971.037    -598.5271   -427.05427   -12354.645    83.333308 
   34700    727.25564   -107.18785   0.65803619   -106.52981   -16803.611    4.3752938    4.3752938    4.3752938   -16803.611   -42058.723    6189.2296    -14541.34    3463.3778   -11620.898    12949.705    83.757108 
   34800    791.64943   -107.24196   0.71630104   -106.52566    15843.865    4.3572732    4.3572732    4.3572732    15843.865   -9779.7869    43675.521    13635.861    2469.5346    9882.6372   -10323.929    82.726449 
   34900    1033.0228   -107.46149   0.93470077   -106.52679   -11993.148    4.3707771    4.3707771    4.3707771   -11993.148    -28060.39   -3800.7058    -4118.347    3234.0006   -8896.8253   -6772.7013    83.497982 
[...]
   91200    1214.7958   -107.61874    1.0991728   -106.51957    10557.732    4.3463101    4.3463101    4.3463101    10557.732    12190.895     15890.11    3592.1904   -4653.1806   -4253.7972    6043.3905    82.103585 
   91300    471.65153   -106.95783   0.42676022   -106.53107   -15909.254    4.3570688    4.3570688    4.3570688   -15909.254    14502.119   -29933.419   -32296.462   -1541.1233   -12621.143   -40318.432    82.714803 
   91400    913.72627   -107.35064   0.82675873   -106.52388    4798.7405    4.3489702    4.3489702    4.3489702    4798.7405   -2757.0158    -1327.177    18480.414   -18087.118    10209.588     7558.472    82.254428 
   91500    802.05935   -107.25179   0.72572015   -106.52607   -483.24324    4.3492764    4.3492764    4.3492764   -483.24324    13897.589   -2939.1459   -12408.173    2602.8347   -5897.7679   -22991.489    82.271803 
   91600    619.48656   -107.08942   0.56052445   -106.52889   -14112.561    4.3581877    4.3581877    4.3581877   -14112.561   -5540.4321   -25392.929   -11404.321   -11055.133   -7391.0654   -22868.251    82.778543 
   91700    1028.5338   -107.45165   0.93063902   -106.52101    9559.9512    4.3451431    4.3451431    4.3451431    9559.9512    4335.8639    12880.849    11463.141   -9783.2366    17841.203    5096.2842    82.037467 
   91800    723.81235   -107.18115   0.65492062   -106.52623    -12887.66    4.3550676    4.3550676    4.3550676    -12887.66    10298.663   -21945.988   -27015.656    3144.8036   -7271.5856   -39874.106    82.600882 
   91900    765.95001   -107.21712   0.69304767   -106.52407   -2294.6448    4.3516283    4.3516283    4.3516283   -2294.6448   -17552.014   -6360.4617    17028.541   -17559.204    1743.1094    3137.3981    82.405342 
   92000    786.57262   -107.23609   0.71170744   -106.52438   -746.30719    4.3487288    4.3487288    4.3487288   -746.30719    9379.5642    2157.5461   -13776.032    2254.1003    16812.407   -20238.168    82.240732 
   92100    880.59036   -107.32019   0.79677666   -106.52341   -10772.867    4.3575312    4.3575312    4.3575312   -10772.867    6983.3594   -24934.246   -14367.714    -5758.199   -8034.6895   -25219.006    82.741145 
   92200    819.64931   -107.26518   0.74163592   -106.52355    5906.1617    4.3442649    4.3442649    4.3442649    5906.1617   -7570.8635     7104.449      18184.9   -15680.421    10093.232     7383.389    81.987735 
   92300    635.46435   -107.10383    0.5749815   -106.52884   -11325.705    4.3547306    4.3547306    4.3547306   -11325.705    10056.061   -15590.394   -28442.781    7017.8993    9614.5713   -36819.231    82.581713 
   92400    1002.1726   -107.42784   0.90678684   -106.52105   -4687.0281    4.3555681    4.3555681    4.3555681   -4687.0281   -8888.1671   -11475.524    6302.6069   -17448.001   -3635.5976    1720.6255    82.629367 
   92500    643.13828   -107.10914   0.58192503   -106.52722    1413.2061    4.3425733    4.3425733    4.3425733    1413.2061    3467.4131    7634.8213    -6862.616    -5327.564    16164.986   -12381.334    81.892002 
   92600    764.79521   -107.22037   0.69200278   -106.52837   -10895.681    4.3569597    4.3569597    4.3569597   -10895.681    10890.424   -19540.491   -24036.977    2890.6855    3554.8467   -27213.058    82.708592 
   92700    950.08585   -107.38285   0.85965764   -106.52319    3256.8895    4.3520188    4.3520188    4.3520188    3256.8895   -13793.505   -538.78686     24102.96   -21741.802    1845.5136    13186.219    82.427533 
   92800      515.578   -106.99836   0.46650581   -106.53186   -12642.416    4.3487831    4.3487831    4.3487831   -12642.416    284.66166   -5833.3792   -32378.531    7532.0485    17265.069   -35420.717    82.243814 
   92900    1071.3117   -107.49497   0.96934534   -106.52563    1278.5483    4.3510254    4.3510254    4.3510254    1278.5483    5231.7229   -8819.5409     7423.463   -7516.2748    -6463.039   -5256.2052    82.371096 
   93000    765.57421   -107.22222   0.69270764   -106.52951   -3502.0057    4.3514255    4.3514255    4.3514255   -3502.0057   -7451.6497   -4571.1609    1516.7935   -13058.348    11285.906   -4967.6061    82.393822 
   93100    506.00248   -106.99217   0.45784168   -106.53433     -18012.1    4.3548258    4.3548258    4.3548258     -18012.1   -3443.8482   -16559.133   -34033.317    9867.0589    11369.452   -36438.979    82.587126 
   93200    1209.8047   -107.61641    1.0946567   -106.52175     15395.66    4.3450425    4.3450425    4.3450425     15395.66    3403.9431    9225.7759     33557.26   -13313.704   -5690.8437    11971.633    82.031773 
   93300    548.14031   -107.03038   0.49596887   -106.53441   -14329.476    4.3541457    4.3541457    4.3541457   -14329.476    3724.6389   -18828.104   -27884.963   -3280.5474    16938.819    -33236.08    82.548439 
   93400    757.79946   -107.21635   0.68567287   -106.53067   -5870.1025    4.3530321    4.3530321    4.3530321   -5870.1025    2915.6958   -17932.334   -2593.6689    7938.8824    4424.2498   -13075.859    82.485121 
   93500    1037.4393   -107.46219   0.93869687   -106.52349    8489.0266    4.3464845    4.3464845    4.3464845    8489.0266    5205.9461     209.1451    20051.989   -11184.945   -437.28588   -1631.6837    82.113469 
   93600    441.09274   -106.93402   0.39910998   -106.53491    -18130.64    4.3567029    4.3567029    4.3567029    -18130.64   -3060.8412   -19128.157   -32202.922    6938.6423    19333.721   -37330.901    82.693971 
   93700    1179.7932   -107.59033    1.0675017   -106.52283    6856.6698    4.3485022    4.3485022    4.3485022    6856.6698    2864.4564   -6762.8588    24468.412    8987.6744   -1389.8571    7443.3112     82.22788 
   93800    677.46371   -107.14301    0.6129834   -106.53002   -2891.6579     4.349727     4.349727     4.349727   -2891.6579     15466.86   -14765.843   -9375.9902   -9875.2044    5658.2058   -20000.251     82.29738 
   93900    546.04723   -107.02843   0.49407501   -106.53436   -10906.022    4.3532479    4.3532479    4.3532479   -10906.022   -7227.0584   -13321.977    -12169.03    17846.108    18252.565   -17129.222    82.497387 
   94000    1255.8766   -107.65815    1.1363435    -106.5218    9136.3659    4.3508859    4.3508859    4.3508859    9136.3659    9919.0029    -1768.502    19258.597    2008.4469   -8570.3847    3691.5926    82.363178 
   94100    487.72195   -106.97402   0.44130107   -106.53272   -8515.8699    4.3525103    4.3525103    4.3525103   -8515.8699     15983.05   -15716.337   -25814.323   -4461.3208    16051.844   -27794.504    82.455461 
   94200    746.11862   -107.20399    0.6751038   -106.52888    588.73245    4.3474776    4.3474776    4.3474776    588.73245   -3634.9676   -15481.281    20882.446    20469.159    7031.4259    3544.0822    82.169768 
   94300    999.49832   -107.42857   0.90436709    -106.5242    3191.2435    4.3533548    4.3533548    4.3533548    3191.2435     21885.12    -13143.89     832.5008   -4860.9966   -4571.2298   -14785.394    82.503465 
   94400    609.10289   -107.08341   0.55112909   -106.53228   -7251.2083    4.3523112    4.3523112    4.3523112   -7251.2083    -6718.035   -6419.8411   -8615.7488    8595.3005    21463.125    -14846.64    82.444145 
   94500    959.42666   -107.39222    0.8681094   -106.52411    7156.4406    4.3489728    4.3489728    4.3489728    7156.4406     10562.18   -13260.404    24167.546     19506.79    1666.9131    7610.5702     82.25458 
   94600    835.56524   -107.28019   0.75603699   -106.52416   -2036.0728    4.3521205    4.3521205    4.3521205   -2036.0728    22556.118   -17913.645   -10750.691   -7763.4697    4602.3073   -24859.175    82.433307 
   94700    516.46385    -106.9983   0.46730735   -106.53099    471.02393    4.3493173    4.3493173    4.3493173    471.02393   -1038.4236   -10640.017    13091.512    24518.377    21648.901    3127.1108    82.274126 
   94800    1122.0808   -107.53873    1.0152822   -106.52345    1872.9457    4.3539159    4.3539159    4.3539159    1872.9457    15601.444   -13354.689    3372.0824    5901.5174   -4489.3251   -4155.3223     82.53537 
   94900    775.80354   -107.22926   0.70196334    -106.5273    2450.8008    4.3493064    4.3493064    4.3493064    2450.8008    13261.223   -2573.8033    -3335.017     3599.131    11196.224   -17951.111    82.273506 
   95000    509.89874   -106.99198    0.4613671   -106.53061   -3551.1447    4.3500553    4.3500553    4.3500553   -3551.1447   -10828.018    -24213.43    24388.014    27189.483     14231.49    8660.7484    82.316015 
   95100    1138.4039   -107.55176    1.0300518   -106.52171   -482.25464     4.353638     4.353638     4.353638   -482.25464    15122.935   -11853.125   -4716.5741   -5733.3922   -6270.3442   -10167.823    82.519569 
   95200    631.48842   -107.10179     0.571384    -106.5304    4931.6013    4.3471903    4.3471903    4.3471903    4931.6013   -2239.9235    3643.5007    13391.227    22511.015    15921.878    -5387.001    82.153481 
   95300    774.04318   -107.22929   0.70037053   -106.52892   -5963.5495    4.3557034    4.3557034    4.3557034   -5963.5495   -1218.1383   -27381.661    10709.151    9464.4016    4511.9632    6593.4334    82.637066 
   95400    1037.4522   -107.46041   0.93870851    -106.5217    1880.5429    4.3502956    4.3502956    4.3502956    1880.5429    14139.859    -6087.444   -2410.7863    -856.6315   -1095.3287   -9166.7974    82.329655 
   95500    371.67211   -106.86921   0.33629674   -106.53291   -1025.8898    4.3461559    4.3461559    4.3461559   -1025.8898   -14203.851   -12533.416    23659.598    27297.006    15306.314    3671.6027    82.094849 
   95600    1088.4928   -107.51009    0.9848912    -106.5252   -6714.1809    4.3565086    4.3565086    4.3565086   -6714.1809    5415.1804   -18311.397    -7246.326   -4397.6852   -1759.0915    9877.4092    82.682902 
   95700    890.26762   -107.33275   0.80553285   -106.52722    2440.7727    4.3483336    4.3483336    4.3483336    2440.7727   -2281.6362    1781.9584    7821.9959    12528.791    1826.6699   -6323.7328    82.218312 
   95800     478.2474   -106.96571   0.43272829   -106.53298   -11546.952    4.3522678    4.3522678    4.3522678   -11546.952   -15967.565   -31566.864    12893.574    18743.334     13069.34    14879.162    82.441677 
   95900    1112.1439   -107.52857    1.0062912   -106.52227    4451.6462    4.3499456    4.3499456    4.3499456    4451.6462    20384.766   -9320.0079    2290.1802   -7231.8048   -6721.6439    10122.873    82.309786 
   96000    643.69601   -107.11339   0.58242967   -106.53096   -2156.9346    4.3496976    4.3496976    4.3496976   -2156.9346   -15762.632   -4480.9116     13772.74    24701.521    4828.2885   -3191.9532    82.295707 
   96100    712.64722   -107.17509   0.64481818   -106.53028   -5918.9244    4.3559662    4.3559662    4.3559662   -5918.9244    13730.288   -28099.052   -3388.0089    3638.5903    8445.6495     27590.33    82.652029 
   96200    1133.0517   -107.54607     1.025209   -106.52086    12626.748    4.3460556    4.3460556    4.3460556    12626.748    20801.763    209.62548    16868.855    3324.9326    -11256.01   -3236.8106    82.089167 
   96300    429.88096   -106.92163   0.38896533   -106.53267   -12119.606    4.3533453    4.3533453    4.3533453   -12119.606   -19303.256    -23801.21    6745.6501    23013.257    4904.9523    15275.117    82.502928 
   96400    907.45062   -107.34749   0.82108039   -106.52641    5061.7117    4.3507101    4.3507101    4.3507101    5061.7117    28251.913   -11853.788   -1212.9902    -7735.312    4056.0939    21362.089    82.353189 
   96500    981.69069   -107.41449   0.88825437   -106.52624    1895.6152    4.3495847    4.3495847    4.3495847    1895.6152   -4682.6115   -6513.2717    16882.729    18343.906   -10249.664   -6401.5314    82.289301 
   96600    521.30346   -107.00378   0.47168632    -106.5321   -10649.718    4.3553511    4.3553511    4.3553511   -10649.718    3887.3761   -33207.536    -2628.993    8853.5688    8517.4895    30262.595    82.617019 
   96700    1079.4109   -107.49764   0.97667366   -106.52096    16838.249    4.3443254    4.3443254    4.3443254    16838.249    33746.634   -2358.2015    19126.315   -2003.2552    1375.4769   -6420.8237    81.991165 
   96800    585.86249   -107.06057   0.53010069   -106.53047   -12132.073     4.355677     4.355677     4.355677   -12132.073   -15883.546   -27540.796    7028.1223    23543.855   -1763.8292    11418.552    82.635567 
   96900     806.7521   -107.25674   0.72996626   -106.52678    4246.2558    4.3509783    4.3509783    4.3509783    4246.2558    28831.863   -14824.012   -1269.0838   -1583.0304    8126.8808     17365.09    82.368425 
   97000    999.15947   -107.42793   0.90406048   -106.52386    9267.6407    4.3454461    4.3454461    4.3454461    9267.6407    15354.102   -10303.528    22752.348    9499.4197    919.84776    -17313.42    82.054635 
   97100     630.8176   -107.09926   0.57077703   -106.52849   -13763.293    4.3575402    4.3575402    4.3575402   -13763.293   -13144.391   -33512.092    5366.6062    19885.484     4919.512     23734.82    82.741658 
   97200    922.78253   -107.35624   0.83495302   -106.52129    11793.894    4.3459042    4.3459042    4.3459042    11793.894     33247.62   -1983.1497    4117.2101   -8256.0938    3877.2006   -10027.542    82.080583 
   97300    611.49858   -107.08173   0.55329677   -106.52844   -8888.0727    4.3533256    4.3533256    4.3533256   -8888.0727   -13398.877   -27206.221    13940.881    22483.776    1725.8824   -4012.5687    82.501807 
   97400    927.84317    -107.3633     0.839532   -106.52376    4124.2793    4.3518623    4.3518623    4.3518623    4124.2793    20753.827   -17781.705    9400.7164    4365.5904    3717.0893    13082.516    82.418638 
   97500    849.47826   -107.29407   0.76862578   -106.52545    2145.7338    4.3469939    4.3469939    4.3469939    2145.7338    18733.505   -17925.977     5629.674    4130.9161   -238.36962   -26229.808    82.142346 
   97600    596.96353   -107.06929   0.54014515   -106.52915   -11020.426    4.3554262    4.3554262    4.3554262   -11020.426   -27099.765   -30738.909    24777.397    26748.398   -1923.0453    9707.1742    82.621289 
   97700    1056.7848   -107.47681   0.95620105   -106.52061    8945.7611     4.345027     4.345027     4.345027    8945.7611    32355.762   -2765.5791   -2752.8991   -7389.2197   -106.45571    -12517.39    82.030894 
   97800    523.22593   -107.00455   0.47342581   -106.53113   -14023.448    4.3549576    4.3549576    4.3549576   -14023.448   -12009.821   -33623.271    3562.7474    24626.367   -1063.2037   -17783.734    82.594629 
   97900     991.5613   -107.42152    0.8971855   -106.52433    1923.3568    4.3509806    4.3509806    4.3509806    1923.3568   -4206.8505   -17474.933    27451.854    7646.9404   -1393.9402    9220.3087    82.368552 
   98000     864.2038   -107.30685   0.78194976    -106.5249    3712.9277    4.3455425    4.3455425    4.3455425    3712.9277    26457.986   -6001.7813   -9317.4215    2520.8509    2246.1189   -28065.284    82.060095 
   98100    481.52733   -106.96637   0.43569605   -106.53067   -18782.399    4.3578967    4.3578967    4.3578967   -18782.399   -33072.093    -35812.19    12537.086    31256.797    865.20725   -2085.2074    82.761966 
   98200    1103.0284   -107.51827   0.99804328   -106.52023    15264.234     4.343135     4.343135     4.343135    15264.234    26828.036    6199.0156    12765.651   -11610.624   -717.46117    -5250.408    81.923783 
   98300    593.06774   -107.06829   0.53662015   -106.53167   -13632.938    4.3554176    4.3554176    4.3554176   -13632.938   -2431.6481   -32893.562   -5573.6048    29831.265    1919.6806   -23115.253    82.620801 
   98400    929.57965   -107.36803    0.8411032   -106.52693   -2875.6827    4.3513795    4.3513795    4.3513795   -2875.6827   -16135.283   -17150.978    24659.214    14676.915    -340.6738    3265.8055    82.391212 
   98500    892.25094   -107.33033    0.8073274   -106.52301     14861.13    4.3432063    4.3432063    4.3432063     14861.13     26522.17    12854.565    5206.6551   -6791.4668   -4280.2842   -15352.558    81.927815 
   98600    411.90532   -106.90432   0.37270059   -106.53161   -25037.535    4.3604958    4.3604958    4.3604958   -25037.535   -25606.351    -44695.49    -4810.763    48090.878    2335.6671   -12025.979    82.910135 
   98700    1206.1351    -107.6112    1.0913364   -106.51987    23248.242    4.3413489    4.3413489    4.3413489    23248.242    28902.552    24884.993    15957.182   -15002.768   -2835.0406    3618.0213    81.822748 
   98800    552.63805   -107.03435   0.50003852   -106.53431   -14697.749    4.3549123    4.3549123    4.3549123   -14697.749   -11986.612   -36577.765    4471.1312    31453.213   -2991.2977   -17664.225     82.59205 
   98900    807.52339   -107.26256   0.73066413    -106.5319   -7295.9427     4.352197     4.352197     4.352197   -7295.9427   -12398.472   -20469.846     10980.49    29996.045    4309.1697   -1589.5735    82.437655 
   99000    1140.8204   -107.55498    1.0322382   -106.52274    15130.328    4.3430761    4.3430761    4.3430761    15130.328    22284.356    17368.572    5738.0545   -10689.422   -3836.1198   -699.97153    81.920448 
   99100    149.90907   -106.67347   0.13564087   -106.53783   -32175.808     4.360314     4.360314     4.360314   -32175.808   -32032.694   -59700.439   -4794.2911    54044.869   -309.33286   -17082.915    82.899762 
   99200    1295.1207   -107.69566    1.1718524    -106.5238    18716.543    4.3417181    4.3417181    4.3417181    18716.543    23692.805    21752.072    10704.752   -10042.904    1058.6865    6190.3531    81.843625 
   99300    742.36325   -107.20555   0.67170587   -106.53384    -14254.61    4.3558956    4.3558956    4.3558956    -14254.61   -24301.829   -26385.959    7923.9585    32035.503   -822.02108   -8730.4474    82.648004 
   99400     538.3694   -107.02335   0.48712794   -106.53622   -11883.369    4.3499782    4.3499782    4.3499782   -11883.369   -10619.014   -28842.748    3811.6559    29782.334   -3230.3151   -10802.434     82.31164 
   99500    1158.8372   -107.57022    1.0485402   -106.52168    16743.424    4.3446357    4.3446357    4.3446357    16743.424    20186.874    25453.828    4589.5695   -9709.7391    408.14946    9319.5366    82.008731 
   99600    361.00081   -106.86107   0.32664112   -106.53443    -26433.32    4.3596384    4.3596384    4.3596384    -26433.32   -32629.243   -44776.776   -1893.9403    48130.419   -1418.8423   -13852.548    82.861236 
   99700    1084.2205   -107.50629   0.98102549   -106.52527    18707.009    4.3413984    4.3413984    4.3413984    18707.009    26939.961    19783.644    9397.4218   -7874.4409   -2562.9625   -5657.7966     81.82555 
   99800    927.01393   -107.36568   0.83878169    -106.5269   -6973.0828    4.3554939    4.3554939    4.3554939   -6973.0828   -15404.215   -16097.331    10582.298    21619.573    830.46208    5180.0205    82.625142 
   99900    415.88865   -106.91024   0.37630479   -106.53394   -11232.613    4.3503663    4.3503663    4.3503663   -11232.613    -2530.819   -25300.998   -5866.0216    25722.721   -2234.3326   -23100.319    82.333672 
  100000     1130.769   -107.54427    1.0231436   -106.52112    16637.029    4.3460132    4.3460132    4.3460132    16637.029    27417.721    20548.626    1944.7406   -6534.2749    2314.6646    408.00653     82.08676 
Loop time of 22.2109 on 1 procs for 100000 steps with 8 atoms

Pair  time (%) = 6.73206 (30.3097)
Kspce time (%) = 5.48579 (24.6986)
Neigh time (%) = 0 (0)
Comm  time (%) = 1.11421 (5.01651)
Outpt time (%) = 0.0274744 (0.123698)
Other time (%) = 8.85137 (39.8515)

Nlocal:    8 ave 8 max 8 min
Histogram: 1 0 0 0 0 0 0 0 0 0
Nghost:    2189 ave 2189 max 2189 min
Histogram: 1 0 0 0 0 0 0 0 0 0
Neighs:    2056 ave 2056 max 2056 min
Histogram: 1 0 0 0 0 0 0 0 0 0

Total # of neighbors = 2056
Ave neighs/atom = 257
Neighbor list builds = 0
Dangerous builds = 0
seeds:6494157
