LAMMPS (11 Aug 2017)
Reading data file ...
  triclinic box = (0 0 0) to (3.5078 3.5078 35.0776) with tilt (0 -0 0)
  1 by 1 by 1 MPI processor grid
  reading atoms ...
  20 atoms
20 atoms in group Ni
Neighbor list info ...
  update every 1 steps, delay 0 steps, check yes
  max neighbors/atom: 2000, page size: 100000
  master list distance cutoff = 11
  ghost atom cutoff = 11
  binsize = 5.5, bins = 1 1 7
  1 neighbor lists, perpetual/occasional/extra = 1 0 0
  (1) pair eam/alloy, perpetual
      attributes: half, newton on
      pair build: half/bin/newton/tri
      stencil: half/bin/3d/newton/tri
      bin: standard
Setting up cg style minimization ...
  Unit style    : metal
  Current step  : 0
Per MPI rank memory allocation (min/avg/max) = 4.357 | 4.357 | 4.357 Mbytes
Step PotEng Lx Ly Lz Xy Xz Yz Press Pxx Pyy Pzz Pxy Pxz Pyz c_eatoms 
       0   -85.850022       3.5078       3.5078      35.0776            0           -0            0   -18642.305   -24373.681   -24373.681   -7179.5523 1.1784061e-11 -2.1547251e-13 -3.1916595e-12   -85.850022 
       1    -85.86323       3.5078       3.5078      35.0776            0           -0            0   -16193.324   -22026.684   -22026.684   -4526.6041 3.5785101e-12 -3.2089715e-12 -5.6893547e-12    -85.86323 
       2   -85.866047       3.5078       3.5078      35.0776            0           -0            0   -15395.431   -21235.033   -21235.033   -3716.2262 3.6434317e-12 5.6480272e-12 -3.4298897e-12   -85.866047 
       3   -85.866868       3.5078       3.5078      35.0776            0           -0            0   -14652.834    -20515.32    -20515.32   -2927.8613 -3.2272645e-12 5.794541e-12 2.406224e-12   -85.866868 
       4   -85.867265       3.5078       3.5078      35.0776            0           -0            0   -13864.507    -19743.45    -19743.45    -2106.622 7.5864938e-12 6.2090953e-12 -4.2812907e-12   -85.867265 
       5   -85.868107       3.5078       3.5078      35.0776            0           -0            0   -11989.642    -17916.68    -17916.68   -135.56771 -1.6023131e-12 -1.0703104e-11 6.3394761e-12   -85.868107 
       6   -85.868381       3.5078       3.5078      35.0776            0           -0            0   -11673.876   -17620.328   -17620.328    219.02858 2.943984e-13 8.0267079e-12 5.4373779e-12   -85.868381 
       7   -85.868426       3.5078       3.5078      35.0776            0           -0            0   -11673.695    -17617.23    -17617.23    213.37615 9.8713262e-12 1.0128871e-11 5.4478041e-12   -85.868426 
       8   -85.868429       3.5078       3.5078      35.0776            0           -0            0   -11689.403    -17631.86    -17631.86    195.50961 -2.2745194e-12 -1.0503834e-11 1.5600348e-11   -85.868429 
       9   -85.868431       3.5078       3.5078      35.0776            0           -0            0   -11725.298   -17666.627   -17666.627    157.36109 1.0862053e-11 1.0710072e-11 4.8305837e-12   -85.868431 
      10   -85.868432       3.5078       3.5078      35.0776            0           -0            0   -11770.076   -17710.585   -17710.585    110.94303 -3.6391053e-12 8.8978168e-12 2.3726438e-12   -85.868432 
      11   -85.868435       3.5078       3.5078      35.0776            0           -0            0   -11838.533   -17777.196   -17777.196    38.793492 6.1749209e-12 -1.6130364e-11 -1.7818159e-11   -85.868435 
      12   -85.868436       3.5078       3.5078      35.0776            0           -0            0   -11879.062   -17816.377   -17816.377   -4.4335887 -8.3117995e-12 -1.6719186e-11 -7.4384394e-13   -85.868436 
      13   -85.868436       3.5078       3.5078      35.0776            0           -0            0   -11879.409   -17816.695   -17816.695   -4.8373695 -1.0993959e-11 -2.1272413e-11 8.3042282e-12   -85.868436 
      14   -85.868436       3.5078       3.5078      35.0776            0           -0            0   -11878.365    -17815.67    -17815.67   -3.7552472 -4.7528337e-12 -1.8504759e-11 9.4580768e-12   -85.868436 
      15   -85.868436       3.5078       3.5078      35.0776            0           -0            0    -11877.24   -17814.558   -17814.558   -2.6045314 -5.5568704e-12 -3.0357728e-12 -8.0505033e-12   -85.868436 
      16   -85.868436       3.5078       3.5078      35.0776            0           -0            0   -11875.386   -17812.752   -17812.752  -0.65385257 -1.121272e-11 -1.5486044e-11 -3.2953001e-11   -85.868436 
      17   -85.868436       3.5078       3.5078      35.0776            0           -0            0    -11874.77   -17812.158   -17812.158 0.0057209799 -1.4966426e-14 1.033765e-11 3.8426361e-12   -85.868436 
      18   -85.868436       3.5078       3.5078      35.0776            0           -0            0   -11874.771   -17812.159   -17812.159  0.004454924 1.3079675e-11 -1.8656995e-11 -2.0098363e-11   -85.868436 
      19   -85.868436       3.5078       3.5078      35.0776            0           -0            0   -11874.773   -17812.161   -17812.161 0.0030115672 4.7583675e-12 3.0523302e-12 -1.0753075e-11   -85.868436 
      20   -85.868436       3.5078       3.5078      35.0776            0           -0            0   -11874.774   -17812.162   -17812.162 0.0019426292 1.6818188e-11 1.9632743e-13 -1.5409558e-11   -85.868436 
      21   -85.868436       3.5078       3.5078      35.0776            0           -0            0   -11874.774   -17812.162   -17812.162 0.0019994382 1.3317151e-11 5.3065349e-12 5.433454e-12   -85.868436 
      22   -85.868436       3.5078       3.5078      35.0776            0           -0            0   -11874.774   -17812.162   -17812.162 0.0023226019 -1.1726383e-12 -6.4412855e-13 -4.9970129e-12   -85.868436 
      23   -85.868436       3.5078       3.5078      35.0776            0           -0            0   -11874.774   -17812.162   -17812.162 0.0024940346 -4.9884732e-13 5.1977328e-12 6.877387e-12   -85.868436 
      24   -85.868436       3.5078       3.5078      35.0776            0           -0            0   -11874.774   -17812.162   -17812.162 0.0017168613 2.1520136e-11 1.2238861e-11 2.8014382e-12   -85.868436 
      25   -85.868436       3.5078       3.5078      35.0776            0           -0            0   -11874.776   -17812.164   -17812.164   6.3371e-05 6.0737277e-12 -5.9512042e-12 1.8298682e-11   -85.868436 
      26   -85.868436       3.5078       3.5078      35.0776            0           -0            0   -11874.776   -17812.164   -17812.164 2.8260778e-06 -6.9109923e-12 -2.3799937e-11 -2.361375e-12   -85.868436 
      27   -85.868436       3.5078       3.5078      35.0776            0           -0            0   -11874.776   -17812.164   -17812.164 -9.4320889e-07 2.5729424e-12 2.2038534e-12 1.0102086e-12   -85.868436 
      28   -85.868436       3.5078       3.5078      35.0776            0           -0            0   -11874.776   -17812.164   -17812.164 -3.3969294e-06 6.4860213e-12 -4.031125e-12 1.7785157e-11   -85.868436 
      29   -85.868436       3.5078       3.5078      35.0776            0           -0            0   -11874.776   -17812.164   -17812.164 -4.7083903e-06 1.2856034e-11 7.6201745e-12 8.3174968e-12   -85.868436 
      30   -85.868436       3.5078       3.5078      35.0776            0           -0            0   -11874.776   -17812.164   -17812.164 -3.4364488e-06 1.3023507e-11 1.5146815e-11 7.6289154e-12   -85.868436 
      31   -85.868436       3.5078       3.5078      35.0776            0           -0            0   -11874.776   -17812.164   -17812.164 -2.7931598e-06 -4.9658601e-12 1.0976392e-11 7.0807544e-14   -85.868436 
      32   -85.868436       3.5078       3.5078      35.0776            0           -0            0   -11874.776   -17812.164   -17812.164 -1.9371028e-06 -9.1748969e-12 -1.4533255e-11 7.5319732e-12   -85.868436 
      33   -85.868436       3.5078       3.5078      35.0776            0           -0            0   -11874.776   -17812.164   -17812.164 -7.3279323e-07 1.0210221e-11 -2.0482214e-12 1.4557415e-11   -85.868436 
      34   -85.868436       3.5078       3.5078      35.0776            0           -0            0   -11874.776   -17812.164   -17812.164 -1.2488242e-08 -1.3409465e-11 -1.1278057e-11 -1.3771489e-11   -85.868436 
      35   -85.868436       3.5078       3.5078      35.0776            0           -0            0   -11874.776   -17812.164   -17812.164 1.595104e-08 2.8416086e-12 -5.5145368e-12 -1.5990519e-11   -85.868436 
      36   -85.868436       3.5078       3.5078      35.0776            0           -0            0   -11874.776   -17812.164   -17812.164 9.427978e-09 1.2070234e-12 -1.2909265e-12 -1.6774269e-11   -85.868436 
      37   -85.868436       3.5078       3.5078      35.0776            0           -0            0   -11874.776   -17812.164   -17812.164 5.8318604e-09 1.861597e-12 -1.6677488e-11 -1.1172236e-11   -85.868436 
      38   -85.868436       3.5078       3.5078      35.0776            0           -0            0   -11874.776   -17812.164   -17812.164 4.9661601e-09 -8.522889e-12 -8.4323421e-12 -1.4702325e-11   -85.868436 
      39   -85.868436       3.5078       3.5078      35.0776            0           -0            0   -11874.776   -17812.164   -17812.164 4.0629685e-09 -2.1967946e-11 5.5099462e-12 -1.6598395e-12   -85.868436 
      40   -85.868436       3.5078       3.5078      35.0776            0           -0            0   -11874.776   -17812.164   -17812.164 1.0917214e-09 -2.4828797e-11 -1.0057932e-11 -1.0309415e-11   -85.868436 
      41   -85.868436       3.5078       3.5078      35.0776            0           -0            0   -11874.776   -17812.164   -17812.164 7.1387647e-10 -9.0379604e-12 -1.8000809e-11 -8.0340025e-12   -85.868436 
      42   -85.868436       3.5078       3.5078      35.0776            0           -0            0   -11874.776   -17812.164   -17812.164 4.7670901e-10 -1.5201612e-12 7.6700951e-12 -1.3777714e-11   -85.868436 
      43   -85.868436       3.5078       3.5078      35.0776            0           -0            0   -11874.776   -17812.164   -17812.164 1.9898419e-10 6.7416831e-13 2.5603215e-12 -1.1824067e-11   -85.868436 
      44   -85.868436       3.5078       3.5078      35.0776            0           -0            0   -11874.776   -17812.164   -17812.164 2.041091e-10 1.386867e-11 1.154844e-11 -2.6741104e-12   -85.868436 
      45   -85.868436       3.5078       3.5078      35.0776            0           -0            0   -11874.776   -17812.164   -17812.164 1.5538148e-10 1.8521392e-12 -8.4744241e-12 -1.3593237e-11   -85.868436 
      46   -85.868436       3.5078       3.5078      35.0776            0           -0            0   -11874.776   -17812.164   -17812.164 1.122492e-10 9.0301879e-12 -5.7852216e-12 -8.0878062e-12   -85.868436 
Loop time of 0.0354979 on 1 procs for 46 steps with 20 atoms

70.5% CPU use with 1 MPI tasks x no OpenMP threads

Minimization stats:
  Stopping criterion = energy tolerance
  Energy initial, next-to-last, final = 
        -85.8500222612     -85.8684357055     -85.8684357055
  Force two-norm initial, final = 0.396708 1.14579e-14
  Force max component initial, final = 0.167035 5.43315e-15
  Final line search alpha, max atom move = 1 5.43315e-15
  Iterations, force evaluations = 46 92

MPI task timing breakdown:
Section |  min time  |  avg time  |  max time  |%varavg| %total
---------------------------------------------------------------
Pair    | 0.033684   | 0.033684   | 0.033684   |   0.0 | 94.89
Neigh   | 0          | 0          | 0          |   0.0 |  0.00
Comm    | 0.00083089 | 0.00083089 | 0.00083089 |   0.0 |  2.34
Output  | 0.0007093  | 0.0007093  | 0.0007093  |   0.0 |  2.00
Modify  | 0          | 0          | 0          |   0.0 |  0.00
Other   |            | 0.0002742  |            |       |  0.77

Nlocal:    20 ave 20 max 20 min
Histogram: 1 0 0 0 0 0 0 0 0 0
Nghost:    1893 ave 1893 max 1893 min
Histogram: 1 0 0 0 0 0 0 0 0 0
Neighs:    4044 ave 4044 max 4044 min
Histogram: 1 0 0 0 0 0 0 0 0 0

Total # of neighbors = 4044
Ave neighs/atom = 202.2
Neighbor list builds = 0
Dangerous builds = 0
pypospack:output_section:begin
tot_energy = -85.868435705489
num_atoms = 20
a11 = 3.5078
a22 = 3.5078
a33 = 35.0776
a12 = 0
a13 = -0
a23 = 0
tot_press = -11874.7759199825
pxx = -17812.1638799738
pyy = -17812.1638799737
pzz = 1.12249199091503e-10
pxy = 9.03018790264035e-12
pxz = -5.78522155708408e-12
pyz = -8.08780615503402e-12
pypospack:output_section:done
pypospack:lammps_sim:done
Total wall time: 0:00:00
