# ['Ni']

4 atoms
1 atom types

    0.0000     3.5167 xlo xhi
    0.0000     3.5167 ylo yhi
    0.0000     3.5167 zlo zhi

    0.0000    -0.0000     0.0000 xy xz yz

Atoms

1 1    -0.0000     0.0000     0.0000
2 1     1.7584     1.7584     0.0000
3 1     1.7584     0.0000     1.7584
4 1     0.0000     1.7584     1.7584
