LAMMPS (11 Aug 2017)
Reading data file ...
  triclinic box = (0 0 0) to (9.5889 9.5889 9.5889) with tilt (0 -0 -0)
  1 by 1 by 1 MPI processor grid
  reading atoms ...
  107 atoms
107 atoms in group Ni
Neighbor list info ...
  update every 1 steps, delay 0 steps, check yes
  max neighbors/atom: 2000, page size: 100000
  master list distance cutoff = 5.64464
  ghost atom cutoff = 5.64464
  binsize = 2.82232, bins = 4 4 4
  1 neighbor lists, perpetual/occasional/extra = 1 0 0
  (1) pair eam/alloy, perpetual
      attributes: half, newton on
      pair build: half/bin/newton/tri
      stencil: half/bin/3d/newton/tri
      bin: standard
Setting up cg style minimization ...
  Unit style    : metal
  Current step  : 0
Per MPI rank memory allocation (min/avg/max) = 4.229 | 4.229 | 4.229 Mbytes
Step PotEng Lx Ly Lz Xy Xz Yz Press Pxx Pyy Pzz Pxy Pxz Pyz c_eatoms 
       0   -651.63608       9.5889       9.5889       9.5889            0           -0           -0   -5047.7972   -5047.7972   -5047.7972   -5047.7972 -0.00022488977 -0.00022488974 -0.00022488975   -651.63608 
       1   -651.69781       9.5889       9.5889       9.5889            0           -0           -0   -6537.2897   -6537.2897   -6537.2897   -6537.2897 -0.00014647686 -0.00014647687 -0.00014647685   -651.69781 
       2   -651.71178       9.5889       9.5889       9.5889            0           -0           -0    -6905.267    -6905.267    -6905.267    -6905.267 -0.00025151128 -0.00025151125 -0.00025151123   -651.71178 
       3   -651.71427       9.5889       9.5889       9.5889            0           -0           -0    -7097.067    -7097.067    -7097.067    -7097.067 -0.00020576832 -0.00020576831 -0.00020576832   -651.71427 
       4   -651.71467       9.5889       9.5889       9.5889            0           -0           -0   -7100.4222   -7100.4222   -7100.4222   -7100.4222 -0.00013588404 -0.00013588409 -0.00013588408   -651.71467 
       5   -651.71476       9.5889       9.5889       9.5889            0           -0           -0   -7094.5457   -7094.5457   -7094.5457   -7094.5457 -6.7908804e-05 -6.7908831e-05 -6.7908799e-05   -651.71476 
       6   -651.71477       9.5889       9.5889       9.5889            0           -0           -0   -7097.2221   -7097.2221   -7097.2221   -7097.2221 -5.1277375e-05 -5.1277396e-05 -5.1277437e-05   -651.71477 
       7   -651.71477       9.5889       9.5889       9.5889            0           -0           -0   -7102.7293   -7102.7293   -7102.7293   -7102.7293 -3.2385921e-05 -3.238592e-05 -3.2385946e-05   -651.71477 
       8   -651.71477       9.5889       9.5889       9.5889            0           -0           -0   -7103.9803   -7103.9803   -7103.9803   -7103.9803 -2.1893851e-05 -2.1893874e-05 -2.1893848e-05   -651.71477 
       9   -651.71477       9.5889       9.5889       9.5889            0           -0           -0   -7103.9371   -7103.9371   -7103.9371   -7103.9371 -1.1022082e-05 -1.1022094e-05 -1.1022072e-05   -651.71477 
      10   -651.71477       9.5889       9.5889       9.5889            0           -0           -0   -7103.9281   -7103.9281   -7103.9281   -7103.9281 -8.4002094e-06 -8.4001976e-06 -8.4001708e-06   -651.71477 
      11   -651.71477       9.5889       9.5889       9.5889            0           -0           -0   -7103.9771   -7103.9771   -7103.9771   -7103.9771 -5.4159156e-06 -5.4159256e-06 -5.415931e-06   -651.71477 
      12   -651.71477       9.5889       9.5889       9.5889            0           -0           -0   -7103.9878   -7103.9878   -7103.9878   -7103.9878 -4.3499461e-06 -4.3499182e-06 -4.3499517e-06   -651.71477 
      13   -651.71477       9.5889       9.5889       9.5889            0           -0           -0   -7103.9891   -7103.9891   -7103.9891   -7103.9891 -3.0236688e-06 -3.0237984e-06 -3.0237977e-06   -651.71477 
      14   -651.71477       9.5889       9.5889       9.5889            0           -0           -0   -7103.9897   -7103.9897   -7103.9897   -7103.9897 -2.3477984e-06 -2.3479252e-06 -2.3478774e-06   -651.71477 
      15   -651.71477       9.5889       9.5889       9.5889            0           -0           -0   -7103.9907   -7103.9907   -7103.9907   -7103.9907 -1.6814005e-06 -1.6814148e-06 -1.6813706e-06   -651.71477 
      16   -651.71477       9.5889       9.5889       9.5889            0           -0           -0   -7103.9912   -7103.9912   -7103.9912   -7103.9912 -1.1414099e-06 -1.1414319e-06 -1.1413583e-06   -651.71477 
      17   -651.71477       9.5889       9.5889       9.5889            0           -0           -0   -7103.9911   -7103.9911   -7103.9911   -7103.9911 -1.620576e-07 -1.6203203e-07 -1.6208444e-07   -651.71477 
      18   -651.71477       9.5889       9.5889       9.5889            0           -0           -0   -7103.9909   -7103.9909   -7103.9909   -7103.9909 5.2804412e-08 5.2769661e-08 5.2805421e-08   -651.71477 
      19   -651.71477       9.5889       9.5889       9.5889            0           -0           -0    -7103.991    -7103.991    -7103.991    -7103.991 1.3273809e-07 1.3275902e-07 1.3276018e-07   -651.71477 
      20   -651.71477       9.5889       9.5889       9.5889            0           -0           -0    -7103.991    -7103.991    -7103.991    -7103.991 1.2155784e-07 1.2159406e-07 1.216514e-07   -651.71477 
      21   -651.71477       9.5889       9.5889       9.5889            0           -0           -0    -7103.991    -7103.991    -7103.991    -7103.991 7.0445661e-08 7.0377419e-08 7.0323703e-08   -651.71477 
      22   -651.71477       9.5889       9.5889       9.5889            0           -0           -0   -7103.9909   -7103.9909   -7103.9909   -7103.9909 3.8432779e-08 3.8395354e-08 3.8395657e-08   -651.71477 
      23   -651.71477       9.5889       9.5889       9.5889            0           -0           -0    -7103.991    -7103.991    -7103.991    -7103.991 1.7912704e-08 1.7925061e-08 1.788683e-08   -651.71477 
      24   -651.71477       9.5889       9.5889       9.5889            0           -0           -0    -7103.991    -7103.991    -7103.991    -7103.991 1.0498632e-08 1.0396244e-08 1.044184e-08   -651.71477 
      25   -651.71477       9.5889       9.5889       9.5889            0           -0           -0    -7103.991    -7103.991    -7103.991    -7103.991 6.3854479e-09 6.3378852e-09 6.3410124e-09   -651.71477 
      26   -651.71477       9.5889       9.5889       9.5889            0           -0           -0    -7103.991    -7103.991    -7103.991    -7103.991 4.3155905e-09 4.2932971e-09 4.3080249e-09   -651.71477 
      27   -651.71477       9.5889       9.5889       9.5889            0           -0           -0    -7103.991    -7103.991    -7103.991    -7103.991 2.3482223e-09 2.3130673e-09 2.3181111e-09   -651.71477 
      28   -651.71477       9.5889       9.5889       9.5889            0           -0           -0    -7103.991    -7103.991    -7103.991    -7103.991 1.7199214e-09 1.7008056e-09 1.6843629e-09   -651.71477 
      29   -651.71477       9.5889       9.5889       9.5889            0           -0           -0    -7103.991    -7103.991    -7103.991    -7103.991 1.0801207e-09 1.0669061e-09 1.0333147e-09   -651.71477 
      30   -651.71477       9.5889       9.5889       9.5889            0           -0           -0    -7103.991    -7103.991    -7103.991    -7103.991 8.0488288e-10 7.9908255e-10 8.0997707e-10   -651.71477 
      31   -651.71477       9.5889       9.5889       9.5889            0           -0           -0    -7103.991    -7103.991    -7103.991    -7103.991 6.0242644e-10 6.3228548e-10 6.2890617e-10   -651.71477 
      32   -651.71477       9.5889       9.5889       9.5889            0           -0           -0    -7103.991    -7103.991    -7103.991    -7103.991 4.602429e-10 4.6281522e-10 4.3532674e-10   -651.71477 
      33   -651.71477       9.5889       9.5889       9.5889            0           -0           -0    -7103.991    -7103.991    -7103.991    -7103.991 3.2103519e-10 2.6757135e-10 2.732708e-10   -651.71477 
      34   -651.71477       9.5889       9.5889       9.5889            0           -0           -0    -7103.991    -7103.991    -7103.991    -7103.991 2.5143133e-10 2.5844215e-10 2.2308541e-10   -651.71477 
      35   -651.71477       9.5889       9.5889       9.5889            0           -0           -0    -7103.991    -7103.991    -7103.991    -7103.991 2.2348891e-10 2.0780282e-10 1.841476e-10   -651.71477 
      36   -651.71477       9.5889       9.5889       9.5889            0           -0           -0    -7103.991    -7103.991    -7103.991    -7103.991 1.6659532e-10 1.3275171e-10 1.1227405e-10   -651.71477 
      37   -651.71477       9.5889       9.5889       9.5889            0           -0           -0    -7103.991    -7103.991    -7103.991    -7103.991 1.1908312e-10 6.1533846e-11 8.7156136e-11   -651.71477 
      38   -651.71477       9.5889       9.5889       9.5889            0           -0           -0    -7103.991    -7103.991    -7103.991    -7103.991 1.2205894e-11 5.5935274e-11 9.7848902e-12   -651.71477 
      39   -651.71477       9.5889       9.5889       9.5889            0           -0           -0    -7103.991    -7103.991    -7103.991    -7103.991 -5.9011967e-12 -2.249516e-11 -3.0716485e-11   -651.71477 
      40   -651.71477       9.5889       9.5889       9.5889            0           -0           -0    -7103.991    -7103.991    -7103.991    -7103.991 -1.7653152e-11 -2.6631041e-11 -1.5433899e-11   -651.71477 
Loop time of 0.066586 on 1 procs for 40 steps with 107 atoms

30.3% CPU use with 1 MPI tasks x no OpenMP threads

Minimization stats:
  Stopping criterion = energy tolerance
  Energy initial, next-to-last, final = 
        -651.636083635     -651.714768301     -651.714768301
  Force two-norm initial, final = 1.38636 1.0569e-13
  Force max component initial, final = 0.272284 1.85962e-14
  Final line search alpha, max atom move = 1 1.85962e-14
  Iterations, force evaluations = 40 80

MPI task timing breakdown:
Section |  min time  |  avg time  |  max time  |%varavg| %total
---------------------------------------------------------------
Pair    | 0.019178   | 0.019178   | 0.019178   |   0.0 | 28.80
Neigh   | 0          | 0          | 0          |   0.0 |  0.00
Comm    | 0.00035095 | 0.00035095 | 0.00035095 |   0.0 |  0.53
Output  | 0.046793   | 0.046793   | 0.046793   |   0.0 | 70.27
Modify  | 0          | 0          | 0          |   0.0 |  0.00
Other   |            | 0.0002644  |            |       |  0.40

Nlocal:    107 ave 107 max 107 min
Histogram: 1 0 0 0 0 0 0 0 0 0
Nghost:    983 ave 983 max 983 min
Histogram: 1 0 0 0 0 0 0 0 0 0
Neighs:    4558 ave 4558 max 4558 min
Histogram: 1 0 0 0 0 0 0 0 0 0

Total # of neighbors = 4558
Ave neighs/atom = 42.5981
Neighbor list builds = 0
Dangerous builds = 0
pypospack:output_section:begin
tot_energy = -651.714768301174
num_atoms = 107
a11 = 9.5889
a22 = 9.5889
a33 = 9.5889
a12 = 0
a13 = -0
a23 = -0
tot_press = -7103.99095982539
pxx = -7103.9909598254
pyy = -7103.99095982542
pzz = -7103.99095982535
pxy = -1.76531524489283e-11
pxz = -2.6631041408669e-11
pyz = -1.54338989982059e-11
pypospack:output_section:done
pypospack:lammps_sim:done
Total wall time: 0:00:00
