# ['Ni']

18 atoms
1 atom types

    0.0000     2.4865 xlo xhi
    0.0000     4.3068 ylo yhi
    0.0000    36.5379 zlo zhi

    0.0000     0.0000    -0.0004 xy xz yz

Atoms

1 1     0.0000     0.0000     0.0000
2 1     1.2432     0.7178     2.0299
3 1     0.0000     1.4356     4.0598
4 1     1.2432     2.1534     0.0000
5 1     0.0000     2.8712     2.0299
6 1     1.2432     3.5890     4.0598
7 1     0.0000     0.0000     6.0897
8 1     1.2432     0.7178     8.1195
9 1     0.0000     1.4356    10.1494
10 1     1.2432     2.1534     6.0897
11 1     0.0000     2.8712     8.1195
12 1     1.2432     3.5890    10.1494
13 1     0.0000     0.0000    12.1793
14 1     1.2432     0.7178    14.2092
15 1     0.0000     1.4356    16.2391
16 1     1.2432     2.1534    12.1793
17 1     0.0000     2.8712    14.2092
18 1     1.2432     3.5890    16.2391
