# ['Ni']

28 atoms
1 atom types

    0.0000     2.4743 xlo xhi
    0.0000     4.2857 ylo yhi
    0.0000    28.2841 zlo zhi

    0.0000     0.0000     0.0000 xy xz yz

Atoms

1 1     0.0000     0.0000     0.0000
2 1     1.2372     2.1428     0.0000
3 1     1.2372     0.7143     2.0203
4 1     0.0000     2.8571     2.0203
5 1     0.0000     1.4286     4.0406
6 1     1.2372     3.5714     4.0406
7 1     0.0000     0.0000     6.0609
8 1     1.2372     2.1428     6.0609
9 1     1.2372     0.7143     8.0812
10 1     0.0000     2.8571     8.0812
11 1     0.0000     1.4286    10.1015
12 1     1.2372     3.5714    10.1015
13 1     0.0000     0.0000    12.1217
14 1     1.2372     2.1428    12.1217
15 1     0.0000     1.4286    14.1420
16 1     1.2372     3.5714    14.1420
17 1     0.0000     0.0000    16.1623
18 1     1.2372     2.1428    16.1623
19 1     1.2372     0.7143    18.1826
20 1     0.0000     2.8571    18.1826
21 1     0.0000     1.4286    20.2029
22 1     1.2372     3.5714    20.2029
23 1     0.0000     0.0000    22.2232
24 1     1.2372     2.1428    22.2232
25 1     1.2372     0.7143    24.2435
26 1     0.0000     2.8571    24.2435
27 1     0.0000     1.4286    26.2638
28 1     1.2372     3.5714    26.2638
