   2   2   0   0
  0.9563318E+01  0.3001819E-09  0.3001820E-09  0.3001819E-09  0.5000000E-15
  1.000000000000000E-004
  CAR 
 automatically generated by pyflamestk   
     44.08145729    -16.39141199  301      3.61502893      1.00000000
    -16.391  0.0000E+00  0.0000E+00
    -16.190  0.0000E+00  0.0000E+00
    -15.988  0.0000E+00  0.0000E+00
    -15.787  0.0000E+00  0.0000E+00
    -15.585  0.0000E+00  0.0000E+00
    -15.384  0.0000E+00  0.0000E+00
    -15.182  0.0000E+00  0.0000E+00
    -14.980  0.0000E+00  0.0000E+00
    -14.779  0.0000E+00  0.0000E+00
    -14.577  0.0000E+00  0.0000E+00
    -14.376  0.0000E+00  0.0000E+00
    -14.174  0.0000E+00  0.0000E+00
    -13.972  0.0000E+00  0.0000E+00
    -13.771  0.4425E-04  0.8919E-05
    -13.569  0.3041E+00  0.6131E-01
    -13.368  0.1139E-01  0.6360E-01
    -13.166  0.9240E+00  0.2499E+00
    -12.965  0.7045E+00  0.3919E+00
    -12.763  0.8329E+00  0.5598E+00
    -12.561  0.2587E+01  0.1081E+01
    -12.360  0.2956E+01  0.1677E+01
    -12.158  0.1602E+01  0.2000E+01
    -11.957  0.1916E-06  0.2000E+01
    -11.755  0.0000E+00  0.2000E+01
    -11.554  0.0000E+00  0.2000E+01
    -11.352  0.0000E+00  0.2000E+01
    -11.150  0.0000E+00  0.2000E+01
    -10.949  0.0000E+00  0.2000E+01
    -10.747  0.0000E+00  0.2000E+01
    -10.546  0.0000E+00  0.2000E+01
    -10.344  0.0000E+00  0.2000E+01
    -10.143  0.0000E+00  0.2000E+01
     -9.941  0.0000E+00  0.2000E+01
     -9.739  0.0000E+00  0.2000E+01
     -9.538  0.0000E+00  0.2000E+01
     -9.336  0.0000E+00  0.2000E+01
     -9.135  0.0000E+00  0.2000E+01
     -8.933  0.0000E+00  0.2000E+01
     -8.732  0.0000E+00  0.2000E+01
     -8.530  0.0000E+00  0.2000E+01
     -8.328  0.0000E+00  0.2000E+01
     -8.127  0.0000E+00  0.2000E+01
     -7.925  0.0000E+00  0.2000E+01
     -7.724  0.0000E+00  0.2000E+01
     -7.522  0.0000E+00  0.2000E+01
     -7.320  0.0000E+00  0.2000E+01
     -7.119  0.0000E+00  0.2000E+01
     -6.917  0.0000E+00  0.2000E+01
     -6.716  0.0000E+00  0.2000E+01
     -6.514  0.0000E+00  0.2000E+01
     -6.313  0.0000E+00  0.2000E+01
     -6.111  0.0000E+00  0.2000E+01
     -5.909  0.0000E+00  0.2000E+01
     -5.708  0.0000E+00  0.2000E+01
     -5.506  0.0000E+00  0.2000E+01
     -5.305  0.0000E+00  0.2000E+01
     -5.103  0.0000E+00  0.2000E+01
     -4.902  0.0000E+00  0.2000E+01
     -4.700  0.0000E+00  0.2000E+01
     -4.498  0.0000E+00  0.2000E+01
     -4.297  0.0000E+00  0.2000E+01
     -4.095  0.0000E+00  0.2000E+01
     -3.894  0.0000E+00  0.2000E+01
     -3.692  0.0000E+00  0.2000E+01
     -3.491  0.0000E+00  0.2000E+01
     -3.289  0.0000E+00  0.2000E+01
     -3.087  0.0000E+00  0.2000E+01
     -2.886  0.0000E+00  0.2000E+01
     -2.684  0.0000E+00  0.2000E+01
     -2.483  0.0000E+00  0.2000E+01
     -2.281  0.0000E+00  0.2000E+01
     -2.079  0.0000E+00  0.2000E+01
     -1.878  0.0000E+00  0.2000E+01
     -1.676  0.0000E+00  0.2000E+01
     -1.475  0.0000E+00  0.2000E+01
     -1.273  0.0000E+00  0.2000E+01
     -1.072  0.1486E-10  0.2000E+01
     -0.870  0.1625E+00  0.2033E+01
     -0.668  0.7681E+00  0.2188E+01
     -0.467  0.3109E+00  0.2250E+01
     -0.265  0.1343E+01  0.2521E+01
     -0.064  0.2494E+01  0.3024E+01
      0.138  0.2437E+01  0.3515E+01
      0.339  0.1003E+01  0.3717E+01
      0.541  0.1632E+00  0.3750E+01
      0.743  0.3274E-12  0.3750E+01
      0.944  0.1080E+00  0.3772E+01
      1.146  0.2638E+01  0.4303E+01
      1.347  0.9749E+00  0.4500E+01
      1.549  0.1007E-04  0.4500E+01
      1.750  0.1441E+01  0.4790E+01
      1.952  0.1350E+01  0.5063E+01
      2.154  0.1837E+01  0.5433E+01
      2.355  0.2614E+01  0.5960E+01
      2.557  0.2899E+01  0.6544E+01
      2.758  0.3130E+01  0.7175E+01
      2.960  0.1350E+01  0.7447E+01
      3.161  0.2122E+01  0.7875E+01
      3.363  0.4443E+00  0.7964E+01
      3.565  0.1765E+00  0.8000E+01
      3.766  0.0000E+00  0.8000E+01
      3.968  0.0000E+00  0.8000E+01
      4.169  0.0000E+00  0.8000E+01
      4.371  0.0000E+00  0.8000E+01
      4.573  0.0000E+00  0.8000E+01
      4.774  0.0000E+00  0.8000E+01
      4.976  0.0000E+00  0.8000E+01
      5.177  0.0000E+00  0.8000E+01
      5.379  0.0000E+00  0.8000E+01
      5.580  0.0000E+00  0.8000E+01
      5.782  0.0000E+00  0.8000E+01
      5.984  0.0000E+00  0.8000E+01
      6.185  0.0000E+00  0.8000E+01
      6.387  0.0000E+00  0.8000E+01
      6.588  0.0000E+00  0.8000E+01
      6.790  0.0000E+00  0.8000E+01
      6.991  0.0000E+00  0.8000E+01
      7.193  0.0000E+00  0.8000E+01
      7.395  0.0000E+00  0.8000E+01
      7.596  0.0000E+00  0.8000E+01
      7.798  0.0000E+00  0.8000E+01
      7.999  0.0000E+00  0.8000E+01
      8.201  0.0000E+00  0.8000E+01
      8.402  0.0000E+00  0.8000E+01
      8.604  0.1189E-08  0.8000E+01
      8.806  0.1459E+00  0.8029E+01
      9.007  0.1642E+00  0.8062E+01
      9.209  0.0000E+00  0.8062E+01
      9.410  0.0000E+00  0.8062E+01
      9.612  0.0000E+00  0.8062E+01
      9.813  0.0000E+00  0.8062E+01
     10.015  0.0000E+00  0.8062E+01
     10.217  0.1907E-07  0.8063E+01
     10.418  0.5442E+00  0.8172E+01
     10.620  0.3859E+00  0.8250E+01
     10.821  0.5762E-09  0.8250E+01
     11.023  0.1311E+00  0.8276E+01
     11.225  0.4783E+00  0.8373E+01
     11.426  0.6309E+00  0.8500E+01
     11.628  0.8303E-07  0.8500E+01
     11.829  0.4872E+00  0.8598E+01
     12.031  0.4430E+00  0.8687E+01
     12.232  0.4686E-03  0.8688E+01
     12.434  0.9223E+00  0.8874E+01
     12.636  0.4595E-01  0.8883E+01
     12.837  0.1823E+01  0.9250E+01
     13.039  0.9261E+00  0.9437E+01
     13.240  0.8735E+00  0.9613E+01
     13.442  0.5948E-01  0.9625E+01
     13.643  0.6489E+00  0.9756E+01
     13.845  0.6947E+00  0.9896E+01
     14.047  0.2290E+01  0.1036E+02
     14.248  0.8758E-01  0.1037E+02
     14.450  0.0000E+00  0.1038E+02
     14.651  0.1173E-12  0.1038E+02
     14.853  0.1268E+00  0.1040E+02
     15.054  0.3594E+01  0.1112E+02
     15.256  0.1399E-02  0.1113E+02
     15.458  0.1845E+01  0.1150E+02
     15.659  0.2274E+01  0.1196E+02
     15.861  0.1771E+01  0.1231E+02
     16.062  0.1296E-02  0.1231E+02
     16.264  0.1255E+01  0.1257E+02
     16.466  0.6036E+00  0.1269E+02
     16.667  0.4613E-07  0.1269E+02
     16.869  0.6698E-09  0.1269E+02
     17.070  0.6003E+00  0.1281E+02
     17.272  0.1365E+01  0.1308E+02
     17.473  0.1120E+01  0.1331E+02
     17.675  0.1576E-01  0.1331E+02
     17.877  0.2008E-06  0.1331E+02
     18.078  0.6894E+00  0.1345E+02
     18.280  0.2407E+00  0.1350E+02
     18.481  0.1549E-15  0.1350E+02
     18.683  0.6693E-02  0.1350E+02
     18.884  0.9229E+00  0.1369E+02
     19.086  0.5291E-03  0.1369E+02
     19.288  0.2366E-04  0.1369E+02
     19.489  0.6161E+00  0.1381E+02
     19.691  0.1991E+01  0.1421E+02
     19.892  0.2079E+01  0.1463E+02
     20.094  0.1132E+01  0.1486E+02
     20.295  0.1295E+01  0.1512E+02
     20.497  0.1542E+01  0.1543E+02
     20.699  0.9547E+00  0.1562E+02
     20.900  0.7949E-01  0.1564E+02
     21.102  0.8528E+00  0.1581E+02
     21.303  0.9248E+00  0.1600E+02
     21.505  0.9327E+00  0.1619E+02
     21.706  0.1580E+01  0.1651E+02
     21.908  0.2824E+00  0.1656E+02
     22.110  0.2337E-04  0.1656E+02
     22.311  0.8838E+00  0.1674E+02
     22.513  0.4632E-01  0.1675E+02
     22.714  0.8768E+00  0.1693E+02
     22.916  0.1868E+01  0.1730E+02
     23.118  0.2279E+00  0.1735E+02
     23.319  0.1678E+01  0.1769E+02
     23.521  0.1146E-04  0.1769E+02
     23.722  0.5444E+00  0.1780E+02
     23.924  0.9684E+00  0.1799E+02
     24.125  0.3752E-01  0.1800E+02
     24.327  0.3023E+00  0.1806E+02
     24.529  0.8251E+00  0.1823E+02
     24.730  0.7328E+00  0.1837E+02
     24.932  0.1589E-02  0.1838E+02
     25.133  0.1219E+01  0.1862E+02
     25.335  0.1976E-01  0.1863E+02
     25.536  0.1207E+01  0.1887E+02
     25.738  0.1482E+01  0.1917E+02
     25.940  0.1022E+00  0.1919E+02
     26.141  0.6705E+00  0.1932E+02
     26.343  0.1190E+01  0.1956E+02
     26.544  0.8730E-01  0.1958E+02
     26.746  0.2703E+01  0.2012E+02
     26.947  0.6405E-03  0.2013E+02
     27.149  0.9254E+00  0.2031E+02
     27.351  0.9335E+00  0.2050E+02
     27.552  0.3096E+00  0.2056E+02
     27.754  0.1393E-02  0.2056E+02
     27.955  0.0000E+00  0.2056E+02
     28.157  0.0000E+00  0.2056E+02
     28.359  0.0000E+00  0.2056E+02
     28.560  0.0000E+00  0.2056E+02
     28.762  0.2974E-04  0.2056E+02
     28.963  0.6055E+00  0.2068E+02
     29.165  0.2728E+01  0.2123E+02
     29.366  0.1002E+01  0.2144E+02
     29.568  0.4822E+00  0.2153E+02
     29.770  0.4538E+00  0.2162E+02
     29.971  0.2850E-07  0.2163E+02
     30.173  0.1454E+01  0.2192E+02
     30.374  0.2067E+01  0.2233E+02
     30.576  0.1227E+01  0.2258E+02
     30.777  0.8324E+00  0.2275E+02
     30.979  0.4009E-05  0.2275E+02
     31.181  0.1547E+00  0.2278E+02
     31.382  0.1705E+01  0.2312E+02
     31.584  0.3067E+00  0.2319E+02
     31.785  0.1677E+01  0.2352E+02
     31.987  0.2668E+01  0.2406E+02
     32.188  0.1161E+01  0.2430E+02
     32.390  0.1165E+01  0.2453E+02
     32.592  0.4154E+01  0.2537E+02
     32.793  0.4034E+00  0.2545E+02
     32.995  0.2729E+01  0.2600E+02
     33.196  0.9232E+00  0.2619E+02
     33.398  0.4563E+00  0.2628E+02
     33.599  0.2031E+01  0.2669E+02
     33.801  0.2769E-04  0.2669E+02
     34.003  0.0000E+00  0.2669E+02
     34.204  0.0000E+00  0.2669E+02
     34.406  0.0000E+00  0.2669E+02
     34.607  0.0000E+00  0.2669E+02
     34.809  0.2874E-09  0.2669E+02
     35.011  0.3052E+00  0.2675E+02
     35.212  0.2484E+01  0.2725E+02
     35.414  0.1089E-02  0.2725E+02
     35.615  0.7560E+00  0.2740E+02
     35.817  0.2780E+01  0.2796E+02
     36.018  0.5579E+00  0.2808E+02
     36.220  0.5573E+00  0.2819E+02
     36.422  0.5155E-03  0.2819E+02
     36.623  0.1884E+01  0.2857E+02
     36.825  0.9060E+00  0.2875E+02
     37.026  0.1835E+00  0.2879E+02
     37.228  0.4367E+00  0.2887E+02
     37.429  0.5968E+00  0.2900E+02
     37.631  0.1267E+01  0.2925E+02
     37.833  0.9258E+00  0.2944E+02
     38.034  0.7421E+00  0.2959E+02
     38.236  0.1120E+01  0.2981E+02
     38.437  0.8570E+00  0.2999E+02
     38.639  0.7324E-01  0.3000E+02
     38.840  0.4218E-12  0.3000E+02
     39.042  0.1148E+00  0.3002E+02
     39.244  0.3736E+01  0.3078E+02
     39.445  0.1796E+00  0.3081E+02
     39.647  0.0000E+00  0.3081E+02
     39.848  0.0000E+00  0.3081E+02
     40.050  0.1549E-15  0.3081E+02
     40.252  0.6293E-02  0.3081E+02
     40.453  0.9233E+00  0.3100E+02
     40.655  0.5718E-03  0.3100E+02
     40.856  0.1104E-12  0.3100E+02
     41.058  0.2171E-01  0.3100E+02
     41.259  0.1703E+01  0.3135E+02
     41.461  0.3236E+01  0.3200E+02
     41.663  0.2877E-03  0.3200E+02
     41.864  0.0000E+00  0.3200E+02
     42.066  0.0000E+00  0.3200E+02
     42.267  0.0000E+00  0.3200E+02
     42.469  0.0000E+00  0.3200E+02
     42.670  0.0000E+00  0.3200E+02
     42.872  0.0000E+00  0.3200E+02
     43.074  0.0000E+00  0.3200E+02
     43.275  0.0000E+00  0.3200E+02
     43.477  0.0000E+00  0.3200E+02
     43.678  0.0000E+00  0.3200E+02
     43.880  0.0000E+00  0.3200E+02
     44.081  0.0000E+00  0.3200E+02
