    2    2    1    1
  0.9563318E+01  0.3001819E-09  0.3001820E-09  0.3001819E-09  0.5000000E-15
  1.000000000000000E-004
  CAR 
 automatically generated by pyflamestk   
      8     10     16
 
  0.1250000E+00  0.1250000E+00  0.1250000E+00  0.3125000E-01
    1      -13.642645   1.000000
    2        2.484774   1.000000
    3        3.342931   1.000000
    4        3.342932   1.000000
    5        8.808236   0.000000
    6       17.415522   0.000000
    7       19.427434   0.000000
    8       19.427437   0.000000
    9       23.681104   0.000000
   10       23.681108   0.000000
   11       25.024412   0.000000
   12       27.459836   0.000000
   13       28.899573   0.000000
   14       28.899577   0.000000
   15       39.191061   0.000000
   16       41.109984   0.000000
 
  0.3750000E+00  0.1250000E+00  0.1250000E+00  0.9375000E-01
    1      -12.989205   1.000000
    2        0.306437   1.000000
    3        2.473069   1.000000
    4        3.048162   1.000000
    5       11.240891   0.000000
    6       15.365885   0.000000
    7       18.769380   0.000000
    8       20.430961   0.000000
    9       22.252994   0.000000
   10       24.489048   0.000000
   11       26.607621   0.000000
   12       31.273656   0.000000
   13       32.575490   0.000000
   14       33.413262   0.000000
   15       35.782313   0.000000
   16       39.093247   0.000000
 
 -0.3750000E+00  0.1250000E+00  0.1250000E+00  0.9375000E-01
    1      -12.552730   1.000000
    2       -0.836956   1.000000
    3        2.326190   1.000000
    4        2.705207   1.000000
    5       11.827151   0.000000
    6       15.579328   0.000000
    7       18.055246   0.000000
    8       19.873355   0.000000
    9       23.862063   0.000000
   10       26.123703   0.000000
   11       26.206911   0.000000
   12       32.484444   0.000000
   13       33.109947   0.000000
   14       33.438576   0.000000
   15       36.027287   0.000000
   16       37.727008   0.000000
 
 -0.1250000E+00  0.1250000E+00  0.1250000E+00  0.9375000E-01
    1      -13.278721   1.000000
    2        1.197123   1.000000
    3        2.967775   1.000000
    4        2.974253   1.000000
    5       10.410627   0.000000
    6       15.596343   0.000000
    7       19.559935   0.000000
    8       20.043892   0.000000
    9       21.216594   0.000000
   10       25.061323   0.000000
   11       27.063869   0.000000
   12       30.165099   0.000000
   13       30.447192   0.000000
   14       31.215437   0.000000
   15       37.434516   0.000000
   16       39.209902   0.000000
 
  0.3750000E+00  0.3750000E+00  0.1250000E+00  0.9375000E-01
    1      -12.753576   1.000000
    2        0.114454   1.000000
    3        2.271787   1.000000
    4        2.501916   1.000000
    5       12.348675   0.000000
    6       14.000085   0.000000
    7       17.314707   0.000000
    8       20.948985   0.000000
    9       21.405623   0.000000
   10       27.244861   0.000000
   11       30.348536   0.000000
   12       30.620124   0.000000
   13       32.530629   0.000000
   14       35.027652   0.000000
   15       36.681104   0.000000
   16       38.096125   0.000000
 
 -0.3750000E+00  0.3750000E+00  0.1250000E+00  0.1875000E+00
    1      -12.341943   1.000000
    2       -0.009700   1.000000
    3        0.999702   1.000000
    4        2.094072   1.000000
    5       13.872059   0.000000
    6       14.914277   0.000000
    7       15.709424   0.000000
    8       19.708127   0.000000
    9       23.163248   0.000000
   10       26.611594   0.000000
   11       30.173649   0.000000
   12       31.618271   0.000000
   13       32.867363   0.000000
   14       36.543647   0.000000
   15       39.111474   0.000000
   16       41.332691   0.000000
 
 -0.1250000E+00  0.3750000E+00  0.1250000E+00  0.1875000E+00
    1      -12.597940   1.000000
    2       -0.206267   1.000000
    3        1.748063   1.000000
    4        2.600734   1.000000
    5       12.707639   0.000000
    6       14.921096   0.000000
    7       17.086512   0.000000
    8       20.281183   0.000000
    9       22.846381   0.000000
   10       25.522945   0.000000
   11       29.056713   0.000000
   12       31.866258   0.000000
   13       32.439357   0.000000
   14       35.097336   0.000000
   15       35.742065   0.000000
   16       41.239244   0.000000
 
 -0.3750000E+00 -0.3750000E+00  0.1250000E+00  0.9375000E-01
    1      -12.378247   1.000000
    2       -0.368183   1.000000
    3        1.750876   1.000000
    4        2.206574   1.000000
    5       12.941727   0.000000
    6       13.625144   0.000000
    7       16.168233   0.000000
    8       21.661220   0.000000
    9       21.677165   0.000000
   10       29.115548   0.000000
   11       29.566889   0.000000
   12       32.142614   0.000000
   13       32.859624   0.000000
   14       38.009596   0.000000
   15       38.387343   0.000000
   16       41.317193   0.000000
 
  0.3750000E+00  0.3750000E+00  0.3750000E+00  0.3125000E-01
    1      -12.789474   1.000000
    2       -0.561324   1.000000
    3        2.905870   1.000000
    4        2.905871   1.000000
    5       11.029846   0.000000
    6       15.592006   0.000000
    7       19.664609   0.000000
    8       19.664612   0.000000
    9       24.257683   0.000000
   10       24.604528   0.000000
   11       24.604531   0.000000
   12       32.104903   0.000000
   13       33.460154   0.000000
   14       33.460156   0.000000
   15       37.045255   0.000000
   16       37.045261   0.000000
 
 -0.3750000E+00  0.3750000E+00  0.3750000E+00  0.9375000E-01
    1      -12.425396   1.000000
    2       -0.251851   1.000000
    3        1.104368   1.000000
    4        2.562885   1.000000
    5       13.186466   0.000000
    6       15.376693   0.000000
    7       16.277132   0.000000
    8       20.594932   0.000000
    9       22.658661   0.000000
   10       25.694626   0.000000
   11       29.278006   0.000000
   12       31.828813   0.000000
   13       32.265459   0.000000
   14       35.583907   0.000000
   15       37.459371   0.000000
   16       40.338819   0.000000
