automatically generated by pyflamestk   
           1
     3.001819    0.000000    0.000000
     1.500910    2.599652    0.000000
     1.500910    0.866551    2.450975
   O    Mg
   1   1
Direct configuration=     1
   0.50000000  0.50000000  0.50000000
   0.00000000  0.00000000  0.00000000
