LAMMPS (10 Feb 2015)
# ---- initialize simulations
clear
units metal
dimension 3
boundary p p p
atom_style charge
atom_modify map array
# ---- create atoms
read_data /Users/eugeneragasa/pyflamestk_git/pypospack/tests/tests_integration/workflow/WorkflowLammpsThermalExpansion/param_3867/MgO_NaCl_unit.npt.T400/lammps.structure
  triclinic box = (0 0 0) to (4.2565 4.2565 4.2565) with tilt (0 0 0)
  1 by 1 by 1 MPI processor grid
  reading atoms ...
  8 atoms
# ---- define interatomic potential
include potential.mod
mass 1 24.305
mass 2 15.999

group Mg type 1
4 atoms in group Mg
group O type 2
4 atoms in group O

set group Mg charge 1.73479148785
  4 settings made for charge
set group O charge -1.73479148785
  4 settings made for charge

variable R_cut equal 10.0

pair_style buck/coul/long ${R_cut}
pair_style buck/coul/long 10
pair_coeff 1 1 0.0 0.5 0.0 ${R_cut}
pair_coeff 1 1 0.0 0.5 0.0 10
pair_coeff 1 2 1225.32983502 0.291530354982 0.0 ${R_cut}
pair_coeff 1 2 1225.32983502 0.291530354982 0.0 10
pair_coeff 2 2 16858.6500597 0.120403294253 7.45918898041 ${R_cut}
pair_coeff 2 2 16858.6500597 0.120403294253 7.45918898041 10

kspace_style pppm 1.0e-5

neighbor 1.0 bin
neigh_modify every 1 delay 0 check yes
# ---- define settings
compute eng all pe/atom
compute eatoms all reduce sum c_eng
# ---- run minimization
reset_timestep 0
fix 1 all box/relax iso 0.0 vmax 0.001
thermo 10
thermo_style custom step pe lx ly lz xy xz yz press pxx pyy pzz pxy pxz pyz c_eatoms
min_style cg
minimize 1e-25 1e-25 5000 10000
PPPM initialization ...
  G vector (1/distance) = 0.3534
  grid = 8 8 8
  stencil order = 5
  estimated absolute RMS force accuracy = 4.23269e-05
  estimated relative force accuracy = 2.93944e-06
  using double precision FFTs
  3d grid and FFT values/proc = 3375 512
Neighbor list info ...
  1 neighbor list requests
  update every 1 steps, delay 0 steps, check yes
  master list distance cutoff = 11
Memory usage per processor = 4.06549 Mbytes
Step PotEng Lx Ly Lz Xy Xz Yz Press Pxx Pyy Pzz Pxy Pxz Pyz eatoms 
       0   -122.62677       4.2565       4.2565       4.2565            0            0            0    18600.794    18600.794    18600.794    18600.794 4.9707872e-11 4.7042733e-11 1.8950886e-10   -122.62677 
       5   -122.63132    4.2712858    4.2712858    4.2712858            0            0            0   -6.7076035   -6.7076035   -6.7076035   -6.7076035 9.5134085e-11 4.9732958e-12 8.6603347e-11   -122.63132 
Loop time of 0.00747705 on 1 procs for 5 steps with 8 atoms

Minimization stats:
  Stopping criterion = linesearch alpha is zero
  Energy initial, next-to-last, final = 
        -122.626768711     -122.631316441     -122.631316441
  Force two-norm initial, final = 2.68597 0.0019334
  Force max component initial, final = 2.68596 0.000975322
  Final line search alpha, max atom move = 0.00390625 3.80985e-06
  Iterations, force evaluations = 5 22

Pair  time (%) = 0.00203133 (27.1675)
Kspce time (%) = 0.00120497 (16.1156)
Neigh time (%) = 0 (0)
Comm  time (%) = 0.000238657 (3.19186)
Outpt time (%) = 0 (0)
Other time (%) = 0.00400209 (53.5251)

Nlocal:    8 ave 8 max 8 min
Histogram: 1 0 0 0 0 0 0 0 0 0
Nghost:    2189 ave 2189 max 2189 min
Histogram: 1 0 0 0 0 0 0 0 0 0
Neighs:    2344 ave 2344 max 2344 min
Histogram: 1 0 0 0 0 0 0 0 0 0

Total # of neighbors = 2344
Ave neighs/atom = 293
Neighbor list builds = 0
Dangerous builds = 0
unfix 1
# ---- define output variables ----
variable natoms equal "count(all)"
variable tot_energy equal "c_eatoms"
variable length_x equal "lx"
variable length_y equal "ly"
variable length_z equal "lz"
variable tilt_xy equal "xy"
variable tilt_xz equal "xz"
variable tilt_yz equal "yz"
variable tot_press equal "press"
variable press_xx equal "pxx"
variable press_yy equal "pyy"
variable press_zz equal "pzz"
variable press_xy equal "pxy"
variable press_xz equal "pxz"
variable press_yz equal "pyz"

# ---- output ----
print "pypospack:output_section:begin"
pypospack:output_section:begin
print "tot_energy = ${tot_energy}"
tot_energy = -122.631316441343
print "num_atoms = ${natoms}"
num_atoms = 8
print "xx = ${length_x}"
xx = 4.27128583299446
print "yy = ${length_y}"
yy = 4.27128583299446
print "zz = ${length_z}"
zz = 4.27128583299446
print "xy = ${tilt_xy}"
xy = 0
print "xz = ${tilt_xz}"
xz = 0
print "yz = ${tilt_yz}"
yz = 0
print "tot_press = ${tot_press}"
tot_press = -6.70760353710228
print "pxx = ${press_xx}"
pxx = -6.70760353705429
print "pyy = ${press_yy}"
pyy = -6.70760353725253
print "pzz = ${press_zz}"
pzz = -6.70760353700002
print "pxy = ${press_xy}"
pxy = 9.51340852761742e-11
print "pxz = ${press_xz}"
pxz = 4.97329584958765e-12
print "pyz = ${press_yz}"
pyz = 8.66033470907354e-11
print "pypospack:output_section:done"
pypospack:output_section:done
print "pypospack:lammps_sim:done"
pypospack:lammps_sim:done
#------------------------------------------------------------------------------
# RUN THERMOSTAT
# running using an NPT Nose-Hoover style thermostat
#------------------------------------------------------------------------------
variable tempdamp equal 0.1
variable pressdamp equal 1.0
# set initial velocities
velocity all create 400 8034958 mom yes dist gaussian loop all
# fix for Nose-Hoover style thermostat
fix 20 all npt temp 400 400 0.1 aniso 0.0 0.0 1.0 drag 1.0 couple xyz
variable boxx equal lx
variable boxy equal ly
variable boxz equal lz
variable boxp equal press
variable boxt equal temp
# calculate averages every 10000 steps
reset_timestep 0
fix 21 all ave/time 10 10 100 v_boxx v_boxy v_boxz v_boxp v_boxt file lattice.out
thermo_style custom step temp pe ke etotal press lx ly lz press pxx pyy pzz pxy pxz pyz vol
thermo_modify flush yes
thermo 100
run 100000
PPPM initialization ...
  G vector (1/distance) = 0.353246
  grid = 8 8 8
  stencil order = 5
  estimated absolute RMS force accuracy = 4.26311e-05
  estimated relative force accuracy = 2.96057e-06
  using double precision FFTs
  3d grid and FFT values/proc = 3375 512
Memory usage per processor = 3.06549 Mbytes
Step Temp PotEng KinEng TotEng Press Lx Ly Lz Press Pxx Pyy Pzz Pxy Pxz Pyz Volume 
       0          400   -122.63132   0.36192841   -122.26939    4953.6609    4.2712858    4.2712858    4.2712858    4953.6609    6076.8333     4916.836    3867.3133   -2155.1223   -671.97403   -1884.2254    77.924838 
     100    112.07133   -122.31993   0.10140449   -122.21852   -2767.0274    4.2920066    4.2920066    4.2920066   -2767.0274    6572.9977   -7542.2093   -7331.8706    3958.4594    1199.9885    286.81539    79.064431 
     200    310.75404   -122.40302   0.28117678   -122.12184    3225.1439    4.2791405    4.2791405    4.2791405    3225.1439    4019.6299    5358.2766    297.52529   -2322.0472   -5506.7018    750.90043    78.355529 
     300     258.1083   -122.26943   0.23354181   -122.03589   -6392.5666    4.2963984    4.2963984    4.2963984   -6392.5666   -1765.6513   -1234.5316   -16177.517   -383.46817   -194.76501   -375.77628    79.307387 
     400    364.29293   -122.29654    0.3296199   -121.96692    14571.248    4.2837785    4.2837785    4.2837785    14571.248    20668.601    15043.758    8001.3836    2180.5692    -312.1634    1671.2936    78.610582 
     500    542.63333   -122.41611   0.49098604   -121.92513   -13858.092     4.299448     4.299448     4.299448   -13858.092   -3474.8653   -15050.842   -23048.568    49.127667   -1718.3404   -2147.9058    79.476382 
     600    164.74797   -122.05657   0.14906743    -121.9075    11618.351    4.2893398    4.2893398    4.2893398    11618.351    13125.716    19928.064    1801.2738    2030.6589   -3529.5725   -451.48541    78.917142 
     700    427.64086   -122.28807   0.38693844   -121.90113    -11108.92    4.2955349    4.2955349    4.2955349    -11108.92    3839.0847   -16388.813   -20777.032   -3656.4095   -7174.9016    824.89845    79.259578 
     800    510.84381   -122.36362   0.46222221    -121.9014     -2594.05    4.2923335    4.2923335    4.2923335     -2594.05   -3007.8697   -457.62432   -4316.6559    1878.2773    4425.3725    -2676.276    79.082497 
     900    409.77783   -122.27719   0.37077559   -121.90641    2012.5086    4.2931397    4.2931397    4.2931397    2012.5086     17518.37   -6047.3693   -5433.4752   -19.152379   -4740.0902    3536.3974    79.127065 
    1000     392.1455   -122.26446   0.35482149   -121.90964   -3883.5574    4.2931098    4.2931098    4.2931098   -3883.5574    3386.3082    3403.4348   -18440.415   -1827.2934   -1614.9979   -2746.1206    79.125414 
    1100    295.84705   -122.17715   0.26768863   -121.90946    2181.9724    4.2925498    4.2925498    4.2925498    2181.9724    4435.1258    1405.3773    705.41405   -1046.8402   -6412.1193   -325.77011    79.094456 
    1200    452.41437   -122.31447   0.40935403   -121.90512     393.1393    4.2936784    4.2936784    4.2936784     393.1393    5079.1312   -1200.7181   -2698.9952   -1678.5316     1200.184   -1858.7324    79.156854 
    1300    460.25568   -122.32064   0.41644901   -121.90419    2356.9891    4.2932463    4.2932463    4.2932463    2356.9891     7040.493    8974.8907   -8944.4164   -2499.4779    1398.1744   -712.80794    79.132963 
    1400    436.76738    -122.3016    0.3951963   -121.90641   -6542.2009    4.2937995    4.2937995    4.2937995   -6542.2009   -2232.9958   -12368.602   -5025.0052    371.56814   -3606.1035    8958.4769    79.163553 
    1500    252.06852   -122.13698   0.22807689    -121.9089    3397.4506     4.291104     4.291104     4.291104    3397.4506    7273.5984    12958.321   -10039.568   -5101.5086   -6519.4409   -2848.3259    79.014557 
    1600    500.85659   -122.36049   0.45318556    -121.9073   -13688.971    4.2956584    4.2956584    4.2956584   -13688.971   -16610.652   -13947.474   -10508.786    1227.2574   -4467.3923    3922.2075    79.266417 
    1700    366.85047   -122.23969   0.33193401   -121.90775    6897.4842    4.2884413    4.2884413    4.2884413    6897.4842    22360.106    7007.8864   -8675.5403   -1066.9779    6680.9573    -2333.083    78.867562 
    1800    431.09486   -122.29893   0.39006369   -121.90887   -3767.4274    4.2961993    4.2961993    4.2961993   -3767.4274   -11296.712    11409.726   -11415.296    2989.0978   -6326.9518    284.65177    79.296361 
    1900    363.01463   -122.23743   0.32846327   -121.90896    2316.8931    4.2900952    4.2900952    4.2900952    2316.8931    7157.2491    8787.3201   -8993.8898   -2814.8731     555.7038    4645.4192    78.958847 
    2000    346.64617   -122.22054   0.31365274   -121.90689    -1021.922    4.2960431    4.2960431    4.2960431    -1021.922    4184.9833    8196.4674   -15447.217   -4467.7096   -1399.0337   -2179.4888    79.287714 
    2100    489.33744   -122.34708    0.4427628   -121.90432     3370.287    4.2895817    4.2895817    4.2895817     3370.287   -2204.2221    8426.1806    3888.9024    2656.2425    1336.6967    8153.1435    78.930497 
    2200    427.22081   -122.29171   0.38655837   -121.90516   -3081.0797    4.2980741    4.2980741    4.2980741   -3081.0797    12461.726   -3248.5394   -18456.426    1077.5426    2491.4463   -3890.1278    79.400221 
    2300    363.15523    -122.2338   0.32859048   -121.90521      1690.03    4.2904932    4.2904932    4.2904932      1690.03   -3930.4472    24335.206   -15334.668     1241.964   -7927.7804    2450.3836     78.98082 
    2400    375.44051   -122.24611   0.33970647    -121.9064   -4048.0055    4.2922443    4.2922443    4.2922443   -4048.0055   -3753.2905   -8386.3931   -4.3329134   -2074.9282    1488.9641   -795.13632    79.077568 
    2500    361.94859   -122.23317   0.32749869   -121.90567   -593.19836    4.2938584    4.2938584    4.2938584   -593.19836   -3597.3572    11133.501   -9315.7393   -3266.2398    -677.6109   -1878.1034    79.166813 
    2600    478.87489   -122.33726   0.43329607   -121.90396    -6137.408    4.2942553    4.2942553    4.2942553    -6137.408   -3114.6959   -1409.8326   -13887.696    3713.8929    1022.8724    6738.6996    79.188768 
    2700    343.94494   -122.21507   0.31120861   -121.90386      2814.19    4.2910948    4.2910948    4.2910948      2814.19   -879.70548    17854.748   -8532.4731    -3574.423   -1776.8164   -2461.3875    79.014052 
    2800    395.08583     -122.262   0.35748196   -121.90452   -1518.8831    4.2940164    4.2940164    4.2940164   -1518.8831    -6456.343    17324.401   -15424.708   -1191.8656   -5056.2853    3555.3578    79.175552 
    2900     467.0898   -122.32655   0.42263266   -121.90392   -4912.3287    4.2955926    4.2955926    4.2955926   -4912.3287   -8676.5459    8908.9178   -14969.358   -3303.2487    5848.9621   -4091.0421    79.262772 
    3000    298.87779    -122.1758   0.27043091   -121.90537    10543.301     4.289895     4.289895     4.289895    10543.301    7545.2497    31018.275   -6933.6207    2968.1622   -2983.3234   -1057.7701    78.947794 
    3100    505.83107   -122.36436   0.45768659   -121.90667   -11885.366    4.2952987    4.2952987    4.2952987   -11885.366   -10756.146   -5359.2683   -19540.683    1871.6813   -1977.7645    1307.7068    79.246505 
    3200    381.32385   -122.25312   0.34502983   -121.90809    3517.2157    4.2888307    4.2888307    4.2888307    3517.2157    5908.5549    10327.888   -5684.7955   -1593.1248   -3682.6419   -1376.2006    78.889045 
    3300    357.33093   -122.23271   0.32332053   -121.90939    194.48588    4.2952859    4.2952859    4.2952859    194.48588    -6218.674    14751.699   -7949.5674    1684.0006   -1691.4104    3085.1119    79.245798 
    3400    463.27808   -122.32617   0.41918374   -121.90699    2612.7715    4.2920896    4.2920896    4.2920896    2612.7715   -9034.8963    10860.156    6013.0551   -3146.5634    4419.7244   -3563.9282    79.069015 
    3500    305.05558   -122.18364    0.2760207   -121.90762    5007.4085    4.2956329    4.2956329    4.2956329    5007.4085    4793.7237    18628.334    -8399.832    6733.9395   -6978.9874    6493.9852    79.265003 
    3600    430.79459   -122.29548   0.38979199   -121.90568     5007.499    4.2886611    4.2886611    4.2886611     5007.499   -6372.8791    23625.631   -2230.2545   -4657.4306   -1552.8311   -4535.1258    78.879691 
    3700    433.72615   -122.29708   0.39244453   -121.90463   -6083.3009    4.2992891    4.2992891    4.2992891   -6083.3009   -8414.5088   -6727.6425   -3107.7514      1401.79   -774.43809    3128.4488    79.467575 
    3800    377.82596    -122.2444   0.34186487   -121.90254    6136.1232    4.2880975    4.2880975    4.2880975    6136.1232    1809.9022    25922.215   -9323.7472   -1988.8718    912.79974   -2114.1443    78.848594 
    3900    469.45898   -122.32818   0.42477635   -121.90341   -11857.014    4.2960403    4.2960403    4.2960403   -11857.014   -13114.353   -15581.221   -6875.4674     2503.001    -444.0446   -1592.0265    79.287558 
    4000    292.58599   -122.16988   0.26473795   -121.90514    4985.1985    4.2912497    4.2912497    4.2912497    4985.1985    8091.6758    20908.939    -14045.02    1611.1362   -4642.2723    8513.7361    79.022606 
    4100    510.80174   -122.36705   0.46218415   -121.90486   -8191.1972    4.2945269    4.2945269    4.2945269   -8191.1972   -18140.324    1480.2977    -7913.565   -5268.1009    808.75271   -4615.6281    79.203794 
    4200     331.8132   -122.20514   0.30023156   -121.90491    3150.7058    4.2933228    4.2933228    4.2933228    3150.7058     9845.108    2720.2874   -3113.2779    4760.7807   -284.40435    7033.8721    79.137192 
    4300    375.47911   -122.24444   0.33974139    -121.9047   -2829.7185    4.2941382    4.2941382    4.2941382   -2829.7185   -13238.211    15115.233   -10366.177     1064.485   -2724.4535    339.79613    79.182291 
    4400     387.3928   -122.25675   0.35052114   -121.90623    1602.4211    4.2910884    4.2910884    4.2910884    1602.4211   -370.71537    8119.4593   -2941.4807    2219.4836   -9855.7156    846.76239    79.013699 
    4500    431.29082    -122.2977     0.390241   -121.90746   -1284.8924    4.2960739    4.2960739    4.2960739   -1284.8924    -4063.405     11494.83   -11286.102   -2318.1908   -1531.8766   -2463.1689    79.289418 
    4600    377.55111   -122.25036   0.34161618   -121.90874    1455.1375    4.2912179    4.2912179    4.2912179    1455.1375   -8210.7906    10651.182     1925.021    -2439.044   -200.09073   -755.17793    79.020851 
    4700    377.98241   -122.25114   0.34200643   -121.90913   -1592.9546    4.2901915    4.2901915    4.2901915   -1592.9546    3310.8334    1982.6431    -10072.34     608.3638   -6506.0886    3030.9597    78.964165 
    4800    376.36232    -122.2483   0.34054054   -121.90776   -7085.3736     4.299443     4.299443     4.299443   -7085.3736   -15052.236    15799.984   -22003.869    2117.8768   -1075.8667    641.88196    79.476105 
    4900    461.28055   -122.32276   0.41737633   -121.90538    6963.3226    4.2880375    4.2880375    4.2880375    6963.3226    12160.292    6412.9413    2316.7342    1844.2903   -2276.4942    5856.5304    78.845285 
    5000    523.19501   -122.37893   0.47339784   -121.90554   -7001.4962    4.2969608    4.2969608    4.2969608   -7001.4962   -18654.029    13399.923   -15750.383   -3286.0619    2546.1963   -2985.1169    79.338536 
    5100    258.74083   -122.14049   0.23411414   -121.90638    8116.2309    4.2918794    4.2918794    4.2918794    8116.2309    10822.413    19471.041   -5944.7603    1484.0596   -2939.3046    -1512.692    79.057401 
    5200    458.36348   -122.31932   0.41473691   -121.90458   -7367.6113    4.2959039    4.2959039    4.2959039   -7367.6113   -11509.745   -9938.5432   -654.54511    1044.6168   -4675.5127   -1838.3196    79.280006 
    5300    449.66977   -122.31007   0.40687066    -121.9032    4486.0091    4.2921753    4.2921753    4.2921753    4486.0091   -4898.5657    19763.601   -1407.0083    -760.0119    2607.7006     1102.468    79.073755 
    5400    341.01847   -122.21392   0.30856068   -121.90536    6481.4879     4.293594     4.293594     4.293594    6481.4879    5517.8819    4862.8448    9063.7371    3237.8995    -2427.632    1839.1776     79.15219 
    5500    442.15361   -122.30769   0.40006988   -121.90762   -5646.1554    4.2946456    4.2946456    4.2946456   -5646.1554   -22732.541    5442.0852    351.99003   -679.01741    -2655.797    3022.0645     79.21036 
    5600    152.72539   -122.04816   0.13818915   -121.90997    9259.7591    4.2954775    4.2954775    4.2954775    9259.7591    -1496.261     35452.48   -6176.9423    6440.9929   -11415.111    637.30132    79.256403 
    5700    585.23339   -122.43364   0.52953147   -121.90411   -5199.0446    4.2906588    4.2906588    4.2906588   -5199.0446   -7913.6998   -638.00128   -7045.4326   -2659.8532   -2827.3567    1491.1432     78.98997 
    5800    350.49154   -122.22174   0.31713211   -121.90461    4022.2788    4.2970572    4.2970572    4.2970572    4022.2788   -3896.1829     25561.83   -9598.8108    5138.8887    653.14198   -1083.3489    79.343872 
    5900    363.01251   -122.23347   0.32846134   -121.90501   -5910.5741    4.2951289    4.2951289    4.2951289   -5910.5741   -10471.559     1324.825    -8584.988   -827.28582   -8327.5465   -177.72572    79.237107 
    6000    434.22904   -122.29725   0.39289956   -121.90435   -6364.9348     4.290724     4.290724     4.290724   -6364.9348   -5857.4591   -2700.7941   -10536.551    2533.2919    1717.9217   -1133.3063    78.993571 
    6100    330.93822   -122.20316   0.29943986   -121.90372    2822.8541    4.2994676    4.2994676    4.2994676    2822.8541   -3134.3727    9976.1803    1626.7548     2563.342    -1657.088    1773.0243    79.477472 
    6200    618.35393   -122.46023   0.55949963   -121.90073   -10327.519      4.29412      4.29412      4.29412   -10327.519   -22292.301   -9482.9692    792.71328   -4214.9001    1020.7782   -1127.0697    79.181281 
    6300    227.52344   -122.11005   0.20586799   -121.90418    7092.9161    4.2906903    4.2906903    4.2906903    7092.9161    6225.1791    8720.0262    6333.5429     9997.981   -1860.1299    934.78546     78.99171 
    6400    447.07528   -122.30881   0.40452311   -121.90428   -6246.9621    4.2968995    4.2968995    4.2968995   -6246.9621   -9414.2681   -15100.436    5773.8179   -2872.1992    -6663.913    698.36564    79.335139 
    6500    383.02191   -122.24975   0.34656628   -121.90318    2388.7064    4.2983738    4.2983738    4.2983738    2388.7064     6232.177    8842.4739   -7908.5317    4241.0454    1003.8436    456.34344    79.416831 
    6600    417.02836   -122.27898   0.37733602   -121.90164    10756.507    4.2863916    4.2863916    4.2863916    10756.507      15622.4    5845.5297    10801.591     565.3502    498.84946    3426.5435    78.754529 
    6700    407.17705   -122.27216   0.36842235   -121.90374   -7136.4215     4.299037     4.299037     4.299037   -7136.4215   -11822.349    806.78851   -10393.705   -1162.3335    2242.2641   -1627.9673    79.453592 
    6800    220.03444   -122.10282   0.19909178   -121.90373    8492.8872     4.293981     4.293981     4.293981    8492.8872   -2665.2619    18719.715    9424.2087    4006.7889    -4515.555    1509.4945    79.173591 
    6900    596.04232   -122.44159   0.53931162   -121.90228   -9144.4544    4.2926799    4.2926799    4.2926799   -9144.4544   -11594.636    -12412.79   -3425.9371   -4486.6171    343.59021   -2268.7526    79.101643 
    7000    381.22968   -122.24997   0.34494463   -121.90503     11295.78    4.2897896    4.2897896    4.2897896     11295.78    499.59607    24794.316    8593.4292    5479.4738    1193.2342    3515.7548    78.941975 
    7100    461.11205   -122.32334   0.41722387   -121.90612   -9712.6048     4.299175     4.299175     4.299175   -9712.6048   -14634.043   -14758.594    254.82246   -573.42451   -1864.9309   -1694.5475    79.461244 
    7200    251.91227   -122.13543   0.22793551   -121.90749    5566.0794    4.2899999    4.2899999    4.2899999    5566.0794    18295.795   -61.936609   -1535.6205    2983.7475   -4299.9544    3735.4766    78.953584 
    7300    442.98199   -122.30802   0.40081941    -121.9072   -3914.6548    4.2935683    4.2935683    4.2935683   -3914.6548   -6671.3121   -9953.2834     4880.631   -1829.8645    114.91666      -3289.6    79.150769 
    7400    497.41521    -122.3547   0.45007173   -121.90463   -2761.6886    4.2947857    4.2947857    4.2947857   -2761.6886    6586.7722   -6646.1074   -8225.7306    666.16473    29.338625    556.66285    79.218112 
    7500    281.57267    -122.1606   0.25477287   -121.90583    394.26882    4.2935265    4.2935265    4.2935265    394.26882   -8117.1864   -963.74793    10263.741    4788.6236    3339.4905   -614.37321    79.148455 
    7600    464.20707   -122.32514   0.42002431   -121.90511   -12064.659    4.2905569    4.2905569    4.2905569   -12064.659   -15276.279   -9308.7045   -11608.993   -2774.3904   -5607.6892    383.04963    78.984339 
    7700    283.40394   -122.16229   0.25642984   -121.90586    1463.1167    4.2975259    4.2975259    4.2975259    1463.1167   -14787.705    14741.488    4435.5666   -1817.1088   -4858.9225     622.9248    79.369838 
    7800    524.08694   -122.37792   0.47420488   -121.90372    1363.1039    4.2907636    4.2907636    4.2907636    1363.1039    13269.995   -9713.3718    532.68886    528.63753    1767.1003   -3795.9126    78.995755 
    7900    394.27508   -122.26308   0.35674838   -121.90633    5700.6589    4.2917382    4.2917382    4.2917382    5700.6589   -3087.8616    12285.549    7904.2895     2619.345   -1801.9044    1915.0447    79.049598 
    8000    276.59493   -122.15681   0.25026891   -121.90654    5712.8059     4.296898     4.296898     4.296898    5712.8059    9829.5777    161.45304    7147.3868    288.41489    1969.2408   -3692.1998    79.335059 
    8100    462.20655   -122.32068    0.4182142   -121.90246   -685.47746    4.2930724    4.2930724    4.2930724   -685.47746   -997.92588   -6397.0257    5338.5192     159.3129   -5095.1937    751.00832    79.123342 
    8200    426.30419   -122.28749   0.38572899   -121.90176    7871.8655    4.2898299    4.2898299    4.2898299    7871.8655   -7498.6343    13414.167    17700.064   -4304.1245    5559.9981   -370.41611    78.944197 
    8300    494.94119   -122.35038   0.44783319   -121.90255   -10361.211    4.2993076    4.2993076    4.2993076   -10361.211   -7253.7199   -15338.703   -8491.2117    5768.6948   -2970.8808   -154.54189    79.468601 
    8400    273.86851   -122.15143   0.24780199   -121.90363    -1148.571    4.2921349    4.2921349    4.2921349    -1148.571   -17068.038   -4171.6307    17793.955   -719.17049    3778.1293    1910.5664    79.071522 
    8500    425.78641   -122.28822   0.38526049   -121.90296   -5223.0336    4.2908563    4.2908563    4.2908563   -5223.0336    4659.1111   -14908.511   -5419.7006   -6155.5744    1188.6663   -3384.0889    79.000875 
    8600    421.39601   -122.28319   0.38128796   -121.90191   -3624.7746    4.2995515    4.2995515    4.2995515   -3624.7746   -6897.9127   -5063.1176    1086.7065    1198.0617   -5538.3052    1252.9603    79.482123 
    8700    326.99238   -122.19805   0.29586958   -121.90218    3608.5089    4.2915765    4.2915765    4.2915765    3608.5089    22411.322   -14822.624    3236.8286   -271.20291     6704.347    1571.2068    79.040665 
    8800    387.61243   -122.25628   0.35071988   -121.90556   -3103.9603    4.2913609    4.2913609    4.2913609   -3103.9603   -4230.7996   -4380.1816   -700.89962    6853.9763   -1322.5529   -1058.3474     79.02875 
    8900     342.3356   -122.21628   0.30975245   -121.90652   -685.08606    4.3001825    4.3001825    4.3001825   -685.08606   -6329.7924   -6438.6534    10713.188   -4200.3637    4930.3602    60.793833    79.517126 
    9000    564.69595   -122.41375   0.51094876    -121.9028   -1466.7405     4.291749     4.291749     4.291749   -1466.7405    1513.0379    -1143.674   -4769.5853    641.10131   -4300.8216   -3454.7497    79.050193 
    9100    417.01731   -122.28126   0.37732603   -121.90394    7830.9596    4.2889333    4.2889333    4.2889333    7830.9596     5523.055    3038.3949    14931.429    1839.3727   -79.781189    2962.2008     78.89471 
    9200    332.99682   -122.20726   0.30130252   -121.90595   -4076.2786    4.3022326    4.3022326    4.3022326   -4076.2786   -1364.4908   -7596.2662   -3268.0787    1512.0663    1113.5182   -1538.2645    79.630906 
    9300     377.8542   -122.24875   0.34189042   -121.90686    1613.5244    4.2902394    4.2902394    4.2902394    1613.5244   -1955.4578   -6293.6724    13089.703   -147.29099    1812.8439    2554.6892     78.96681 
    9400    464.75819   -122.32685   0.42052298   -121.90633    2871.9327    4.2892526    4.2892526    4.2892526    2871.9327   -2567.1125   -3822.8489    15005.759   -6823.8074    5423.3423   -1764.2007    78.912329 
    9500    348.53866   -122.22178    0.3153651   -121.90642    261.89886     4.300114     4.300114     4.300114    261.89886   -3580.9135   -2584.6979     6951.308    4892.8988   -1713.2025    979.34084    79.513326 
    9600     370.8802   -122.24039    0.3355802   -121.90481   -6834.5423    4.2921173    4.2921173    4.2921173   -6834.5423    756.00053   -20942.485   -317.14273   -1347.8562    6750.6653    198.56681    79.070547 
    9700    394.78056   -122.26063   0.35720574   -121.90342    -2698.008    4.2885765    4.2885765    4.2885765    -2698.008   -12064.997    600.26793    3370.7045    687.24354    -4200.454   -2582.7985    78.875023 
    9800    444.72009   -122.30548   0.40239209   -121.90309   -4720.5776    4.3009058    4.3009058    4.3009058   -4720.5776    8236.5992   -24126.268     1727.936     2371.845   -1001.1468    585.47586    79.557257 
    9900    496.01871   -122.35119   0.44880815   -121.90238     -1153.62    4.2912898    4.2912898    4.2912898     -1153.62   -2218.9916    856.26425   -2098.1328   -1953.2351   -12.964318    1095.0335    79.024825 
   10000    236.38335   -122.11969   0.21388463   -121.90581    9157.6805    4.2901239    4.2901239    4.2901239    9157.6805    9351.0585   -13718.251    31840.234    7894.7534    3212.0557    1844.1756    78.960428 
   10100    420.84931   -122.28596    0.3807933   -121.90517   -7099.6239    4.2998614    4.2998614    4.2998614   -7099.6239   -10552.009    -4796.256   -5950.6064   -4548.0448    3100.0286    731.18444    79.499312 
   10200    366.57824   -122.23539   0.33168769    -121.9037    7484.3914    4.2901141    4.2901141    4.2901141    7484.3914   -3655.9742    5485.3022    20623.846    1903.5342    1633.0732    268.93654    78.959889 
   10300    472.26968   -122.33121   0.42731953   -121.90389   -4873.6216    4.2917674    4.2917674    4.2917674   -4873.6216    2445.8665   -14782.454   -2284.2769    6520.4309    -1134.169    1626.9494     79.05121 
   10400    391.85766   -122.26034   0.35456105   -121.90578    -4495.222    4.2945817    4.2945817    4.2945817    -4495.222   -12543.699    7743.0781   -8685.0448    2840.7684    3063.9418     49.87293    79.206823 
   10500    289.10546   -122.16769   0.26158869    -121.9061   -451.18008    4.2956719    4.2956719    4.2956719   -451.18008    12106.675   -7320.3258   -6139.8892    395.52902     3688.906    933.39346    79.267163 
   10600    552.31567    -122.4028   0.49974682   -121.90305    1206.4651    4.2879695    4.2879695    4.2879695    1206.4651     2219.459   -2624.7837      4024.72   -6146.4988    2066.7898    -1569.042    78.841535 
   10700    364.61746   -122.23563   0.32991354   -121.90571    5915.4165     4.296381     4.296381     4.296381    5915.4165    23750.796   -9720.0841    3715.5376    5270.8936    1370.1401    356.24856    79.306422 
   10800    392.51872    -122.2606   0.35515919   -121.90544    7173.4395    4.2902923    4.2902923    4.2902923    7173.4395    7772.2016    2751.8917    10996.225    4108.7963   -1507.1875    2061.8349    78.969726 
   10900    323.05052   -122.19777    0.2923029   -121.90547     1794.059    4.2963373    4.2963373    4.2963373     1794.059    19308.328   -21251.377    7325.2252    1271.4678    6629.3445   -292.31296    79.304005 
   11000    461.33246      -122.32    0.4174233   -121.90257    2592.7311    4.2899175    4.2899175    4.2899175    2592.7311     5509.777    2856.0965   -587.68031   -4719.1398   -2521.7976    1629.2596    78.949036 
   11100    372.76507    -122.2411   0.33728567   -121.90381    -1926.018    4.2941085    4.2941085    4.2941085    -1926.018    9296.1887   -16991.386    1917.1431    4363.5424    3971.2724    -613.1352    79.180644 
   11200    483.87447   -122.34229   0.43781979   -121.90447   -13016.658    4.2942555    4.2942555    4.2942555   -13016.658   -19593.356   -18169.684   -1286.9332    9815.6142   -3482.1981    686.52836    79.188777 
   11300    285.57826   -122.16675   0.25839721   -121.90836   -491.90966    4.2918532    4.2918532    4.2918532   -491.90966    21087.591   -15111.537   -7451.7825    1672.5956    1356.3691     1032.746    79.055951 
   11400    468.05369    -122.3303   0.42350482    -121.9068    1573.5158    4.2905464    4.2905464    4.2905464    1573.5158    6127.4135   -1676.6543     269.7882   -2569.0208    3642.3479   -3035.8232    78.983763 
   11500    404.54715   -122.27116   0.36604276   -121.90512   -5062.7456    4.3000116    4.3000116    4.3000116   -5062.7456    13071.675   -17482.688   -10777.224   -1447.5062   -1678.3544    2785.8816    79.507644 
   11600    330.46055   -122.20387   0.29900765   -121.90487    4446.6671    4.2860373    4.2860373    4.2860373    4446.6671    -248.3044   -13443.977    27032.282    12085.659    1155.6221     1113.129    78.735002 
   11700    325.83324    -122.2021   0.29482076   -121.90728    1521.3328    4.2956432    4.2956432    4.2956432    1521.3328    6097.9988    672.23832   -2206.2387   -21.291268   -3131.5604    1688.2322    79.265573 
   11800    500.20488    -122.3559   0.45259588   -121.90331   -5813.6078    4.3000045    4.3000045    4.3000045   -5813.6078    -8992.775   -15082.567    6634.5181   -107.48663    1785.6898     789.4751     79.50725 
   11900    386.02961   -122.25191    0.3492877   -121.90262    8970.7574    4.2843417    4.2843417    4.2843417    8970.7574    17358.791    -1151.292    10704.773    269.66818   -1884.3779   -1034.9956    78.641594 
   12000    460.97011   -122.32297   0.41709544   -121.90587    -6149.732    4.2953588    4.2953588    4.2953588    -6149.732   -19341.816   -9473.0955    10365.715    6054.3518    326.52597    1608.5082    79.249832 
   12100    286.09376   -122.16545   0.25886365   -121.90659    409.59194    4.3018757    4.3018757    4.3018757    409.59194     10550.16   -15561.244    6239.8604     5347.104    753.83296    15.752501    79.611089 
   12200    502.67253    -122.3571   0.45482867   -121.90227    5985.7488    4.2821309    4.2821309    4.2821309    5985.7488    12097.139   -6570.0468    12430.154   -7545.0478     3559.534   -912.37395    78.519916 
   12300    387.27711   -122.25549   0.35041647   -121.90507    5429.0544    4.2944526    4.2944526    4.2944526    5429.0544    8797.7438   -4350.4107     11839.83    3300.0379   -872.99804   -249.82591    79.199683 
   12400    378.36195   -122.24583   0.34234985   -121.90348   -9608.3371    4.3031077    4.3031077    4.3031077   -9608.3371    14622.816   -34484.467   -8963.3593    5348.3825    30.520626    435.85257    79.679511 
   12500    391.77844   -122.25643   0.35448936   -121.90195    5359.0505    4.2809396    4.2809396    4.2809396    5359.0505    6425.5551   -4972.8356    14624.432    5526.7987   -3352.4935    1378.8843      78.4544 
   12600    479.48514    -122.3394   0.43384823   -121.90555   -5588.1644    4.2975619    4.2975619    4.2975619   -5588.1644    7212.0537    -22825.29   -1151.2565    787.74163    4368.0745    1043.0682    79.371835 
   12700     381.6178   -122.25086   0.34529581   -121.90556    -1938.611     4.297822     4.297822     4.297822    -1938.611   -6201.0037   -7609.7374    7994.9079    733.40736   -2200.6286    1320.1031     79.38625 
   12800    370.46276   -122.23922   0.33520249   -121.90401   -1265.9025    4.2855327    4.2855327    4.2855327   -1265.9025    426.02224   -15632.476    11408.747    13100.208    2041.2391   -1281.3316    78.707194 
   12900    272.66894   -122.15263   0.24671659   -121.90591    1012.8163    4.2956585    4.2956585    4.2956585    1012.8163   -4357.9481   -15751.792    23148.189    5560.9404   -5756.6413   -367.45207    79.266417 
   13000    465.20306   -122.32697   0.42092551   -121.90604   -6873.4834    4.2972884    4.2972884    4.2972884   -6873.4834    13572.535   -16754.226   -17438.759   -3350.6724    3697.3943   -3338.7547    79.356682 
   13100    453.24419   -122.31747   0.41010487   -121.90737    3642.0297    4.2853017    4.2853017    4.2853017    3642.0297    1054.2376     3543.393    6328.4585    1204.6689   -2570.8802    3369.1226    78.694471 
   13200    379.23589   -122.25301    0.3431406   -121.90987   -7841.2521    4.2992359    4.2992359    4.2992359   -7841.2521    11188.991   -18994.054   -15718.694     9004.345    2516.4143   -405.57795    79.464624 
   13300    407.76064   -122.27634    0.3689504   -121.90739   -1607.7624    4.2921279    4.2921279    4.2921279   -1607.7624    -1805.381   -3582.4544    564.54803    5975.8679    256.86834    3861.7324    79.071131 
   13400    367.60505   -122.23715   0.33261677   -121.90453      7000.42    4.2894532    4.2894532    4.2894532      7000.42    26831.369    1372.5087   -7202.6172   -3175.8711   -8464.5709     1540.915    78.923402 
   13500    609.17067   -122.45426   0.55119042   -121.90307   -12520.133     4.296381     4.296381     4.296381   -12520.133   -12580.952   -16994.356   -7985.0925   -1701.2856    2575.8016   -3355.7059    79.306422 
   13600    138.00248   -122.03232   0.12486755   -121.90745     13900.63    4.2909068    4.2909068    4.2909068     13900.63    14635.454    8412.6204    18653.816    3695.2047   -5705.7611    982.44641    79.003667 
   13700    508.12794   -122.36556   0.45976484   -121.90579   -11825.664    4.2935663    4.2935663    4.2935663   -11825.664   -6974.2421   -23528.502   -4974.2491    7103.0591    4931.1613   -1798.5604    79.150657 
   13800    221.40033   -122.10793   0.20032767   -121.90761    14384.894    4.2914466    4.2914466    4.2914466    14384.894    31907.988   -4577.9738    15824.668   -5562.9237   -5026.6545   -410.68991    79.033485 
   13900    626.72023   -122.47309   0.56706964   -121.90602   -4491.9578    4.2918664    4.2918664    4.2918664   -4491.9578    2137.8366   -12133.302   -3480.4079    733.08041    485.68538    1412.0932    79.056683 
   14000    325.05865   -122.20322    0.2941199    -121.9091    1903.0559     4.295556     4.295556     4.295556    1903.0559     25960.05   -12221.173   -8029.7093   -731.18828   -1414.2263   -2946.3103    79.260747 
   14100    387.12511   -122.25952   0.35027894   -121.90925   -8889.2564    4.2901192    4.2901192    4.2901192   -8889.2564   -10081.663   -18463.855    1877.7491    12765.565    2030.3504    2459.8974    78.960173 
   14200    341.55113   -122.21772   0.30904264   -121.90867   -579.05621    4.2920084    4.2920084    4.2920084   -579.05621    11432.116   -11503.917   -1665.3671     1283.675    2051.0329   -150.66398    79.064527 
   14300    541.69456   -122.39467   0.49013662   -121.90454   -10554.807    4.3000219    4.3000219    4.3000219   -10554.807   -12821.318   -19847.427    1004.3254    -1307.003    1454.6897    841.01109    79.508215 
   14400    276.52117   -122.15563   0.25020217   -121.90542    13407.304    4.2862157    4.2862157    4.2862157    13407.304     29715.76   -10334.708     20840.86    7109.2998   -1133.1823    1892.4072    78.744834 
   14500    427.42073   -122.29399   0.38673926   -121.90725   -3280.5391    4.2929287    4.2929287    4.2929287   -3280.5391   -9767.8336   -16304.094     16230.31    4467.3082    2527.2837   -379.03697      79.1154 
   14600     372.9565   -122.24586   0.33745888    -121.9084   -3545.5654    4.3001728    4.3001728    4.3001728   -3545.5654    9448.2641   -14890.344   -5194.6168    3485.0385   -764.37787    468.58395    79.516583 
   14700    456.27718   -122.31964   0.41284918    -121.9068     6189.395    4.2852961    4.2852961    4.2852961     6189.395    17472.505   -1026.3132    2121.9932   -3087.6033    9482.9202   -1369.9132    78.694159 
   14800    445.71028   -122.31075   0.40328803   -121.90746   -3539.6041    4.2957789    4.2957789    4.2957789   -3539.6041    6033.1616   -13591.676   -3060.2978    2550.3729   -1394.8036    46.733909    79.273087 
   14900    434.40491   -122.29946   0.39305869    -121.9064   -8395.1794    4.2977621    4.2977621    4.2977621   -8395.1794    -4049.948   -16315.158   -4820.4325     8327.538    -700.8804   -53.230966    79.382931 
   15000    219.16235    -122.1051    0.1983027    -121.9068    14656.288    4.2879304    4.2879304    4.2879304    14656.288    24178.487   -2608.7981    22399.176    354.62351    -325.7129    2245.7766    78.839376 
   15100    494.33495   -122.35425   0.44728466   -121.90697   -4390.5446    4.2970441    4.2970441    4.2970441   -4390.5446    2441.5291   -16978.089    1364.9262   -472.79408    520.72024    2599.6944     79.34315 
   15200    408.19157   -122.27872   0.36934031   -121.90938    2639.9859    4.2928008    4.2928008    4.2928008    2639.9859    2964.0268   -6032.1082    10988.039    -109.5896    4394.2299   -74.505569    79.108328 
   15300    291.43468   -122.17313   0.26369622   -121.90943    6925.7576    4.2918857    4.2918857    4.2918857    6925.7576    20009.104   -10019.216    10787.384    4579.1128   -262.15752    2719.8777    79.057747 
   15400    410.53409   -122.27838   0.37145987   -121.90692   -3182.9549    4.2972588    4.2972588    4.2972588   -3182.9549     11502.73    -18981.36   -2070.2342   -1316.9273    7493.0936   -1456.5796    79.355043 
   15500    492.79497   -122.35013   0.44589124   -121.90424   -2322.6102    4.2906586    4.2906586    4.2906586   -2322.6102   -1846.5671    -2504.079   -2617.1846    -3242.557   -7194.1153    2379.9632    78.989959 
   15600    379.69368   -122.24847   0.34355482   -121.90492    1786.4868    4.2915849    4.2915849    4.2915849    1786.4868    14418.618   -10086.465    1027.3081    2383.9179    6019.4656   -1278.5363    79.041126 
   15700     435.3884    -122.2996   0.39394857   -121.90565   -12116.599    4.2989898    4.2989898    4.2989898   -12116.599   -16554.776   -25004.207    5209.1844    8613.7161   -7082.7318   -2257.4872    79.450978 
   15800    306.96957   -122.18301   0.27775252   -121.90526    5873.8829    4.2868937    4.2868937    4.2868937    5873.8829    20389.293   -7682.9878    4915.3432    2445.0775    7935.7462    67.856278    78.782205 
   15900    463.60689   -122.32381   0.41948126   -121.90433   -4994.4726    4.2940527    4.2940527    4.2940527   -4994.4726   -14770.376   -6959.6486     6746.607   -1922.8217    4955.5115   -2546.4545    79.177558 
   16000      386.227   -122.25411   0.34946631   -121.90464   -318.22535     4.295949     4.295949     4.295949   -318.22535    27751.823   -18496.351   -10210.149    1310.3935   -4050.5024    2235.6898    79.282502 
   16100    413.21981   -122.27836   0.37388997   -121.90447   -985.64698    4.2899791    4.2899791    4.2899791   -985.64698   -1297.2614   -10782.829    9123.1499    2579.8589    2619.4542    281.76274    78.952433 
   16200     373.5673    -122.2427   0.33801154   -121.90469    1795.0535    4.2928281    4.2928281    4.2928281    1795.0535    19883.964   -9114.9653   -5383.8381    5156.1296   -8754.3634    56.967137    79.109838 
   16300    468.89418   -122.32785   0.42426531   -121.90359   -5518.5299    4.2973599    4.2973599    4.2973599   -5518.5299    6033.3522   -9634.8136   -12954.128   -1711.2268    9156.2893    2687.6891    79.360641 
   16400    332.09557   -122.20559   0.30048705    -121.9051    6691.8188    4.2864004    4.2864004    4.2864004    6691.8188    12298.245   -2096.6764     9873.888    2172.5034   -9440.6397   -3452.0878    78.755013 
   16500     408.2286   -122.27618   0.36937382    -121.9068   -3776.9913      4.29352      4.29352      4.29352   -3776.9913   -8008.7728   -1752.3396   -1569.8614    4217.8173    224.99806   -241.38602    79.148095 
   16600    427.85191   -122.29329    0.3871294   -121.90616   -4390.6011    4.2966101    4.2966101    4.2966101   -4390.6011    4477.2875   -14606.514   -3042.5772    1302.1273   -4387.3034   -939.53722    79.319108 
   16700    299.12492   -122.17693   0.27065452   -121.90627    12815.859    4.2875091    4.2875091    4.2875091    12815.859    28222.046   -499.69192    10725.221   -1695.7309   -2860.8725   -425.08984    78.816138 
   16800    522.69214   -122.38048   0.47294283   -121.90753   -3402.1601    4.2947221    4.2947221    4.2947221   -3402.1601    13821.877   -7137.7816   -16890.575    122.05448    3797.5676    3171.8528    79.214595 
   16900    319.44239   -122.19781   0.28903818   -121.90877    3575.6876    4.2971607    4.2971607    4.2971607    3575.6876    15693.693   -5139.7655    173.13575     3335.798   -4699.1444    -1017.902    79.349608 
   17000    493.10716   -122.35134   0.44617372   -121.90516   -3208.0681    4.2870555    4.2870555    4.2870555   -3208.0681   -102.48104   -16101.053    6579.3299     10120.65    4029.4938     2089.168    78.791129 
   17100    401.66445   -122.26951   0.36343444   -121.90608   -2535.7014    4.2951681    4.2951681    4.2951681   -2535.7014    13448.458   -13643.258   -7412.3043    2783.2441   -4931.9681   -122.48627    79.239276 
   17200     305.4132   -122.18269   0.27634428   -121.90635    252.79333    4.2966179    4.2966179    4.2966179    252.79333    15703.386   -17434.256    2489.2504   -1814.1431    3470.1916   -248.51604    79.319543 
   17300     408.9313   -122.27656   0.37000963   -121.90655   -1401.4771    4.2888589    4.2888589    4.2888589   -1401.4771    3368.9917   -14283.032    6709.6087    7324.2453   -5473.8449   -382.56522    78.890602 
   17400    355.18519   -122.22815   0.32137903   -121.90677    -4490.825    4.2970244    4.2970244    4.2970244    -4490.825   -3894.9036   -23741.722     14164.15    407.54269    635.32465    365.34433    79.342058 
   17500    489.17866   -122.34622   0.44261913   -121.90361    581.46432    4.2907845    4.2907845    4.2907845    581.46432    12165.937   -9443.8799   -977.66381    1967.3803   -933.08865    624.77274    78.996911 
   17600    465.41166   -122.32557   0.42111425   -121.90445   -5137.5946    4.2967494    4.2967494    4.2967494   -5137.5946   -8680.9743   -10658.808    3926.9981   -3342.2847    8476.4901   -3286.6037    79.326826 
   17700    370.06921   -122.24323    0.3348464   -121.90839    2499.7273    4.2905716    4.2905716    4.2905716    2499.7273    13521.409   -11242.157    5219.9295    7641.6017    886.07446    45.683232    78.985154 
   17800    338.19037   -122.21586   0.30600176   -121.90985   -1371.9196    4.2929893    4.2929893    4.2929893   -1371.9196    3852.2999   -6808.3318   -1159.7268    8973.1334   -146.02742   -1428.8404    79.118752 
   17900    383.83233   -122.25434   0.34729956   -121.90704    3600.8531    4.2939313    4.2939313    4.2939313    3600.8531    2890.2437   -3741.8168    11654.132   -1699.9056    -1061.082    4108.1986    79.170845 
   18000    456.57675   -122.31748   0.41312024   -121.90436   -8317.9278     4.297949     4.297949     4.297949   -8317.9278   -586.44021   -15647.971   -8719.3721    534.35444   -1397.4986     4071.407    79.393283 
   18100    374.21839    -122.2432   0.33860066    -121.9046    5531.9065    4.2848204    4.2848204    4.2848204    5531.9065   -3545.9806    5413.2672    14728.433   -1128.6117    11288.533   -924.70796    78.667957 
   18200    337.77148    -122.2124   0.30562274   -121.90677   -6357.4932    4.3028604    4.3028604    4.3028604   -6357.4932    890.53916    -17266.33   -2696.6892    5916.6495    482.62774    1915.7798     79.66577 
   18300    429.90548   -122.29323   0.38898751   -121.90424    8855.3614    4.2873595    4.2873595    4.2873595    8855.3614    32860.009   -11271.287    4977.3624    55.698221     1140.084   -4033.4914    78.807889 
   18400    463.94204    -122.3241   0.41978451   -121.90432   -191.22432    4.2917785    4.2917785    4.2917785   -191.22432    608.07653   -5554.0258    4372.2763    365.41486    2473.2203   -284.64949    79.051822 
   18500    427.51287   -122.29014   0.38682263   -121.90332   -4867.1784    4.2971596    4.2971596    4.2971596   -4867.1784    8857.6232   -18968.057   -4491.1012    3283.7394   -837.17876    127.05573    79.349546 
   18600    394.83063   -122.26192   0.35725105   -121.90467   -6088.3709    4.2942331    4.2942331    4.2942331   -6088.3709   -15435.562   -16361.415    13531.864    10687.019     300.9639   -987.45866    79.187541 
   18700     453.1432   -122.31577   0.41001349   -121.90576    303.99816    4.2889313    4.2889313    4.2889313    303.99816    12022.249   -13159.889    2049.6339    5061.5135   -779.37218    3520.8267    78.894598 
   18800    372.87731   -122.24389   0.33738723    -121.9065   -3190.9907     4.303159     4.303159     4.303159   -3190.9907     6889.006   -15351.831   -1110.1469   -7127.8331    1962.5047   -666.28998    79.682357 
   18900    305.13128   -122.18136   0.27608919   -121.90527    6988.0721     4.290366     4.290366     4.290366    6988.0721    20891.849   -3853.8306    3926.1978    1098.1169    6123.2457    2080.2446    78.973797 
   19000    398.60597   -122.26584   0.36066706   -121.90517   -2943.3596    4.2928454    4.2928454    4.2928454   -2943.3596   -1246.7036   -3291.4851   -4291.8902    2136.4743   -1511.3914    1861.4491    79.110794 
   19100    357.38357   -122.22778   0.32336817   -121.90441    1654.0446    4.3003067    4.3003067    4.3003067    1654.0446     12646.59   -6951.6028   -732.85314    6475.0862   -457.98189   -558.31652    79.524013 
   19200    524.28331   -122.37643   0.47438256   -121.90204    992.42457    4.2910689    4.2910689    4.2910689    992.42457    17996.984   -462.48381   -14557.227     2241.575   -4773.4534    2892.1252     79.01262 
   19300    203.99908   -122.09022   0.18458265   -121.90563    11377.747    4.2934864    4.2934864    4.2934864    11377.747    40173.393   -7119.7615    1079.6105    3330.5583    2151.7169    -1846.416    79.146239 
   19400    464.56291   -122.32721   0.42034628   -121.90686   -10023.481    4.2970275    4.2970275    4.2970275   -10023.481   -4940.6655   -4647.0989   -20482.678    9147.7518    3913.8121   -210.69298    79.342232 
   19500    316.85297   -122.19276   0.28669523   -121.90606    1888.8306    4.2934853    4.2934853    4.2934853    1888.8306    1166.7129   -2433.3804    6933.1592   -210.79862   -2680.3044   -891.14165    79.146176 
   19600     517.9378   -122.37503   0.46864101   -121.90639   -1971.8926    4.2908891    4.2908891    4.2908891   -1971.8926     8006.693   -8129.7421   -5792.6286   -4130.3421    3470.3133   -2923.7784    79.002691 
   19700    509.63309   -122.36854   0.46112673   -121.90741   -3641.5162    4.2949764    4.2949764    4.2949764   -3641.5162    3368.5679   -4911.7674    -9381.349   -5660.1455   -3117.3765    1581.9952    79.228668 
   19800    305.87463     -122.184   0.27676179   -121.90724    9282.0386    4.2933136    4.2933136    4.2933136    9282.0386    34270.537   -11158.092    4733.6712    7293.9182    1346.3537   -1287.1609     79.13668 
   19900    405.35619   -122.27215    0.3667748   -121.90538   -5457.6685    4.2974822    4.2974822    4.2974822   -5457.6685    10609.208   -17029.229   -9952.9843    5808.6656   -1209.4017     2816.363    79.367421 
   20000    436.94038   -122.29974   0.39535283   -121.90439    1670.0911     4.289171     4.289171     4.289171    1670.0911    1745.6258     1183.522    2081.1254    5601.8199   -50.906888    2853.0892    78.907828 
   20100    460.31812   -122.32025   0.41650551   -121.90375   -10067.477    4.3006643    4.3006643    4.3006643   -10067.477   -7560.1796   -12703.466   -9938.7844    -5987.672    3621.0962   -911.74964    79.543855 
   20200    339.52198   -122.21162   0.30720662   -121.90441    3394.6329    4.2926432    4.2926432    4.2926432    3394.6329    13154.347    2477.7482   -5448.1962   -3200.5472    4338.7949    1921.7146    79.099614 
   20300    306.90417   -122.18288   0.27769334   -121.90519    3244.4636      4.29321      4.29321      4.29321    3244.4636    24551.898   -3822.1827   -10996.325    380.87121    3272.0666    -1231.934    79.130956 
   20400    250.57499   -122.13091   0.22672552   -121.90419    4427.6646    4.2982017    4.2982017    4.2982017    4427.6646    9465.2203    3628.9154    188.85805   -8947.6433    -2878.165    175.41949    79.407289 
   20500     509.1895   -122.36193   0.46072536    -121.9012   -7413.6964    4.2953428    4.2953428    4.2953428   -7413.6964   -1186.1277   -2827.7133   -18227.248   -5565.6281    -1782.839    618.00462    79.248947 
   20600     449.5344   -122.30846   0.40674817   -121.90171   -153.99854    4.2946271    4.2946271    4.2946271   -153.99854    953.49192     4085.435   -5500.9226    4187.1795   -3419.3121    -2154.755    79.209335 
   20700     487.5525    -122.3423   0.44114774   -121.90115    -9722.842    4.3012579    4.3012579    4.3012579    -9722.842   -1821.1489   -4709.3217   -22638.055    6198.5788    1489.9841   -668.71773    79.576796 
   20800    473.41302   -122.33019   0.42835405   -121.90183    -2172.002    4.2931896    4.2931896    4.2931896    -2172.002    11931.139   -16706.579   -1740.5665    6198.6843    566.15099   -788.91175    79.129828 
   20900    348.21465   -122.21916   0.31507193   -121.90409    206.95027    4.2989979    4.2989979    4.2989979    206.95027    19810.961   -1872.6203    -17317.49   -5600.0213    445.51979    59.966922    79.451427 
   21000    402.42398   -122.26703   0.36412167   -121.90291   -645.07032    4.2986901    4.2986901    4.2986901   -645.07032    6792.0184    4729.7273   -13456.957    -9429.604    6173.4439    2684.6345    79.434365 
   21100    297.79775   -122.17231   0.26945367   -121.90286    8172.8674    4.2936362    4.2936362    4.2936362    8172.8674    7926.4443    27155.432   -10563.274   -1685.0672   -4296.9912    2555.8606    79.154522 
   21200    382.51627   -122.24928   0.34610876   -121.90317     530.7651    4.2966692    4.2966692    4.2966692     530.7651   -19841.401    27237.427   -5803.7303    -504.3074    181.65884    2867.4856    79.322381 
   21300    382.90078   -122.25017   0.34645667   -121.90371    -4553.762    4.3001839    4.3001839    4.3001839    -4553.762    1031.7189    6722.0467   -21415.052    2089.8085   -2015.9749    1839.9399      79.5172 
   21400    431.29405   -122.29269   0.39024392   -121.90244    305.30621    4.2928563    4.2928563    4.2928563    305.30621    1242.3128   -2987.6464    2661.2522    3338.2968    -2541.057   -899.26217    79.111397 
   21500    473.00375   -122.33252   0.42798374   -121.90454   -2058.8504    4.2971231    4.2971231    4.2971231   -2058.8504    21715.666   -9931.7376    -17960.48    5596.2372    1937.1329    222.58633    79.347525 
   21600    325.66583   -122.20135   0.29466928   -121.90668    3059.2341    4.2968183    4.2968183    4.2968183    3059.2341    13220.032    2076.8633   -6119.1931   -3612.0666   -3461.6456   -1630.4544    79.330641 
   21700    502.60222   -122.35918   0.45476505   -121.90442   -2187.0708    4.2889786    4.2889786    4.2889786   -2187.0708   -6596.2602    1358.2881   -1323.2404   -9150.6172    3453.4108   -2787.4195    78.897211 
   21800    279.74154    -122.1592   0.25311602   -121.90609    2409.6361    4.3002803    4.3002803    4.3002803    2409.6361   -3522.5277    21550.741   -10799.305   -5035.0568    726.73553    2841.3731     79.52255 
   21900    450.37774   -122.31459   0.40751124   -121.90708    970.42481    4.2888501    4.2888501    4.2888501    970.42481    9639.7169   -803.77641    -5924.666    5769.1011    1930.0683    -0.594392    78.890117 
   22000    429.30772   -122.29722   0.38844665   -121.90878    2879.4544     4.289705     4.289705     4.289705    2879.4544    3081.8907    3068.4476    2488.0247    8803.4147   -1682.0621     2628.696    78.937301 
   22100    344.04551   -122.21873   0.31129961   -121.90743   -3109.2305    4.3021657    4.3021657    4.3021657   -3109.2305    26899.253   -23012.183   -13214.762   -2641.7533   -1519.0638    3377.9919    79.627195 
   22200    445.01448   -122.30793   0.40265845   -121.90527   -4653.6497    4.2894924    4.2894924    4.2894924   -4653.6497   -8874.8689   -6607.4587    1521.3786   -9390.7146     2637.679   -2724.3193    78.925569 
   22300    321.22217   -122.19605   0.29064857    -121.9054    6306.1223    4.2900555    4.2900555    4.2900555    6306.1223    15106.861   -2046.4947    5858.0008   -11204.353    405.64025   -1642.2915    78.956651 
   22400    517.36527   -122.37199   0.46812297   -121.90387   -12182.213      4.30186      4.30186      4.30186   -12182.213   -19357.439    4673.8488   -21863.049    6248.4273    1.3938184   -3832.6704    79.610218 
   22500    239.09567   -122.12328   0.21633878   -121.90695    11886.879    4.2898139    4.2898139    4.2898139    11886.879    8913.6972    22044.223    4702.7181    5636.1417    1234.2044   -326.20095    78.943315 
   22600    346.33663   -122.22049   0.31337267   -121.90711    2071.0888    4.2952704    4.2952704    4.2952704    2071.0888    19105.984    1802.4565   -14695.174    2939.1832    2280.3785    2037.4057    79.244935 
   22700    390.48559   -122.25778   0.35331957   -121.90447    30.093397    4.2992048    4.2992048    4.2992048    30.093397    3464.7488    1835.4464    -5209.915   -2408.7195   -1973.7946   -794.94421      79.4629 
   22800    558.59956    -122.4073   0.50543262   -121.90187   -6401.3706    4.2931229    4.2931229    4.2931229   -6401.3706    7520.1498   -14388.624   -12335.638   -809.82959    2644.1251    2381.2743    79.126139 
   22900    456.33011   -122.31739   0.41289707   -121.90449   -3449.7547     4.296501     4.296501     4.296501   -3449.7547   -1485.4275   -3828.2013   -5035.6354   -5097.8508   -3937.4887    3109.0827    79.313067 
   23000    458.08245   -122.31919   0.41448263   -121.90471   -9344.8247    4.2994749    4.2994749    4.2994749   -9344.8247   -9676.0513    341.13016   -18699.553   -1263.2581   -782.32345    2588.5132    79.477878 
   23100    257.75315   -122.13906   0.23322047   -121.90584    12145.252    4.2911479    4.2911479    4.2911479    12145.252    12757.781    26095.642   -2417.6676   -2534.2787    1694.8568    849.34882    79.016985 
   23200    449.55443   -122.31094   0.40676629   -121.90418   -367.63466    4.2977243    4.2977243    4.2977243   -367.63466     5181.864    10718.333   -17003.101    9027.7887   -4107.5839   -3598.3492    79.380833 
   23300    211.93943   -122.09569   0.19176725   -121.90392    11525.396    4.2973589    4.2973589    4.2973589    11525.396    22352.704    16884.474   -4660.9897    8863.7145    7129.8878   -2320.9488    79.360586 
   23400    413.06375   -122.27662   0.37374876   -121.90288   -3373.7952    4.2950674    4.2950674    4.2950674   -3373.7952    13185.837   -11020.402    -12286.82    1493.6535      1668.44    623.51334    79.233705 
   23500    414.85214   -122.27836   0.37536693   -121.90299   -3111.5691    4.2965393    4.2965393    4.2965393   -3111.5691    3197.1872   -10495.861   -2036.0334   -5785.1781     6513.647   -2067.7884    79.315188 
   23600     476.6847   -122.33336   0.43131433   -121.90204   -4185.3394    4.2956591    4.2956591    4.2956591   -4185.3394   -2641.4727   -4879.3137   -5035.2318   -4233.8913    4010.7357    1440.6307    79.266456 
   23700    577.93006   -122.42424   0.52292326   -121.90132   -13209.179    4.2967549    4.2967549    4.2967549   -13209.179   -11513.214   -16214.658   -11899.665    726.78706   -7623.5958    1383.4652    79.327133 
   23800    233.63917   -122.11558   0.21140163   -121.90418    7448.7573    4.2944174    4.2944174    4.2944174    7448.7573    14434.141    7420.9492     491.1813    3037.4454    2408.0991    3284.6251    79.197735 
   23900    428.41019    -122.2906   0.38763454   -121.90297   -5618.9675    4.2952309    4.2952309    4.2952309   -5618.9675   -6090.5548    2638.9699   -13405.317    1266.0154   -4190.3061    4437.9159    79.242753 
   24000    223.45637   -122.10582   0.20218802   -121.90363    13645.579    4.2930799    4.2930799    4.2930799    13645.579    24422.472    15106.148    1408.1167    1878.6428    1250.7253   -936.55663    79.123759 
   24100    470.15045   -122.32783   0.42540201   -121.90242    -5244.053     4.297659     4.297659     4.297659    -5244.053   -1821.8944    7506.0949    -21416.36    6760.3606    1765.8628    1351.3896    79.377215 
   24200    377.15582   -122.24441   0.34125851   -121.90315   -1806.9863    4.2939606    4.2939606    4.2939606   -1806.9863   -857.20475   -1658.6874   -2905.0669   -1506.5356   -299.66751    471.91924    79.172464 
   24300    442.56427   -122.30411   0.40044145   -121.90367   -7286.6085    4.2962825    4.2962825    4.2962825   -7286.6085    1300.0889    -12296.33   -10863.584   -8112.3813    4110.6616   -2732.9553    79.300971 
   24400    523.21048   -122.37679   0.47341184   -121.90338   -6492.7319    4.2965489    4.2965489    4.2965489   -6492.7319    643.89096   -15217.841   -4904.2456   -5105.1137   -705.74082   -696.55111    79.315719 
   24500    450.93828   -122.31255   0.40801843   -121.90453    2642.8336    4.2932623    4.2932623    4.2932623    2642.8336    18685.586   -1929.8921   -8827.1931    2231.4804   -4189.4525    -3276.947    79.133847 
   24600    319.13914   -122.19468    0.2887638   -121.90592    6366.0767    4.2948525    4.2948525    4.2948525    6366.0767    20678.131   -3226.3454    1646.4443    3788.3899   -4598.0725    2523.1794    79.221809 
   24700    420.68951   -122.28722   0.38064871   -121.90657    -3918.116    4.2922983    4.2922983    4.2922983    -3918.116   -11827.662    11074.481   -11001.167    2241.3406   -348.36233    5205.9644    79.080552 
   24800    243.49292   -122.12891   0.22031751   -121.90859    4011.9856    4.2937035    4.2937035    4.2937035    4011.9856    3234.0625    976.88919    7825.0052   -9630.8977   -2949.5201    2505.0915    79.158244 
   24900    435.95667   -122.30038   0.39446276   -121.90591   -4278.5342    4.2953494    4.2953494    4.2953494   -4278.5342   -4244.2616    3078.8557   -11670.197    4522.3561    2267.1531    1546.3954    79.249312 
   25000    391.83277   -122.25934   0.35453853    -121.9048    76.210181    4.2915523    4.2915523    4.2915523    76.210181    5816.9477   -2314.3149   -3274.0023    1029.6171   -2958.3126    1511.9393    79.039325 
   25100      404.633   -122.27019   0.36612044   -121.90407   -4821.8635    4.2925161    4.2925161    4.2925161   -4821.8635    4115.1378   -10811.045   -7769.6834   -3950.2646   -3186.7263    326.19444     79.09259 
   25200    413.35602   -122.27716   0.37401321   -121.90314   -7291.1728    4.2968511    4.2968511    4.2968511   -7291.1728    14526.156    -27088.67   -9311.0041    -3267.911    3153.0996    332.44091    79.332459 
   25300    408.24768   -122.27261   0.36939108   -121.90322    4350.8099    4.2907813    4.2907813    4.2907813    4350.8099    8662.7375    11228.207   -6838.5147   -4297.0714     -6038.71   -3489.7272    78.996735 
   25400    512.44165   -122.36703   0.46366798   -121.90336    3292.1293    4.2894147    4.2894147    4.2894147    3292.1293    12377.242    3599.1755   -6100.0293    11197.046    1404.4635   -212.16276    78.921276 
   25500    405.39083   -122.27204   0.36680614   -121.90523    2032.2021     4.296487     4.296487     4.296487    2032.2021    6421.3646    4711.4186    -5036.177   -3174.5503    -3087.688    3648.3676    79.312292 
   25600    315.80351   -122.19294   0.28574565    -121.9072    1694.1124    4.2919377    4.2919377    4.2919377    1694.1124   -838.07174    9734.8306   -3814.4218   -3850.2852    1850.7776    1931.7943    79.060621 
   25700    409.33819   -122.27927   0.37037779   -121.90889   -3690.7206    4.2901906    4.2901906    4.2901906   -3690.7206   -5227.8669   -12559.502    6715.2077   -12377.093    2710.8193    1689.5167     78.96411 
   25800    347.06943   -122.22219   0.31403571   -121.90816   -2465.4494    4.2965781    4.2965781    4.2965781   -2465.4494    1931.0956    -11519.97    2192.5258    8139.7716   -549.43846   -1650.6726    79.317337 
   25900    450.73281   -122.31248   0.40783252   -121.90465   -4428.0777     4.291116     4.291116     4.291116   -4428.0777   -5107.2147    -15883.54    7706.5212    6031.9704    1009.2338     674.5087    79.015222 
   26000    387.03329   -122.25419   0.35019585   -121.90399   -3229.2974    4.2932174    4.2932174    4.2932174   -3229.2974   -1361.0009   -5059.6268   -3267.2644   -6414.4611    160.32879   -2539.2997    79.131364 
   26100    332.43916   -122.20403   0.30079793   -121.90323     2139.763    4.2953174    4.2953174    4.2953174     2139.763     19744.65   -12521.677   -803.68345    371.20212    1178.6648   -4097.2043    79.247542 
   26200    411.97957   -122.27612   0.37276777   -121.90335    2597.5207     4.291012     4.291012     4.291012    2597.5207   -8745.4484     24245.58   -7707.5696    305.45472    2368.6838    780.19904     79.00948 
   26300    398.00795   -122.26573   0.36012596    -121.9056    6822.0728    4.2904172    4.2904172    4.2904172    6822.0728    20256.589    2628.2254   -2418.5962    4899.3593   -1344.9052    728.17584    78.976623 
   26400     423.9474   -122.28958   0.38359652   -121.90599   -3949.8219    4.2992209    4.2992209    4.2992209   -3949.8219   -2864.2547    76.780766   -9061.9917   -3112.2411   -664.58708    2111.8106     79.46379 
   26500    495.87685   -122.35278   0.44867979    -121.9041   -5390.8257    4.2907191    4.2907191    4.2907191   -5390.8257   -1381.6641   -7990.4933   -6800.3197   -7584.8613    1655.2628    3374.5965    78.993298 
   26600    279.23557   -122.15876   0.25265821    -121.9061    3335.3228    4.2929597    4.2929597    4.2929597    3335.3228    5823.0858   -5037.9827    9220.8653   -237.33395    372.50751   -2331.8834    79.117114 
   26700    518.37972   -122.37418   0.46904086   -121.90514   -12679.177    4.2966132    4.2966132    4.2966132   -12679.177   -19847.188   -4362.7777   -13827.566    10444.299    3521.9834   -401.83427    79.319281 
   26800    217.97109     -122.104   0.19722482   -121.90678    6890.1831    4.2918382    4.2918382    4.2918382    6890.1831   -3787.5086    8622.5363    15835.521    322.95946   -2899.2754   -2557.4764    79.055122 
   26900    435.75629   -122.30002   0.39428145   -121.90574    674.73292    4.2904558    4.2904558    4.2904558    674.73292   -6265.9533    10681.092   -2390.9396   -7639.0029    3318.8402   -5844.2935    78.978758 
   27000     391.1477   -122.25977   0.35391866   -121.90585   -2517.6044    4.2981123    4.2981123    4.2981123   -2517.6044   -4260.8454   -5267.2717    1975.3039   -4358.2519   -2531.4423    3473.2911    79.402336 
   27100    377.70875   -122.24562   0.34175881   -121.90386    7739.9706    4.2868025    4.2868025    4.2868025    7739.9706    4389.4142    7429.8151    11400.682    6926.0388   -4207.0585   -4976.9565     78.77718 
   27200    536.03412   -122.38879   0.48501494   -121.90378   -10764.423    4.2970241    4.2970241    4.2970241   -10764.423   -4425.4483   -21288.656   -6579.1641    5004.3965    3044.8035    4755.9448    79.342042 
   27300    292.41405   -122.16897   0.26458238   -121.90438    9211.1856    4.2944224    4.2944224    4.2944224    9211.1856    14908.801     4345.914    8378.8413   -3628.8966   -4109.6729    2492.2338     79.19801 
   27400     582.8432      -122.43   0.52736878   -121.90263   -9121.0997    4.2903501    4.2903501    4.2903501   -9121.0997   -14720.972   -554.06457   -12088.262   -6010.5141    7956.2699   -1433.4505     78.97292 
   27500    205.00315   -122.09113   0.18549116   -121.90564     14586.54    4.2917669    4.2917669    4.2917669     14586.54    9524.7715     19302.41    14932.438    3904.8691   -360.48416    1256.1842    79.051184 
   27600    447.75437   -122.30854   0.40513756   -121.90341    -10380.22    4.3004301    4.3004301    4.3004301    -10380.22   -15505.285    2139.5912   -17774.965    6966.5654   -2797.9348   -7577.6473     79.53086 
   27700    332.36163   -122.20366   0.30072779   -121.90293    4855.1197    4.2877768    4.2877768    4.2877768    4855.1197   -7712.2963    5810.6388    16467.017   -5538.9003    2931.1503    1982.1105    78.830904 
   27800    362.59708   -122.23192   0.32808545   -121.90383    1037.1675    4.2941454    4.2941454    4.2941454    1037.1675   -4100.8004   -8557.8553    15770.158   -7251.1006   -5076.5533   -3785.3094    79.182685 
   27900    522.00474   -122.37478   0.47232086   -121.90246   -8119.5292    4.2983773    4.2983773    4.2983773   -8119.5292   -14823.984   -15385.602    5850.9984    46.881541    3083.7198    2943.2906    79.417021 
   28000    329.12769   -122.20137   0.29780165   -121.90357    2880.6118    4.2923379    4.2923379    4.2923379    2880.6118    2343.4732   -8169.0237    14467.386     5145.629   -4044.1741    1144.8853     79.08274 
   28100    523.09166   -122.37625   0.47330432   -121.90294   -5575.0686    4.2914866    4.2914866    4.2914866   -5575.0686   -8266.1521     -16499.9    8040.8458    3057.6471    2152.6033   -581.17435    79.035699 
   28200    390.81011   -122.25727    0.3536132   -121.90366   -3725.5097    4.3012947    4.3012947    4.3012947   -3725.5097    1935.4421   -9166.9354   -3945.0358   -3439.3322    1457.7176    3523.8712    79.578837 
   28300    385.33933   -122.24989   0.34866313   -121.90123    4194.2005    4.2889209    4.2889209    4.2889209    4194.2005   -3113.0397   -3193.6809    18889.322    5827.4658   -1080.9947   -7885.5682    78.894022 
   28400    393.05642   -122.25751   0.35564571   -121.90186   -2136.8601    4.2937146    4.2937146    4.2937146   -2136.8601   -11199.154   -5525.3536    10313.928    5615.5583    1953.8216   -1220.0407     79.15886 
   28500    286.11105   -122.16181   0.25887929   -121.90293    3485.8276    4.2978598    4.2978598    4.2978598    3485.8276    8399.6638   -4627.5082    6685.3274   -3086.0046   -5148.8508   -2600.5564     79.38834 
   28600    448.06676   -122.30759   0.40542022   -121.90217   -2214.2052    4.2912749    4.2912749    4.2912749   -2214.2052   -8433.5087    210.84049    1580.0527   -7753.1874    1380.4822   -3065.4937    79.023999 
   28700    292.14246   -122.16773   0.26433664   -121.90339    11260.113     4.290297     4.290297     4.290297    11260.113    17695.412    600.92364    15484.004   -4903.3094   -4597.9647    1929.0587    78.969986 
   28800    443.48399   -122.30347   0.40127363    -121.9022   -7173.4355    4.3004056    4.3004056    4.3004056   -7173.4355   -10843.192   -6425.1438   -4251.9709    4743.9811   -473.05778   -4781.5336    79.529503 
   28900    322.37504   -122.19377   0.29169172   -121.90207     4776.885     4.290973     4.290973     4.290973     4776.885    5560.1052   -6669.1828    15439.733   -3480.4754    908.61418    5200.1805     79.00732 
   29000    464.69472   -122.32339   0.42046555   -121.90293   -3388.9575    4.2920269    4.2920269    4.2920269   -3388.9575   -3295.9834   -16545.445    9674.5553   -4849.0305    69.985496    2211.5344    79.065552 
   29100    515.83528   -122.37006    0.4667386   -121.90332   -7679.1222    4.2958222    4.2958222    4.2958222   -7679.1222   -5459.0451   -16252.361   -1325.9607    1937.4771    1802.5183    511.17472    79.275485 
   29200    327.73024   -122.20215   0.29653721   -121.90561    3956.2692    4.2913179    4.2913179    4.2913179    3956.2692    2227.7052   -4653.5661    14294.668    4706.2408   -101.87717   -1226.2802    79.026377 
   29300    554.29038   -122.40623   0.50153358    -121.9047   -10051.097    4.2916293    4.2916293    4.2916293   -10051.097   -10415.276   -11223.374   -8514.6411    3538.9411   -3788.9574   -5617.9088     79.04358 
   29400    259.71838   -122.14241   0.23499865   -121.90741    8584.8004    4.2936664    4.2936664    4.2936664    8584.8004    17386.894   -2933.1699    11300.678   -9721.5325    2457.5659    4747.9655    79.156194 
   29500    406.18078   -122.27495   0.36752091   -121.90743    548.11987     4.292793     4.292793     4.292793    548.11987   -5377.2446    9162.6179   -2141.0137   -3975.4348   -3526.5523    2027.2558    79.107895 
   29600    374.40999   -122.24502   0.33877402   -121.90625    5188.2594     4.290321     4.290321     4.290321    5188.2594    8774.5794   -2505.9228    9296.1218    2012.8592    1210.6898    3448.4952    78.971311 
   29700    354.26793   -122.22481   0.32054907   -121.90426    1608.3563    4.2950334    4.2950334    4.2950334    1608.3563   -6771.5373   -662.46266    12259.069     1819.457    1810.5054   -1773.1169    79.231821 
   29800    486.78272   -122.34252   0.44045123   -121.90207   -5283.9198    4.2917051    4.2917051    4.2917051   -5283.9198   -6149.3123    -12760.37    3057.9229    -4170.517   -3975.2197   -775.04072    79.047768 
   29900     317.0419   -122.19022   0.28686617   -121.90336    4362.6528    4.2905238    4.2905238    4.2905238    4362.6528   -4177.3651   -13346.003    30611.326   -8410.2326    2001.8283    2021.0903     78.98251 
   30000    482.56981   -122.34006   0.43663931   -121.90342   -7025.3895    4.2917025    4.2917025    4.2917025   -7025.3895   -7893.9263   -17619.622    4437.3796    5099.0171   -4600.5825    3252.4349    79.047626 
   30100    422.77577    -122.2875   0.38253641   -121.90497   -6824.7348    4.2951128    4.2951128    4.2951128   -6824.7348   -8009.7909   -9957.7923   -2506.6212    3707.4482   -69.141953     137.2344    79.236216 
   30200    328.33615    -122.2046   0.29708545   -121.90752    5398.9589    4.2871579    4.2871579    4.2871579    5398.9589   -14122.489    1174.5719    29144.793   -8461.9419    530.09691    943.91647    78.796777 
   30300    446.97302   -122.31299   0.40443058   -121.90856   -392.49707    4.2911633    4.2911633    4.2911633   -392.49707    8976.7401   -6658.3288   -3495.9025   -7191.7462      4194.92   -39.180694    79.017837 
   30400    308.31436   -122.18646   0.27896931   -121.90749    4081.8042    4.2966496    4.2966496    4.2966496    4081.8042   -12862.837    12925.268    12182.981   -736.32352   -1360.8568    3786.9182    79.321298 
   30500     387.0608    -122.2546   0.35022075   -121.90438    3043.2286    4.2887158    4.2887158    4.2887158    3043.2286    8475.7802   -9125.4229    9779.3286    4258.2841   -3373.5718   -1175.0666    78.882704 
   30600    433.59217   -122.29666    0.3923233   -121.90433   -2409.4455     4.293806     4.293806     4.293806   -2409.4455   -9425.7448   -4193.6217    6391.0301    548.60878    234.91086    1560.2304    79.163916 
   30700    393.15887   -122.26015   0.35573841   -121.90442    1530.6221    4.2954051    4.2954051    4.2954051    1530.6221   -3980.1662   -8286.5416    16858.574   -3667.3143   -4801.3758   -541.86892    79.252395 
   30800    545.46245   -122.39739   0.49354588   -121.90385   -8134.9323    4.2898373    4.2898373    4.2898373   -8134.9323   -3441.0439   -17077.858   -3885.8955    3136.5724     4119.397    3425.9295    78.944606 
   30900    321.49067   -122.19562   0.29089152   -121.90473    3276.8039    4.2913146    4.2913146    4.2913146    3276.8039   -4774.9533   -6538.5805    21143.946    4931.3111   -3753.9794    1468.4308    79.026194 
   31000    392.98343   -122.26107   0.35557966   -121.90549   -7016.8411     4.298809     4.298809     4.298809   -7016.8411    -3157.548   -20860.301    2967.3257   -1748.9373    4651.3315   -730.17589    79.440951 
   31100     432.7899     -122.299    0.3915974    -121.9074    2860.7607    4.2847533    4.2847533    4.2847533    2860.7607   -10891.282    2569.3228    16904.242   -11084.335   -5682.6249     4530.309    78.664261 
   31200    331.07983   -122.20908   0.29956799   -121.90951     4844.279    4.2944828    4.2944828    4.2944828     4844.279    8703.9939   -4032.8856    9861.7287   -4793.6279    3840.1228    1116.6284    79.201352 
   31300    403.13494   -122.27077   0.36476496   -121.90601   -4172.1579    4.2967603    4.2967603    4.2967603   -4172.1579   -14977.203    2943.4836   -482.75465    2476.2943    3437.2232    2375.6887    79.327427 
   31400    357.04298   -122.22765      0.32306   -121.90459   -4333.0589     4.288986     4.288986     4.288986   -4333.0589   -9844.9297   -9228.8832    6074.6364   -6812.0351   -5028.7524   -3421.7204    78.897618 
   31500    304.95244   -122.18129   0.27592738   -121.90536    2453.6155    4.2922141    4.2922141    4.2922141    2453.6155   -15162.032   -5942.0738    28464.952   -4066.1498    4986.1627   -998.42473    79.075898 
   31600    609.34982   -122.45471   0.55135252   -121.90335    -12542.67    4.2972391    4.2972391    4.2972391    -12542.67   -5260.6141   -15781.009   -16586.387    -383.3149   -6656.9405   -493.53451    79.353953 
   31700    404.36074   -122.27066    0.3658741   -121.90479    4046.2883    4.2882235    4.2882235    4.2882235    4046.2883    1293.2851   -11901.178    22746.758    4969.3579    3031.0453     3435.208    78.855542 
   31800    400.82947   -122.26874   0.36267892   -121.90606   -2907.2694    4.2931846    4.2931846    4.2931846   -2907.2694    -8835.753   -15914.648    16028.592   -331.34379   -894.14183   -937.86639    79.129546 
   31900    354.26376   -122.22635   0.32054529    -121.9058   -729.54978    4.2971121    4.2971121    4.2971121   -729.54978    11716.501   -16104.156     2199.005   -7072.3113    2141.9803    1128.0911    79.346916 
   32000    357.37044   -122.22858   0.32335628   -121.90522    12281.591    4.2875057    4.2875057    4.2875057    12281.591   -2930.5404    10887.858    28887.456   -4577.1859    1587.4236    1274.6267    78.815952 
   32100    453.80346   -122.31856   0.41061091   -121.90795    1618.7017    4.2935336    4.2935336    4.2935336    1618.7017    3252.8705    6673.6351   -5070.4004   -1626.6858   -2533.3345   -899.28826    79.148848 
   32200    295.40706   -122.17794   0.26729051   -121.91065    3155.1357    4.2944924    4.2944924    4.2944924    3155.1357   -6812.7885    10245.454    6032.7411   -2301.8337     927.8836   -2158.7468    79.201882 
   32300    304.53793    -122.1835   0.27555232   -121.90795   -2432.7894     4.295233     4.295233     4.295233   -2432.7894   -17772.791   -2351.3672     12825.79   -4861.1417   -3490.2808    501.61065    79.242868 
   32400    489.77786    -122.3464    0.4431613   -121.90324   -434.30054    4.2890039    4.2890039    4.2890039   -434.30054    -12857.34    1465.3542    10089.084   -711.42074    7204.1018    -1941.375    78.898604 
   32500    482.93646    -122.3396   0.43697106   -121.90263    -3529.526    4.2978006    4.2978006    4.2978006    -3529.526   -6603.9254   -14803.249    10818.596    3818.7936   -1743.0237     486.2227    79.385064 
   32600    501.34078   -122.35552   0.45362367   -121.90189   -14124.607    4.2960069    4.2960069    4.2960069   -14124.607   -23456.192   -27239.205    8321.5776   -406.47951    57.355796   -1647.4157    79.285708 
   32700     339.6395   -122.20968   0.30731296   -121.90237   -3314.5107    4.2888911    4.2888911    4.2888911   -3314.5107   -15020.969   -12872.714    17950.151   -4819.7357    2058.5903    4388.7495    78.892378 
   32800    394.07577    -122.2623   0.35656804   -121.90573   -2654.8277    4.2969075    4.2969075    4.2969075   -2654.8277   -7653.0987   -8687.4361    8376.0518   -3687.0204   -2001.9714    -489.6075    79.335583 
   32900    552.00867   -122.40373   0.49946905   -121.90426   -1928.5327    4.2932651    4.2932651    4.2932651   -1928.5327   -3239.1927    5760.6685   -8307.0739   -1060.6339    4602.2685    1535.0275    79.133999 
   33000     200.6874   -122.08953   0.18158617   -121.90795     15001.97    4.2895465    4.2895465    4.2895465     15001.97   -1041.5338    13530.515    32516.927   -5115.6997   -3421.1651   -6085.3962    78.928551 
   33100    303.53965   -122.18375   0.27464905    -121.9091   -270.28191    4.2960612    4.2960612    4.2960612   -270.28191   -3975.3242    1938.8587    1225.6197   -9024.8052     976.2823   -21.987889    79.288713 
   33200    366.54339   -122.23843   0.33165616   -121.90677    1275.6981    4.2957287    4.2957287    4.2957287    1275.6981   -3432.5968   -968.72419    8228.4154   -4036.9384   -908.62475   -656.74178    79.270307 
   33300    474.89815    -122.3336   0.42969783   -121.90391    9401.9303    4.2855585    4.2855585    4.2855585    9401.9303    681.91231    7330.0141    20193.864    2447.2351    1044.1202    2778.3029    78.708616 
   33400    533.78563   -122.38794   0.48298046   -121.90496   -9775.1101    4.2982101    4.2982101    4.2982101   -9775.1101   -3587.5634   -20419.979   -5317.7879    350.71605    1909.8825    1828.7714    79.407754 
   33500    321.69638   -122.19623   0.29107765   -121.90515   -4011.9296    4.2947838    4.2947838    4.2947838   -4011.9296   -14621.729   -20997.902    23583.842   -4925.6173    473.55568   -89.826644    79.218008 
   33600    443.67738   -122.30551   0.40144862   -121.90406   -6813.7841    4.2882056    4.2882056    4.2882056   -6813.7841   -8125.0193   -11064.221   -1252.1122   -4084.8735    1379.8089    4151.6318     78.85456 
   33700    495.26134   -122.35301   0.44812287   -121.90489   -2780.3729    4.2941272    4.2941272    4.2941272   -2780.3729   -13298.794   -6417.3963    11375.071    1825.8713   -4127.0042   -2277.4279     79.18168 
[...]
   91300    462.70661   -122.32308   0.41866666   -121.90441   -3959.6525     4.293095     4.293095     4.293095   -3959.6525   -7225.9178    9652.7587   -14305.798    961.34692    -3579.851   -202.22805    79.124594 
   91400    502.12431   -122.35794   0.45433263   -121.90361    5506.7633    4.2857717    4.2857717    4.2857717    5506.7633    6849.7107    6153.8393      3516.74    2530.6019    3232.1148    2810.0782    78.720362 
   91500    398.90719   -122.26646   0.36093961   -121.90552    1157.2117     4.291939     4.291939     4.291939    1157.2117   -10719.899     22266.93   -8075.3956    3488.3867   -1247.7135    4178.7071    79.060695 
   91600    300.35822    -122.1785   0.27177043   -121.90673    265.11437    4.2915876    4.2915876    4.2915876    265.11437    372.35988    11105.066   -10682.083    2630.7648    -932.9745   -5961.0069    79.041274 
   91700    394.58059    -122.2625   0.35702481   -121.90548   -192.02979     4.284649     4.284649     4.284649   -192.02979   -7511.3635    6951.3835   -16.109385    687.21428   -4104.3012   -6210.4606    78.658518 
   91800    494.33191   -122.35126    0.4472819   -121.90398   -4766.4639    4.2928209    4.2928209    4.2928209   -4766.4639    5314.1673    -12369.98    -7243.579   -3580.8056    -3665.402   -789.18332     79.10944 
   91900    445.85918   -122.30947   0.40342276   -121.90604   -4271.2044     4.291751     4.291751     4.291751   -4271.2044   -19636.571   -1888.6356     8711.593    8027.6295    4574.8531      4632.64    79.050304 
   92000    284.49141    -122.1647   0.25741381   -121.90729    4892.9544     4.285197     4.285197     4.285197    4892.9544    1243.5397    10788.707    2646.6169    7564.0197   -3704.6984    154.73341      78.6887 
   92100    344.72246   -122.21823   0.31191212   -121.90632   -3730.3503    4.2935966    4.2935966    4.2935966   -3730.3503   -15840.089    16731.494   -12082.456   -1397.3797    -714.2231   -3673.3239    79.152334 
   92200    343.01006   -122.21551   0.31036271   -121.90515    5066.1475    4.2896665    4.2896665    4.2896665    5066.1475    4961.1504    13534.175   -3296.8831   -1078.9394    880.78646   -957.58521    78.935176 
   92300    531.21504   -122.38475   0.48065453   -121.90409   -4395.6542    4.2880457    4.2880457    4.2880457   -4395.6542   -8816.9233    301.27999   -4671.3193   -8503.7359    -761.1986    944.47692    78.845738 
   92400    416.36075   -122.28133   0.37673196    -121.9046   -8850.3633    4.2956531    4.2956531    4.2956531   -8850.3633   -6778.0757   -8676.4556   -11096.558    4585.1249    2154.8595   -760.13485    79.266122 
   92500    396.11692   -122.26363   0.35841492   -121.90521   -2050.0741    4.2877958    4.2877958    4.2877958   -2050.0741    6018.8932    4810.4074   -16979.523    4451.6857     -4810.88   -9091.4295    78.831954 
   92600    407.55457   -122.27432   0.36876394   -121.90555   -626.02323    4.2917258    4.2917258    4.2917258   -626.02323   -5151.1606    16879.242   -13606.151    979.66974   -515.96461   -5326.2353    79.048911 
   92700    299.36863   -122.17574   0.27087503   -121.90487    9982.7644    4.2938428    4.2938428    4.2938428    9982.7644     4944.777    26408.676   -1405.1599    671.07041     1334.512    3247.5838     79.16595 
   92800    450.47207   -122.31083    0.4075966   -121.90323   -1307.5837     4.290349     4.290349     4.290349   -1307.5837   -12221.485    22179.331   -13880.597   -2334.9444   -3673.9754    5332.7249    78.972858 
   92900    338.71049   -122.21037   0.30647237    -121.9039    3342.1269    4.2904253    4.2904253    4.2904253    3342.1269     5806.102    2502.7656    1717.5132   -1352.7676   -46.082417    581.07029    78.977075 
   93000     546.0354   -122.39625   0.49406431   -121.90219   -12339.908    4.2958409    4.2958409    4.2958409   -12339.908   -13500.574    -14258.46   -9260.6884   -2863.4201   -3712.5829   -6202.9812    79.276517 
   93100    458.59303   -122.31716   0.41494461   -121.90221   -678.05804    4.2892668    4.2892668    4.2892668   -678.05804    6140.2566   -3230.3868    -4944.044   -2626.4806    1374.1209   -3737.7682    78.913113 
   93200    345.56318   -122.21668   0.31267282     -121.904     1528.529    4.2904442    4.2904442    4.2904442     1528.529    -17192.74    21977.995   -199.66792    3560.4919    3361.1173   -127.06456    78.978114 
   93300    254.34072   -122.13554   0.23013283   -121.90541    3581.2062    4.2948218    4.2948218    4.2948218    3581.2062   -1617.0053    31742.242   -19381.618     7497.215   -4885.3968   -3458.1272    79.220112 
   93400    359.75156   -122.22933   0.32551077   -121.90382    1284.9519    4.2918585    4.2918585    4.2918585    1284.9519   -1277.2419    21906.753   -16774.656    1492.4054    2864.9761   -5275.3697    79.056243 
   93500    472.30568   -122.33104    0.4273521   -121.90368   -3331.5352    4.2891264    4.2891264    4.2891264   -3331.5352    3943.1466   -1413.4237   -12524.328    193.62011   -566.65188   -4899.4444    78.905365 
   93600    496.62464   -122.35368   0.44935641   -121.90433   -12045.061    4.2951809    4.2951809    4.2951809   -12045.061   -7705.8327   -11042.237   -17387.112   -3656.4902    -3641.103    5118.4059    79.239981 
   93700    443.70003   -122.30593   0.40146911   -121.90446   -5765.6299     4.292442     4.292442     4.292442   -5765.6299   -11987.073    5057.9714   -10367.788    1114.4059    -921.3132   -803.52738    79.088496 
   93800    354.21782   -122.22658   0.32050372   -121.90608    5966.4325    4.2904478    4.2904478    4.2904478    5966.4325     6264.052    25394.784   -13759.538    203.29555   -4076.5628   -1853.6888    78.978313 
   93900    465.96107   -122.32717   0.42161137   -121.90556   -461.12537    4.2914286    4.2914286    4.2914286   -461.12537   -8115.2399    20363.328   -13631.464    338.67888    2661.6116   -3677.7216    79.032489 
   94000    297.36568   -122.17639   0.26906272   -121.90733    5435.5967    4.2921685    4.2921685    4.2921685    5435.5967    12891.659    4921.7259   -1506.5946    4251.3564   -1871.9343    514.59454    79.073377 
   94100    413.48343   -122.28122    0.3741285   -121.90709   -7449.1092    4.2918167    4.2918167    4.2918167   -7449.1092    7679.9394   -12513.367     -17513.9    4934.2263   -3180.8371    1734.4231    79.053938 
   94200    440.70595   -122.30537   0.39876001   -121.90661   -882.05985    4.2873647    4.2873647    4.2873647   -882.05985    7755.2853   -2735.8803   -7665.5845   -171.42858   -402.29835   -1338.2121     78.80818 
   94300    440.91415   -122.30446   0.39894838   -121.90551   -4888.0214    4.2972338    4.2972338    4.2972338   -4888.0214   -3198.3842    419.21504   -11884.895   -8401.3198    213.61114   -580.45116    79.353657 
   94400     380.5707   -122.24981   0.34434837   -121.90546    1430.3692    4.2883722    4.2883722    4.2883722    1430.3692   -10973.382    26914.941   -11650.451    894.38234    1637.6381    519.40371    78.863751 
   94500    341.91855   -122.21715   0.30937509   -121.90777    492.91813    4.2892973    4.2892973    4.2892973    492.91813    6404.1296    8849.7606   -13775.136    3843.6424    -6205.087    4870.8149      78.9148 
   94600    326.84199   -122.20328    0.2957335   -121.90755    4819.6991    4.2949981    4.2949981    4.2949981    4819.6991     28627.92   -2309.5001   -11859.323    8164.7103    25.424582   -127.90074    79.229865 
   94700    508.29431   -122.36393   0.45991537   -121.90402   -396.22417    4.2916009    4.2916009    4.2916009   -396.22417     30184.05   -13125.576   -18247.146   -217.07717   -2279.7234   -1439.1729    79.042009 
   94800      409.519   -122.27584    0.3705414    -121.9053    2055.9894    4.2874717    4.2874717    4.2874717    2055.9894    16041.496   -2185.7314    -7687.796   -7262.5048    1448.3838   -546.22416    78.814078 
   94900    487.39762   -122.34799   0.44100761   -121.90699   -16162.707    4.2955741    4.2955741    4.2955741   -16162.707   -13319.384   -16545.049   -18623.688   -4656.7158   -1604.9046    3942.3122    79.261747 
   95000     425.2029   -122.29213   0.38473252   -121.90739   -8599.6766     4.292837     4.292837     4.292837   -8599.6766    4621.3969   -12688.386   -17732.041    2284.3175   -2967.9828    3867.7179    79.110331 
   95100    250.93455   -122.13463   0.22705086   -121.90758    10051.467    4.2886743    4.2886743    4.2886743    10051.467    40479.874    2127.2549   -12452.729    8192.3556     5187.321   -6811.5464    78.880415 
   95200     418.3389   -122.28514   0.37852183   -121.90662    3468.6264    4.2907645    4.2907645    4.2907645    3468.6264    34945.854   -4259.5132   -20280.461    6033.1248   -1920.2703   -3058.9964    78.995805 
   95300    365.59095   -122.23741   0.33079438   -121.90661   -3196.6272    4.2963051    4.2963051    4.2963051   -3196.6272    2972.4546     4.252985   -12566.589    6749.7555    3624.3893      2407.41    79.302223 
   95400    345.64584   -122.21893   0.31274762   -121.90618    2583.3225    4.2870332    4.2870332    4.2870332    2583.3225    6819.3133    3402.9679   -2472.3138    1335.2563   -3929.8217   -8.4668208      78.7899 
   95500    522.63261    -122.3783   0.47288897   -121.90541   -9718.4535    4.2921399    4.2921399    4.2921399   -9718.4535   -2450.2244   -10149.514   -16555.622   -6661.6382    1946.1267   -3660.4154    79.071796 
   95600    351.89135    -122.2237   0.31839869    -121.9053    8279.5813    4.2920577    4.2920577    4.2920577    8279.5813    25677.817   -2017.0831    1178.0104   -3167.9526   -9.8657922   -2599.4308    79.067253 
   95700    439.46931   -122.30152   0.39764107   -121.90387    2904.3726    4.2914446    4.2914446    4.2914446    2904.3726    28465.252   -12457.413    -7294.721   -2722.3804   -5234.3868    4689.6379    79.033374 
   95800    443.27231   -122.30568    0.4010821    -121.9046   -2806.4138    4.2903461    4.2903461    4.2903461   -2806.4138    13353.852   -8484.6555   -13288.438      7031.26   -1997.0554    348.27787    78.972702 
   95900    329.81859   -122.20445   0.29842679   -121.90603   -394.44937    4.2907197    4.2907197    4.2907197   -394.44937    6500.0126   -6453.4946   -1229.8661    1249.7712   -2019.9712   -3920.4439    78.993333 
   96000    506.14273   -122.36311   0.45796858   -121.90515   -7407.8431    4.2934389    4.2934389    4.2934389   -7407.8431   -11008.515    1668.0992   -12883.114    2452.5348      8047.06    461.94384     79.14361 
   96100     355.2992   -122.22722   0.32148219   -121.90574    6030.7704    4.2918548    4.2918548    4.2918548    6030.7704    27760.693      7474.14   -17142.522   -7228.8961   -1350.7778    3558.8034    79.056041 
   96200    309.91803   -122.18665   0.28042035   -121.90623    12038.257    4.2866242    4.2866242    4.2866242    12038.257    40701.938    4415.5608   -9002.7278   -6786.9195   -814.52531    1948.6372    78.767348 
   96300    358.49258   -122.23245   0.32437162   -121.90807   -2984.2715    4.2968152    4.2968152    4.2968152   -2984.2715    21596.325   -6454.9355   -24094.204   -5135.1193   -3495.2909   -6499.2879    79.330469 
   96400    402.61046    -122.2696    0.3642904   -121.90531   -3964.9212    4.2912255    4.2912255    4.2912255   -3964.9212     4656.588    2687.7104   -19239.062   -2246.5969     2742.014   -4471.7468     79.02127 
   96500    465.07329    -122.3261   0.42080808   -121.90529   -3290.8066    4.2897546    4.2897546    4.2897546   -3290.8066    1702.4951     2808.047   -14382.962    5222.0214    1653.8856    296.95474    78.940042 
   96600    499.43217   -122.35667   0.45189673   -121.90477   -8288.4588    4.2965026    4.2965026    4.2965026   -8288.4588     12285.55    -12392.55   -24758.377     4039.251   -3421.1386   -3743.0908    79.313154 
   96700    350.33254   -122.22255   0.31698824   -121.90557    1204.9135    4.2905183    4.2905183    4.2905183    1204.9135     37816.08   -19959.532   -14241.807    1380.7271    4738.2014   -4915.7422    78.982208 
   96800    290.44306   -122.16981   0.26279898   -121.90701   -96.923157    4.2922674    4.2922674    4.2922674   -96.923157    17667.526   -6488.0796   -11470.216   -6869.0449    5601.6989    -2359.657    79.078841 
   96900    526.37146   -122.38114   0.47627196   -121.90487   -8081.8217    4.2927024    4.2927024    4.2927024   -8081.8217   -6388.0925   -3857.6842   -13999.688   -5490.8863    6704.9836    2667.0059    79.102891 
   97000    372.44355   -122.24221   0.33699475   -121.90521    3300.1815    4.2948156    4.2948156    4.2948156    3300.1815    2317.9369    11256.113   -3673.5059   -2672.5028   -2309.2771     4359.211    79.219769 
   97100    429.23842   -122.29263   0.38838395   -121.90425    4365.7241    4.2887533    4.2887533    4.2887533    4365.7241    8906.2363    7769.4324   -3578.4963     5057.889   -2648.2424   -2145.7713    78.884774 
   97200    295.86058   -122.17472   0.26770087   -121.90702    2621.6579    4.2927216    4.2927216    4.2927216    2621.6579    22415.611   -3932.8393   -10617.798     7381.842   -3249.7156    -61.77715    79.103949 
   97300    196.06687   -122.08536   0.17740543   -121.90795    10214.812    4.2891057    4.2891057    4.2891057    10214.812    30550.214   -2112.6401    2206.8615    4092.3345   -1607.6382    4415.0109    78.904222 
   97400    533.45233   -122.38822   0.48267888   -121.90555   -7619.3147    4.2922778    4.2922778    4.2922778   -7619.3147    3022.5606   -17989.012   -7891.4929     -2704.89   -1458.2584    3517.9267    79.079417 
   97500    516.79419   -122.37273   0.46760624   -121.90513   -6963.5313    4.2915498    4.2915498    4.2915498   -6963.5313    5684.9705   -16845.322   -9730.2422   -1253.4771    740.42721   -6551.7239    79.039188 
   97600    409.67789   -122.27774   0.37068516   -121.90705    842.04564    4.2850776    4.2850776    4.2850776    842.04564    17615.603   -16361.616    1272.1491   -861.66074    5288.6637   -7032.0993    78.682125 
   97700    375.40952   -122.24722   0.33967843   -121.90754   -5246.7677    4.2968413    4.2968413    4.2968413   -5246.7677    22852.684   -17263.912   -21329.075   -752.77062    2611.0541    610.36781    79.331915 
   97800    343.06974   -122.21613   0.31041671   -121.90572    6309.0266    4.2895091    4.2895091    4.2895091    6309.0266    39697.108   -7228.3566   -13541.671     960.7054    768.69157   -199.91566     78.92649 
   97900     580.2485    -122.4289   0.52502104   -121.90388   -2313.8566    4.2863773    4.2863773    4.2863773   -2313.8566    10821.721   -5811.3261   -11951.964     3463.071   -5841.8533   -4817.3704     78.75374 
   98000     473.5696   -122.33225   0.42849573   -121.90375   -8069.4032    4.2974466    4.2974466    4.2974466   -8069.4032    698.26287   -3047.5723     -21858.9    2270.4889   -2844.9782   -4731.2587    79.365445 
   98100    305.37691    -122.1836   0.27631145   -121.90729    7479.6599     4.286925     4.286925     4.286925    7479.6599    30247.509    881.43068   -8689.9604   -2450.4025    3120.1559    2433.9073    78.783935 
   98200    358.20477   -122.23202    0.3241112   -121.90791    4044.3122    4.2911265    4.2911265    4.2911265    4044.3122     26979.94   -5210.6233     -9636.38   -8866.2181    3691.5406    5065.1734    79.015804 
   98300    334.75544   -122.20971   0.30289376   -121.90681    2669.3462    4.2965765    4.2965765    4.2965765    2669.3462    29571.478   -12482.897   -9080.5425   -3326.8066    7668.8197    -3979.229    79.317248 
   98400    387.98851   -122.25612   0.35106016   -121.90506    3282.0482    4.2869635    4.2869635    4.2869635    3282.0482    16689.386   -11224.633    4381.3916    1309.9203    1138.4437   -4574.3708    78.786057 
   98500    398.40517    -122.2671   0.36048537   -121.90662    4206.2198    4.2892155    4.2892155    4.2892155    4206.2198    21986.159   -13177.359    3809.8597    4344.1755    419.63148    3001.2091     78.91028 
   98600    469.91588   -122.33285   0.42518976   -121.90766   -12714.122    4.2976943    4.2976943    4.2976943   -12714.122   -4326.3197   -23344.543   -10471.502    922.51158   -2412.7283    3454.4771     79.37917 
   98700    228.79971   -122.11522   0.20702278    -121.9082    9771.6679    4.2810815    4.2810815    4.2810815    9771.6679    45587.729   -10175.889   -6096.8364   -4471.5033    288.86094   -9771.5891    78.462199 
   98800    503.30728   -122.36176     0.455403   -121.90636   -14291.324    4.2943982    4.2943982    4.2943982   -14291.324    7574.5577    -28109.32   -22339.208    -1407.662   -4770.3858    -12322.11     79.19667 
   98900    433.58391   -122.29611   0.39231583   -121.90379    -2660.365     4.293342     4.293342     4.293342    -2660.365    17940.968   -9962.2974   -15959.766    -1670.966    1791.1497   -140.47702    79.138253 
   99000    443.24564   -122.30632   0.40105797   -121.90526   -2177.0225    4.2882649    4.2882649    4.2882649   -2177.0225    3465.1083    671.34939   -10667.525   -500.28324    4863.6871   -1253.3955    78.857831 
   99100    374.78514   -122.24802   0.33911347   -121.90891   -2259.0167    4.2887012    4.2887012    4.2887012   -2259.0167    28117.992   -13271.808   -21623.234   -1948.9914    3272.9423   -7541.8966    78.881902 
   99200    338.50352    -122.2149    0.3062851   -121.90861    4563.1981    4.2906463    4.2906463    4.2906463    4563.1981    22691.296    3613.8452   -12615.547    3396.8151   -1699.7153   -7182.8567    78.989278 
   99300    407.70057   -122.27474   0.36889604   -121.90585    5032.8477    4.2902637    4.2902637    4.2902637    5032.8477     26359.03    -802.2024   -10458.284    1434.1752   -6933.4138     1922.836    78.968149 
   99400    532.76454   -122.38926   0.48205655   -121.90721   -4739.4509    4.2853427    4.2853427    4.2853427   -4739.4509    3771.6824   -7258.0222   -10732.013    1565.8362    2524.3238    6820.3187     78.69673 
   99500    342.15808   -122.22208   0.30959182   -121.91249    419.70719    4.2881601    4.2881601    4.2881601    419.70719    10172.152   -9612.5117    699.48113     -3879.28    3514.5203    -4465.383     78.85205 
   99600     326.0939   -122.20641   0.29505662   -121.91135   -1005.9782    4.2957833    4.2957833    4.2957833   -1005.9782    32968.932   -30399.323   -5587.5431   -1952.0006    2391.8757   -8068.9433     79.27333 
   99700       519.82   -122.37658   0.47034406   -121.90624    6553.7685    4.2822435    4.2822435    4.2822435    6553.7685    27492.884   -4128.8232   -3702.7549    739.32489   -3662.3654   -1517.3925    78.526109 
   99800    451.33125   -122.31538     0.408374   -121.90701    4767.0059     4.289459     4.289459     4.289459    4767.0059    19552.393   -10597.124    5345.7488    1022.0269   -1409.2979    2559.0964    78.923724 
   99900    439.21247    -122.3037   0.39740867   -121.90629   -14120.998     4.296783     4.296783     4.296783   -14120.998   -900.98868   -18211.841   -23250.165    3498.7033   -13.999057   -6652.1771    79.328684 
  100000    231.13573   -122.11804   0.20913647    -121.9089    1094.8764    4.2811877    4.2811877    4.2811877    1094.8764    26922.053   -12416.216   -11221.208   -7531.2892    2551.8218   -13002.608    78.468041 
Loop time of 22.3622 on 1 procs for 100000 steps with 8 atoms

Pair  time (%) = 7.20187 (32.2056)
Kspce time (%) = 5.35817 (23.9609)
Neigh time (%) = 0 (0)
Comm  time (%) = 1.07897 (4.82499)
Outpt time (%) = 0.0263159 (0.11768)
Other time (%) = 8.69686 (38.8909)

Nlocal:    8 ave 8 max 8 min
Histogram: 1 0 0 0 0 0 0 0 0 0
Nghost:    2189 ave 2189 max 2189 min
Histogram: 1 0 0 0 0 0 0 0 0 0
Neighs:    2344 ave 2344 max 2344 min
Histogram: 1 0 0 0 0 0 0 0 0 0

Total # of neighbors = 2344
Ave neighs/atom = 293
Neighbor list builds = 0
Dangerous builds = 0
unfix 20
unfix 21
print "seeds:8034958"
seeds:8034958
