LAMMPS (11 Aug 2017)
Reading data file ...
  triclinic box = (0 0 0) to (2.322 2.322 2.322) with tilt (-0 -0 0)
  1 by 1 by 1 MPI processor grid
  reading atoms ...
  1 atoms
1 atoms in group Ni
Neighbor list info ...
  update every 1 steps, delay 0 steps, check yes
  max neighbors/atom: 2000, page size: 100000
  master list distance cutoff = 5.64464
  ghost atom cutoff = 5.64464
  binsize = 2.82232, bins = 1 1 1
  1 neighbor lists, perpetual/occasional/extra = 1 0 0
  (1) pair eam/alloy, perpetual
      attributes: half, newton on
      pair build: half/bin/newton/tri
      stencil: half/bin/3d/newton/tri
      bin: standard
Setting up cg style minimization ...
  Unit style    : metal
  Current step  : 0
WARNING: Energy due to 3 extra global DOFs will be included in minimizer energies
Per MPI rank memory allocation (min/avg/max) = 4.239 | 4.239 | 4.239 Mbytes
Step PotEng Xhi Xlo Yhi Ylo Zhi Xy Xz Yz Press Pxx Pyy Pzz Pxy Pxz Pyz c_eatoms 
       0   -7.3474525        2.322            0        2.322            0        2.322           -0           -0            0   -569176.83   -569176.83   -569176.83   -569176.83            0            0 1.0656024e-11   -7.3474525 
      10   -7.4802701      2.31039      0.01161      2.31039      0.01161      2.31039           -0           -0            0   -575087.59   -575087.59   -575087.59   -575087.59 -3.6607356e-12 -1.5688612e-11 -1.9349347e-11   -7.4802701 
      20   -7.6115409      2.29878      0.02322      2.29878      0.02322      2.29878           -0           -0            0   -578849.25   -578849.25   -578849.25   -578849.25 -1.6982759e-11 -1.9079805e-11 -1.5305859e-11   -7.6115409 
      30   -7.7407227      2.28717      0.03483      2.28717      0.03483      2.28717           -0           -0            0   -580061.68   -580061.68   -580061.68   -580061.68 7.7837476e-12 8.0573949e-13 -6.9780081e-12   -7.7407227 
      40   -7.8672165      2.27556      0.04644      2.27556      0.04644      2.27556           -0           -0            0    -578287.2    -578287.2    -578287.2    -578287.2 8.0295322e-12 7.5120038e-12 -5.1752845e-13   -7.8672165 
      50   -7.9903609      2.26395      0.05805      2.26395      0.05805      2.26395           -0           -0            0   -573025.17   -573025.17   -573025.17   -573025.17            0 -1.5924224e-11 -3.4955613e-12   -7.9903609 
      60   -8.1094255      2.25234      0.06966      2.25234      0.06966      2.25234           -0           -0            0   -563703.14   -563703.14   -563703.14   -563703.14 -2.9935632e-11 -2.1248953e-11 -2.1248953e-11   -8.1094255 
      70   -8.2236037      2.24073      0.08127      2.24073      0.08127      2.24073           -0           -0            0   -549666.82   -549666.82   -549666.82   -549666.82            0 -1.1315897e-11 -1.1315897e-11   -8.2236037 
      80   -8.3320049      2.22912      0.09288      2.22912      0.09288      2.22912           -0           -0            0   -530168.55   -530168.55   -530168.55   -530168.55            0 -2.3449111e-11 -6.4146506e-13   -8.3320049 
      90   -8.4336456      2.21751      0.10449      2.21751      0.10449      2.21751           -0           -0            0   -504354.22   -504354.22   -504354.22   -504354.22 -2.8281408e-11 -4.2495761e-11 -4.7209329e-11   -8.4336456 
     100   -8.5274399       2.2059       0.1161       2.2059       0.1161       2.2059           -0           -0            0   -471248.13   -471248.13   -471248.13   -471248.13            0 1.0049406e-11 1.9794284e-11   -8.5274399 
     110   -8.6123547      2.19429      0.12771      2.19429      0.12771      2.19429           -0           -0            0   -433872.78   -433872.78   -433872.78   -433872.78 1.0077062e-11 2.2289595e-11 2.2279754e-11   -8.6123547 
     120   -8.6883915      2.18268      0.13932      2.18268      0.13932      2.18268           -0           -0            0   -392583.81   -392583.81   -392583.81   -392583.81 -1.5636775e-11 -1.4740918e-11 -2.0034618e-11   -8.6883915 
     130   -8.7543832      2.17107      0.15093      2.17107      0.15093      2.17107           -0           -0            0   -340683.21   -340683.21   -340683.21   -340683.21 3.381826e-11 1.2431635e-11 1.078813e-11   -8.7543832 
     140   -8.8087287      2.15946      0.16254      2.15946      0.16254      2.15946           -0           -0            0   -276552.49   -276552.49   -276552.49   -276552.49 5.5844267e-12 1.387381e-11 3.4902667e-12   -8.8087287 
     150   -8.8496614      2.14785      0.17415      2.14785      0.17415      2.14785           -0           -0            0   -198338.93   -198338.93   -198338.93   -198338.93 -3.0907459e-11 -4.0486964e-11 -2.9642242e-11   -8.8496614 
     160   -8.8752316      2.13624      0.18576      2.13624      0.18576      2.13624           -0           -0            0   -103920.96   -103920.96   -103920.96   -103920.96 -2.9964435e-11 -1.0487552e-11 -4.4946653e-12   -8.8752316 
     170   -8.8833416     2.125497   0.19650296     2.125497   0.19650296     2.125497           -0           -0            0   -14.494451   -14.494451   -14.494451   -14.494451 -6.1953795e-12 -2.5168729e-12 -1.3939604e-11   -8.8833416 
     172   -8.8833416    2.1254957   0.19650435    2.1254957   0.19650435    2.1254957           -0           -0            0 -6.9749948e-10 -6.7762255e-10 -6.7762255e-10 -7.3725334e-10 1.2584419e-11 -3.6785224e-12 1.0841961e-11   -8.8833416 
Loop time of 0.00167012 on 1 procs for 172 steps with 1 atoms

91.2% CPU use with 1 MPI tasks x no OpenMP threads

Minimization stats:
  Stopping criterion = energy tolerance
  Energy initial, next-to-last, final = 
        -7.34745252224     -8.88334163517     -8.88334163517
  Force two-norm initial, final = 7.70343 6.52599e-15
  Force max component initial, final = 4.44758 3.97584e-15
  Final line search alpha, max atom move = 1 3.97584e-15
  Iterations, force evaluations = 172 175

MPI task timing breakdown:
Section |  min time  |  avg time  |  max time  |%varavg| %total
---------------------------------------------------------------
Pair    | 0.00060844 | 0.00060844 | 0.00060844 |   0.0 | 36.43
Neigh   | 7.8678e-06 | 7.8678e-06 | 7.8678e-06 |   0.0 |  0.47
Comm    | 0.00022769 | 0.00022769 | 0.00022769 |   0.0 | 13.63
Output  | 0.00016856 | 0.00016856 | 0.00016856 |   0.0 | 10.09
Modify  | 0          | 0          | 0          |   0.0 |  0.00
Other   |            | 0.0006576  |            |       | 39.37

Nlocal:    1 ave 1 max 1 min
Histogram: 1 0 0 0 0 0 0 0 0 0
Nghost:    215 ave 215 max 215 min
Histogram: 1 0 0 0 0 0 0 0 0 0
Neighs:    40 ave 40 max 40 min
Histogram: 1 0 0 0 0 0 0 0 0 0

Total # of neighbors = 40
Ave neighs/atom = 40
Neighbor list builds = 1
Dangerous builds = 0
pypospack:output_section:begin
tot_energy = -8.88334163517233
num_atoms = 1
a11 = 1.92899130668675
a22 = 1.92899130668675
a33 = 1.92899130668675
a12 = -0
a13 = -0
a23 = 0
tot_press = -6.97499479050274e-10
pxx = -6.7762255089081e-10
pyy = -6.7762255089081e-10
pzz = -7.37253335369201e-10
pxy = 1.25844188022579e-11
pxz = -3.67852241912154e-12
pyz = 1.0841960814253e-11
pypospack:output_section:done
pypospack:lammps_sim:done
Total wall time: 0:00:00
