# ['Ni']

18 atoms
1 atom types

    0.0000     2.3733 xlo xhi
    0.0000     4.1107 ylo yhi
    0.0000    34.8744 zlo zhi

    0.0000     0.0000    -0.0004 xy xz yz

Atoms

1 1     0.0000     0.0000     0.0000
2 1     1.1866     0.6851     1.9375
3 1     0.0000     1.3702     3.8749
4 1     1.1866     2.0553     0.0000
5 1     0.0000     2.7405     1.9375
6 1     1.1866     3.4256     3.8749
7 1     0.0000     0.0000     5.8124
8 1     1.1866     0.6851     7.7499
9 1     0.0000     1.3702     9.6873
10 1     1.1866     2.0553     5.8124
11 1     0.0000     2.7405     7.7499
12 1     1.1866     3.4256     9.6873
13 1     0.0000     0.0000    11.6248
14 1     1.1866     0.6851    13.5623
15 1     0.0000     1.3702    15.4997
16 1     1.1866     2.0553    11.6248
17 1     0.0000     2.7405    13.5623
18 1     1.1866     3.4256    15.4997
