# ['Ni']

28 atoms
1 atom types

    0.0000     2.4808 xlo xhi
    0.0000     4.2968 ylo yhi
    0.0000    28.3576 zlo zhi

    0.0000     0.0000     0.0000 xy xz yz

Atoms

1 1     0.0000     0.0000     0.0000
2 1     1.2404     2.1484     0.0000
3 1     1.2404     0.7161     2.0256
4 1     0.0000     2.8646     2.0256
5 1     0.0000     1.4323     4.0511
6 1     1.2404     3.5807     4.0511
7 1     0.0000     0.0000     6.0766
8 1     1.2404     2.1484     6.0766
9 1     1.2404     0.7161     8.1022
10 1     0.0000     2.8646     8.1022
11 1     0.0000     1.4323    10.1277
12 1     1.2404     3.5807    10.1277
13 1     0.0000     0.0000    12.1533
14 1     1.2404     2.1484    12.1533
15 1     0.0000     1.4323    14.1788
16 1     1.2404     3.5807    14.1788
17 1     0.0000     0.0000    16.2044
18 1     1.2404     2.1484    16.2044
19 1     1.2404     0.7161    18.2299
20 1     0.0000     2.8646    18.2299
21 1     0.0000     1.4323    20.2555
22 1     1.2404     3.5807    20.2555
23 1     0.0000     0.0000    22.2810
24 1     1.2404     2.1484    22.2810
25 1     1.2404     0.7161    24.3065
26 1     0.0000     2.8646    24.3065
27 1     0.0000     1.4323    26.3321
28 1     1.2404     3.5807    26.3321
