LAMMPS (11 Aug 2017)
Reading data file ...
  triclinic box = (0 0 0) to (3.6 6.2354 5.8788) with tilt (0 0 0)
  1 by 1 by 1 MPI processor grid
  reading atoms ...
  4 atoms
4 atoms in group Ni
Neighbor list info ...
  update every 1 steps, delay 0 steps, check yes
  max neighbors/atom: 2000, page size: 100000
  master list distance cutoff = 5.64464
  ghost atom cutoff = 5.64464
  binsize = 2.82232, bins = 2 3 3
  1 neighbor lists, perpetual/occasional/extra = 1 0 0
  (1) pair eam/alloy, perpetual
      attributes: half, newton on
      pair build: half/bin/newton/tri
      stencil: half/bin/3d/newton/tri
      bin: standard
Setting up cg style minimization ...
  Unit style    : metal
  Current step  : 0
WARNING: Energy due to 3 extra global DOFs will be included in minimizer energies
Per MPI rank memory allocation (min/avg/max) = 4.194 | 4.194 | 4.194 Mbytes
Step PotEng Xhi Xlo Yhi Ylo Zhi Xy Xz Yz Press Pxx Pyy Pzz Pxy Pxz Pyz c_eatoms 
       0   -5.2792423          3.6            0       6.2354            0       5.8788            0            0            0   -102683.91   -102684.91   -102683.33   -102683.48 -1.0109422e-12 2.695846e-12 1.0783384e-11   -5.2792423 
      10   -5.5362729        3.582        0.018    6.2042235  0.031176521    5.8494064            0            0            0   -107510.46   -107511.49   -107509.86   -107510.02 -3.234191e-12 6.522647e-12 -2.7783654e-12   -5.5362729 
      20   -5.8000331        3.564        0.036     6.173047  0.062353043    5.8200128            0            0            0   -112589.43    -112590.5   -112588.81   -112588.98 2.1705928e-12 -8.0334311e-12 8.5928622e-12   -5.8000331 
      30   -6.0707027        3.546        0.054    6.1418704  0.093529565    5.7906192            0            0            0    -117933.1   -117934.21   -117932.46   -117932.63 -4.3614542e-12 -1.2022845e-11 2.0676524e-11   -6.0707027 
      40   -6.3484595        3.528        0.072    6.1106939   0.12470609    5.7612256            0            0            0   -123553.75   -123554.89   -123553.09   -123553.27 2.7613971e-12 -1.4711581e-11 -9.1411768e-12   -6.3484595 
      50   -6.6334784         3.51         0.09    6.0795174   0.15588261     5.731832            0            0            0   -129463.51   -129464.69   -129462.82   -129463.01 -7.9098728e-12 -8.3029099e-12 -9.4328918e-12   -6.6334784 
      60   -6.9259287        3.492        0.108    6.0483409   0.18705914    5.7024384            0            0            0   -135674.09   -135675.31   -135673.38   -135673.58 -4.0064325e-12 1.5265015e-11 -1.298287e-11   -6.9259287 
      70   -7.2259719        3.474        0.126    6.0171643   0.21823566    5.6730448            0            0            0    -142196.5   -142197.76   -142195.76   -142195.98 -1.660063e-11 -6.4936219e-12 -1.6757734e-11   -7.2259719 
      80   -7.5337584        3.456        0.144    5.9859878   0.24941219    5.6436512            0            0            0   -149040.63   -149041.92   -149039.87   -149040.09 2.0555788e-12 -1.1251589e-11 -2.4234192e-11   -7.5337584 
      90   -7.8494684        3.438        0.162    5.9548113   0.28058874    5.6142576            0            0            0   -156426.84   -156427.98   -156426.24   -156426.29 -4.0909729e-12 1.3589995e-11 5.4394917e-12   -7.8494684 
     100   -8.1745971         3.42         0.18    5.9236347   0.31176535     5.584864            0            0            0   -164969.89   -164971.05   -164969.28   -164969.33 -1.5095326e-11 1.7507689e-11 -2.1422363e-11   -8.1745971 
     110   -8.5098375        3.402        0.198     5.892458   0.34294197    5.5554703            0            0            0   -173866.97   -173868.15   -173866.36   -173866.41 -3.2862929e-13 2.1510281e-12 -6.0647042e-12   -8.5098375 
     120   -8.8551924        3.384        0.216    5.8612814   0.37411859    5.5260766            0            0            0   -183122.76   -183123.94   -183122.14    -183122.2 -7.2936927e-12 8.5917227e-12 2.5187964e-11   -8.8551924 
     130    -9.210635        3.366        0.234    5.8301048   0.40529523     5.496683            0            0            0   -192736.43   -192737.61   -192735.81   -192735.87 -1.8358512e-11 8.2517353e-12 -3.198347e-13    -9.210635 
     140   -9.5760978        3.348        0.252    5.7989281   0.43647188    5.4672893            0            0            0      -202700   -202701.17   -202699.39   -202699.45 4.6357061e-12 -1.3575996e-11 -2.63573e-11   -9.5760978 
     150   -9.9514596         3.33         0.27    5.7677515   0.46764854    5.4378956            0            0            0   -212996.17   -212997.32   -212995.57   -212995.63 -1.8244751e-11 1.5364001e-11 -1.8038983e-11   -9.9514596 
     160    -10.33653        3.312        0.288    5.7365748   0.49882522    5.4085019            0            0            0   -223595.59    -223596.7      -223595   -223595.06 -1.3076542e-11 -9.9495427e-12 -4.2640897e-12    -10.33653 
     170   -10.731031        3.294        0.306    5.7053981   0.53000191    5.3791082            0            0            0   -234453.39   -234454.45   -234452.83    -234452.9 8.6928172e-12 -1.2081542e-11 -3.3887253e-11   -10.731031 
     180   -11.134572        3.276        0.324    5.6742214   0.56117861    5.3497144            0            0            0   -245504.92    -245505.9   -245504.39   -245504.46 -2.2766035e-11 -5.8061029e-12 2.7502592e-12   -11.134572 
     190   -11.546628        3.258        0.342    5.6430447   0.59235534    5.3203207            0            0            0   -256660.16   -256661.04   -256659.69   -256659.76 2.8058263e-11 1.0620924e-11 -2.4729316e-11   -11.546628 
     200   -11.966501         3.24         0.36    5.6118679   0.62353209    5.2909269            0            0            0   -267796.93   -267797.68   -267796.52    -267796.6            0 1.9744845e-12 -1.1353286e-11   -11.966501 
     210   -12.393283        3.222        0.378    5.5806911   0.65470887    5.2615331            0            0            0   -278752.05    -278752.7    -278751.8   -278751.64 -2.0504176e-11 -5.9803846e-12 6.8347252e-13   -12.393283 
     220   -12.825576    3.2040318   0.39596821    5.5495694   0.68583063    5.2321391            0            0            0   -289676.22   -289291.73   -289291.17   -290445.77 -2.1301983e-12 -5.1479793e-12 -2.4142248e-11   -12.825576 
     230   -13.261505    3.1861369   0.41386312    5.5185745   0.71682545    5.2027451            0            0            0   -299921.74   -299116.06   -299115.92   -301533.23 2.6936248e-11 1.826499e-11 2.9334681e-11   -13.261505 
     240   -13.699168    3.1683169   0.43168309    5.4877095   0.74769054    5.1733511            0            0            0   -309134.38   -307876.26   -307876.65   -311650.22 -3.0691645e-11 1.6880405e-11 4.9873923e-12   -13.699168 
     250   -14.136231    3.1505741   0.44942589     5.456978     0.778422    5.1439571            0            0            0   -316869.66   -315129.38   -315130.43   -320349.18 -1.7956906e-11 -1.1572229e-11 -1.4764567e-11   -14.136231 
     260   -14.570483    3.1328995   0.46710052    5.4263646   0.80903541    5.1145631            0            0            0   -324124.78   -322309.99    -322310.3   -327754.04 -2.7956775e-11 -2.7077651e-11 -1.2346656e-11   -14.570483 
     270   -15.004003    3.1151714   0.48482857    5.3956587   0.83974131    5.0851691            0            0            0   -330812.92   -329531.63   -329532.84    -333374.3 1.9077178e-11 5.3570121e-12 -3.353368e-11   -15.004003 
     280   -15.433851    3.0973526   0.50264738    5.3647955   0.87060453    5.0557751            0            0            0   -334029.15   -333348.45   -333350.79    -335388.2 2.9280721e-11 2.1650841e-11 1.4640361e-12   -15.433851 
     290   -15.854798    3.0794339    0.5205661    5.3337591    0.9016409    5.0263811            0            0            0   -332563.15   -332552.53   -332556.25   -332580.68 1.8641319e-11 2.3397057e-11 1.0386297e-10   -15.854798 
     300   -16.259564    3.0614372   0.53856277    5.3025876   0.93281243    4.9970447            0            0            0   -324869.75   -325594.52   -325599.92   -323414.82 6.1261201e-14 1.6127011e-11 7.0481012e-11   -16.259564 
     310    -16.63831    3.0434375   0.55656248    5.2714106   0.96398943     4.967918            0            0            0   -309074.51      -310583   -310590.37   -306050.15 -2.913056e-11 1.0232469e-11 2.9418348e-11    -16.63831 
     320   -16.981247     3.025438   0.57456204    5.2402336   0.99516643    4.9390508            0            0            0    -282846.8   -285154.39   -285163.98   -278222.01 3.9710232e-11 -2.6885397e-11 -6.6796018e-12   -16.981247 
     330   -17.276891    3.0074386   0.59256138    5.2090566    1.0263434    4.9104993            0            0            0   -244116.04   -246685.29   -246697.21   -238965.64 4.4112945e-11 4.2961262e-11 5.4792187e-11   -17.276891 
     340     -17.5144    2.9894396   0.61056037    5.1778796    1.0575204    4.8819432            0            0            0   -190198.04   -191772.93   -191787.07   -187034.12 -8.0283287e-12 2.1056117e-11 1.0838244e-10     -17.5144 
     350   -17.677492    2.9714413   0.62855869    5.1467026    1.0886974    4.8531429            0            0            0   -114247.27   -114692.12   -114707.34   -113342.34 -4.0098045e-11 4.765939e-11 8.791019e-11   -17.677492 
     360   -17.744359    2.9535858   0.64641417    5.1157683    1.1196317    4.8238509            0            0            0   -10889.893   -10667.238   -10676.869   -11325.572 -8.6783128e-11 1.5836921e-11 5.087011e-11   -17.744359 
     370   -17.744859    2.9520583   0.64794166    5.1131236    1.1222764    4.8209174            0            0            0  0.047566982  0.076024403  0.022341464  0.044335078 -7.2369839e-11 1.5100477e-11 1.4024166e-10   -17.744859 
     380   -17.744859    2.9520584   0.64794164    5.1131236    1.1222764    4.8209174            0            0            0 -6.6988285e-10 -4.0760042e-09 -1.0668326e-09 3.1331883e-09 6.1365767e-11 -4.2650815e-11 -4.1767276e-11   -17.744859 
     381   -17.744859    2.9520584   0.64794164    5.1131236    1.1222764    4.8209174            0            0            0 4.609126e-10 3.6297369e-10 3.7333519e-10 6.4642892e-10 8.5140986e-12 3.6385723e-11 7.7590747e-11   -17.744859 
Loop time of 0.051621 on 1 procs for 381 steps with 4 atoms

10.5% CPU use with 1 MPI tasks x no OpenMP threads

Minimization stats:
  Stopping criterion = energy tolerance
  Energy initial, next-to-last, final = 
        -5.27924226005     -17.7448586763     -17.7448586763
  Force two-norm initial, final = 14.649 6.08446e-14
  Force max component initial, final = 8.45769 3.24046e-14
  Final line search alpha, max atom move = 1 3.24046e-14
  Iterations, force evaluations = 381 402

MPI task timing breakdown:
Section |  min time  |  avg time  |  max time  |%varavg| %total
---------------------------------------------------------------
Pair    | 0.0026655  | 0.0026655  | 0.0026655  |   0.0 |  5.16
Neigh   | 0.00010395 | 0.00010395 | 0.00010395 |   0.0 |  0.20
Comm    | 0.00053835 | 0.00053835 | 0.00053835 |   0.0 |  1.04
Output  | 0.046594   | 0.046594   | 0.046594   |   0.0 | 90.26
Modify  | 0          | 0          | 0          |   0.0 |  0.00
Other   |            | 0.001719   |            |       |  3.33

Nlocal:    4 ave 4 max 4 min
Histogram: 1 0 0 0 0 0 0 0 0 0
Nghost:    284 ave 284 max 284 min
Histogram: 1 0 0 0 0 0 0 0 0 0
Neighs:    136 ave 136 max 136 min
Histogram: 1 0 0 0 0 0 0 0 0 0

Total # of neighbors = 136
Ave neighs/atom = 34
Neighbor list builds = 6
Dangerous builds = 0
pypospack:output_section:begin
tot_energy = -17.744858676306
num_atoms = 4
a11 = 2.30411671660236
a22 = 3.99084721972407
a33 = 3.76303473671187
a12 = 0
a13 = 0
a23 = 0
tot_press = 4.60912600704477e-10
pxx = 3.6297369316007e-10
pyy = 3.73335190486392e-10
pzz = 6.46428918466971e-10
pxy = 8.51409857821805e-12
pxz = 3.63857231691772e-11
pyz = 7.75907474203645e-11
pypospack:output_section:done
pypospack:lammps_sim:done
Total wall time: 0:00:00
