LAMMPS (11 Aug 2017)
Reading data file ...
  triclinic box = (0 0 0) to (3.6 6.2354 5.8788) with tilt (0 0 0)
  1 by 1 by 1 MPI processor grid
  reading atoms ...
  4 atoms
4 atoms in group Ni
Neighbor list info ...
  update every 1 steps, delay 0 steps, check yes
  max neighbors/atom: 2000, page size: 100000
  master list distance cutoff = 5.64464
  ghost atom cutoff = 5.64464
  binsize = 2.82232, bins = 2 3 3
  1 neighbor lists, perpetual/occasional/extra = 1 0 0
  (1) pair eam/alloy, perpetual
      attributes: half, newton on
      pair build: half/bin/newton/tri
      stencil: half/bin/3d/newton/tri
      bin: standard
Setting up cg style minimization ...
  Unit style    : metal
  Current step  : 0
WARNING: Energy due to 3 extra global DOFs will be included in minimizer energies
Per MPI rank memory allocation (min/avg/max) = 4.194 | 4.194 | 4.194 Mbytes
Step PotEng Xhi Xlo Yhi Ylo Zhi Xy Xz Yz Press Pxx Pyy Pzz Pxy Pxz Pyz c_eatoms 
       0   -6.5403452          3.6            0       6.2354            0       5.8788            0            0            0    -111716.6   -111717.39   -111716.11   -111716.31            0 1.347923e-12 1.0783384e-11   -6.5403452 
      10   -6.8181308        3.582        0.018    6.2042234  0.031176648    5.8494063            0            0            0   -115414.37   -115415.15   -115413.88   -115414.08 -6.6148979e-12 -9.9847516e-12 2.7783657e-12   -6.8181308 
      20   -7.0993205        3.564        0.036    6.1730467  0.062353306    5.8200125            0            0            0   -119189.79   -119190.56   -119189.29   -119189.51 1.0685137e-11 1.2777409e-11 1.1457152e-11   -7.0993205 
      30    -7.383779        3.546        0.054      6.14187  0.093529973    5.7906188            0            0            0    -123032.5   -123033.26   -123032.01   -123032.23 4.4076084e-12 -5.5383561e-13 1.181516e-11    -7.383779 
      40   -7.6713394        3.528        0.072    6.1106933   0.12470665    5.7612251            0            0            0   -126929.21   -126929.95   -126928.72   -126928.96 -8.8317133e-12 -1.3330888e-11 -3.0470601e-12   -7.6713394 
      50   -7.9617978         3.51         0.09    6.0795167   0.15588334    5.7318313            0            0            0   -130863.11   -130863.84   -130862.63   -130862.87 1.5426716e-11 1.9602738e-11 1.2577195e-11   -7.9617978 
      60   -8.2549079        3.492        0.108      6.04834   0.18706004    5.7024375            0            0            0   -134813.21   -134813.91   -134812.73   -134812.98 -2.5357184e-12 -5.5278661e-12 -1.6228598e-11   -8.2549079 
      70   -8.5503751        3.474        0.126    6.0171633   0.21823675    5.6730437            0            0            0   -138753.55   -138754.22   -138753.08   -138753.34 -2.0423504e-11 7.7504579e-12            0   -8.5503751 
      80   -8.8478491        3.456        0.144    5.9859865   0.24941347    5.6436499            0            0            0   -142652.26    -142652.9    -142651.8   -142652.07 -3.7325017e-12 -2.7047114e-12            0   -8.8478491 
      90   -9.1469887        3.438        0.162    5.9548098   0.28059024    5.6142561            0            0            0   -146814.02   -146814.31    -146813.9   -146813.87 -5.8063231e-12 1.0997777e-11 -1.4767345e-11   -9.1469887 
     100   -9.4495314         3.42         0.18    5.9236329   0.31176714    5.5848622            0            0            0   -152164.41   -152164.62   -152164.32   -152164.29 1.1845152e-12 -9.3894496e-13 1.9674508e-11   -9.4495314 
     110   -9.7558433        3.402        0.198    5.8924559   0.34294405    5.5554683            0            0            0   -157331.17    -157331.3   -157331.12   -157331.09 5.4970802e-12 3.4655505e-12 -1.9837289e-11   -9.7558433 
     120   -10.065122        3.384        0.216     5.861279     0.374121    5.5260743            0            0            0   -162252.07    -162252.1   -162252.07   -162252.04 -1.0878747e-11 -8.9007932e-12 -9.5189039e-12   -10.065122 
     130    -10.37647        3.366        0.234     5.830102   0.40529797    5.4966804            0            0            0   -166850.85   -166850.77    -166850.9   -166850.87 -2.8145511e-12 -7.6760484e-13 1.1322171e-11    -10.37647 
     140   -10.688879        3.348        0.252     5.798925   0.43647497    5.4672864            0            0            0   -171034.67   -171034.47   -171034.79   -171034.75 -9.5363316e-12 7.5495959e-12 3.9734715e-12   -10.688879 
     150   -11.001207         3.33   0.26999997     5.767748   0.46765197    5.4378924            0            0            0   -174691.09   -174690.75   -174691.27   -174691.24 -4.2525468e-12 2.6201175e-11 -1.3169177e-11   -11.001207 
     160   -11.312163    3.3120001   0.28799993     5.736571   0.49882897    5.4084984            0            0            0   -177684.47   -177683.98   -177684.74    -177684.7 1.3787262e-11 7.3911097e-12 5.5859733e-11   -11.312163 
     170   -11.620276    3.2940001   0.30599986     5.705394   0.53000597    5.3791044            0            0            0   -179851.78   -179851.11   -179852.13   -179852.08 -8.8401799e-12 -1.3996952e-11 1.1786907e-11   -11.620276 
     180   -11.923872    3.2760002   0.32399977     5.674217   0.56118297    5.3497104            0            0            0    -180997.5   -180996.65   -180997.96    -180997.9            0 1.0695487e-11 -2.1849352e-11   -11.923872 
     190   -12.221042    3.2580004   0.34199964      5.64304   0.59235997    5.3203164            0            0            0   -180887.77    -180886.7   -180888.33   -180888.27 -1.9022615e-12 6.974959e-12 1.2681744e-11   -12.221042 
     200   -12.509606    3.2400005   0.35999948     5.611863   0.62353697    5.2909224            0            0            0   -179243.22   -179241.91   -179243.91   -179243.83 1.6783177e-11 9.5433754e-12 2.5010225e-11   -12.509606 
     210   -12.787071    3.2220007   0.37799927     5.580686   0.65471397    5.2615284            0            0            0   -175730.51   -175729.11    -175731.5   -175730.93 6.8347497e-13 5.1260623e-12 -1.0252125e-12   -12.787071 
     220   -13.050226    3.2040901   0.39590993    5.5496633   0.68573667    5.2321344            0            0            0   -170620.21   -169973.53   -169976.33   -171910.78 -1.1360171e-11 2.8400427e-12 1.1360171e-11   -13.050226 
     230   -13.295386    3.1863942   0.41360579    5.5190126   0.71638741    5.2027404            0            0            0   -162896.39   -161589.02   -161592.27   -165507.89 9.5902218e-12 5.901675e-12 4.2787144e-11   -13.295386 
     240   -13.519181    3.1689384    0.4310616    5.4887775   0.74662251    5.1733464            0            0            0   -152094.43    -150136.6    -150140.3   -156006.39 -2.5297765e-11 -1.8398374e-11 1.1882283e-11   -13.519181 
     250   -13.717936    3.1517598   0.44824022    5.4590224   0.77637764    5.1439524            0            0            0   -137708.94   -135137.78   -135141.91   -142847.14 8.7635917e-12 -2.0713944e-11 4.8199754e-11   -13.717936 
     260   -13.888363    3.1348847   0.46511529    5.4297929   0.80560709    5.1145584            0            0            0   -121301.44    -118768.8   -118771.88   -126363.65 1.2549385e-12 2.5486895e-11 1.6149247e-11   -13.888363 
     270   -14.034487    3.1178322   0.48216777    5.4002562   0.83514384    5.0851644            0            0            0   -103683.17   -102381.05   -102384.61   -106283.85 -2.0534377e-11 -3.1218712e-12 -1.0603597e-11   -14.034487 
     280   -14.152831    3.1002819   0.49971812    5.3698567    0.8655433    5.0557704            0            0            0   -79601.428   -79597.601   -79601.555   -79605.129 4.7703736e-11 3.5651676e-11 1.793795e-12   -14.152831 
     290   -14.233968     3.082289   0.51771097    5.3386901   0.89670991    5.0271158            0            0            0   -47854.508   -49051.586    -49055.63   -45456.309 2.1093755e-11 6.544323e-12 -2.3927681e-11   -14.233968 
     300   -14.268497    3.0642914   0.53570858    5.3075131   0.92788691    5.0025295            0            0            0    -9319.954   -10876.056   -10879.025   -6204.7803 -1.3989356e-11 4.3549475e-11 -6.6601501e-12   -14.268497 
     310   -14.269845       3.0589   0.54110001    5.2981753   0.93722474    5.0022065            0            0            0  0.098344673  -0.43876492   0.64620512  0.087593826 6.8717563e-12 5.1538173e-12 -2.6873476e-11   -14.269845 
     320   -14.269845     3.058899   0.54110097    5.2981771   0.93722292    5.0022066            0            0            0 -4.8521549e-09 -3.4189684e-07 2.1311217e-07 1.1422821e-07 -2.4910115e-11 -2.4541985e-11 -1.6504485e-11   -14.269845 
     326   -14.269845     3.058899   0.54110097    5.2981771   0.93722292    5.0022066            0            0            0 7.5217093e-10 7.3135115e-10 1.0708895e-09 4.5427214e-10 -2.6259924e-11 7.5589313e-11 8.2215649e-11   -14.269845 
Loop time of 0.0411601 on 1 procs for 326 steps with 4 atoms

9.8% CPU use with 1 MPI tasks x no OpenMP threads

Minimization stats:
  Stopping criterion = energy tolerance
  Energy initial, next-to-last, final = 
        -6.54034519172     -14.2698454235     -14.2698454235
  Force two-norm initial, final = 15.9376 6.54248e-14
  Force max component initial, final = 9.20165 4.3292e-14
  Final line search alpha, max atom move = 1 4.3292e-14
  Iterations, force evaluations = 326 350

MPI task timing breakdown:
Section |  min time  |  avg time  |  max time  |%varavg| %total
---------------------------------------------------------------
Pair    | 0.0019639  | 0.0019639  | 0.0019639  |   0.0 |  4.77
Neigh   | 7.5579e-05 | 7.5579e-05 | 7.5579e-05 |   0.0 |  0.18
Comm    | 0.00043797 | 0.00043797 | 0.00043797 |   0.0 |  1.06
Output  | 0.03722    | 0.03722    | 0.03722    |   0.0 | 90.43
Modify  | 0          | 0          | 0          |   0.0 |  0.00
Other   |            | 0.001463   |            |       |  3.55

Nlocal:    4 ave 4 max 4 min
Histogram: 1 0 0 0 0 0 0 0 0 0
Nghost:    266 ave 266 max 266 min
Histogram: 1 0 0 0 0 0 0 0 0 0
Neighs:    112 ave 112 max 112 min
Histogram: 1 0 0 0 0 0 0 0 0 0

Total # of neighbors = 112
Ave neighs/atom = 28
Neighbor list builds = 5
Dangerous builds = 0
pypospack:output_section:begin
tot_energy = -14.2698454234978
num_atoms = 4
a11 = 2.5177980610594
a22 = 4.36095416495328
a33 = 4.12561317272091
a12 = 0
a13 = 0
a23 = 0
tot_press = 7.52170930508169e-10
pxx = 7.31351146744579e-10
pyy = 1.07088950631543e-09
pzz = 4.54272138464502e-10
pxy = -2.62599237253926e-11
pxz = 7.55893131534666e-11
pyz = 8.22156490467899e-11
pypospack:output_section:done
pypospack:lammps_sim:done
Total wall time: 0:00:00
