    2    2    1    2
  0.1090254E+02  0.2793739E-09  0.2793739E-09  0.2793739E-09  0.5000000E-15
  1.000000000000000E-004
  CAR 
 automatically generated by pyflamestk   
     20      4     16
 
  0.1250000E+00  0.1250000E+00  0.1250000E+00  0.1250000E+00
    1        1.297504      1.277604   1.000000   1.000000
    2        5.382817      5.686127   1.000000   1.000000
    3        5.382817      5.686127   1.000000   1.000000
    4        6.770970      7.343252   1.000000   1.000000
    5        6.770970      7.343252   1.000000   1.000000
    6        7.426199      8.028547   1.000000   1.000000
    7        7.904319      8.497906   1.000000   1.000003
    8        8.271288      8.730636   1.000000   1.001761
    9        8.271288      8.730636   1.000000   1.001761
   10        8.750549      9.396537   1.002655  -0.015614
   11        8.750549      9.396537   1.002655  -0.015614
   12       17.520602     17.610286   0.000000   0.000000
   13       17.520602     17.610286   0.000000   0.000000
   14       18.521100     18.620683   0.000000   0.000000
   15       27.846620     27.884173   0.000000   0.000000
   16       27.846620     27.884173   0.000000   0.000000
 
  0.3750000E+00  0.1250000E+00  0.1250000E+00  0.3750000E+00
    1        3.473896      3.490135   1.000000   1.000000
    2        5.517185      5.740420   1.000000   1.000000
    3        6.049929      6.403367   1.000000   1.000000
    4        6.604623      7.097222   1.000000   1.000000
    5        6.676504      7.224233   1.000000   1.000000
    6        7.027847      7.567175   1.000000   1.000000
    7        7.796575      8.282886   1.000000   1.000000
    8        7.867566      8.444715   1.000000   1.000000
    9        8.187767      8.796021   1.000000   1.006189
   10        8.645205      9.158587   1.000233   0.714984
   11        8.696965      9.271757   1.000834   0.256967
   12       11.481112     11.734096  -0.000000  -0.000000
   13       20.646423     20.768695   0.000000   0.000000
   14       21.151830     21.266641   0.000000   0.000000
   15       25.297395     25.369316   0.000000   0.000000
   16       26.063405     26.151737   0.000000   0.000000
 
  0.3750000E+00  0.3750000E+00  0.1250000E+00  0.3750000E+00
    1        4.566768      4.767497   1.000000   1.000000
    2        5.154148      5.493680   1.000000   1.000000
    3        6.102845      6.638109   1.000000   1.000000
    4        6.255727      6.780475   1.000000   1.000000
    5        7.045775      7.347717   1.000000   1.000000
    6        7.155979      7.477346   1.000000   1.000000
    7        8.089193      8.606474   1.000000   1.000081
    8        8.236767      8.743966   1.000000   1.002324
    9        8.459767      8.929929   1.000001   1.031504
   10        8.829998      9.426887   1.010674  -0.031416
   11        9.500465     10.039613  -0.030001  -0.000000
   12       12.075548     12.271063  -0.000000  -0.000000
   13       15.924492     16.186312   0.000000   0.000000
   14       19.174137     19.339978   0.000000   0.000000
   15       23.108133     23.191686   0.000000   0.000000
   16       26.924290     26.930891   0.000000   0.000000
 
  0.3750000E+00  0.3750000E+00  0.3750000E+00  0.1250000E+00
    1        5.667887      6.140414   1.000000   1.000000
    2        5.921965      6.186193   1.000000   1.000000
    3        5.988164      6.464453   1.000000   1.000000
    4        5.988164      6.464453   1.000000   1.000000
    5        6.311517      6.704503   1.000000   1.000000
    6        6.311517      6.704503   1.000000   1.000000
    7        8.450553      8.936402   1.000001   1.032650
    8        8.450553      8.936402   1.000001   1.032650
    9        8.456570      8.954852   1.000001   1.034981
   10        8.456570      8.954852   1.000001   1.034981
   11       11.992064     12.370509  -0.000000  -0.000000
   12       15.700791     15.893637   0.000000   0.000000
   13       15.700791     15.893637   0.000000   0.000000
   14       17.954238     18.128352   0.000000   0.000000
   15       20.772597     20.890210   0.000000   0.000000
   16       20.772597     20.890210   0.000000   0.000000
