LAMMPS (10 Feb 2015)
Reading data file ...
  triclinic box = (0 0 0) to (2.489 4.3111 32.5164) with tilt (0 0 0)
  1 by 1 by 1 MPI processor grid
  reading atoms ...
  32 atoms
32 atoms in group Ni
Neighbor list info ...
  1 neighbor list requests
  update every 1 steps, delay 0 steps, check yes
  master list distance cutoff = 7.28721
Setting up minimization ...
Memory usage per processor = 3.4099 Mbytes
Step PotEng Lx Ly Lz Xy Xz Yz Press Pxx Pyy Pzz Pxy Pxz Pyz eatoms 
       0   -142.30813        2.489       4.3111      32.5164            0            0            0    456.30224   -667.70689   -678.71524    2715.3288 -5.4166912e-12 3.4730549e-12     1.718615   -142.30813 
     100   -142.30929    2.4881113    4.3095347    32.551764            0            0            0  0.068549313 -0.070166567  0.099491199   0.17632331 1.9174427e-11 1.3313805e-11 -0.024901256   -142.30929 
     142   -142.30929    2.4881111    4.3095349    32.551765            0            0            0 2.5291578e-08 -4.2952508e-06 -1.4973991e-05 1.9345116e-05 -2.4525429e-11 -3.3125255e-12 9.0579977e-06   -142.30929 
Loop time of 0.084964 on 1 procs for 142 steps with 32 atoms

Minimization stats:
  Stopping criterion = energy tolerance
  Energy initial, next-to-last, final = 
        -142.308130532     -142.309291561     -142.309291561
  Force two-norm initial, final = 0.630838 1.90176e-08
  Force max component initial, final = 0.591327 5.86709e-09
  Final line search alpha, max atom move = 1 5.86709e-09
  Iterations, force evaluations = 142 283

Pair  time (%) = 0.0641451 (75.4968)
Neigh time (%) = 0 (0)
Comm  time (%) = 0.00369263 (4.34611)
Outpt time (%) = 2.59876e-05 (0.0305866)
Other time (%) = 0.0171003 (20.1266)

Nlocal:    32 ave 32 max 32 min
Histogram: 1 0 0 0 0 0 0 0 0 0
Nghost:    1311 ave 1311 max 1311 min
Histogram: 1 0 0 0 0 0 0 0 0 0
Neighs:    2272 ave 2272 max 2272 min
Histogram: 1 0 0 0 0 0 0 0 0 0

Total # of neighbors = 2272
Ave neighs/atom = 71
Neighbor list builds = 0
Dangerous builds = 0
Setting up minimization ...
Memory usage per processor = 3.5349 Mbytes
Step PotEng Lx Ly Lz Xy Xz Yz Press Pxx Pyy Pzz Pxy Pxz Pyz eatoms 
     142   -142.30929    2.4881111    4.3095349    32.551765            0            0            0 2.5121086e-08 -4.2955146e-06 -1.4974029e-05 1.9344907e-05 -9.0059287e-12 -1.7406684e-11 9.0580063e-06   -142.30929 
     161   -142.30929    2.4881111    4.3095349    32.551765            0            0            0 -2.0691409e-05 -1.4990218e-05 -2.5668834e-05 -2.1415176e-05 1.3616391e-12 -5.860622e-12 9.0580547e-06   -142.30929 
Loop time of 0.00718784 on 1 procs for 19 steps with 32 atoms

Minimization stats:
  Stopping criterion = energy tolerance
  Energy initial, next-to-last, final = 
        -142.309291561     -142.309291561     -142.309291561
  Force two-norm initial, final = 1.56341e-08 8.67215e-14
  Force max component initial, final = 5.86709e-09 4.52693e-14
  Final line search alpha, max atom move = 1 4.52693e-14
  Iterations, force evaluations = 19 38

Pair  time (%) = 0.00657511 (91.4754)
Neigh time (%) = 0 (0)
Comm  time (%) = 0.000412226 (5.73504)
Outpt time (%) = 0 (0)
Other time (%) = 0.00020051 (2.78957)

Nlocal:    32 ave 32 max 32 min
Histogram: 1 0 0 0 0 0 0 0 0 0
Nghost:    1311 ave 1311 max 1311 min
Histogram: 1 0 0 0 0 0 0 0 0 0
Neighs:    2272 ave 2272 max 2272 min
Histogram: 1 0 0 0 0 0 0 0 0 0

Total # of neighbors = 2272
Ave neighs/atom = 71
Neighbor list builds = 0
Dangerous builds = 0
pypospack:output_section:begin
tot_energy = -142.309291560922
num_atoms = 32
a11 = 2.48811112740201
a22 = 4.30953488805079
a33 = 32.5517648321215
a12 = 0
a13 = 0
a23 = 0
tot_press = -2.06914092316564e-05
pxx = -1.49902180821359e-05
pyy = -2.56688340803305e-05
pzz = -2.14151755325028e-05
pxy = 1.36163908755204e-12
pxz = -5.86062203765088e-12
pyz = 9.05805473054489e-06
pypospack:output_section:done
pypospack:lammps_sim:done
