# ['Ni']

10 atoms
1 atom types

    0.0000     3.4962 xlo xhi
    0.0000     2.5028 ylo yhi
    0.0000    25.0275 zlo zhi

    0.0000     0.0000     0.0000 xy xz yz

Atoms

1 1     0.0000     0.0000     0.0000
2 1     1.7481     1.2514     1.2514
3 1     0.0000     0.0000     2.5028
4 1     1.7481     1.2514     3.7541
5 1     0.0000     0.0000     5.0055
6 1     1.7481     1.2514     6.2569
7 1     0.0000     0.0000     7.5083
8 1     1.7481     1.2514     8.7596
9 1     0.0000     0.0000    10.0110
10 1     1.7481     1.2514    11.2624
