# ['Ni']

18 atoms
1 atom types

    0.0000     2.4407 xlo xhi
    0.0000     4.2274 ylo yhi
    0.0000    35.8647 zlo zhi

    0.0000     0.0000    -0.0004 xy xz yz

Atoms

1 1     0.0000     0.0000     0.0000
2 1     1.2203     0.7046     1.9925
3 1     0.0000     1.4091     3.9850
4 1     1.2203     2.1137     0.0000
5 1     0.0000     2.8183     1.9925
6 1     1.2203     3.5228     3.9850
7 1     0.0000     0.0000     5.9775
8 1     1.2203     0.7046     7.9699
9 1     0.0000     1.4091     9.9624
10 1     1.2203     2.1137     5.9775
11 1     0.0000     2.8183     7.9699
12 1     1.2203     3.5228     9.9624
13 1     0.0000     0.0000    11.9549
14 1     1.2203     0.7046    13.9474
15 1     0.0000     1.4091    15.9399
16 1     1.2203     2.1137    11.9549
17 1     0.0000     2.8183    13.9474
18 1     1.2203     3.5228    15.9399
