LAMMPS (11 Aug 2017)
Reading data file ...
  triclinic box = (0 0 0) to (3.5167 3.5167 3.5167) with tilt (0 -0 0)
  1 by 1 by 1 MPI processor grid
  reading atoms ...
  4 atoms
4 atoms in group Ni
Neighbor list info ...
  update every 1 steps, delay 0 steps, check yes
  max neighbors/atom: 2000, page size: 100000
  master list distance cutoff = 5.64464
  ghost atom cutoff = 5.64464
  binsize = 2.82232, bins = 2 2 2
  1 neighbor lists, perpetual/occasional/extra = 1 0 0
  (1) pair eam/alloy, perpetual
      attributes: half, newton on
      pair build: half/bin/newton/tri
      stencil: half/bin/3d/newton/tri
      bin: standard
Setting up cg style minimization ...
  Unit style    : metal
  Current step  : 0
WARNING: Energy due to 3 extra global DOFs will be included in minimizer energies
Per MPI rank memory allocation (min/avg/max) = 4.086 | 4.086 | 4.086 Mbytes
Step Temp PotEng Press Pxx Pyy Pzz Pxy Pxz Pyz Lx Ly Lz Volume 
       0            0   -22.644995   -395969.05   -395969.05   -395969.05   -395969.05 6.6461171e-12 -3.9365463e-11 4.1410422e-11       3.5167       3.5167       3.5167    43.491658 
       1            0   -22.648219   -395870.09   -395870.09   -395870.09   -395870.09 2.3012693e-11 3.0683591e-12 -1.6364582e-11    3.5163483    3.5163483    3.5163483    43.478612 
       2            0   -22.651442   -395770.68   -395770.68   -395770.68   -395770.68 -7.6731996e-12 5.1666211e-11 3.3250532e-11    3.5159967    3.5159967    3.5159967    43.465568 
       3            0   -22.654663   -395670.83   -395670.83   -395670.83   -395670.83 9.7223032e-12 8.1872027e-12 1.6886106e-11     3.515645     3.515645     3.515645    43.452527 
       4            0   -22.657882   -395570.53   -395570.53   -395570.53   -395570.53 3.0199372e-11 -2.5080834e-11 1.6891174e-11    3.5152933    3.5152933    3.5152933    43.439489 
       5            0     -22.6611   -395469.79   -395469.79   -395469.79   -395469.79 -1.177617e-11 1.9968289e-11 3.0208437e-11    3.5149417    3.5149417    3.5149417    43.426453 
       6            0   -22.664317   -395368.59   -395368.59   -395368.59   -395368.59 6.1459334e-12 -3.8924245e-11 -1.9462122e-11      3.51459      3.51459      3.51459     43.41342 
       7            0   -22.667532   -395266.94   -395266.94   -395266.94   -395266.94 4.6620654e-11 -5.1231488e-12 -2.0492595e-11    3.5142383    3.5142383    3.5142383    43.400389 
       8            0   -22.670746   -395164.85   -395164.85   -395164.85   -395164.85 2.0498749e-12 -4.0997497e-11 -5.4321684e-11    3.5138866    3.5138866    3.5138866    43.387362 
       9            0   -22.673958    -395062.3    -395062.3    -395062.3    -395062.3 -3.332047e-11 -1.8454414e-11 -4.6136035e-12     3.513535     3.513535     3.513535    43.374336 
      10            0   -22.677168    -394959.3    -394959.3    -394959.3    -394959.3 1.1793861e-11 3.2304924e-11 2.9228264e-11    3.5131833    3.5131833    3.5131833    43.361313 
      11            0   -22.680378   -394855.85   -394855.85   -394855.85   -394855.85 -1.5387918e-12 -1.9491362e-11 -2.9749974e-11    3.5128316    3.5128316    3.5128316    43.348293 
      12            0   -22.683585   -394751.95   -394751.95   -394751.95   -394751.95 -4.617762e-11 4.617762e-12 -2.1549556e-11      3.51248      3.51248      3.51248    43.335276 
      13            0   -22.686792   -394647.59   -394647.59   -394647.59   -394647.59 -8.7250597e-12 1.9503075e-11 -5.1323881e-12    3.5121283    3.5121283    3.5121283    43.322261 
      14            0   -22.689996   -394542.78   -394542.78   -394542.78   -394542.78 -5.6473231e-12 -3.4397332e-11 -5.7500017e-11    3.5117766    3.5117766    3.5117766    43.309249 
      15            0     -22.6932   -394437.51   -394437.51   -394437.51   -394437.51 1.2838682e-11 8.7303037e-12 1.694706e-11     3.511425     3.511425     3.511425    43.296239 
      16            0   -22.696401   -394331.79   -394331.79   -394331.79   -394331.79 -4.9315354e-11 1.592475e-11 7.705524e-12    3.5110733    3.5110733    3.5110733    43.283232 
      17            0   -22.699602   -394225.61   -394225.61   -394225.61   -394225.61 -5.1385599e-12 -5.2413311e-11 -5.1385599e-12    3.5107216    3.5107216    3.5107216    43.270227 
      18            0     -22.7028   -394118.97   -394118.97   -394118.97   -394118.97 5.1401044e-13 -1.2336251e-11 -1.0794219e-11    3.5103699    3.5103699    3.5103699    43.257226 
      19            0   -22.705998   -394011.87   -394011.87   -394011.87   -394011.87 3.1364062e-11 3.2392392e-11 1.1825794e-11    3.5100183    3.5100183    3.5100183    43.244226 
      20            0   -22.709193   -393904.32   -393904.32   -393904.32   -393904.32 -1.1829349e-11 4.2688521e-11 4.1659882e-11    3.5096666    3.5096666    3.5096666     43.23123 
      21            0   -22.712388    -393796.3    -393796.3    -393796.3    -393796.3 -4.6302675e-12 -3.1897398e-11 -1.0803957e-11    3.5093149    3.5093149    3.5093149    43.218236 
      22            0    -22.71558   -393687.83   -393687.83   -393687.83   -393687.83 -2.727533e-11 -8.2340618e-12 8.2340618e-12    3.5089633    3.5089633    3.5089633    43.205244 
      23            0   -22.718772   -393578.89   -393578.89   -393578.89   -393578.89 -1.286959e-11 3.0887017e-12 2.6768748e-11    3.5086116    3.5086116    3.5086116    43.192255 
      24            0   -22.721961   -393469.49   -393469.49   -393469.49   -393469.49 1.0298769e-11 -4.0680137e-11 -1.9052722e-11    3.5082599    3.5082599    3.5082599    43.179269 
      25            0   -22.725149   -393359.63   -393359.63   -393359.63   -393359.63            0 -1.0301867e-11 -3.6571626e-11    3.5079083    3.5079083    3.5079083    43.166285 
      26            0   -22.728336    -393249.3    -393249.3    -393249.3    -393249.3 -3.0914896e-12 -7.2134758e-12 -9.7897172e-12    3.5075566    3.5075566    3.5075566    43.153304 
      27            0   -22.731521   -393138.51   -393138.51   -393138.51   -393138.51 2.0616131e-11 -2.6285567e-11 2.7831777e-11    3.5072049    3.5072049    3.5072049    43.140326 
      28            0   -22.734705   -393027.26   -393027.26   -393027.26   -393027.26            0 5.1555835e-12 -1.9591217e-11    3.5068532    3.5068532    3.5068532     43.12735 
      29            0   -22.737887   -392915.54   -392915.54   -392915.54   -392915.54 -2.5785674e-12 3.3521376e-11 6.5495613e-11    3.5065016    3.5065016    3.5065016    43.114377 
      30            0   -22.741067   -392803.35   -392803.35   -392803.35   -392803.35 -5.1586868e-12 -2.5793434e-11 -3.1983858e-11    3.5061499    3.5061499    3.5061499    43.101406 
      31            0   -22.744246    -392690.7    -392690.7    -392690.7    -392690.7 -1.2384574e-11 -2.0124934e-11 -6.1922872e-12    3.5057982    3.5057982    3.5057982    43.088438 
      32            0   -22.747423   -392577.57   -392577.57   -392577.57   -392577.57 -1.8582453e-11 7.2265096e-12 -1.5485378e-12    3.5054466    3.5054466    3.5054466    43.075473 
      33            0   -22.750599   -392463.98   -392463.98   -392463.98   -392463.98 1.0326693e-12 -2.3751393e-11 5.1633464e-12    3.5050949    3.5050949    3.5050949     43.06251 
      34            0   -22.753773   -392349.92   -392349.92   -392349.92   -392349.92 -2.0143113e-11 -2.2209074e-11 -2.5308014e-11    3.5047432    3.5047432    3.5047432     43.04955 
      35            0   -22.756946   -392235.39   -392235.39   -392235.39   -392235.39 -6.3547408e-11 -9.5579434e-11 -9.5579434e-11    3.5043916    3.5043916    3.5043916    43.036592 
      36            0   -22.760117   -392120.39   -392120.39   -392120.39   -392120.39 6.2016139e-12 -1.9121643e-11 7.7520174e-12    3.5040399    3.5040399    3.5040399    43.023637 
      37            0   -22.763287   -392004.91   -392004.91   -392004.91   -392004.91 3.5153062e-11 -2.584784e-12 2.4296969e-11    3.5036882    3.5036882    3.5036882    43.010685 
      38            0   -22.766455   -391888.97   -391888.97   -391888.97   -391888.97 -2.5855624e-11 5.1711249e-13 6.2053498e-12    3.5033365    3.5033365    3.5033365    42.997735 
      39            0   -22.769621   -391772.55   -391772.55   -391772.55   -391772.55 -1.758712e-11 2.3794339e-11 2.2759803e-11    3.5029849    3.5029849    3.5029849    42.984788 
      40            0   -22.772786   -391655.65   -391655.65   -391655.65   -391655.65 -2.5871203e-11 -1.8627266e-11 -8.278785e-12    3.5026332    3.5026332    3.5026332    42.971843 
      41            0   -22.775949   -391538.28   -391538.28   -391538.28   -391538.28 -2.7431737e-11 -2.0703198e-12 6.2109593e-12    3.5022815    3.5022815    3.5022815    42.958901 
      42            0   -22.779111   -391420.44   -391420.44   -391420.44   -391420.44 1.0354718e-11 3.3652833e-11 4.0901135e-11    3.5019299    3.5019299    3.5019299    42.945961 
      43            0   -22.782271   -391302.12   -391302.12   -391302.12   -391302.12 2.3305135e-11 -2.5894595e-12 -4.6610271e-12    3.5015782    3.5015782    3.5015782    42.933025 
      44            0   -22.785429   -391183.32   -391183.32   -391183.32   -391183.32 -2.5902398e-12 -2.1239967e-11 -2.9528734e-11    3.5012265    3.5012265    3.5012265     42.92009 
      45            0   -22.788586   -391064.04   -391064.04   -391064.04   -391064.04 5.2856818e-11 2.9537634e-11 2.4355593e-11    3.5008749    3.5008749    3.5008749    42.907159 
      46            0   -22.791741   -390944.29   -390944.29   -390944.29   -390944.29 -3.1101618e-12 2.8509816e-11 6.2203235e-12    3.5005232    3.5005232    3.5005232     42.89423 
      47            0   -22.794895   -390824.05   -390824.05   -390824.05   -390824.05 -7.7777483e-12 -1.7629563e-11 -2.0740662e-11    3.5001715    3.5001715    3.5001715    42.881303 
      48            0   -22.798047   -390703.34   -390703.34   -390703.34   -390703.34 2.7489662e-11 -1.5560186e-12 1.5560186e-12    3.4998198    3.4998198    3.4998198    42.868379 
      49            0   -22.801198   -390582.14   -390582.14   -390582.14   -390582.14 -1.7640195e-11 6.7447803e-11 4.4619316e-11    3.4994682    3.4994682    3.4994682    42.855458 
      50            0   -22.804346   -390460.46   -390460.46   -390460.46   -390460.46 -2.4392328e-11 -1.08987e-11 -1.7126528e-11    3.4991165    3.4991165    3.4991165     42.84254 
      51            0   -22.807494    -390338.3    -390338.3    -390338.3    -390338.3 1.5574266e-11 -6.7488488e-12 6.7488488e-12    3.4987648    3.4987648    3.4987648    42.829624 
      52            0   -22.810639   -390215.66   -390215.66   -390215.66   -390215.66 -4.1024604e-11 -5.5045671e-11 -5.2968476e-11    3.4984132    3.4984132    3.4984132     42.81671 
      53            0   -22.813783   -390092.53   -390092.53   -390092.53   -390092.53 -2.493386e-11 -1.5583663e-12 -2.5453316e-11    3.4980615    3.4980615    3.4980615    42.803799 
      54            0   -22.816926   -389968.92   -389968.92   -389968.92   -389968.92 8.833406e-12 -4.9882763e-11 -3.3774788e-11    3.4977098    3.4977098    3.4977098    42.790891 
      55            0   -22.820066   -389844.82   -389844.82   -389844.82   -389844.82 -1.2994222e-11 3.5864053e-11 2.1830293e-11    3.4973582    3.4973582    3.4973582    42.777985 
      56            0   -22.823205   -389720.23   -389720.23   -389720.23   -389720.23 5.199257e-12 -1.7677474e-11 -7.2789599e-12    3.4970065    3.4970065    3.4970065    42.765082 
      57            0   -22.826343   -389595.16   -389595.16   -389595.16   -389595.16 -3.6405781e-12 2.2883634e-11 2.4963964e-11    3.4966548    3.4966548    3.4966548    42.752182 
      58            0   -22.829479    -389469.6    -389469.6    -389469.6    -389469.6 2.0289342e-11 5.7746589e-11 7.2833536e-11    3.4963031    3.4963031    3.4963031    42.739284 
      59            0   -22.832613   -389343.55   -389343.55   -389343.55   -389343.55 4.7876483e-11 -1.1969121e-11 -5.2039656e-13    3.4959515    3.4959515    3.4959515    42.726389 
      60            0   -22.835745   -389217.01   -389217.01   -389217.01   -389217.01 2.1342699e-11 -6.7671972e-12 3.1753772e-11    3.4955998    3.4955998    3.4955998    42.713496 
      61            0   -22.838876   -389089.98   -389089.98   -389089.98   -389089.98 -2.0828431e-12 -1.8224877e-11 -4.5822548e-11    3.4952481    3.4952481    3.4952481    42.700606 
      62            0   -22.842006   -388962.45   -388962.45   -388962.45   -388962.45 -5.0003326e-11 -5.8337214e-11 -4.6878118e-11    3.4948965    3.4948965    3.4948965    42.687718 
      63            0   -22.845133   -388834.44   -388834.44   -388834.44   -388834.44 -4.6892272e-12 -2.5530237e-11 -3.178254e-11    3.4945448    3.4945448    3.4945448    42.674833 
      64            0   -22.848259   -388705.93   -388705.93   -388705.93   -388705.93 2.032612e-11 7.2444378e-11 7.4007926e-11    3.4941931    3.4941931    3.4941931    42.661951 
      65            0   -22.851383   -388576.93   -388576.93   -388576.93   -388576.93 1.6682879e-11 -1.5118859e-11 4.6920597e-12    3.4938415    3.4938415    3.4938415    42.649071 
      66            0   -22.854506   -388447.44   -388447.44   -388447.44   -388447.44 -4.1719794e-12 2.1381394e-11 2.2945887e-11    3.4934898    3.4934898    3.4934898    42.636194 
      67            0   -22.857627   -388317.45   -388317.45   -388317.45   -388317.45 3.1820952e-11 1.8779578e-11 1.5649648e-11    3.4931381    3.4931381    3.4931381     42.62332 
      68            0   -22.860746   -388186.96   -388186.96   -388186.96   -388186.96 5.7399378e-12 1.0436251e-11 9.9144381e-12    3.4927864    3.4927864    3.4927864    42.610448 
      69            0   -22.863864   -388055.98   -388055.98   -388055.98   -388055.98 -1.4615165e-11 -4.0713674e-11 -3.4450032e-11    3.4924348    3.4924348    3.4924348    42.597578 
      70            0   -22.866979    -387924.5    -387924.5    -387924.5    -387924.5 -3.5504696e-11 2.715065e-11 2.6106394e-11    3.4920831    3.4920831    3.4920831    42.584712 
      71            0   -22.870094   -387792.52   -387792.52   -387792.52   -387792.52 5.2228566e-13 -1.7757713e-11 -3.6559996e-12    3.4917314    3.4917314    3.4917314    42.571847 
      72            0   -22.873206   -387660.04   -387660.04   -387660.04   -387660.04 -6.269322e-12 4.9109689e-11 1.1493757e-11    3.4913798    3.4913798    3.4913798    42.558986 
      73            0   -22.876317   -387527.06   -387527.06   -387527.06   -387527.06 -1.7245846e-11 -4.7034126e-12 -2.613007e-12    3.4910281    3.4910281    3.4910281    42.546127 
      74            0   -22.879426   -387393.58   -387393.58   -387393.58   -387393.58 -2.4046931e-11 4.7048343e-12 3.7115915e-11    3.4906764    3.4906764    3.4906764     42.53327 
      75            0   -22.882533    -387259.6    -387259.6    -387259.6    -387259.6 5.4383409e-11            0            0    3.4903248    3.4903248    3.4903248    42.520417 
      76            0   -22.885639   -387125.12   -387125.12   -387125.12   -387125.12 -2.5107623e-11 -1.3076887e-11 -4.7076794e-12    3.4899731    3.4899731    3.4899731    42.507565 
      77            0   -22.888743   -386990.13   -386990.13   -386990.13   -386990.13 -7.325271e-12 -7.325271e-12 2.6161682e-12    3.4896214    3.4896214    3.4896214    42.494717 
      78            0   -22.891845   -386854.64   -386854.64   -386854.64   -386854.64 1.0467837e-11 2.7739769e-11 4.6581876e-11    3.4892697    3.4892697    3.4892697    42.481871 
      79            0   -22.894946   -386718.64   -386718.64   -386718.64   -386718.64 1.3612304e-11 3.1413009e-12 -8.9003525e-12    3.4889181    3.4889181    3.4889181    42.469027 
      80            0   -22.898045   -386582.14   -386582.14   -386582.14   -386582.14 -1.9377214e-11 -1.6234963e-11 -7.8556274e-12    3.4885664    3.4885664    3.4885664    42.456186 
      81            0   -22.901142   -386445.14   -386445.14   -386445.14   -386445.14 1.4144407e-11 7.3341367e-12 -1.4668273e-11    3.4882147    3.4882147    3.4882147    42.443348 
      82            0   -22.904237   -386307.62   -386307.62   -386307.62   -386307.62  6.81233e-12 1.6768812e-11 1.4672711e-11    3.4878631    3.4878631    3.4878631    42.430512 
      83            0   -22.907331    -386169.6    -386169.6    -386169.6    -386169.6 -1.5725518e-11 -2.93543e-11 -4.1934714e-11    3.4875114    3.4875114    3.4875114    42.417679 
      84            0   -22.910423   -386031.06   -386031.06   -386031.06   -386031.06 -1.5730276e-11 2.3071071e-11 2.5168441e-11    3.4871597    3.4871597    3.4871597    42.404849 
      85            0   -22.913513   -385892.02   -385892.02   -385892.02   -385892.02 1.6784038e-11 5.0876616e-11 5.5072625e-11    3.4868081    3.4868081    3.4868081    42.392021 
      86            0   -22.916602   -385752.47   -385752.47   -385752.47   -385752.47 3.5152215e-11 2.7806976e-11 -2.0986397e-11    3.4864564    3.4864564    3.4864564    42.379195 
      87            0   -22.919689    -385612.4    -385612.4    -385612.4    -385612.4 1.4694924e-11 2.6765755e-11 1.2070831e-11    3.4861047    3.4861047    3.4861047    42.366373 
      88            0   -22.922774   -385471.83   -385471.83   -385471.83   -385471.83 -2.0999103e-12 -1.8899193e-11 -3.254861e-11     3.485753     3.485753     3.485753    42.353553 
      89            0   -22.925857   -385330.74   -385330.74   -385330.74   -385330.74 -1.3128413e-11 -7.8770475e-12 9.9775936e-12    3.4854014    3.4854014    3.4854014    42.340735 
      90            0   -22.928938   -385189.13   -385189.13   -385189.13   -385189.13 1.3132387e-11 3.8346571e-11 4.6751299e-11    3.4850497    3.4850497    3.4850497     42.32792 
      91            0   -22.932018   -385047.01   -385047.01   -385047.01   -385047.01 2.2069091e-11 -3.5730909e-11 -1.0509091e-12     3.484698     3.484698     3.484698    42.315108 
      92            0   -22.935096   -384904.38   -384904.38   -384904.38   -384904.38 -1.576841e-11 1.7345251e-11 4.4677161e-11    3.4843464    3.4843464    3.4843464    42.302298 
      93            0   -22.938172   -384761.23   -384761.23   -384761.23   -384761.23 3.6804099e-12 1.7350504e-11 3.3123689e-11    3.4839947    3.4839947    3.4839947    42.289491 
      94            0   -22.941247   -384617.56   -384617.56   -384617.56   -384617.56 2.6296604e-12 -9.9927096e-12 2.6296604e-12     3.483643     3.483643     3.483643    42.276686 
      95            0   -22.944319   -384473.38   -384473.38   -384473.38   -384473.38 -1.893929e-11 8.9435537e-12 3.7352489e-11    3.4832914    3.4832914    3.4832914    42.263884 
      96            0    -22.94739   -384328.67   -384328.67   -384328.67   -384328.67 -1.1577517e-11 -2.8943792e-11 -2.6838789e-11    3.4829397    3.4829397    3.4829397    42.251084 
      97            0   -22.950459   -384183.45   -384183.45   -384183.45   -384183.45 -3.5269484e-11 -1.1054614e-11 1.8950767e-11     3.482588     3.482588     3.482588    42.238287 
      98            0   -22.953527    -384037.7    -384037.7    -384037.7    -384037.7 3.633331e-11 -5.5289819e-11 -4.4758425e-11    3.4822363    3.4822363    3.4822363    42.225493 
      99            0   -22.956592   -383891.44   -383891.44   -383891.44   -383891.44 3.1077027e-11 3.1603756e-12 5.7413491e-11    3.4818847    3.4818847    3.4818847    42.212701 
     100            0   -22.959656   -383744.65   -383744.65   -383744.65   -383744.65 4.0043557e-11 -3.1613334e-12 -2.423689e-11     3.481533     3.481533     3.481533    42.199912 
Loop time of 0.038336 on 1 procs for 100 steps with 4 atoms

7.7% CPU use with 1 MPI tasks x no OpenMP threads

Minimization stats:
  Stopping criterion = max iterations
  Energy initial, next-to-last, final = 
        -22.6449952806     -22.9565923485     -22.9596561213
  Force two-norm initial, final = 18.6173 17.6835
  Force max component initial, final = 10.7487 10.2096
  Final line search alpha, max atom move = 9.78899e-06 9.99416e-05
  Iterations, force evaluations = 100 100

MPI task timing breakdown:
Section |  min time  |  avg time  |  max time  |%varavg| %total
---------------------------------------------------------------
Pair    | 0.00098085 | 0.00098085 | 0.00098085 |   0.0 |  2.56
Neigh   | 0          | 0          | 0          |   0.0 |  0.00
Comm    | 0.00019789 | 0.00019789 | 0.00019789 |   0.0 |  0.52
Output  | 0.036499   | 0.036499   | 0.036499   |   0.0 | 95.21
Modify  | 0          | 0          | 0          |   0.0 |  0.00
Other   |            | 0.000658   |            |       |  1.72

Nlocal:    4 ave 4 max 4 min
Histogram: 1 0 0 0 0 0 0 0 0 0
Nghost:    360 ave 360 max 360 min
Histogram: 1 0 0 0 0 0 0 0 0 0
Neighs:    156 ave 156 max 156 min
Histogram: 1 0 0 0 0 0 0 0 0 0

Total # of neighbors = 156
Ave neighs/atom = 39
Neighbor list builds = 0
Dangerous builds = 0
System init for write_restart ...
Reading restart file ...
  restart file = 11 Aug 2017, LAMMPS = 11 Aug 2017
  triclinic box = (0.0175835 0.0175835 0.0175835) to (3.49912 3.49912 3.49912) with tilt (0 -0 0)
  1 by 1 by 1 MPI processor grid
  4 atoms
4 atoms in group Ni
Changing box ...
  triclinic box = (0.0175835 0.0175835 0.0175835) to (3.49911 3.49912 3.49912) with tilt (0 -0 0)
Neighbor list info ...
  update every 1 steps, delay 0 steps, check yes
  max neighbors/atom: 2000, page size: 100000
  master list distance cutoff = 5.64464
  ghost atom cutoff = 5.64464
  binsize = 2.82232, bins = 2 2 2
  1 neighbor lists, perpetual/occasional/extra = 1 0 0
  (1) pair eam/alloy, perpetual
      attributes: half, newton on
      pair build: half/bin/newton/tri
      stencil: half/bin/3d/newton/tri
      bin: standard
Setting up cg style minimization ...
  Unit style    : metal
  Current step  : 100
Per MPI rank memory allocation (min/avg/max) = 4.086 | 4.086 | 4.086 Mbytes
Step Temp PotEng Press Pxx Pyy Pzz Pxy Pxz Pyz Lx Ly Lz Volume 
     100            0   -22.959666   -383744.16   -383743.92   -383744.28   -383744.28 -4.2151154e-12 5.2688943e-13 -5.3215832e-11    3.4815295     3.481533     3.481533     42.19987 
     101            0   -22.959666   -383744.17   -383743.93   -383744.29   -383744.29 1.3699125e-11 -2.6344472e-12 -3.4774702e-11    3.4815295     3.481533     3.481533     42.19987 
     102            0   -22.959666   -383744.17   -383743.93   -383744.29   -383744.29 1.6333572e-11 -3.5828481e-11 -1.3699125e-11    3.4815295     3.481533     3.481533     42.19987 
Loop time of 8.89301e-05 on 1 procs for 2 steps with 4 atoms

78.7% CPU use with 1 MPI tasks x no OpenMP threads

Minimization stats:
  Stopping criterion = force tolerance
  Energy initial, next-to-last, final = 
        -22.9596662288     -22.9596662628     -22.9596662628
  Force two-norm initial, final = 0.000800222 3.16962e-15
  Force max component initial, final = 0.000231005 1.66533e-15
  Final line search alpha, max atom move = 1 1.66533e-15
  Iterations, force evaluations = 2 4

MPI task timing breakdown:
Section |  min time  |  avg time  |  max time  |%varavg| %total
---------------------------------------------------------------
Pair    | 5.5313e-05 | 5.5313e-05 | 5.5313e-05 |   0.0 | 62.20
Neigh   | 0          | 0          | 0          |   0.0 |  0.00
Comm    | 1.0729e-05 | 1.0729e-05 | 1.0729e-05 |   0.0 | 12.06
Output  | 9.0599e-06 | 9.0599e-06 | 9.0599e-06 |   0.0 | 10.19
Modify  | 0          | 0          | 0          |   0.0 |  0.00
Other   |            | 1.383e-05  |            |       | 15.55

Nlocal:    4 ave 4 max 4 min
Histogram: 1 0 0 0 0 0 0 0 0 0
Nghost:    360 ave 360 max 360 min
Histogram: 1 0 0 0 0 0 0 0 0 0
Neighs:    156 ave 156 max 156 min
Histogram: 1 0 0 0 0 0 0 0 0 0

Total # of neighbors = 156
Ave neighs/atom = 39
Neighbor list builds = 0
Dangerous builds = 0
Reading restart file ...
  restart file = 11 Aug 2017, LAMMPS = 11 Aug 2017
  triclinic box = (0.0175835 0.0175835 0.0175835) to (3.49912 3.49912 3.49912) with tilt (0 -0 0)
  1 by 1 by 1 MPI processor grid
  4 atoms
4 atoms in group Ni
Changing box ...
  triclinic box = (0.0175835 0.0175835 0.0175835) to (3.49912 3.49912 3.49912) with tilt (0 -0 0)
Neighbor list info ...
  update every 1 steps, delay 0 steps, check yes
  max neighbors/atom: 2000, page size: 100000
  master list distance cutoff = 5.64464
  ghost atom cutoff = 5.64464
  binsize = 2.82232, bins = 2 2 2
  1 neighbor lists, perpetual/occasional/extra = 1 0 0
  (1) pair eam/alloy, perpetual
      attributes: half, newton on
      pair build: half/bin/newton/tri
      stencil: half/bin/3d/newton/tri
      bin: standard
Setting up cg style minimization ...
  Unit style    : metal
  Current step  : 100
Per MPI rank memory allocation (min/avg/max) = 4.086 | 4.086 | 4.086 Mbytes
Step Temp PotEng Press Pxx Pyy Pzz Pxy Pxz Pyz Lx Ly Lz Volume 
     100            0   -22.959646   -383745.13   -383745.38   -383745.01   -383745.01 -1.3172209e-11 -4.3204847e-11 -8.2194587e-11    3.4815365     3.481533     3.481533    42.199954 
     101            0   -22.959646   -383745.14   -383745.38   -383745.02   -383745.02 -8.9571024e-12 -1.7387316e-11 4.7419954e-12    3.4815365     3.481533     3.481533    42.199954 
     102            0   -22.959646   -383745.14   -383745.38   -383745.02   -383745.02 1.5806651e-12 -1.0537768e-12 -5.2688838e-13    3.4815365     3.481533     3.481533    42.199954 
Loop time of 8.98838e-05 on 1 procs for 2 steps with 4 atoms

101.2% CPU use with 1 MPI tasks x no OpenMP threads

Minimization stats:
  Stopping criterion = force tolerance
  Energy initial, next-to-last, final = 
        -22.9596460138     -22.9596460478     -22.9596460478
  Force two-norm initial, final = 0.000800213 1.13744e-15
  Force max component initial, final = 0.000231002 6.14092e-16
  Final line search alpha, max atom move = 1 6.14092e-16
  Iterations, force evaluations = 2 4

MPI task timing breakdown:
Section |  min time  |  avg time  |  max time  |%varavg| %total
---------------------------------------------------------------
Pair    | 5.2691e-05 | 5.2691e-05 | 5.2691e-05 |   0.0 | 58.62
Neigh   | 0          | 0          | 0          |   0.0 |  0.00
Comm    | 1.1444e-05 | 1.1444e-05 | 1.1444e-05 |   0.0 | 12.73
Output  | 1.0014e-05 | 1.0014e-05 | 1.0014e-05 |   0.0 | 11.14
Modify  | 0          | 0          | 0          |   0.0 |  0.00
Other   |            | 1.574e-05  |            |       | 17.51

Nlocal:    4 ave 4 max 4 min
Histogram: 1 0 0 0 0 0 0 0 0 0
Nghost:    360 ave 360 max 360 min
Histogram: 1 0 0 0 0 0 0 0 0 0
Neighs:    156 ave 156 max 156 min
Histogram: 1 0 0 0 0 0 0 0 0 0

Total # of neighbors = 156
Ave neighs/atom = 39
Neighbor list builds = 0
Dangerous builds = 0
Reading restart file ...
  restart file = 11 Aug 2017, LAMMPS = 11 Aug 2017
  triclinic box = (0.0175835 0.0175835 0.0175835) to (3.49912 3.49912 3.49912) with tilt (0 -0 0)
  1 by 1 by 1 MPI processor grid
  4 atoms
4 atoms in group Ni
Changing box ...
  triclinic box = (0.0175835 0.0175835 0.0175835) to (3.49912 3.49911 3.49912) with tilt (0 -0 0)
Neighbor list info ...
  update every 1 steps, delay 0 steps, check yes
  max neighbors/atom: 2000, page size: 100000
  master list distance cutoff = 5.64464
  ghost atom cutoff = 5.64464
  binsize = 2.82232, bins = 2 2 2
  1 neighbor lists, perpetual/occasional/extra = 1 0 0
  (1) pair eam/alloy, perpetual
      attributes: half, newton on
      pair build: half/bin/newton/tri
      stencil: half/bin/3d/newton/tri
      bin: standard
Setting up cg style minimization ...
  Unit style    : metal
  Current step  : 100
Per MPI rank memory allocation (min/avg/max) = 4.086 | 4.086 | 4.086 Mbytes
Step Temp PotEng Press Pxx Pyy Pzz Pxy Pxz Pyz Lx Ly Lz Volume 
     100            0   -22.959666   -383744.16   -383744.28   -383743.92   -383744.28 -1.8968019e-11 -6.1646063e-11 6.3226732e-12     3.481533    3.4815295     3.481533     42.19987 
     101            0   -22.959666   -383744.17   -383744.29   -383743.93   -383744.29 4.7946938e-11 -6.8495626e-12 -3.1613366e-11     3.481533    3.4815295     3.481533     42.19987 
     102            0   -22.959666   -383744.17   -383744.29   -383743.93   -383744.29 -2.6871361e-11 -4.2151154e-12 -1.7387351e-11     3.481533    3.4815295     3.481533     42.19987 
Loop time of 8.51154e-05 on 1 procs for 2 steps with 4 atoms

101.0% CPU use with 1 MPI tasks x no OpenMP threads

Minimization stats:
  Stopping criterion = force tolerance
  Energy initial, next-to-last, final = 
        -22.9596662288     -22.9596662628     -22.9596662628
  Force two-norm initial, final = 0.000800222 3.31686e-15
  Force max component initial, final = 0.000231005 1.86309e-15
  Final line search alpha, max atom move = 1 1.86309e-15
  Iterations, force evaluations = 2 4

MPI task timing breakdown:
Section |  min time  |  avg time  |  max time  |%varavg| %total
---------------------------------------------------------------
Pair    | 4.9829e-05 | 4.9829e-05 | 4.9829e-05 |   0.0 | 58.54
Neigh   | 0          | 0          | 0          |   0.0 |  0.00
Comm    | 1.0014e-05 | 1.0014e-05 | 1.0014e-05 |   0.0 | 11.76
Output  | 9.0599e-06 | 9.0599e-06 | 9.0599e-06 |   0.0 | 10.64
Modify  | 0          | 0          | 0          |   0.0 |  0.00
Other   |            | 1.621e-05  |            |       | 19.05

Nlocal:    4 ave 4 max 4 min
Histogram: 1 0 0 0 0 0 0 0 0 0
Nghost:    360 ave 360 max 360 min
Histogram: 1 0 0 0 0 0 0 0 0 0
Neighs:    156 ave 156 max 156 min
Histogram: 1 0 0 0 0 0 0 0 0 0

Total # of neighbors = 156
Ave neighs/atom = 39
Neighbor list builds = 0
Dangerous builds = 0
Reading restart file ...
  restart file = 11 Aug 2017, LAMMPS = 11 Aug 2017
  triclinic box = (0.0175835 0.0175835 0.0175835) to (3.49912 3.49912 3.49912) with tilt (0 -0 0)
  1 by 1 by 1 MPI processor grid
  4 atoms
4 atoms in group Ni
Changing box ...
  triclinic box = (0.0175835 0.0175835 0.0175835) to (3.49912 3.49912 3.49912) with tilt (0 -0 0)
Neighbor list info ...
  update every 1 steps, delay 0 steps, check yes
  max neighbors/atom: 2000, page size: 100000
  master list distance cutoff = 5.64464
  ghost atom cutoff = 5.64464
  binsize = 2.82232, bins = 2 2 2
  1 neighbor lists, perpetual/occasional/extra = 1 0 0
  (1) pair eam/alloy, perpetual
      attributes: half, newton on
      pair build: half/bin/newton/tri
      stencil: half/bin/3d/newton/tri
      bin: standard
Setting up cg style minimization ...
  Unit style    : metal
  Current step  : 100
Per MPI rank memory allocation (min/avg/max) = 4.086 | 4.086 | 4.086 Mbytes
Step Temp PotEng Press Pxx Pyy Pzz Pxy Pxz Pyz Lx Ly Lz Volume 
     100            0   -22.959646   -383745.13   -383745.01   -383745.38   -383745.01 -3.4774633e-11 -5.2688838e-11 -2.3709977e-11     3.481533    3.4815365     3.481533    42.199954 
     101            0   -22.959646   -383745.14   -383745.02   -383745.38   -383745.02 3.3193968e-11 8.9571024e-12 -4.3731735e-11     3.481533    3.4815365     3.481533    42.199954 
     102            0   -22.959646   -383745.14   -383745.02   -383745.38   -383745.02 -1.6860428e-11 1.7914205e-11 1.7914205e-11     3.481533    3.4815365     3.481533    42.199954 
Loop time of 8.4877e-05 on 1 procs for 2 steps with 4 atoms

88.4% CPU use with 1 MPI tasks x no OpenMP threads

Minimization stats:
  Stopping criterion = force tolerance
  Energy initial, next-to-last, final = 
        -22.9596460138     -22.9596460478     -22.9596460478
  Force two-norm initial, final = 0.000800213 1.40345e-15
  Force max component initial, final = 0.000231002 9.61037e-16
  Final line search alpha, max atom move = 1 9.61037e-16
  Iterations, force evaluations = 2 4

MPI task timing breakdown:
Section |  min time  |  avg time  |  max time  |%varavg| %total
---------------------------------------------------------------
Pair    | 5.0068e-05 | 5.0068e-05 | 5.0068e-05 |   0.0 | 58.99
Neigh   | 0          | 0          | 0          |   0.0 |  0.00
Comm    | 9.0599e-06 | 9.0599e-06 | 9.0599e-06 |   0.0 | 10.67
Output  | 1.0014e-05 | 1.0014e-05 | 1.0014e-05 |   0.0 | 11.80
Modify  | 0          | 0          | 0          |   0.0 |  0.00
Other   |            | 1.574e-05  |            |       | 18.54

Nlocal:    4 ave 4 max 4 min
Histogram: 1 0 0 0 0 0 0 0 0 0
Nghost:    360 ave 360 max 360 min
Histogram: 1 0 0 0 0 0 0 0 0 0
Neighs:    156 ave 156 max 156 min
Histogram: 1 0 0 0 0 0 0 0 0 0

Total # of neighbors = 156
Ave neighs/atom = 39
Neighbor list builds = 0
Dangerous builds = 0
Reading restart file ...
  restart file = 11 Aug 2017, LAMMPS = 11 Aug 2017
  triclinic box = (0.0175835 0.0175835 0.0175835) to (3.49912 3.49912 3.49912) with tilt (0 -0 0)
  1 by 1 by 1 MPI processor grid
  4 atoms
4 atoms in group Ni
Changing box ...
  triclinic box = (0.0175835 0.0175835 0.0175835) to (3.49912 3.49912 3.49911) with tilt (0 -0 0)
Neighbor list info ...
  update every 1 steps, delay 0 steps, check yes
  max neighbors/atom: 2000, page size: 100000
  master list distance cutoff = 5.64464
  ghost atom cutoff = 5.64464
  binsize = 2.82232, bins = 2 2 2
  1 neighbor lists, perpetual/occasional/extra = 1 0 0
  (1) pair eam/alloy, perpetual
      attributes: half, newton on
      pair build: half/bin/newton/tri
      stencil: half/bin/3d/newton/tri
      bin: standard
Setting up cg style minimization ...
  Unit style    : metal
  Current step  : 100
Per MPI rank memory allocation (min/avg/max) = 4.086 | 4.086 | 4.086 Mbytes
Step Temp PotEng Press Pxx Pyy Pzz Pxy Pxz Pyz Lx Ly Lz Volume 
     100            0   -22.959666   -383744.16   -383744.28   -383744.28   -383743.92 2.2129356e-11 -2.739825e-11 -2.1075577e-12     3.481533     3.481533    3.4815295     42.19987 
     101            0   -22.959666   -383744.17   -383744.29   -383744.29   -383743.93 -2.9505808e-11 2.739825e-11 3.1613366e-11     3.481533     3.481533    3.4815295     42.19987 
     102            0   -22.959666   -383744.17   -383744.29   -383744.29   -383743.93            0 3.4247813e-11 2.5817582e-11     3.481533     3.481533    3.4815295     42.19987 
Loop time of 8.98838e-05 on 1 procs for 2 steps with 4 atoms

102.4% CPU use with 1 MPI tasks x no OpenMP threads

Minimization stats:
  Stopping criterion = force tolerance
  Energy initial, next-to-last, final = 
        -22.9596662288     -22.9596662628     -22.9596662628
  Force two-norm initial, final = 0.000800222 3.47684e-15
  Force max component initial, final = 0.000231005 1.89779e-15
  Final line search alpha, max atom move = 1 1.89779e-15
  Iterations, force evaluations = 2 4

MPI task timing breakdown:
Section |  min time  |  avg time  |  max time  |%varavg| %total
---------------------------------------------------------------
Pair    | 5.4836e-05 | 5.4836e-05 | 5.4836e-05 |   0.0 | 61.01
Neigh   | 0          | 0          | 0          |   0.0 |  0.00
Comm    | 1.1921e-05 | 1.1921e-05 | 1.1921e-05 |   0.0 | 13.26
Output  | 1.0014e-05 | 1.0014e-05 | 1.0014e-05 |   0.0 | 11.14
Modify  | 0          | 0          | 0          |   0.0 |  0.00
Other   |            | 1.311e-05  |            |       | 14.59

Nlocal:    4 ave 4 max 4 min
Histogram: 1 0 0 0 0 0 0 0 0 0
Nghost:    360 ave 360 max 360 min
Histogram: 1 0 0 0 0 0 0 0 0 0
Neighs:    156 ave 156 max 156 min
Histogram: 1 0 0 0 0 0 0 0 0 0

Total # of neighbors = 156
Ave neighs/atom = 39
Neighbor list builds = 0
Dangerous builds = 0
Reading restart file ...
  restart file = 11 Aug 2017, LAMMPS = 11 Aug 2017
  triclinic box = (0.0175835 0.0175835 0.0175835) to (3.49912 3.49912 3.49912) with tilt (0 -0 0)
  1 by 1 by 1 MPI processor grid
  4 atoms
4 atoms in group Ni
Changing box ...
  triclinic box = (0.0175835 0.0175835 0.0175835) to (3.49912 3.49912 3.49912) with tilt (0 -0 0)
Neighbor list info ...
  update every 1 steps, delay 0 steps, check yes
  max neighbors/atom: 2000, page size: 100000
  master list distance cutoff = 5.64464
  ghost atom cutoff = 5.64464
  binsize = 2.82232, bins = 2 2 2
  1 neighbor lists, perpetual/occasional/extra = 1 0 0
  (1) pair eam/alloy, perpetual
      attributes: half, newton on
      pair build: half/bin/newton/tri
      stencil: half/bin/3d/newton/tri
      bin: standard
Setting up cg style minimization ...
  Unit style    : metal
  Current step  : 100
Per MPI rank memory allocation (min/avg/max) = 4.086 | 4.086 | 4.086 Mbytes
Step Temp PotEng Press Pxx Pyy Pzz Pxy Pxz Pyz Lx Ly Lz Volume 
     100            0   -22.959646   -383745.13   -383745.01   -383745.01   -383745.38 -1.2645321e-11 -1.949487e-11 2.1075535e-12     3.481533     3.481533    3.4815365    42.199954 
     101            0   -22.959646   -383745.14   -383745.02   -383745.02   -383745.38 7.9033256e-12 -1.7387316e-11 -5.7957721e-12     3.481533     3.481533    3.4815365    42.199954 
     102            0   -22.959646   -383745.14   -383745.02   -383745.02   -383745.38 -1.0537768e-12 2.0548647e-11 2.2129312e-11     3.481533     3.481533    3.4815365    42.199954 
Loop time of 8.4877e-05 on 1 procs for 2 steps with 4 atoms

91.9% CPU use with 1 MPI tasks x no OpenMP threads

Minimization stats:
  Stopping criterion = force tolerance
  Energy initial, next-to-last, final = 
        -22.9596460138     -22.9596460478     -22.9596460478
  Force two-norm initial, final = 0.000800213 1.3873e-15
  Force max component initial, final = 0.000231002 9.71445e-16
  Final line search alpha, max atom move = 1 9.71445e-16
  Iterations, force evaluations = 2 4

MPI task timing breakdown:
Section |  min time  |  avg time  |  max time  |%varavg| %total
---------------------------------------------------------------
Pair    | 5.1022e-05 | 5.1022e-05 | 5.1022e-05 |   0.0 | 60.11
Neigh   | 0          | 0          | 0          |   0.0 |  0.00
Comm    | 1.0967e-05 | 1.0967e-05 | 1.0967e-05 |   0.0 | 12.92
Output  | 9.0599e-06 | 9.0599e-06 | 9.0599e-06 |   0.0 | 10.67
Modify  | 0          | 0          | 0          |   0.0 |  0.00
Other   |            | 1.383e-05  |            |       | 16.29

Nlocal:    4 ave 4 max 4 min
Histogram: 1 0 0 0 0 0 0 0 0 0
Nghost:    360 ave 360 max 360 min
Histogram: 1 0 0 0 0 0 0 0 0 0
Neighs:    156 ave 156 max 156 min
Histogram: 1 0 0 0 0 0 0 0 0 0

Total # of neighbors = 156
Ave neighs/atom = 39
Neighbor list builds = 0
Dangerous builds = 0
Reading restart file ...
  restart file = 11 Aug 2017, LAMMPS = 11 Aug 2017
  triclinic box = (0.0175835 0.0175835 0.0175835) to (3.49912 3.49912 3.49912) with tilt (0 -0 0)
  1 by 1 by 1 MPI processor grid
  4 atoms
4 atoms in group Ni
Changing box ...
  triclinic box = (0.0175835 0.0175835 0.0175835) to (3.49912 3.49912 3.49912) with tilt (0 -0 -3.48153e-06)
Neighbor list info ...
  update every 1 steps, delay 0 steps, check yes
  max neighbors/atom: 2000, page size: 100000
  master list distance cutoff = 5.64464
  ghost atom cutoff = 5.64464
  binsize = 2.82232, bins = 2 2 2
  1 neighbor lists, perpetual/occasional/extra = 1 0 0
  (1) pair eam/alloy, perpetual
      attributes: half, newton on
      pair build: half/bin/newton/tri
      stencil: half/bin/3d/newton/tri
      bin: standard
Setting up cg style minimization ...
  Unit style    : metal
  Current step  : 100
Per MPI rank memory allocation (min/avg/max) = 4.086 | 4.086 | 4.086 Mbytes
Step Temp PotEng Press Pxx Pyy Pzz Pxy Pxz Pyz Lx Ly Lz Volume 
     100            0   -22.959656   -383744.65   -383744.65   -383744.65   -383744.65 -4.2151112e-11 -1.1064667e-11   0.54700101     3.481533     3.481533     3.481533    42.199912 
     101            0   -22.959656   -383744.66   -383744.66   -383744.66   -383744.66 3.1613334e-12 -2.0548667e-11   0.54700102     3.481533     3.481533     3.481533    42.199912 
     102            0   -22.959656   -383744.66   -383744.66   -383744.66   -383744.66 1.7387334e-11 -1.0537778e-11   0.54700102     3.481533     3.481533     3.481533    42.199912 
     103            0   -22.959656   -383744.66   -383744.66   -383744.66   -383744.66 -1.5806667e-12 -2.6344445e-12   0.54700102     3.481533     3.481533     3.481533    42.199912 
Loop time of 0.000120878 on 1 procs for 3 steps with 4 atoms

100.9% CPU use with 1 MPI tasks x no OpenMP threads

Minimization stats:
  Stopping criterion = force tolerance
  Energy initial, next-to-last, final = 
        -22.9596561213     -22.9596561553     -22.9596561553
  Force two-norm initial, final = 0.000800217 2.40351e-15
  Force max component initial, final = 0.000231004 1.44329e-15
  Final line search alpha, max atom move = 1 1.44329e-15
  Iterations, force evaluations = 3 6

MPI task timing breakdown:
Section |  min time  |  avg time  |  max time  |%varavg| %total
---------------------------------------------------------------
Pair    | 7.2002e-05 | 7.2002e-05 | 7.2002e-05 |   0.0 | 59.57
Neigh   | 0          | 0          | 0          |   0.0 |  0.00
Comm    | 1.4067e-05 | 1.4067e-05 | 1.4067e-05 |   0.0 | 11.64
Output  | 1.812e-05  | 1.812e-05  | 1.812e-05  |   0.0 | 14.99
Modify  | 0          | 0          | 0          |   0.0 |  0.00
Other   |            | 1.669e-05  |            |       | 13.81

Nlocal:    4 ave 4 max 4 min
Histogram: 1 0 0 0 0 0 0 0 0 0
Nghost:    360 ave 360 max 360 min
Histogram: 1 0 0 0 0 0 0 0 0 0
Neighs:    156 ave 156 max 156 min
Histogram: 1 0 0 0 0 0 0 0 0 0

Total # of neighbors = 156
Ave neighs/atom = 39
Neighbor list builds = 0
Dangerous builds = 0
Reading restart file ...
  restart file = 11 Aug 2017, LAMMPS = 11 Aug 2017
  triclinic box = (0.0175835 0.0175835 0.0175835) to (3.49912 3.49912 3.49912) with tilt (0 -0 0)
  1 by 1 by 1 MPI processor grid
  4 atoms
4 atoms in group Ni
Changing box ...
  triclinic box = (0.0175835 0.0175835 0.0175835) to (3.49912 3.49912 3.49912) with tilt (0 -0 3.48153e-06)
Neighbor list info ...
  update every 1 steps, delay 0 steps, check yes
  max neighbors/atom: 2000, page size: 100000
  master list distance cutoff = 5.64464
  ghost atom cutoff = 5.64464
  binsize = 2.82232, bins = 2 2 2
  1 neighbor lists, perpetual/occasional/extra = 1 0 0
  (1) pair eam/alloy, perpetual
      attributes: half, newton on
      pair build: half/bin/newton/tri
      stencil: half/bin/3d/newton/tri
      bin: standard
Setting up cg style minimization ...
  Unit style    : metal
  Current step  : 100
Per MPI rank memory allocation (min/avg/max) = 4.086 | 4.086 | 4.086 Mbytes
Step Temp PotEng Press Pxx Pyy Pzz Pxy Pxz Pyz Lx Ly Lz Volume 
     100            0   -22.959656   -383744.65   -383744.65   -383744.65   -383744.65 -4.1097334e-11 -7.0076224e-11  -0.54700101     3.481533     3.481533     3.481533    42.199912 
     101            0   -22.959656   -383744.66   -383744.66   -383744.66   -383744.66 1.5279778e-11 -2.6344445e-12  -0.54700102     3.481533     3.481533     3.481533    42.199912 
     102            0   -22.959656   -383744.66   -383744.66   -383744.66   -383744.66 -4.9527557e-11 -5.4796446e-11  -0.54700102     3.481533     3.481533     3.481533    42.199912 
     103            0   -22.959656   -383744.66   -383744.66   -383744.66   -383744.66 -8.9571114e-12 -4.2678001e-11  -0.54700102     3.481533     3.481533     3.481533    42.199912 
Loop time of 0.000120878 on 1 procs for 3 steps with 4 atoms

91.0% CPU use with 1 MPI tasks x no OpenMP threads

Minimization stats:
  Stopping criterion = force tolerance
  Energy initial, next-to-last, final = 
        -22.9596561213     -22.9596561553     -22.9596561553
  Force two-norm initial, final = 0.000800217 1.24126e-15
  Force max component initial, final = 0.000231004 6.97359e-16
  Final line search alpha, max atom move = 1 6.97359e-16
  Iterations, force evaluations = 3 6

MPI task timing breakdown:
Section |  min time  |  avg time  |  max time  |%varavg| %total
---------------------------------------------------------------
Pair    | 7.2241e-05 | 7.2241e-05 | 7.2241e-05 |   0.0 | 59.76
Neigh   | 0          | 0          | 0          |   0.0 |  0.00
Comm    | 1.3828e-05 | 1.3828e-05 | 1.3828e-05 |   0.0 | 11.44
Output  | 1.812e-05  | 1.812e-05  | 1.812e-05  |   0.0 | 14.99
Modify  | 0          | 0          | 0          |   0.0 |  0.00
Other   |            | 1.669e-05  |            |       | 13.81

Nlocal:    4 ave 4 max 4 min
Histogram: 1 0 0 0 0 0 0 0 0 0
Nghost:    360 ave 360 max 360 min
Histogram: 1 0 0 0 0 0 0 0 0 0
Neighs:    156 ave 156 max 156 min
Histogram: 1 0 0 0 0 0 0 0 0 0

Total # of neighbors = 156
Ave neighs/atom = 39
Neighbor list builds = 0
Dangerous builds = 0
Reading restart file ...
  restart file = 11 Aug 2017, LAMMPS = 11 Aug 2017
  triclinic box = (0.0175835 0.0175835 0.0175835) to (3.49912 3.49912 3.49912) with tilt (0 -0 0)
  1 by 1 by 1 MPI processor grid
  4 atoms
4 atoms in group Ni
Changing box ...
  triclinic box = (0.0175835 0.0175835 0.0175835) to (3.49912 3.49912 3.49912) with tilt (0 -3.48153e-06 0)
Neighbor list info ...
  update every 1 steps, delay 0 steps, check yes
  max neighbors/atom: 2000, page size: 100000
  master list distance cutoff = 5.64464
  ghost atom cutoff = 5.64464
  binsize = 2.82232, bins = 2 2 2
  1 neighbor lists, perpetual/occasional/extra = 1 0 0
  (1) pair eam/alloy, perpetual
      attributes: half, newton on
      pair build: half/bin/newton/tri
      stencil: half/bin/3d/newton/tri
      bin: standard
Setting up cg style minimization ...
  Unit style    : metal
  Current step  : 100
Per MPI rank memory allocation (min/avg/max) = 4.086 | 4.086 | 4.086 Mbytes
Step Temp PotEng Press Pxx Pyy Pzz Pxy Pxz Pyz Lx Ly Lz Volume 
     100            0   -22.959656   -383744.65   -383744.65   -383744.65   -383744.65 -3.2667112e-11   0.54700101 -1.8968001e-11     3.481533     3.481533     3.481533    42.199912 
     101            0   -22.959656   -383744.66   -383744.66   -383744.66   -383744.66 2.1075556e-11   0.54700102 -8.4302225e-12     3.481533     3.481533     3.481533    42.199912 
     102            0   -22.959656   -383744.66   -383744.66   -383744.66   -383744.66 -7.9033336e-12   0.54700102 6.6388002e-11     3.481533     3.481533     3.481533    42.199912 
     103            0   -22.959656   -383744.66   -383744.66   -383744.66   -383744.66 6.3226668e-12   0.54700102 1.6860445e-11     3.481533     3.481533     3.481533    42.199912 
Loop time of 0.000119925 on 1 procs for 3 steps with 4 atoms

100.9% CPU use with 1 MPI tasks x no OpenMP threads

Minimization stats:
  Stopping criterion = force tolerance
  Energy initial, next-to-last, final = 
        -22.9596561213     -22.9596561553     -22.9596561553
  Force two-norm initial, final = 0.000800217 2.54959e-15
  Force max component initial, final = 0.000231004 2.10942e-15
  Final line search alpha, max atom move = 1 2.10942e-15
  Iterations, force evaluations = 3 6

MPI task timing breakdown:
Section |  min time  |  avg time  |  max time  |%varavg| %total
---------------------------------------------------------------
Pair    | 7.2241e-05 | 7.2241e-05 | 7.2241e-05 |   0.0 | 60.24
Neigh   | 0          | 0          | 0          |   0.0 |  0.00
Comm    | 1.3828e-05 | 1.3828e-05 | 1.3828e-05 |   0.0 | 11.53
Output  | 1.812e-05  | 1.812e-05  | 1.812e-05  |   0.0 | 15.11
Modify  | 0          | 0          | 0          |   0.0 |  0.00
Other   |            | 1.574e-05  |            |       | 13.12

Nlocal:    4 ave 4 max 4 min
Histogram: 1 0 0 0 0 0 0 0 0 0
Nghost:    360 ave 360 max 360 min
Histogram: 1 0 0 0 0 0 0 0 0 0
Neighs:    156 ave 156 max 156 min
Histogram: 1 0 0 0 0 0 0 0 0 0

Total # of neighbors = 156
Ave neighs/atom = 39
Neighbor list builds = 0
Dangerous builds = 0
Reading restart file ...
  restart file = 11 Aug 2017, LAMMPS = 11 Aug 2017
  triclinic box = (0.0175835 0.0175835 0.0175835) to (3.49912 3.49912 3.49912) with tilt (0 -0 0)
  1 by 1 by 1 MPI processor grid
  4 atoms
4 atoms in group Ni
Changing box ...
  triclinic box = (0.0175835 0.0175835 0.0175835) to (3.49912 3.49912 3.49912) with tilt (0 3.48153e-06 0)
Neighbor list info ...
  update every 1 steps, delay 0 steps, check yes
  max neighbors/atom: 2000, page size: 100000
  master list distance cutoff = 5.64464
  ghost atom cutoff = 5.64464
  binsize = 2.82232, bins = 2 2 2
  1 neighbor lists, perpetual/occasional/extra = 1 0 0
  (1) pair eam/alloy, perpetual
      attributes: half, newton on
      pair build: half/bin/newton/tri
      stencil: half/bin/3d/newton/tri
      bin: standard
Setting up cg style minimization ...
  Unit style    : metal
  Current step  : 100
Per MPI rank memory allocation (min/avg/max) = 4.086 | 4.086 | 4.086 Mbytes
Step Temp PotEng Press Pxx Pyy Pzz Pxy Pxz Pyz Lx Ly Lz Volume 
     100            0   -22.959656   -383744.65   -383744.65   -383744.65   -383744.65 -5.4269557e-11  -0.54700101 -6.5861113e-11     3.481533     3.481533     3.481533    42.199912 
     101            0   -22.959656   -383744.66   -383744.66   -383744.66   -383744.66 -1.6333556e-11  -0.54700102 6.0592224e-11     3.481533     3.481533     3.481533    42.199912 
     102            0   -22.959656   -383744.66   -383744.66   -383744.66   -383744.66 2.6871334e-11  -0.54700102 -3.7936001e-11     3.481533     3.481533     3.481533    42.199912 
     103            0   -22.959656   -383744.66   -383744.66   -383744.66   -383744.66 1.3699111e-11  -0.54700102 -6.3226668e-12     3.481533     3.481533     3.481533    42.199912 
Loop time of 0.000119925 on 1 procs for 3 steps with 4 atoms

94.2% CPU use with 1 MPI tasks x no OpenMP threads

Minimization stats:
  Stopping criterion = force tolerance
  Energy initial, next-to-last, final = 
        -22.9596561213     -22.9596561553     -22.9596561553
  Force two-norm initial, final = 0.000800217 3.03109e-15
  Force max component initial, final = 0.000231004 1.5786e-15
  Final line search alpha, max atom move = 1 1.5786e-15
  Iterations, force evaluations = 3 6

MPI task timing breakdown:
Section |  min time  |  avg time  |  max time  |%varavg| %total
---------------------------------------------------------------
Pair    | 7.0572e-05 | 7.0572e-05 | 7.0572e-05 |   0.0 | 58.85
Neigh   | 0          | 0          | 0          |   0.0 |  0.00
Comm    | 1.5259e-05 | 1.5259e-05 | 1.5259e-05 |   0.0 | 12.72
Output  | 1.7881e-05 | 1.7881e-05 | 1.7881e-05 |   0.0 | 14.91
Modify  | 0          | 0          | 0          |   0.0 |  0.00
Other   |            | 1.621e-05  |            |       | 13.52

Nlocal:    4 ave 4 max 4 min
Histogram: 1 0 0 0 0 0 0 0 0 0
Nghost:    360 ave 360 max 360 min
Histogram: 1 0 0 0 0 0 0 0 0 0
Neighs:    156 ave 156 max 156 min
Histogram: 1 0 0 0 0 0 0 0 0 0

Total # of neighbors = 156
Ave neighs/atom = 39
Neighbor list builds = 0
Dangerous builds = 0
Reading restart file ...
  restart file = 11 Aug 2017, LAMMPS = 11 Aug 2017
  triclinic box = (0.0175835 0.0175835 0.0175835) to (3.49912 3.49912 3.49912) with tilt (0 -0 0)
  1 by 1 by 1 MPI processor grid
  4 atoms
4 atoms in group Ni
Changing box ...
  triclinic box = (0.0175835 0.0175835 0.0175835) to (3.49912 3.49912 3.49912) with tilt (-3.48153e-06 -0 0)
Neighbor list info ...
  update every 1 steps, delay 0 steps, check yes
  max neighbors/atom: 2000, page size: 100000
  master list distance cutoff = 5.64464
  ghost atom cutoff = 5.64464
  binsize = 2.82232, bins = 2 2 2
  1 neighbor lists, perpetual/occasional/extra = 1 0 0
  (1) pair eam/alloy, perpetual
      attributes: half, newton on
      pair build: half/bin/newton/tri
      stencil: half/bin/3d/newton/tri
      bin: standard
Setting up cg style minimization ...
  Unit style    : metal
  Current step  : 100
Per MPI rank memory allocation (min/avg/max) = 4.086 | 4.086 | 4.086 Mbytes
Step Temp PotEng Press Pxx Pyy Pzz Pxy Pxz Pyz Lx Ly Lz Volume 
     100            0   -22.959656   -383744.65   -383744.65   -383744.65   -383744.65   0.54700101 -1.0485089e-10 -4.1097334e-11     3.481533     3.481533     3.481533    42.199912 
     101            0   -22.959656   -383744.66   -383744.66   -383744.66   -383744.66   0.54700102 3.3194001e-11 -1.2645334e-11     3.481533     3.481533     3.481533    42.199912 
     102            0   -22.959656   -383744.66   -383744.66   -383744.66   -383744.66   0.54700102 1.2118445e-11 -3.1613334e-12     3.481533     3.481533     3.481533    42.199912 
     103            0   -22.959656   -383744.66   -383744.66   -383744.66   -383744.66   0.54700102 1.6333556e-11 7.3764446e-12     3.481533     3.481533     3.481533    42.199912 
Loop time of 0.000123024 on 1 procs for 3 steps with 4 atoms

100.8% CPU use with 1 MPI tasks x no OpenMP threads

Minimization stats:
  Stopping criterion = force tolerance
  Energy initial, next-to-last, final = 
        -22.9596561213     -22.9596561553     -22.9596561553
  Force two-norm initial, final = 0.000800217 3.12112e-15
  Force max component initial, final = 0.000231004 1.9984e-15
  Final line search alpha, max atom move = 1 1.9984e-15
  Iterations, force evaluations = 3 6

MPI task timing breakdown:
Section |  min time  |  avg time  |  max time  |%varavg| %total
---------------------------------------------------------------
Pair    | 7.5102e-05 | 7.5102e-05 | 7.5102e-05 |   0.0 | 61.05
Neigh   | 0          | 0          | 0          |   0.0 |  0.00
Comm    | 1.3828e-05 | 1.3828e-05 | 1.3828e-05 |   0.0 | 11.24
Output  | 1.812e-05  | 1.812e-05  | 1.812e-05  |   0.0 | 14.73
Modify  | 0          | 0          | 0          |   0.0 |  0.00
Other   |            | 1.597e-05  |            |       | 12.98

Nlocal:    4 ave 4 max 4 min
Histogram: 1 0 0 0 0 0 0 0 0 0
Nghost:    360 ave 360 max 360 min
Histogram: 1 0 0 0 0 0 0 0 0 0
Neighs:    156 ave 156 max 156 min
Histogram: 1 0 0 0 0 0 0 0 0 0

Total # of neighbors = 156
Ave neighs/atom = 39
Neighbor list builds = 0
Dangerous builds = 0
Reading restart file ...
  restart file = 11 Aug 2017, LAMMPS = 11 Aug 2017
  triclinic box = (0.0175835 0.0175835 0.0175835) to (3.49912 3.49912 3.49912) with tilt (0 -0 0)
  1 by 1 by 1 MPI processor grid
  4 atoms
4 atoms in group Ni
Changing box ...
  triclinic box = (0.0175835 0.0175835 0.0175835) to (3.49912 3.49912 3.49912) with tilt (3.48153e-06 -0 0)
Neighbor list info ...
  update every 1 steps, delay 0 steps, check yes
  max neighbors/atom: 2000, page size: 100000
  master list distance cutoff = 5.64464
  ghost atom cutoff = 5.64464
  binsize = 2.82232, bins = 2 2 2
  1 neighbor lists, perpetual/occasional/extra = 1 0 0
  (1) pair eam/alloy, perpetual
      attributes: half, newton on
      pair build: half/bin/newton/tri
      stencil: half/bin/3d/newton/tri
      bin: standard
Setting up cg style minimization ...
  Unit style    : metal
  Current step  : 100
Per MPI rank memory allocation (min/avg/max) = 4.086 | 4.086 | 4.086 Mbytes
Step Temp PotEng Press Pxx Pyy Pzz Pxy Pxz Pyz Lx Ly Lz Volume 
     100            0   -22.959656   -383744.65   -383744.65   -383744.65   -383744.65  -0.54700101 -7.0603113e-11 -5.0054446e-11     3.481533     3.481533     3.481533    42.199912 
     101            0   -22.959656   -383744.66   -383744.66   -383744.66   -383744.66  -0.54700102 -3.5828445e-11 2.5290667e-11     3.481533     3.481533     3.481533    42.199912 
     102            0   -22.959656   -383744.66   -383744.66   -383744.66   -383744.66  -0.54700102 -4.2151112e-12 2.5290667e-11     3.481533     3.481533     3.481533    42.199912 
     103            0   -22.959656   -383744.66   -383744.66   -383744.66   -383744.66  -0.54700102 4.7420001e-11 4.6893112e-11     3.481533     3.481533     3.481533    42.199912 
Loop time of 0.000118971 on 1 procs for 3 steps with 4 atoms

100.0% CPU use with 1 MPI tasks x no OpenMP threads

Minimization stats:
  Stopping criterion = force tolerance
  Energy initial, next-to-last, final = 
        -22.9596561213     -22.9596561553     -22.9596561553
  Force two-norm initial, final = 0.000800217 1.79428e-15
  Force max component initial, final = 0.000231004 1.28196e-15
  Final line search alpha, max atom move = 1 1.28196e-15
  Iterations, force evaluations = 3 6

MPI task timing breakdown:
Section |  min time  |  avg time  |  max time  |%varavg| %total
---------------------------------------------------------------
Pair    | 6.9857e-05 | 6.9857e-05 | 6.9857e-05 |   0.0 | 58.72
Neigh   | 0          | 0          | 0          |   0.0 |  0.00
Comm    | 1.4782e-05 | 1.4782e-05 | 1.4782e-05 |   0.0 | 12.42
Output  | 1.7881e-05 | 1.7881e-05 | 1.7881e-05 |   0.0 | 15.03
Modify  | 0          | 0          | 0          |   0.0 |  0.00
Other   |            | 1.645e-05  |            |       | 13.83

Nlocal:    4 ave 4 max 4 min
Histogram: 1 0 0 0 0 0 0 0 0 0
Nghost:    360 ave 360 max 360 min
Histogram: 1 0 0 0 0 0 0 0 0 0
Neighs:    156 ave 156 max 156 min
Histogram: 1 0 0 0 0 0 0 0 0 0

Total # of neighbors = 156
Ave neighs/atom = 39
Neighbor list builds = 0
Dangerous builds = 0
c11 = 72.8820547985379 GPa
c22 = 72.8820547985379 GPa
c33 = 72.8820547985379 GPa
c12 = 36.3487039488974 GPa
c13 = 36.3487039241591 GPa
c23 = 36.3487039488974 GPa
c44 = 54.7001016953178 GPa
c55 = 54.7001016918141 GPa
c66 = 54.7001016971093 GPa
c14 = -3.29305920262517e-10 GPa
c15 = -8.69367612632605e-10 GPa
c16 = 3.68822680221578e-10 GPa
c24 = -8.825388999893e-10 GPa
c25 = -5.53233006071225e-10 GPa
c26 = -2.50273322399983e-10 GPa
c34 = 9.22067567637575e-11 GPa
c35 = 3.42479157108158e-10 GPa
c36 = 2.63444188245548e-11 GPa
c45 = 1.58066671013846e-09 GPa
c46 = -8.0350557765372e-10 GPa
c56 = -9.61572248667567e-10 GPa
lammps_sim_done
Total wall time: 0:00:00
