LAMMPS (10 Feb 2015)
# ---- initialize simulations
clear
units metal
dimension 3
boundary p p p
atom_style charge
atom_modify map array
# ---- create atoms
read_data /Users/eugeneragasa/pyflamestk_git/pypospack/tests/tests_integration/workflow/WorkflowLammpsThermalExpansion/param_4927/MgO_NaCl_unit.npt.T1400/lammps.structure
  triclinic box = (0 0 0) to (4.2565 4.2565 4.2565) with tilt (0 0 0)
  1 by 1 by 1 MPI processor grid
  reading atoms ...
  8 atoms
# ---- define interatomic potential
include potential.mod
mass 1 24.305
mass 2 15.999

group Mg type 1
4 atoms in group Mg
group O type 2
4 atoms in group O

set group Mg charge 1.66679564584
  4 settings made for charge
set group O charge -1.66679564584
  4 settings made for charge

variable R_cut equal 10.0

pair_style buck/coul/long ${R_cut}
pair_style buck/coul/long 10
pair_coeff 1 1 0.0 0.5 0.0 ${R_cut}
pair_coeff 1 1 0.0 0.5 0.0 10
pair_coeff 1 2 1241.53975785 0.290586946924 0.0 ${R_cut}
pair_coeff 1 2 1241.53975785 0.290586946924 0.0 10
pair_coeff 2 2 7336.97641517 0.111647641293 25.3936876208 ${R_cut}
pair_coeff 2 2 7336.97641517 0.111647641293 25.3936876208 10

kspace_style pppm 1.0e-5

neighbor 1.0 bin
neigh_modify every 1 delay 0 check yes
# ---- define settings
compute eng all pe/atom
compute eatoms all reduce sum c_eng
# ---- run minimization
reset_timestep 0
fix 1 all box/relax iso 0.0 vmax 0.001
thermo 10
thermo_style custom step pe lx ly lz xy xz yz press pxx pyy pzz pxy pxz pyz c_eatoms
min_style cg
minimize 1e-25 1e-25 5000 10000
PPPM initialization ...
  G vector (1/distance) = 0.352901
  grid = 8 8 8
  stencil order = 5
  estimated absolute RMS force accuracy = 3.98348e-05
  estimated relative force accuracy = 2.76637e-06
  using double precision FFTs
  3d grid and FFT values/proc = 3375 512
Neighbor list info ...
  1 neighbor list requests
  update every 1 steps, delay 0 steps, check yes
  master list distance cutoff = 11
Memory usage per processor = 4.06549 Mbytes
Step PotEng Lx Ly Lz Xy Xz Yz Press Pxx Pyy Pzz Pxy Pxz Pyz eatoms 
       0    -112.5899       4.2565       4.2565       4.2565            0            0            0    58061.201    58061.201    58061.201    58061.201 6.8070985e-11 -1.221979e-10 1.2952011e-11    -112.5899 
      10   -112.63526     4.299065     4.299065     4.299065            0            0            0    6762.9013    6762.9013    6762.9013    6762.9013 -3.6532134e-11 6.5076144e-11 2.4224675e-10   -112.63526 
      13     -112.636    4.3051131    4.3051131    4.3051131            0            0            0   -6.5125139   -6.5125139   -6.5125139   -6.5125139 2.4815902e-11 -1.1583773e-10 3.0521581e-11     -112.636 
Loop time of 0.0103662 on 1 procs for 13 steps with 8 atoms

Minimization stats:
  Stopping criterion = linesearch alpha is zero
  Energy initial, next-to-last, final = 
        -112.589903458     -112.636003249     -112.636003249
  Force two-norm initial, final = 8.38407 0.00186563
  Force max component initial, final = 8.38407 0.000962014
  Final line search alpha, max atom move = 0.00390625 3.75787e-06
  Iterations, force evaluations = 13 30

Pair  time (%) = 0.00284696 (27.4638)
Kspce time (%) = 0.0016253 (15.6788)
Neigh time (%) = 0 (0)
Comm  time (%) = 0.000311375 (3.00375)
Outpt time (%) = 2.00272e-05 (0.193197)
Other time (%) = 0.00556254 (53.6604)

Nlocal:    8 ave 8 max 8 min
Histogram: 1 0 0 0 0 0 0 0 0 0
Nghost:    2189 ave 2189 max 2189 min
Histogram: 1 0 0 0 0 0 0 0 0 0
Neighs:    2344 ave 2344 max 2344 min
Histogram: 1 0 0 0 0 0 0 0 0 0

Total # of neighbors = 2344
Ave neighs/atom = 293
Neighbor list builds = 0
Dangerous builds = 0
unfix 1
# ---- define output variables ----
variable natoms equal "count(all)"
variable tot_energy equal "c_eatoms"
variable length_x equal "lx"
variable length_y equal "ly"
variable length_z equal "lz"
variable tilt_xy equal "xy"
variable tilt_xz equal "xz"
variable tilt_yz equal "yz"
variable tot_press equal "press"
variable press_xx equal "pxx"
variable press_yy equal "pyy"
variable press_zz equal "pzz"
variable press_xy equal "pxy"
variable press_xz equal "pxz"
variable press_yz equal "pyz"

# ---- output ----
print "pypospack:output_section:begin"
pypospack:output_section:begin
print "tot_energy = ${tot_energy}"
tot_energy = -112.63600324896
print "num_atoms = ${natoms}"
num_atoms = 8
print "xx = ${length_x}"
xx = 4.30511307073731
print "yy = ${length_y}"
yy = 4.30511307073731
print "zz = ${length_z}"
zz = 4.30511307073731
print "xy = ${tilt_xy}"
xy = 0
print "xz = ${tilt_xz}"
xz = 0
print "yz = ${tilt_yz}"
yz = 0
print "tot_press = ${tot_press}"
tot_press = -6.51251387968517
print "pxx = ${press_xx}"
pxx = -6.51251387980119
print "pyy = ${press_yy}"
pyy = -6.51251387961014
print "pzz = ${press_zz}"
pzz = -6.51251387964418
print "pxy = ${press_xy}"
pxy = 2.48159019880152e-11
print "pxz = ${press_xz}"
pxz = -1.15837732664817e-10
print "pyz = ${press_yz}"
pyz = 3.05215812050655e-11
print "pypospack:output_section:done"
pypospack:output_section:done
print "pypospack:lammps_sim:done"
pypospack:lammps_sim:done
#------------------------------------------------------------------------------
# RUN THERMOSTAT
# running using an NPT Nose-Hoover style thermostat
#------------------------------------------------------------------------------
variable tempdamp equal 0.1
variable pressdamp equal 1.0
# set initial velocities
velocity all create 1400 4192371 mom yes dist gaussian loop all
# fix for Nose-Hoover style thermostat
fix 20 all npt temp 1400 1400 0.1 aniso 0.0 0.0 1.0 drag 1.0 couple xyz
variable boxx equal lx
variable boxy equal ly
variable boxz equal lz
variable boxp equal press
variable boxt equal temp
# calculate averages every 10000 steps
reset_timestep 0
fix 21 all ave/time 10 10 100 v_boxx v_boxy v_boxz v_boxp v_boxt file lattice.out
thermo_style custom step temp pe ke etotal press lx ly lz press pxx pyy pzz pxy pxz pyz vol
thermo_modify flush yes
thermo 100
run 100000
PPPM initialization ...
  G vector (1/distance) = 0.352409
  grid = 8 8 8
  stencil order = 5
  estimated absolute RMS force accuracy = 4.075e-05
  estimated relative force accuracy = 2.82993e-06
  using double precision FFTs
  3d grid and FFT values/proc = 3375 512
Memory usage per processor = 3.06549 Mbytes
Step Temp PotEng KinEng TotEng Press Lx Ly Lz Press Pxx Pyy Pzz Pxy Pxz Pyz Volume 
       0         1400   -112.63601    1.2667494   -111.36926    16949.285    4.3051131    4.3051131    4.3051131    16949.285    19824.428     14058.18    16965.248    2041.9655   -4254.4335   -10630.112    79.790959 
     100    343.32576    -111.5289   0.31064837   -111.21825    26034.484     4.341088     4.341088     4.341088    26034.484    31794.242     29576.75     16732.46     2205.224    446.39139    14402.616    81.807999 
     200    1048.5416   -111.80893   0.94874251   -110.86019   -42778.949    4.3857613    4.3857613    4.3857613   -42778.949   -47671.187   -45895.848   -34769.813   -2581.4936     695.5245   -2034.3313    84.359691 
     300    963.55882   -111.42984   0.87184827   -110.55799    1450.4297    4.3793916    4.3793916    4.3793916    1450.4297    24207.444    11235.667   -31091.822    13247.686     3271.845   -92.332261    83.992662 
     400    1132.7842   -111.33448    1.0249669   -110.30952    14025.129    4.3604465    4.3604465    4.3604465    14025.129   -14048.567    39119.205    17004.748   -5854.9695    4740.5597   -4979.4661    82.907323 
     500    1376.5921   -111.41596    1.2455695   -110.17039    24222.949    4.3753269    4.3753269    4.3753269    24222.949    45220.244    21135.489    6313.1154    169.10506     12195.93   -8551.3411    83.759006 
     600    1472.9442   -111.42244    1.3327508   -110.08969   -15022.041    4.3996458    4.3996458    4.3996458   -15022.041   -40345.154    28590.022   -33310.992    5720.2368   -2600.1614    -940.8468    85.163431 
     700    1034.3652   -110.98005   0.93591539   -110.04414   -3330.3791    4.3939011    4.3939011    4.3939011   -3330.3791   -22137.088   -15955.673    28101.624   -10363.727    11993.277   -8124.7911    84.830267 
     800    1481.4668   -111.38194    1.3404623   -110.04148    28005.858    4.3646029    4.3646029    4.3646029    28005.858    25001.903    51261.839    7753.8304    11037.985   -3197.1948   -12660.095    83.144632 
     900    1252.0802   -111.21233    1.1329084   -110.07942    34988.373    4.3545442    4.3545442    4.3545442    34988.373   -2160.7979    75659.305    31466.613   -8443.0702   -10411.837    -6241.606    82.571107 
    1000    1297.6383   -111.28803    1.1741304    -110.1139   -19141.144    4.3900653    4.3900653    4.3900653   -19141.144   -10402.368   -16174.954   -30846.109   -4307.1145    11924.526   -17054.898    84.608292 
    1100      1259.64   -111.21392    1.1397487   -110.07417   -14927.702    4.3935791    4.3935791    4.3935791   -14927.702   -64209.588    16276.931    3149.5511    6466.9976   -16397.044   -1712.0705    84.811616 
    1200    1534.5536   -111.43668    1.3884963   -110.04818    8864.7569    4.3653966    4.3653966    4.3653966    8864.7569    19790.662    -21175.62    27979.228   -14010.237    7209.0546    -19349.26    83.190001 
    1300    1615.2087   -111.52665    1.4614747   -110.06518   -3899.8574    4.3695171    4.3695171    4.3695171   -3899.8574   -24082.838    8444.5486    3938.7166    9998.7216    639.72732    30318.029     83.42579 
    1400    1212.8371   -111.17585    1.0974005   -110.07845   -3009.8721     4.385881     4.385881     4.385881   -3009.8721   -22082.786    16823.481   -3770.3107   -6257.3386   -1634.2247    -9158.774    84.366599 
    1500    1570.6955   -111.50499    1.4211983   -110.08379   -15584.977    4.3907988    4.3907988    4.3907988   -15584.977   -10076.076   -32330.749   -4348.1066   -7925.6464   -770.30303    9831.1706    84.650708 
    1600    1578.4437   -111.50812    1.4282091   -110.07991   -1180.8856    4.3943171    4.3943171    4.3943171   -1180.8856   -4873.4587     38584.55   -37253.749    3101.8925    733.20576    6330.1569    84.854366 
    1700    1727.0202   -111.61032    1.5626441   -110.04767   -16021.568    4.3946846    4.3946846    4.3946846   -16021.568   -34913.338   -20636.273     7484.908    4067.4974    15702.051   -11712.258    84.875653 
    1800    1230.7191   -111.13875    1.1135805   -110.02517    7063.9995    4.3871661    4.3871661    4.3871661    7063.9995    17484.467    8642.8477   -4935.3164    -8690.784    3315.2327    5008.3828    84.440778 
    1900    1805.3123   -111.66457    1.6334846   -110.03109   -10494.577    4.3838212    4.3838212    4.3838212   -10494.577   -22472.539    4186.1489   -13197.341   -2934.5551   -5332.3963    6536.7471    84.247788 
    2000    966.24945   -110.93249   0.87428281   -110.05821    23562.346     4.399678     4.399678     4.399678    23562.346    35166.942     -15739.4    51259.495     3086.529   -7742.3619   -10741.115      85.1653 
    2100     1819.923   -111.68523    1.6467045   -110.03853   -34579.541    4.4084255    4.4084255    4.4084255   -34579.541   -56027.626   -54752.865     7041.867    3876.4847   -11394.608   -4164.5326    85.674288 
    2200    1089.9901   -111.01019   0.98624599   -110.02395    28999.415    4.3894507    4.3894507    4.3894507    28999.415    12181.675   -37556.872    112373.44   -6757.9734    -6331.799   -9009.4379    84.572765 
    2300    1467.1304   -111.37175    1.3274904   -110.04426   -19506.872    4.3846895    4.3846895    4.3846895   -19506.872   -20738.487   -13111.434   -24670.694     8191.411    3508.2554   -5016.8751    84.297857 
    2400    1432.1417   -111.35625    1.2958319   -110.06041   -7146.9773    4.3876245    4.3876245    4.3876245   -7146.9773    1460.9855    -52339.24    29437.323   -4156.3634    5699.7332    17301.414     84.46725 
    2500    1266.0209   -111.20977    1.1455223   -110.06425    23038.863     4.388976     4.388976     4.388976    23038.863    20143.546   -10484.034    59457.076   -7579.6529    15823.653   -9276.5765    84.545329 
    2600    1228.9436   -111.18058     1.111974   -110.06861    2711.2979    4.4028288    4.4028288    4.4028288    2711.2979   -56390.217   -43221.005    107745.12    4530.7125    5058.6915    15166.707      85.3484 
    2700     1257.726   -111.19268    1.1380169   -110.05466   -13544.762    4.4070855    4.4070855    4.4070855   -13544.762   -45265.567   -35996.632    40627.912   -932.56218    12115.704    3848.8015    85.596187 
    2800    1579.0333   -111.46389    1.4287425   -110.03515   -23451.323    4.3867446    4.3867446    4.3867446   -23451.323    -40581.73   -36155.481    6383.2439    6349.7218    19058.107   -2754.4015    84.416446 
    2900     1033.853   -110.99129   0.93545193   -110.05584    31008.387    4.3646044    4.3646044    4.3646044    31008.387   -18257.164   -44789.685    156072.01   -3349.5437    9452.4749    34493.995    83.144716 
    3000    1367.8002   -111.33281    1.2376144    -110.0952    21211.544    4.3756028    4.3756028    4.3756028    21211.544     3075.818    2711.3945    57847.419   -4391.5216   -192.18523     12366.57     83.77485 
    3100    1795.5303   -111.71651    1.6246336   -110.09187   -28275.418     4.395688     4.395688     4.395688   -28275.418   -30067.215   -32755.637   -22003.403    3273.2498   -3201.5797    3280.6338    84.933806 
    3200    1546.8965   -111.46532    1.3996644   -110.06566   -37297.325    4.4034817    4.4034817    4.4034817   -37297.325   -37491.799   -66013.022   -8387.1534   -6775.0551    -379.8809    18198.982    85.386375 
    3300    1144.7656   -111.07351    1.0358079    -110.0377    26462.714    4.3902809    4.3902809    4.3902809    26462.714   -26528.209     18374.13    87542.221    6396.3671   -5550.7292   -15049.894    84.620763 
    3400    1179.8382   -111.11352    1.0675424   -110.04598    14968.078    4.3865293    4.3865293    4.3865293    14968.078   -53271.171   -2763.4008    100938.81   -313.03859   -2595.7832    5314.1764    84.404014 
    3500    1528.1415   -111.44976    1.3826945   -110.06707   -3603.7373    4.3887937    4.3887937    4.3887937   -3603.7373   -68836.729    21247.098    36778.419    5629.1848    4949.0229   -20007.317    84.534794 
    3600    1612.0245   -111.54055    1.4585936   -110.08196    -14843.37    4.3932953    4.3932953    4.3932953    -14843.37   -56184.558    17909.399   -6254.9501    3954.1688    3855.5352     5797.938    84.795185 
    3700    1161.9529   -111.13145    1.0513594   -110.08009    4132.7588    4.3849282    4.3849282    4.3849282    4132.7588   -44367.664    21744.081    35021.859    3925.2742   -6191.6363    28472.532    84.311623 
    3800    1538.1044   -111.47686    1.3917092   -110.08515    5992.9967    4.3806598    4.3806598    4.3806598    5992.9967   -54562.774    27422.975    45118.789   -531.18791    1643.6416    30666.194    84.065653 
    3900    1526.9181   -111.47232    1.3815876   -110.09073   -1053.2543    4.3849266    4.3849266    4.3849266   -1053.2543   -62123.556    15094.325    43869.469   -2215.2414    11778.665   -5466.5508     84.31153 
    4000     1190.207   -111.16773    1.0769243    -110.0908   -826.21246    4.3753121    4.3753121    4.3753121   -826.21246   -46503.478    18204.043    25820.797   -218.80235   -12800.021    12562.974    83.758155 
    4100    1223.7629   -111.19498    1.1072864    -110.0877    20643.995    4.3651023    4.3651023    4.3651023    20643.995   -1794.7536    39549.361    24177.379   -1725.4875    2344.7332    3007.8326    83.173177 
    4200    1726.3952   -111.65958    1.5620786    -110.0975   -25969.719     4.378632     4.378632     4.378632   -25969.719   -47459.443   -44147.399    13697.686   -1274.6529    2152.4484    3228.9061    83.948963 
    4300    1085.8769    -111.0715   0.98252425   -110.08897   -10210.303    4.3963927    4.3963927    4.3963927   -10210.303   -38112.988    23274.448   -15792.368    7757.4072   -12617.681     19947.25    84.974662 
    4400    1433.7295     -111.354    1.2972686   -110.05673    5744.9041    4.3881719    4.3881719    4.3881719    5744.9041   -49143.759    -29327.51    95705.981   -9448.4562    1610.4993   -14488.813    84.498868 
    4500    1324.3309   -111.25035    1.1982824   -110.05207    10234.899    4.3764963    4.3764963    4.3764963    10234.899   -48098.879    76928.337    1875.2409    1041.8717    8073.5552   -11647.166    83.826187 
    4600    1394.9592   -111.32606    1.2621884   -110.06387   -24905.317    4.3813696    4.3813696    4.3813696   -24905.317   -42637.458   -40529.383    8450.8898   -4013.7897   -5492.2398    9312.1959    84.106523 
    4700    1406.6414   -111.33395    1.2727587   -110.06119   -1027.3424    4.3795768    4.3795768    4.3795768   -1027.3424   -35287.534    38154.191   -5948.6845     3446.817   -6060.8003    377.25183     84.00332 
    4800    1228.0398   -111.18412    1.1111562   -110.07296   -5527.9514    4.3801671    4.3801671    4.3801671   -5527.9514   -8052.0086   -40351.109    31819.264    1559.3413   -16268.795    30373.942    84.037291 
    4900    1579.4412   -111.49612    1.4291116   -110.06701   -3682.9829    4.3701151    4.3701151    4.3701151   -3682.9829   -15752.705   -16358.605    21062.361   -7090.3419   -21426.242   -1717.5227    83.460047 
    5000    1408.0183   -111.35196    1.2740045   -110.07796   -1341.2231    4.3793328    4.3793328    4.3793328   -1341.2231   -25482.261   -26228.196    47686.788    20278.183   -7663.4826    6724.8962    83.989279 
    5100    1044.0999   -111.01006   0.94472356   -110.06533   -27310.487    4.3904776    4.3904776    4.3904776   -27310.487   -43624.714    -17068.72   -21238.027   -4792.1297   -8602.7472    34355.894    84.632137 
    5200    1954.3412   -111.80361     1.768329   -110.03528   -32606.095    4.3753179    4.3753179    4.3753179   -32606.095   -56891.988   -12414.903   -28511.393    6350.4593    -17838.89    11.762066    83.758489 
    5300    1802.5611   -111.68604    1.6309952   -110.05504   -10596.134    4.3713115    4.3713115    4.3713115   -10596.134   -33960.581   -17431.586    19603.764    7432.7589   -4963.8788    19380.778    83.528612 
    5400    1240.7931   -111.19641    1.1226957   -110.07371    347.74715    4.3830846    4.3830846    4.3830846    347.74715   -28189.969    -5799.749     35032.96   -6658.6049    8556.4674    3484.0074    84.205324 
    5500     1402.973   -111.34311    1.2694395   -110.07367   -14712.062    4.3976438    4.3976438    4.3976438   -14712.062   -38907.702   -47688.314    42459.831    16890.777    5941.2685   -3948.6444    85.047227 
    5600     1477.157   -111.40139    1.3365627   -110.06483   -15843.878    4.3805979    4.3805979    4.3805979   -15843.878   -9935.9403    16691.852   -54287.547      172.858    13429.989     14420.67    84.062091 
    5700    1810.6215   -111.70767    1.6382884   -110.06938    -2095.238    4.3713212    4.3713212    4.3713212    -2095.238   -22830.736   -18503.103    35048.125   -472.32026    -3819.477   -21.023967    83.529168 
    5800    1351.8902   -111.30122    1.2232186     -110.078   -7241.6515    4.3989859    4.3989859    4.3989859   -7241.6515   -59251.648     23482.62    14044.074    921.76118   -8935.6535    6883.1207    85.125113 
    5900    1388.0491   -111.30769     1.255936   -110.05175   -26229.323    4.3955934    4.3955934    4.3955934   -26229.323   -39531.801   -5322.1128   -33834.056   -2802.8879    2970.8707    25826.108     84.92832 
    6000    1428.3599   -111.32911    1.2924101    -110.0367    22997.973    4.3863525    4.3863525    4.3863525    22997.973   -21255.252    32450.389    57798.781   -8996.8626    8936.6712   -11547.451    84.393807 
    6100    874.28101   -110.83997   0.79106783    -110.0489     586.8223    4.4016007    4.4016007    4.4016007     586.8223   -34911.227    2767.0744     33904.62   -11396.492   -13315.053    32557.473    85.277001 
    6200    1711.7716   -111.58185     1.548847     -110.033    -29570.78     4.392531     4.392531     4.392531    -29570.78   -20030.287   -37437.662   -31244.393   -1358.0514   -884.57497    28157.617    84.750937 
    6300    991.98025   -110.94352   0.89756458   -110.04595    54378.415    4.3698403    4.3698403    4.3698403    54378.415   -21834.786    72349.228     112620.8    -3433.409    19030.565    13009.207    83.444307 
    6400    1762.5738   -111.68133    1.5948138   -110.08652    -28279.85    4.3805803    4.3805803    4.3805803    -28279.85   -15711.356   -38899.837   -30228.356    127.69026   -1490.4304   -1525.6424    84.061075 
    6500    1113.4505   -111.09694    1.0074734   -110.08947    5763.3175    4.3975988    4.3975988    4.3975988    5763.3175   -63695.754    14031.372    66954.335   -4496.3471   -6569.0713    1889.1411    85.044615 
    6600    1673.9081   -111.58012    1.5145872   -110.06553   -16328.919    4.3855374    4.3855374    4.3855374   -16328.919   -52401.408   -1166.6229    4581.2734   -14328.435    2457.5333     4104.411    84.346769 
    6700    1136.8525    -111.0839     1.028648   -110.05525    24686.252    4.3634162    4.3634162    4.3634162    24686.252    13821.575    15994.904    44242.276    10558.688   -5432.5209   -6641.2259    83.076831 
    6800    1809.1826    -111.7106    1.6369864   -110.07362   -8700.2798    4.3793298    4.3793298    4.3793298   -8700.2798   -5780.3398   -30026.174    9705.6743   -19126.219    4017.9669    3104.4669    83.989108 
    6900    809.10077   -110.80019   0.73209138    -110.0681   -2650.6745    4.4046368    4.4046368    4.4046368   -2650.6745   -53275.333    -6435.485    51758.794    5178.5241    1838.5628    19535.525    85.453587 
    7000    1784.7498   -111.66903    1.6148792   -110.05416   -20465.297    4.3733529    4.3733529    4.3733529   -20465.297   -12152.341   -31336.436   -17907.113   -3136.1541   -130.27679    15420.922    83.645691 
    7100    1201.1489   -111.14482    1.0868248     -110.058    60545.909    4.3572905    4.3572905    4.3572905    60545.909    16812.429    48251.109    116574.19   -16072.562    159.28171   -34884.939    82.727435 
    7200     1546.759   -111.47823      1.39954   -110.07869   -41731.661    4.3930926    4.3930926    4.3930926   -41731.661   -24529.659   -57903.677   -42761.648    11249.369   -8035.3717    26128.861    84.783447 
    7300     1326.001   -111.25763    1.1997935   -110.05784   -12325.683    4.3855523    4.3855523    4.3855523   -12325.683   -9260.6973    -56890.48    29174.129   -7655.3299    -9493.863    9537.0651    84.347632 
    7400     1088.536   -111.03321   0.98493027   -110.04828    57889.522    4.3717243    4.3717243    4.3717243    57889.522     90616.75    27424.684    55627.134   -12525.154   -12967.193   -24710.976    83.552279 
    7500    1577.3076   -111.49169    1.4271811   -110.06451   -3855.9556    4.3809919    4.3809919    4.3809919   -3855.9556    7001.4004   -16204.894   -2364.3729   -344.02962   -2849.0892    16596.185    84.084769 
    7600    1327.5912   -111.25762    1.2012324   -110.05639   -12701.904    4.3958723    4.3958723    4.3958723   -12701.904    18268.529   -64604.107    8229.8674   -8998.3188   -854.06481    2423.1497    84.944491 
    7700     1110.196   -111.04357    1.0045287   -110.03904    -9914.579    4.3994682    4.3994682    4.3994682    -9914.579    41946.012   -48420.261   -23269.488   -2406.6307   -14742.482   -10730.072    85.153117 
    7800    1919.8617   -111.75909    1.7371312   -110.02196   -682.96847    4.3831217    4.3831217    4.3831217   -682.96847    7978.8331   -35808.558     25780.82   -13795.075    4292.3008   -3973.3785    84.207467 
    7900    1141.9504   -111.08713    1.0332608   -110.05387    8547.8491    4.3843013    4.3843013    4.3843013    8547.8491    88192.003   -37172.333   -25376.123    4064.0048   -3821.8794   -12241.264    84.275469 
    8000    1402.8455   -111.31784    1.2693241   -110.04851   -14964.026    4.3899318    4.3899318    4.3899318   -14964.026    25149.231   -39452.459   -30588.848   -3017.7124    11067.154     9592.567    84.600578 
    8100    1379.7549   -111.29563    1.2484312    -110.0472    11909.976    4.3796348    4.3796348    4.3796348    11909.976    81607.828    -26069.46    -19808.44   -5948.2109    4947.3863   -33912.264    84.006654 
    8200    1251.7622    -111.2108    1.1326207   -110.07818      17060.8    4.3802962    4.3802962    4.3802962      17060.8    35807.288   -6546.9943    21922.106    1643.4727   -11449.525   -12315.717    84.044718 
    8300    1261.0706   -111.23152    1.1410432   -110.09047    7936.0981    4.3895693    4.3895693    4.3895693    7936.0981    76964.398   -24333.053   -28823.051   -10136.107   -5270.8028   -4673.6282    84.579622 
    8400    1116.2465   -111.09779    1.0100033   -110.08779   -7747.5963    4.3869529    4.3869529    4.3869529   -7747.5963    55242.257   -18379.342   -60105.703    16303.025   -6000.9302    -12246.49    84.428471 
    8500    1915.5584   -111.79745    1.7332375   -110.06422   -3455.1643    4.3694034    4.3694034    4.3694034   -3455.1643    23525.481   -985.91628   -32905.057    13372.882   -8218.6443   -38.192056    83.419276 
    8600    1284.9299   -111.24985    1.1626315   -110.08722   -12598.372    4.3734183    4.3734183    4.3734183   -12598.372    58957.562   -36915.735   -59836.943   -14931.004    2109.7257   -30609.795    83.649442 
    8700    1440.2255   -111.39894    1.3031463    -110.0958   -988.38075     4.373437     4.373437     4.373437   -988.38075    66109.619   -18251.221    -50823.54   -5193.4137   -8625.6309    6493.4692    83.650516 
    8800    1308.4416    -111.2905    1.1839054    -110.1066   -5136.0182    4.3712231    4.3712231    4.3712231   -5136.0182    38128.928   -11077.868   -42459.114     3903.235    4794.9772   -13577.121    83.523544 
    8900    1146.2843   -111.13613    1.0371821   -110.09895    15563.244    4.3789872    4.3789872    4.3789872    15563.244    83197.304    -3868.356   -32639.216   -14297.321    12633.708    884.28978    83.969394 
    9000     1627.031   -111.55134    1.4721718   -110.07916   -31839.768    4.3937362    4.3937362    4.3937362   -31839.768   -3796.7822   -22360.723   -69361.799    7223.4757   -3640.9081   -17563.665    84.820718 
    9100    1414.6354   -111.34074    1.2799918   -110.06075   -9431.6539    4.3827774    4.3827774    4.3827774   -9431.6539    86536.103   -45607.973   -69223.092    7255.3268    -5044.473    -19161.45     84.18762 
    9200     1509.519   -111.42226    1.3658445   -110.05641    18425.071    4.3533977    4.3533977    4.3533977    18425.071    8436.2702     35008.88    11830.064   -28190.378    8677.9164    2117.9546    82.505904 
    9300    1031.1245    -111.0338   0.93298315   -110.10082    11169.766    4.3641877    4.3641877    4.3641877    11169.766     72838.76    6328.2959   -45657.758    2606.5709    7707.7513   -18943.608    83.120904 
    9400    1989.4439   -111.89114    1.8000906   -110.09105   -30875.248    4.3945378    4.3945378    4.3945378   -30875.248    10934.831   -44320.432   -59240.144   -8157.3409   -2122.9269    1024.2623    84.867151 
    9500    1094.8088   -111.06796   0.99060604   -110.07735    7413.2703    4.3793481    4.3793481    4.3793481    7413.2703    5193.4048    40218.537   -23172.131   -11443.875    20620.458   -6815.8823    83.990157 
    9600    1721.5142    -111.6097    1.5576623   -110.05203    9300.6231    4.3669016    4.3669016    4.3669016    9300.6231    4552.6497   -15387.051    38736.271    11763.201    606.24032    -22571.63    83.276067 
    9700    1272.8073   -111.21504    1.1516628   -110.06338   -692.93727    4.3815988    4.3815988    4.3815988   -692.93727   -12150.251    12724.106   -2652.6664   -10019.186    3958.4584   -1037.2583    84.119723 
    9800     1112.194   -111.05837    1.0063365   -110.05204    6279.2346    4.3800588    4.3800588    4.3800588    6279.2346   -13702.013    34754.378   -2214.6613    452.37628    6547.3786   -10802.635    84.031057 
    9900    2032.2829   -111.87551    1.8388523   -110.03665   -1980.5975    4.3815659    4.3815659    4.3815659   -1980.5975   -7474.7338    -29091.87    30624.811    12370.991   -24312.944   -10669.514    84.117828 
   10000    726.01675   -110.70626   0.65691522   -110.04934    13658.844    4.3873473    4.3873473    4.3873473    13658.844    13161.925    12524.885    15289.724   -10409.584   -4078.7481   -14228.748    84.451242 
   10100     1389.082   -111.29356    1.2568706   -110.03669    7120.3112    4.3827365    4.3827365    4.3827365    7120.3112     27649.76    63.406141   -6352.2322    7120.6929   -13491.366   -16308.121    84.185266 
   10200    1665.0021   -111.53701    1.5065288   -110.03048    8025.6599    4.3849254    4.3849254    4.3849254    8025.6599      32853.5   -42539.978    33763.457    3300.0966   -28262.212   -7425.1013    84.311466 
   10300    856.68898   -110.81833   0.77515019   -110.04318    24093.263    4.3931747    4.3931747    4.3931747    24093.263    71242.503    10982.586    -9945.299   -19440.228    -9082.065   -9514.7418    84.788202 
   10400    1331.2955   -111.22889    1.2045841    -110.0243    21511.945    4.3940709    4.3940709    4.3940709    21511.945    25851.315   -13475.495    52160.014    5587.0715   -11326.863    1337.6974    84.840099 
   10500     728.5284   -110.68622    0.6591878   -110.02704    28064.803    4.3792906    4.3792906    4.3792906    28064.803    110941.46    4012.3409   -30759.395    11979.378   -7198.5252   -6900.6035    83.986852 
   10600    1541.8518   -111.44194    1.3950999   -110.04684     2896.538    4.3708473    4.3708473    4.3708473     2896.538    28116.727   -31144.734    11717.621   -1175.2886    3705.5518    5103.6396    83.502005 
   10700    1694.3087   -111.59944    1.5330461    -110.0664     4901.146    4.3853558    4.3853558    4.3853558     4901.146    4763.1962    136.52245    9803.7192   -11508.375   -532.66065   -8378.9074    84.336293 
   10800    1453.4145   -111.37103      1.31508   -110.05595   -60559.811    4.4110458    4.4110458    4.4110458   -60559.811   -55073.486   -47595.992   -79009.954   -71.264247    3299.4065   -5223.8836    85.827153 
   10900     1854.233   -111.69598     1.677749   -110.01823    -27480.31    4.3900853    4.3900853    4.3900853    -27480.31   -9221.3778   -29384.934   -43834.618    5233.4498   -6847.5619    12683.844    84.609451 
   11000    1623.1719   -111.48089    1.4686801   -110.01221    22069.245    4.3602158    4.3602158    4.3602158    22069.245    70902.241    13973.698   -18668.205    18335.921    521.14861     -14661.4    82.894164 
   11100    1175.6466   -111.12847    1.0637497   -110.06472     7274.934    4.3767975    4.3767975    4.3767975     7274.934     89410.45   -18383.137   -49202.511   -13043.648    14054.004    9402.1252    83.843495 
   11200    1177.0388     -111.128    1.0650095   -110.06299   -11613.603    4.3949576    4.3949576    4.3949576   -11613.603    72652.657   -40881.329   -66612.136   -3840.7966    15054.237   -22381.966    84.891473 
   11300     1674.069    -111.5481    1.5147328   -110.03337    -2032.798    4.3843431    4.3843431    4.3843431    -2032.798     47664.99   -29647.621   -24115.763   -3737.6618    9862.8182    5593.2011    84.277879 
   11400    1326.1604   -111.24618    1.1999378   -110.04624   -11150.718    4.3843328    4.3843328    4.3843328   -11150.718   -10468.611    29496.104   -52479.646    13737.127      25131.1    -2044.776    84.277287 
   11500    1646.1401   -111.53981    1.4894621   -110.05035   -13892.886    4.3790397    4.3790397    4.3790397   -13892.886   -778.22712    2975.9436   -43876.375     -18602.2    12305.807   -356.48785    83.972416 
   11600    1314.7729   -111.24802    1.1896341   -110.05838    2544.2537    4.3837113    4.3837113    4.3837113    2544.2537    69192.475    -22093.41   -39466.303    532.46495    19935.924   -851.28713    84.241452 
   11700    993.02388   -110.94864   0.89850888   -110.05014   -4439.8967    4.3926064    4.3926064    4.3926064   -4439.8967    97191.217   -49450.885   -61060.023    5414.0361    21901.419   -27259.055    84.755298 
   11800    1284.5557   -111.18356     1.162293   -110.02126    18479.444    4.3834371    4.3834371    4.3834371    18479.444    89193.447   -19410.993   -14344.121   -16340.994     9720.289    12962.846    84.225646 
   11900    810.70099   -110.75922   0.73353929   -110.02568    31926.063    4.3804248    4.3804248    4.3804248    31926.063    69404.897    24447.318    1925.9733   -3300.4251    11145.342   -18596.943    84.052125 
   12000    1308.0923   -111.20856    1.1835894   -110.02497    3882.9507    4.3913594    4.3913594    4.3913594    3882.9507    65034.462     10645.67    -64031.28   -24948.761     8609.311   -6096.4645    84.683139 
   12100    1577.1279   -111.45689    1.4270185   -110.02987   -632.72772    4.3866756    4.3866756    4.3866756   -632.72772   -4716.6416    39674.766   -36856.308   -23808.463   -2580.0358   -7773.0905    84.412462 
   12200    1168.0358   -111.09678    1.0568633   -110.03992    15537.542    4.3746801    4.3746801    4.3746801    15537.542    44047.502    7211.1303   -4646.0048   -8468.1245    1050.7524   -16649.966    83.721869 
   12300    1645.5438   -111.53298    1.4889226   -110.04406   -1582.7706    4.3708016    4.3708016    4.3708016   -1582.7706   -19148.994     42270.76   -27870.078   -2572.2022   -8801.9257     15836.62    83.499386 
   12400    1258.1024   -111.20567    1.1383575   -110.06731   -6914.5638    4.3626741    4.3626741    4.3626741   -6914.5638     9231.293   -6316.8862   -23658.098    15953.145   -5555.2364   -19554.858    83.034452 
   12500    1275.1075   -111.23541    1.1537441   -110.08167    23945.843    4.3637577    4.3637577    4.3637577    23945.843   -9798.6766    73875.007    7761.1974   -6613.7565   -3031.9679    6108.0384     83.09634 
   12600    1505.4384   -111.44109    1.3621523   -110.07894   -6166.3494    4.3851705    4.3851705    4.3851705   -6166.3494   -7968.4236    21625.443   -32156.067    7494.0591   -4404.4867   -1200.7019    84.325602 
   12700     1420.233   -111.34769    1.2850567   -110.06263   -42606.292    4.3810571    4.3810571    4.3810571   -42606.292   -4369.1414   -35481.527   -87968.207    2125.4209   -7319.7943   -40459.982    84.088524 
   12800    1609.1767   -111.50098    1.4560169   -110.04496    32295.875    4.3512186    4.3512186    4.3512186    32295.875   -4469.7919     85151.64    16205.776   -8817.1205   -9730.6244     2938.259    82.382072 
   12900    1316.0191   -111.26808    1.1907618   -110.07732    15267.489    4.3689414    4.3689414    4.3689414    15267.489    42787.111    7984.4955   -4969.1389    1934.5231    7574.9652   -16502.678    83.392819 
   13000    1260.5721   -111.21325    1.1405921   -110.07266   -25758.463    4.3852368    4.3852368    4.3852368   -25758.463   -17293.341    15228.011   -75210.059    7180.4786   -22579.344   -23315.791    84.329428 
   13100    1717.9128   -111.60687    1.5544036   -110.05247    4961.2246    4.3655712    4.3655712    4.3655712    4961.2246   -28387.698     44247.14   -975.76787   -11526.484   -12822.582    12704.746    83.199983 
   13200    1326.7322     -111.266    1.2004552   -110.06554   -3418.5439    4.3668193    4.3668193    4.3668193   -3418.5439    14730.674    3216.0492   -28202.355   -12808.324    1876.9367   -20376.752    83.271362 
   13300    1276.1576   -111.23393    1.1546942   -110.07924   -7314.0082    4.3824377    4.3824377    4.3824377   -7314.0082   -29511.388    38017.822    -30448.46    6469.6117   -19702.845   -1988.5273    84.168049 
   13400    1563.6849   -111.47753     1.414855   -110.06268   -5100.2801    4.3891007    4.3891007    4.3891007   -5100.2801   -23500.503    10889.894   -2690.2309   -1842.2369    1675.1285    1531.1443    84.552536 
   13500    1351.8543   -111.28067    1.2231861   -110.05748   -20682.141    4.3675367    4.3675367    4.3675367   -20682.141   -22723.663    14409.663   -53732.423   -10552.874   -15920.096    -32686.88    83.312407 
   13600    1431.3635   -111.36375    1.2951278   -110.06862    4320.9887    4.3556319    4.3556319    4.3556319    4320.9887    2556.9062    34578.207   -24172.147     14882.18   -3159.8172    3331.2104    82.632995 
   13700    1199.7576   -111.18056    1.0855659   -110.09499    7490.6772    4.3897221    4.3897221    4.3897221    7490.6772   -18894.369    69701.032   -28334.631    -19967.93    944.84226   -12542.198    84.588453 
   13800    896.72809   -110.86367   0.81137842   -110.05229   -18277.721    4.4052012    4.4052012    4.4052012   -18277.721   -25067.838    8486.4644   -38251.789   -16663.252   -21101.918   -32949.523    85.486444 
   13900    1757.8935   -111.59076     1.590579   -110.00018    12547.134    4.3712829    4.3712829    4.3712829    12547.134    27268.123   -346.38324    10719.663    8664.4907   -13664.594    6682.5721    83.526972 
   14000    1409.4859   -111.30149    1.2753324   -110.02616   -13504.268    4.3683081    4.3683081    4.3683081   -13504.268   -22992.938    12606.159   -30126.026     7502.644   -8381.8593   -18025.872    83.356562 
   14100    1364.8901   -111.28204    1.2349812   -110.04706   -23384.585     4.385828     4.385828     4.385828   -23384.585   -13685.768   -52415.117   -4052.8704    4441.5209    -11635.98   -13461.629    84.363541 
   14200     1643.554   -111.53548    1.4871222   -110.04836    12168.377    4.3846923    4.3846923    4.3846923    12168.377    7512.9575    50437.522   -21445.347    9239.5244    -14897.71    14737.538    84.298021 
   14300    1321.7133   -111.25323     1.195914   -110.05731   -32638.069    4.3866396    4.3866396    4.3866396   -32638.069    -44100.97   -9018.8093   -44794.428   -4085.3954   -5088.9665   -26604.853     84.41038 
   14400    1734.0567   -111.60918     1.569011   -110.04017   -79.375776    4.3727493    4.3727493    4.3727493   -79.375776   -21326.613     53687.38   -32598.894    14836.849   -8405.5312    1102.6376    83.611062 
   14500    1576.9479   -111.47881    1.4268556   -110.05195    4883.5189    4.3836614    4.3836614    4.3836614    4883.5189   -11608.737    42045.437   -15786.144   -3149.7432   -10434.358    18241.713    84.238574 
   14600    1615.2417   -111.48925    1.4615046   -110.02775   -28707.061    4.4070828    4.4070828    4.4070828   -28707.061   -50013.288    13514.163   -49622.058    1175.9492    -10888.38   -10779.215    85.596033 
   14700       1493.6   -111.35669    1.3514406   -110.00525   -4121.7602    4.3947595    4.3947595    4.3947595   -4121.7602     4969.118    14727.885   -32062.283    7337.1758    15311.915   -1196.6096    84.879995 
   14800    1139.6847   -111.04714    1.0312107   -110.01593    22078.442    4.3780228    4.3780228    4.3780228    22078.442    313.31582    43952.388    21969.621   -883.89049    3180.5708   -3181.2257    83.913928 
   14900     1954.982   -111.81046    1.7689088   -110.04155   -12164.411    4.3889984    4.3889984    4.3889984   -12164.411    -12728.66   -28099.547    4334.9742    -12030.69    9048.4742    4280.3205    84.546622 
   15000    893.60851   -110.86798   0.80855576   -110.05942   -25928.976    4.4057913    4.4057913    4.4057913   -25928.976   -66634.818    35729.021    -46881.13   -13517.866   -6466.5217    35759.701      85.5208 
   15100    1298.3095   -111.21721    1.1747377   -110.04247    1493.9135     4.380634     4.380634     4.380634    1493.9135   -5885.7965    54748.448    -44380.91    228.93042   -6596.4294    2743.1306    84.064165 
   15200    1400.1822   -111.31529    1.2669142   -110.04838     32214.71    4.3610562    4.3610562    4.3610562     32214.71    2141.6815    77594.561    16907.888   -74.529354     8346.481    31875.266    82.942103 
   15300    1132.7649   -111.12022    1.0249495   -110.09527   -8658.4145    4.3860884    4.3860884    4.3860884   -8658.4145   -8699.3168    3256.3011   -20532.228   -13567.504   -3502.1138    19167.859    84.378566 
   15400    1860.8985   -111.74494    1.6837801   -110.06116   -48089.204    4.4037576    4.4037576    4.4037576   -48089.204   -34313.299    -65587.95   -44366.363    2164.4499    12111.432   -1352.9097    85.402429 
   15500    1157.7204   -111.09338    1.0475298   -110.04585    6624.1518    4.3793018    4.3793018    4.3793018    6624.1518    68403.367   -7209.4225   -41321.489   -12705.275   -2906.8821    20521.377    83.987498 
   15600    1935.8669   -111.77774     1.751613   -110.02613   -6143.9077     4.363763     4.363763     4.363763   -6143.9077    8702.4359    -15139.99   -11994.169     71.22071   -5831.7583   -1240.7746    83.096643 
   15700     1143.159   -111.08859    1.0343543   -110.05423    6842.7226    4.3877387    4.3877387    4.3877387    6842.7226     15743.18    -12450.33    17235.318    19657.702   -102.67075   -4435.6673    84.473847 
   15800    987.92316   -110.93266   0.89389364   -110.03877   -15426.032     4.396752     4.396752     4.396752   -15426.032   -34178.697    27537.289   -39636.688   -9068.5649   -27019.712    13283.208    84.995493 
   15900    1824.6218    -111.6729    1.6509561   -110.02195   -16686.369    4.3704674    4.3704674    4.3704674   -16686.369   -21691.973   -1474.0857   -26893.049    18443.949   -13032.525   -12355.478    83.480232 
   16000    937.71269   -110.91634   0.84846215   -110.06788    19219.619    4.3632335    4.3632335    4.3632335    19219.619    63351.453    10718.789   -16411.384   -12244.818   -10245.046    27552.902    83.066396 
   16100    1333.3751   -111.30335    1.2064658   -110.09688    912.10132    4.3804454    4.3804454    4.3804454    912.10132   -38014.548    5488.4019     35262.45    13062.149   -21413.126    10116.107    84.053308 
   16200    1497.5518   -111.43423    1.3550164   -110.07921    -19542.19    4.3990363    4.3990363    4.3990363    -19542.19    28603.311     -47645.9   -39583.981    11553.165    1491.5022    9216.0012    85.128041 
   16300     1317.576   -111.23477    1.1921704   -110.04259   -25269.119    4.3983019    4.3983019    4.3983019   -25269.119   -29909.201    -5319.032   -40579.123    9831.3401   -12185.679    14746.334    85.085415 
   16400    1083.3786   -111.00278   0.98026372   -110.02251    30095.945    4.3725593    4.3725593    4.3725593    30095.945     22225.27     29180.23    38882.336    22126.103   -13534.557    1717.4331    83.600161 
   16500    1634.7791   -111.51971    1.4791825   -110.04053   -10344.817    4.3690529    4.3690529    4.3690529   -10344.817    13835.892     -2985.39   -41884.952    16250.877    1924.4668    28732.136    83.399206 
   16600    1251.9743   -111.19188    1.1328127   -110.05907    5112.6832    4.3857103    4.3857103    4.3857103    5112.6832    26917.155    26911.422   -38490.527    4853.4976   -13366.633    766.60245    84.356746 
   16700    1276.6986   -111.20884    1.1551838   -110.05366     -9334.88    4.3838871    4.3838871    4.3838871     -9334.88   -24944.396   -10049.662    6989.4178   -18011.117   -3377.2788    7565.4898    84.251588 
   16800    1387.9256   -111.30287    1.2558243   -110.04705   -7816.5527    4.3796902    4.3796902    4.3796902   -7816.5527    31712.401    -7710.422   -47451.637    14051.564   -11859.572    12856.144    84.009845 
   16900    1676.3372   -111.56322    1.5167851   -110.04644     3610.451    4.3786996    4.3786996    4.3786996     3610.451    13188.677   -340.30101   -2017.0232    -8850.883   -1452.5644   -17786.417    83.952852 
   17000    1514.3463   -111.42917    1.3702123   -110.05895   -22844.136    4.3982675    4.3982675    4.3982675   -22844.136   -14829.548   -33371.893   -20330.968   -677.19217   -6861.4851    11565.324    85.083413 
   17100    1985.6657   -111.81742     1.796672   -110.02075   -39837.718    4.4112581    4.4112581    4.4112581   -39837.718   -43010.026   -55590.209   -20912.919    12362.735   -13908.152   -17934.976    85.839543 
   17200    1206.8778   -111.09244    1.0920084   -110.00043    2322.1237    4.3939016    4.3939016    4.3939016    2322.1237    5299.9312   -8740.5213    10406.961    6585.6739   -19710.961    3688.7987    84.830297 
   17300    2162.3931   -111.94455    1.9565787   -109.98798   -24553.071    4.3818475    4.3818475    4.3818475   -24553.071   -17576.447    -10895.39   -45187.378    1785.3991    -10813.57   -12558.311    84.134048 
   17400    1542.9026   -111.42094    1.3960507   -110.02489    8719.4325    4.3832689    4.3832689    4.3832689    8719.4325    20663.656   -5902.0941    11396.735    17069.118   -19108.712   -13553.226    84.215949 
   17500     1281.344   -111.20687     1.159387   -110.04748   -1711.5816    4.4018038    4.4018038    4.4018038   -1711.5816   -2823.3574    -1694.019   -617.36834    5571.7719   -17349.178    4737.0119    85.288806 
   17600    1665.0745   -111.52193    1.5065944   -110.01533   -26392.179    4.4064232    4.4064232    4.4064232   -26392.179   -22848.159   -6666.9172   -49661.461    9956.4201    1878.0122   -8808.7986    85.557602 
   17700    1671.4023   -111.51784    1.5123199   -110.00552   -11879.277    4.3771383    4.3771383    4.3771383   -11879.277   -13267.037   -24088.217     1717.422   -2140.8703    5107.9452    9414.9152    83.863082 
   17800     1475.939   -111.36705    1.3354606   -110.03159    23707.152     4.369375     4.369375     4.369375    23707.152    48540.391     3267.383    19313.683    1797.4819   -5385.4435    1702.4712    83.417649 
   17900    1228.1316   -111.17514    1.1112393    -110.0639   -14287.276    4.3908398    4.3908398    4.3908398   -14287.276   -25612.037   -30894.596    13644.805    16920.782    11358.197    9933.3981     84.65308 
   18000    1176.4272   -111.10801     1.064456   -110.04356   -4419.8507    4.3840223    4.3840223    4.3840223   -4419.8507    26969.996    -41060.92    831.37194   -6031.9618    12034.005    20123.352    84.259381 
   18100    1934.6654   -111.77804    1.7505259   -110.02751   -8179.8773    4.3722783    4.3722783    4.3722783   -8179.8773   -41850.197    16421.727     888.8384   -5801.0938    7651.0566   -2150.2004    83.584046 
   18200    869.96545   -110.83548   0.78716302   -110.04832    1308.0285    4.3903881    4.3903881    4.3903881    1308.0285     32121.86   -19639.414   -8558.3602    683.74098    7847.6661    43918.073     84.62696 
   18300    1422.2787   -111.30768    1.2869077   -110.02077   -9265.7836    4.3831454    4.3831454    4.3831454   -9265.7836    2772.8971   -40033.468    9463.2203   -6345.9074   -3978.8222    21015.456    84.208832 
   18400    1792.1982   -111.63675    1.6216186   -110.01514   -28534.372    4.3747743    4.3747743    4.3747743   -28534.372   -48012.861    -33986.63   -3603.6241    6864.1664    19688.719   -13196.136    83.727274 
   18500    962.63315   -110.90811    0.8710107    -110.0371    7733.0043    4.3803402    4.3803402    4.3803402    7733.0043    14501.122   -38301.924    46999.815   -33.467605   -1332.6083    35719.335    84.047252 
   18600    1431.9643   -111.34061    1.2956714   -110.04493    14225.792    4.3806466    4.3806466    4.3806466    14225.792    -36879.23    58430.637    21125.969    2480.8619    5192.3704    11852.686    84.064891 
   18700    1555.2761   -111.46149    1.4072465   -110.05424    -36583.85    4.3896299    4.3896299    4.3896299    -36583.85   -31298.979   -35083.238   -43369.334    1703.0652    5032.4668    2506.1364    84.583126 
   18800    1369.4983   -111.28492    1.2391509   -110.04577   -14689.597    4.3749024    4.3749024    4.3749024   -14689.597   -39920.698    20478.096    -24626.19    3323.7606    8530.9462    23105.156    83.734629 
   18900    1303.0662   -111.22945    1.1790417   -110.05041    39636.357    4.3572116    4.3572116    4.3572116    39636.357     45502.12    23887.128    49519.824    14977.243   -9915.5283   -2069.5139    82.722941 
   19000    1458.9662   -111.39544    1.3201032   -110.07534    6765.9065    4.3711823    4.3711823    4.3711823    6765.9065    1328.2185    16950.504    2018.9973   -1249.1669    3137.7276    20076.124    83.521207 
   19100    1786.1426   -111.67991    1.6161394   -110.06377   -28615.331    4.3878353    4.3878353    4.3878353   -28615.331   -46042.476   -19544.741   -20258.776    16147.265   -4627.2682   -15122.956    84.479426 
   19200     1193.974   -111.12556    1.0803328   -110.04523    5663.0025    4.3797069    4.3797069    4.3797069    5663.0025    -11901.23    19695.355    9194.8824    6377.0821   -10565.225    12897.209    84.010806 
   19300    1219.4853   -111.14747    1.1034159   -110.04406    22130.681    4.3700621    4.3700621    4.3700621    22130.681   -12535.163    92403.959   -13476.753   -17333.636    402.89914    21936.343    83.457011 
   19400    1539.6044   -111.45385    1.3930665   -110.06078   -7673.5446    4.3801046    4.3801046    4.3801046   -7673.5446   -36766.305    40419.848   -26674.176    13602.603   -1161.7748   -26667.073    84.033692 
   19500    1369.0354   -111.30608     1.238732   -110.06735   -9175.0499    4.3784179    4.3784179    4.3784179   -9175.0499   -41136.363    19357.684   -5746.4709   -8904.3832   -10332.664     24410.39    83.936652 
   19600    1682.9715   -111.58109    1.5227879    -110.0583    13775.715    4.3610069    4.3610069    4.3610069    13775.715   -34907.768    70990.702      5244.21   -8626.1608    -7007.648    1392.9429    82.939294 
   19700    1367.7845   -111.32074    1.2376001   -110.08314    2791.2916     4.369851     4.369851     4.369851    2791.2916   -6292.3044    2301.6218    12364.558     19422.08   -384.62513   -12100.442    83.444919 
   19800    1341.2222   -111.29164     1.213566   -110.07807   -21913.766    4.3905885    4.3905885    4.3905885   -21913.766   -43826.305     20934.67   -42849.662   -981.30023   -8765.2359   -99.601004    84.638547 
   19900    1404.7941   -111.33335    1.2710872   -110.06226   -4403.8941    4.3724994    4.3724994    4.3724994   -4403.8941   -14826.828   -5339.9619    6955.1074    22188.771   -1075.6245   -8528.2676    83.596727 
   20000     1337.832   -111.26873    1.2104985   -110.05823    15468.803    4.3566673    4.3566673    4.3566673    15468.803   -27556.424    23313.583    50649.251    4543.2717   -12196.953   -3738.3703    82.691941 
   20100    1713.2004   -111.62608    1.5501397   -110.07594    -12817.09     4.372533     4.372533     4.372533    -12817.09   -14330.359   -199.38897   -23921.521    7743.4801   -7460.7824    26928.577    83.598657 
   20200    1292.9595   -111.25438    1.1698969   -110.08448   -20437.478    4.3809464    4.3809464    4.3809464   -20437.478   -17146.222    -64896.25    20730.036    20613.803    3096.3512     -6369.36    84.082153 
   20300    1084.8087   -111.06861   0.98155771   -110.08705    24616.805    4.3796411    4.3796411    4.3796411    24616.805    7603.1462    37745.979     28501.29   -3245.1351   -12592.102    12876.765    84.007018 
   20400    1855.3393   -111.74829      1.67875   -110.06954   -31091.457    4.3842041    4.3842041    4.3842041   -31091.457   -37908.066   -40464.545   -14901.759   -2050.2891   -999.46555   -7550.4289    84.269862 
   20500    1329.7318   -111.25513    1.2031693   -110.05196   -6011.1727    4.3798985    4.3798985    4.3798985   -6011.1727   -25356.736   -4428.7663    11751.984    3306.2644    1846.7175    -16735.51     84.02183 
   20600    982.61326   -110.92904   0.88908913   -110.03995     53833.68     4.378429     4.378429     4.378429     53833.68    1995.3644    123174.77    36330.906    9200.3429   -6279.8115     2324.363    83.937289 
   20700     1545.374   -111.44403    1.3982869   -110.04574   -38586.599    4.3960025    4.3960025    4.3960025   -38586.599   -62495.754   -22047.248   -31216.796   -2272.9038    7225.7965   -8781.5817    84.952034 
   20800    1740.2019   -111.61316    1.5745712   -110.03858   -6946.9053    4.3713493    4.3713493    4.3713493   -6946.9053   -43389.522    49074.117   -26525.311   -9569.7807     5869.382    -15295.13    83.530778 
   20900     1538.008   -111.43292     1.391622    -110.0413    31884.961    4.3504829    4.3504829    4.3504829    31884.961   -7347.7975    54871.418    48131.262    9772.4177   -12634.485    21735.195    82.340289 
   21000    1373.3858    -111.3246    1.2426683   -110.08193   -712.25536    4.3780748    4.3780748    4.3780748   -712.25536   -47075.878     50051.98    -5112.868   -20873.026    5103.3135   -3300.9902    83.916917 
   21100    1047.6948   -111.01281   0.94797623   -110.06484   -10173.168    4.4026292    4.4026292    4.4026292   -10173.168   -81245.436    5955.9291    44770.002    8312.7376    4803.7146    18998.805    85.336794 
   21200    1508.4203   -111.42716    1.3648503   -110.06231   -37447.872    4.3745727    4.3745727    4.3745727   -37447.872   -60729.763   -53186.735    1572.8817    20539.898    4228.0949    11370.515    83.715702 
   21300    1229.2882   -111.16697    1.1122858   -110.05469    66940.019    4.3346815    4.3346815    4.3346815    66940.019   -16777.203    82772.667    134824.59   -23316.225    8881.3369   -17828.137    81.446342 
   21400    1732.6315   -111.66567    1.5677214   -110.09795   -8779.4885     4.364933     4.364933     4.364933   -8779.4885   -36793.727    15450.453   -4995.1915    32744.434   -917.84372   -2064.5082    83.163495 
   21500    1455.8175    -111.3877    1.3172543   -110.07044   -36957.161    4.3997513    4.3997513    4.3997513   -36957.161   -55355.848     -40776.1   -14739.536    -14607.44   -380.08015    7217.7969    85.169555 
   21600    1380.7535   -111.28306    1.2493348   -110.03372    4853.6464    4.3864277    4.3864277    4.3864277    4853.6464   -38563.848    38977.309    14147.478   -14752.996    6536.2938    8697.8617    84.398151 
   21700    1017.4334   -110.93533   0.92059513   -110.01473    43290.916    4.3543856    4.3543856    4.3543856    43290.916    7881.3159    81522.968    40468.465    -2645.772    14225.563    18465.434    82.562084 
   21800    1802.7732   -111.66927    1.6311871   -110.03808   -10251.236     4.366961     4.366961     4.366961   -10251.236   -2139.8024   -21948.263   -6665.6417   -15931.203   -9390.6537     10067.68    83.279465 
   21900     1502.695   -111.40074      1.35967   -110.04107   -17796.713    4.3942438    4.3942438    4.3942438   -17796.713   -54502.535    6660.4148   -5548.0195    12936.977   -5434.5705   -5593.9395     84.85012 
   22000    1332.8109   -111.23651    1.2059553   -110.03056   -28220.515     4.384985     4.384985     4.384985   -28220.515   -74483.364   -12700.023    2521.8418    -28453.87    5256.4209     10832.94    84.314902 
   22100    1542.5754   -111.41907    1.3957546   -110.02332    11275.586    4.3619653    4.3619653    4.3619653    11275.586   -4093.8976   -10862.996     48783.65   -1035.7496   -12171.784   -21831.324    82.993984 
   22200    1476.9312   -111.38508    1.3363584   -110.04872   -1951.2579    4.3566085    4.3566085    4.3566085   -1951.2579    2784.6952   -20434.494    11796.025    6079.4326   -1937.4182   -10596.261    82.688594 
   22300     1681.585   -111.59668    1.5215334   -110.07515    1362.0185    4.3740835    4.3740835    4.3740835    1362.0185   -31646.565   -26426.687    62159.307   -18063.198   -13239.343   -3990.9989    83.687615 
   22400    1456.2944   -111.37502    1.3176857   -110.05734   -39383.281    4.3912878    4.3912878    4.3912878   -39383.281   -68778.938   -23515.232   -25855.674    3839.4209   -18499.673   -14387.983    84.678995 
   22500    1317.3357   -111.24086    1.1919531   -110.04891   -1164.2964    4.3586882    4.3586882    4.3586882   -1164.2964   -20423.425   -26652.332    43582.868   -24532.238   -3420.7651   -13578.958     82.80707 
   22600    1632.9047   -111.52891    1.4774865   -110.05143    40262.822    4.3495021    4.3495021    4.3495021    40262.822     13969.96     42474.24    64344.266    2230.0644   -14341.755    15740.616    82.284612 
   22700    709.69994   -110.73153   0.64215142   -110.08938    10184.743    4.3742803    4.3742803    4.3742803    10184.743   -29301.098   -47727.806    107583.13   -21555.752   -4810.6699   -12450.603    83.698914 
   22800    1525.6244   -111.44418     1.380417   -110.06376   -7432.4922      4.39181      4.39181      4.39181   -7432.4922   -15014.883   -27911.822    20629.228   -820.86692   -10296.216    8907.6606    84.709208 
   22900    955.21642   -110.90378   0.86429989   -110.03948    1401.6984     4.387054     4.387054     4.387054    1401.6984   -22680.471   -38603.831    65489.397   -13526.481   -23383.158   -2208.6784    84.434305 
   23000    782.88728   -110.76926   0.70837287   -110.06088    18308.894    4.3555482    4.3555482    4.3555482    18308.894    6829.5191   -12343.864    60441.027   -36473.119   -10188.511   -8282.0253    82.628233 
   23100    2009.8603   -111.87982    1.8185638   -110.06125     20440.33     4.349246     4.349246     4.349246     20440.33     43026.06    9685.3573    8609.5735    4926.9043   -6670.8874   -16039.461    82.270081 
   23200    966.52098   -110.97626    0.8745285   -110.10173   -8960.1959     4.386837     4.386837     4.386837   -8960.1959   -5795.9084   -29707.101    8622.4217   -29970.237   -21339.321   -9238.2032    84.421778 
   23300     1319.768    -111.2572    1.1941538   -110.06304    6570.8309     4.398371     4.398371     4.398371    6570.8309   -4569.7531   -32651.492    56933.738    6726.8406     8884.009   -10443.732    85.089423 
   23400     1629.762    -111.5171    1.4746429   -110.04245   -20164.581    4.3779352    4.3779352    4.3779352   -20164.581   -28550.507    -9788.687   -22154.549   -17478.493    153.37227    18374.162    83.908891 
   23500    1604.2305   -111.49998    1.4515415   -110.04844    1728.9676    4.3668873    4.3668873    4.3668873    1728.9676     5416.201    9332.2218     -9561.52   -2950.9522    941.64542   -38.344483     83.27525 
   23600    1646.1814   -111.55453    1.4894995   -110.06503    299.76575    4.3678033    4.3678033    4.3678033    299.76575    8226.0577   -29757.915    22431.154    7336.4758    12943.099    9739.7894    83.327668 
   23700    727.18519   -110.76232   0.65797244   -110.10434   -2945.5088    4.3756877    4.3756877    4.3756877   -2945.5088   -50647.599    18682.169    23128.904   -16816.132    231.31289    5732.7319    83.779727 
   23800    2306.3274   -112.16292    2.0868135    -110.0761   -19351.803    4.3717192    4.3717192    4.3717192   -19351.803   -20156.927   -31171.771    -6726.711    19665.902   -15437.947   -10469.542    83.551988 
   23900     1052.183   -111.01812   0.95203728   -110.06608    23411.453    4.3604311    4.3604311    4.3604311    23411.453   -3700.2135     12280.84    61653.732   -11088.589    7874.8801    9350.2303    82.906441 
   24000    1459.6846   -111.39209    1.3207533   -110.07133   -10535.044    4.3811821    4.3811821    4.3811821   -10535.044   -23416.465   -32395.748     24207.08    4932.5058    3366.0055    1177.2484    84.095721 
   24100    1618.5815   -111.51165    1.4645266   -110.04712   -40808.681    4.3887507    4.3887507    4.3887507   -40808.681   -72363.958   -56061.233    5999.1477    13314.277   -20612.573   -2357.7745     84.53231 
   24200    1193.3035   -111.12007    1.0797261   -110.04035    10664.705    4.3583857    4.3583857    4.3583857    10664.705   -19562.738    5236.2051    46320.649   -26077.286    3813.7612    1625.4915    82.789828 
   24300    1783.2493   -111.65644    1.6135214   -110.04291    14941.936    4.3596133    4.3596133    4.3596133    14941.936    7218.7217   -89.450691    37696.538    21491.864   -4526.5391   -9305.4633    82.859803 
   24400    728.81701   -110.72681   0.65944895   -110.06736   -32865.966    4.3737967    4.3737967    4.3737967   -32865.966   -70733.001   -58178.446     30313.55   -8820.5482   -2199.4401   -5258.0585    83.671156 
   24500    1824.4885   -111.69756    1.6508355   -110.04672   -1975.5291    4.3567263    4.3567263    4.3567263   -1975.5291    -28760.65    4059.1212    18774.942   -9882.4115    20529.815   -6184.4563    82.695301 
   24600    1224.8918   -111.17433    1.1083079   -110.06602   -5557.1599    4.3676874    4.3676874    4.3676874   -5557.1599   -28610.695   -23108.044    35047.258    14277.325    -10023.44    15308.669    83.321033 
   24700    1319.3371    -111.2466     1.193764   -110.05283   -41817.575    4.3785123    4.3785123    4.3785123   -41817.575   -48678.248   -45954.367    -30820.11   -9910.4676    4575.9612   -2297.9185    83.942078 
   24800    1676.3485   -111.54712    1.5167953   -110.03032    26928.965    4.3515124    4.3515124    4.3515124    26928.965   -5642.0443     53284.06    33144.879    11442.853    10635.383   -3658.7558    82.398758 
   24900    1156.6334   -111.10634    1.0465462   -110.05979   -19446.265    4.3591214    4.3591214    4.3591214   -19446.265   -52130.049   -35801.608    29592.863   -17931.598   -19538.993     5950.599    82.831759 
   25000    1713.8452   -111.59635    1.5507232   -110.04562    -16831.51    4.3793947    4.3793947    4.3793947    -16831.51   -3886.2423   -18529.995   -28078.294    7803.8303    2109.2368   -3840.1727    83.992842 
   25100    1661.4057   -111.54151    1.5032748   -110.03823    7153.2094    4.3613433    4.3613433    4.3613433    7153.2094     -45242.4    39989.567    26712.462   -2666.7676   -12021.385   -2725.9796    82.958487 
   25200    1217.9951   -111.16254    1.1020676   -110.06047    9169.1493    4.3593684    4.3593684    4.3593684    9169.1493     32652.38   -20705.905    15560.973   -6588.8062    6253.1058   -8589.3259    82.845842 
   25300    1916.1318   -111.78499    1.7337563   -110.05124   -29248.935    4.3867823    4.3867823    4.3867823   -29248.935   -295.19091   -38447.139   -49004.474    8191.5852    306.19769   -8117.4882    84.418618 
   25400    1274.6248    -111.1895    1.1533073   -110.03619   -35356.504    4.3816968    4.3816968    4.3816968   -35356.504   -44361.082   -23343.429   -38364.999   -4209.8075   -11829.243   -1435.0573    84.125368 
   25500    1817.8098   -111.65909    1.6447925    -110.0143    28072.353    4.3626457    4.3626457    4.3626457    28072.353    27109.723     47238.16    9869.1751   -21285.621    6112.0997   -16809.192    83.032829 
   25600    1451.4629   -111.34336    1.3133142   -110.03004   -9293.1158    4.3736311    4.3736311    4.3736311   -9293.1158   -15294.936   -529.56605   -12054.845   -21968.206   -11691.349   -19513.018    83.661653 
   25700    1048.4736   -110.98658   0.94868096    -110.0379   -14550.899    4.3728291    4.3728291    4.3728291   -14550.899   -78288.222    36869.113   -2233.5866   -19767.849   -3437.0464   -15426.685    83.615638 
   25800    1683.0808   -111.56534    1.5228869   -110.04246     20031.26    4.3644671    4.3644671    4.3644671     20031.26    5925.0467    63395.896   -9227.1617     12450.49     398.0744   -11883.175    83.136868 
   25900    977.51349   -110.95178   0.88447475   -110.06731    28336.892    4.3596387    4.3596387    4.3596387    28336.892      -9014.4     63445.78    30579.297   -1182.8963   -202.93295   -15571.417    82.861253 
   26000    1500.4872   -111.43057    1.3576723    -110.0729   -7813.1106    4.3720595    4.3720595    4.3720595   -7813.1106    -33949.22   -14537.121     25047.01   -13772.297     3465.155   -724.84923    83.571497 
   26100    1449.2257   -111.37217    1.3112898   -110.06088   -3681.3476    4.3723265    4.3723265    4.3723265   -3681.3476   -28213.897    19705.952    -2536.098     606.6699   -8448.0253   -7901.4782    83.586813 
   26200    1029.5363   -110.98878   0.93154604   -110.05724    7893.9883    4.3596396    4.3596396    4.3596396    7893.9883   -44776.111     17067.61    51390.467   -13648.005   -9711.0928    1987.5567    82.861305 
   26300    1624.4798    -111.5263    1.4698634   -110.05643    14710.389    4.3696562    4.3696562    4.3696562    14710.389   -7307.6975    15259.144    36179.722    1835.4743    -240.1194   -16740.806     83.43376 
   26400    1235.2353   -111.17365    1.1176668   -110.05598   -12512.605    4.3704063    4.3704063    4.3704063   -12512.605   -55601.252   -11281.604     29345.04   -10511.396    -5515.921    6148.0577    83.476733 
   26500    1324.6981   -111.24748    1.1986147   -110.04887    3197.7042    4.3502208    4.3502208    4.3502208    3197.7042    2134.3093    -5249.019    12707.823   -26367.279   -7511.9069   -4182.8226     82.32541 
   26600    1617.5256   -111.52805    1.4635712   -110.06448    9322.2314    4.3662344    4.3662344    4.3662344    9322.2314    26123.925    11958.148   -10115.379    950.94312    23328.936   -4003.9677    83.237903 
   26700    1199.5803   -111.16062    1.0854055   -110.07521   -29839.717    4.3768625    4.3768625    4.3768625   -29839.717   -20284.342   -44108.746   -25126.063    -36789.27    4611.7788    4433.7795    83.847226 
   26800    1695.2092   -111.58318    1.5338609   -110.04932    11513.731    4.3622361    4.3622361    4.3622361    11513.731    34832.871   -11515.065    11223.387   -11881.398   -3475.9876    11912.729    83.009444 
   26900    888.73184   -110.87083   0.80414325   -110.06669   -3112.3483    4.3679999    4.3679999    4.3679999   -3112.3483   -18617.859   -24443.589    33724.403   -14334.826    18472.115    3793.5559     83.33892 
   27000    1425.3041   -111.35927    1.2896451   -110.06963   -17791.087    4.3671069    4.3671069    4.3671069   -17791.087   -16576.563   -39108.036    2311.3364    -31220.72    -12827.38    10735.071    83.287814 
   27100    1720.3752    -111.6315    1.5566316   -110.07487    14188.525    4.3615008    4.3615008    4.3615008    14188.525    33614.515    5052.0066    3899.0525    16476.082   -5558.5246   -4998.5275    82.967476 
   27200    1075.0727   -111.06264   0.97274834   -110.08989    4570.4839    4.3569231    4.3569231    4.3569231    4570.4839   -44262.211   -2074.2872     60047.95   -39015.039    632.79672    8255.9677     82.70651 
   27300    1304.8909   -111.26326    1.1806927   -110.08257     19593.68    4.3683322    4.3683322    4.3683322     19593.68    80753.715    -9053.775   -12918.899    7303.0546   -18217.884    -13306.49    83.357938 
   27400    1560.4454   -111.47656    1.4119238   -110.06464   -6966.1849      4.37506      4.37506      4.37506   -6966.1849   -16799.306    5022.3226   -9121.5714    6820.2234    1269.1113    3646.8447    83.743681 
   27500    1201.7357   -111.15204    1.0873557   -110.06469    15480.583    4.3604694    4.3604694    4.3604694    15480.583    28264.496    16092.353    2084.9004   -35835.082    15973.278   -9315.8612    82.908628 
   27600    1613.3907   -111.52674    1.4598298   -110.06691    20902.179    4.3540406    4.3540406    4.3540406    20902.179    22136.892    8290.0817    32279.563    16018.225   -9800.6167    3324.5283    82.542463 
   27700    1263.0702   -111.21955    1.1428524    -110.0767    9182.4297    4.3570532    4.3570532    4.3570532    9182.4297   -27154.922    32824.146    21878.065   -24513.075    6155.3506   -8010.5978    82.713917 
   27800    1257.9728    -111.2182    1.1382402   -110.07996   -3366.8148    4.3885051    4.3885051    4.3885051   -3366.8148   -33829.596   -8939.4287     32668.58   -15370.221    5341.6856   -2746.5046    84.518117 
   27900    1609.9238   -111.50008    1.4566928   -110.04338    4303.1856    4.3831009    4.3831009    4.3831009    4303.1856   -35966.977    30725.643    18150.892    837.14174   -3794.6127   -4443.5884    84.206265 
   28000    1405.5088   -111.29735    1.2717339   -110.02562    273.70771    4.3525748    4.3525748    4.3525748    273.70771   -36133.968    32940.293    4014.7977   -26912.453    8173.2195    7065.2147    82.459124 
   28100     1653.611   -111.53816     1.496222   -110.04194    25112.301     4.361397     4.361397     4.361397    25112.301   -2921.6402    14676.315    63582.229   -2861.6756     7601.403    1746.5481    82.961551 
   28200    1036.7997   -111.00545   0.93811813   -110.06733    7230.1909    4.3806046    4.3806046    4.3806046    7230.1909    -73243.43    78126.307    16807.696   -31028.344    4478.3018    11965.628    84.062472 
   28300    1632.2115   -111.53479    1.4768593   -110.05793   -22110.819    4.3871005    4.3871005    4.3871005   -22110.819   -50785.005     -10057.9   -5489.5537   -7883.9544    4084.9435   -3779.2662    84.436993 
   28400    1534.9463   -111.43306    1.3888516   -110.04421    31129.748    4.3558917    4.3558917    4.3558917    31129.748   -24513.927    68966.706    48936.465   -10465.473    8355.0823    8441.8334    82.647784 
   28500    1002.2696   -110.96038   0.90687461   -110.05351    5961.1017    4.3461131    4.3461131    4.3461131    5961.1017   -15694.951   -11895.841    45474.097   -26238.334    7752.3933   -4059.3192    82.092421 
   28600    1756.5809   -111.64831    1.5893913   -110.05891   -2335.0795    4.3755163    4.3755163    4.3755163   -2335.0795   -9937.0681    -12496.82    15428.649     21153.06    2176.4455    8173.8938    83.769886 
   28700    756.48291   -110.73464   0.68448164   -110.05016     10986.37    4.3831148    4.3831148    4.3831148     10986.37   -68345.358    33699.196     67605.27   -34170.431    25028.577    7879.7748    84.207068 
   28800    1595.9704   -111.47755    1.4440676   -110.03348   -26794.396    4.3705465    4.3705465    4.3705465   -26794.396   -32223.475   -40456.088   -7703.6233    24353.936    24462.308    1770.5786    83.484768 
   28900     1266.297   -111.17775    1.1457722   -110.03198    40235.111    4.3469639    4.3469639    4.3469639    40235.111    11317.701    57270.439    52117.193   -5184.7247   -10378.908    11883.345    82.140644 
   29000    1381.5033   -111.32044    1.2500132   -110.07042   -39575.057    4.3645506    4.3645506    4.3645506   -39575.057   -58534.085   -51834.863   -8356.2228   -23788.098    22936.412    3763.1836    83.141639 
   29100    1527.7445   -111.43307    1.3823353   -110.05073   -5507.8227    4.3800545    4.3800545    4.3800545   -5507.8227   -762.80661   -16047.487    286.82521    13550.924   -354.91356    11623.796     84.03081 
   29200     1169.823   -111.09407    1.0584804   -110.03559     33222.37     4.358805     4.358805     4.358805     33222.37    22891.862    87733.573   -10958.324   -22121.264    7752.2657     2281.583    82.813726 
   29300    1667.1069   -111.55732    1.5084334   -110.04888   -5861.4208    4.3689561    4.3689561    4.3689561   -5861.4208   -21369.105   -2608.5425    6393.3848    17161.501    18499.873    2764.9449     83.39366 
   29400    1683.3421   -111.56259    1.5231233   -110.03947   -8373.4321    4.3779758    4.3779758    4.3779758   -8373.4321    7095.4506   -275.87169   -31939.875    2290.1775    2234.9813    10350.865    83.911224 
   29500    895.19037    -110.8511   0.80998706   -110.04111    41638.692    4.3622475    4.3622475    4.3622475    41638.692    26833.513    80453.252     17629.31    -11912.81    3700.2833    6454.7803    83.010094 
   29600    1908.6933   -111.76793    1.7270258   -110.04091    -12722.95    4.3800986    4.3800986    4.3800986    -12722.95   -3843.9031   -932.65564    -33392.29    10338.301    8566.4714    3484.3859    84.033346 
   29700    1543.7062   -111.43238    1.3967778    -110.0356   -11928.562     4.378114     4.378114     4.378114   -11928.562    -16384.43    8010.5989   -27411.856   -21333.508    4586.3625    8288.9615    83.919174 
   29800    1060.9591   -110.99456   0.95997807   -110.03458    31269.284    4.3662915    4.3662915    4.3662915    31269.284    85007.886    7917.9382    882.02956   -11835.183    20909.651    11099.954    83.241173 
   29900    1706.6148   -111.59112    1.5441809   -110.04694   -5033.3361    4.3774255    4.3774255    4.3774255   -5033.3361   -12591.486    2878.3519   -5386.8743   -7872.0114    6382.8572    12975.454    83.879588 
   30000    908.85381   -110.86964   0.82235002   -110.04729    21842.624    4.3708998    4.3708998    4.3708998    21842.624    69111.983    13648.476   -17232.587   -45923.794    2898.2191    7951.3611    83.505014 
   30100    1473.3838   -111.38622    1.3331487   -110.05307    12004.005    4.3776933    4.3776933    4.3776933    12004.005   -40030.037    98156.864   -22114.813    3169.4466    11838.305    18675.977    83.894986 
   30200    914.01935    -110.8831   0.82702391   -110.05608    8820.7176    4.3844166    4.3844166    4.3844166    8820.7176   -27521.549    54510.882   -527.18115   -27706.753     1424.226    29113.034    84.282116 
   30300    1402.8825   -111.30194    1.2693575   -110.03258    15870.564    4.3822886    4.3822886    4.3822886    15870.564   -2240.8027    9737.1445     40115.35    1551.9836    14381.929    27150.951    84.159459 
   30400    1390.1453   -111.28425    1.2578327   -110.02642   -15761.654    4.4011633    4.4011633    4.4011633   -15761.654   -67033.153   -42862.403    62610.595   -8638.2186    4837.3654    21828.783     85.25158 
   30500    836.47099   -110.76996   0.75685653    -110.0131    11833.813    4.3911179    4.3911179    4.3911179    11833.813   -69078.598   -10228.758     114808.8   -15330.347    13546.899    32235.945    84.669169 
   30600    1113.8073   -111.00505    1.0077962   -109.99726    58497.496    4.3479746    4.3479746    4.3479746    58497.496     17049.25    34001.002    124442.24   -11675.191    25868.527    27157.168    82.197951 
   30700    1181.2275   -111.12764    1.0687995   -110.05884    11469.524    4.3710355    4.3710355    4.3710355    11469.524    21031.011    -6248.947    19626.509    -38105.02     5958.527    18865.763    83.512789 
   30800    1510.6802   -111.38993    1.3668952   -110.02304   -15134.699    4.4042154    4.4042154    4.4042154   -15134.699    -49428.41    4104.4862   -80.172068    563.16622    15108.241    19566.122    85.429066 
   30900    781.78927   -110.71103   0.70737936   -110.00365    33124.165     4.374948     4.374948     4.374948    33124.165    1336.3963    14853.727    83182.372   -45009.353     6936.486     20063.18    83.737248 
   31000    1624.1667   -111.44655    1.4695802   -109.97697    29580.103    4.3659843    4.3659843    4.3659843    29580.103    36456.095    169.95584    52114.258    6922.9719    15604.386    16948.921    83.223602 
   31100    983.78657   -110.90389   0.89015077   -110.01374    8979.7984    4.3731504    4.3731504    4.3731504    8979.7984     4128.748    7755.0176    15055.629   -52250.785    12363.052    5321.8461    83.634069 
   31200    1539.8112   -111.41838    1.3932535   -110.02513    4715.7483    4.3885977    4.3885977    4.3885977    4715.7483    35190.109   -29932.262    8889.3983   -8239.0289     11559.13     6587.575    84.523468 
   31300    1586.9041   -111.45672    1.4358642   -110.02085   -35944.879    4.3926869    4.3926869    4.3926869   -35944.879   -54662.032   -12398.996   -40773.609   -26571.206    4111.9169   -1437.9097     84.75996 
   31400    1739.0161   -111.57787    1.5734983   -110.00437   -6003.6871    4.3599202    4.3599202    4.3599202   -6003.6871   -7935.5565   -6546.4617   -3529.0431    -17343.39   -12963.611   -9714.3956    82.877307 
   31500    1615.6291   -111.48165    1.4618551   -110.01979   -18522.427     4.372472     4.372472     4.372472   -18522.427   -27048.499   -20682.913   -7835.8671   -2514.8409   -7951.6477    3984.1836    83.595154 
   31600    1554.6276   -111.41594    1.4066598   -110.00928    -55057.54    4.4020446    4.4020446    4.4020446    -55057.54    -94920.96   -75753.438    5501.7776   -33768.478   -17088.994   -9572.2242    85.302806 
   31700    1952.3909   -111.73992    1.7665643   -109.97336   -33119.824    4.3901125    4.3901125    4.3901125   -33119.824    4061.3337   -51238.584   -52182.221     11721.48   -9004.8009    7355.5976    84.611026 
   31800    1151.9107   -111.02735     1.042273   -109.98507    5491.4107    4.3673944    4.3673944    4.3673944    5491.4107    8112.6006   -49312.406    57674.038   -35482.084   -13104.721   -4847.4663    83.304266 
   31900    1719.9894   -111.56366    1.5562826   -110.00738   -4619.7233    4.3596343    4.3596343    4.3596343   -4619.7233    31350.659   -33194.618   -12015.211   -318.51804   -753.65921    17074.637    82.861003 
   32000    1462.1208   -111.36114    1.3229576   -110.03818   -12232.821    4.3717396    4.3717396    4.3717396   -12232.821   -14953.213   -21524.657   -220.59304   -16984.646   -16301.548   -13960.445    83.553155 
   32100    1481.9463   -111.37819    1.3408961   -110.03729   -34384.655    4.3959731    4.3959731    4.3959731   -34384.655   -52779.767   -71883.927    21509.729   -17350.397   -5248.3164    3819.4741     84.95033 
   32200    1347.8834   -111.25078    1.2195932   -110.03119    8106.2781    4.3679538    4.3679538    4.3679538    8106.2781    29550.594    24250.582   -29482.341   -1808.1308   -4000.6227    28403.697    83.336279 
   32300    1587.1903   -111.45929    1.4361231   -110.02317    16320.984    4.3429484    4.3429484    4.3429484    16320.984   -19903.503    22096.848    46769.608   -24745.557   -7092.2235   -12754.932    81.913221 
   32400    1432.7431   -111.35475    1.2963761   -110.05838   -32408.821    4.3776103    4.3776103    4.3776103   -32408.821   -34353.427   -1559.0225   -61314.014    8537.9456     -4612.08    32883.358    83.890211 
   32500    1525.9234   -111.41899    1.3806875    -110.0383   -9698.8579    4.3815406    4.3815406    4.3815406   -9698.8579    418.73935    -15844.47   -13670.843   -2447.4563   -1795.1238    14331.109    84.116368 
   32600    1310.1667   -111.22662    1.1854663   -110.04116   -5073.1475    4.3641245    4.3641245    4.3641245   -5073.1475    4549.6656   -17948.113   -1820.9947     6651.878   -5823.4051    -2838.181    83.117294 
   32700    1437.0087   -111.34984    1.3002357   -110.04961   -11783.405     4.357637     4.357637     4.357637   -11783.405   -11290.372    13841.521   -37901.365    16764.263    5772.2834     35329.44    82.747169 
   32800    1456.7748   -111.38181    1.3181204   -110.06369    22015.309    4.3669453    4.3669453    4.3669453    22015.309   -8803.9082    76130.985   -1281.1515   -7097.3323   -8228.9492   -27155.895    83.278572 
   32900    728.51951   -110.73254   0.65917976   -110.07336    9043.2663    4.3853157    4.3853157    4.3853157    9043.2663    10184.419    12620.455    4324.9244   -842.87867   -3016.7463    5143.6763    84.333981 
   33000    1248.2184   -111.16733    1.1294143   -110.03792     5173.531    4.3819233    4.3819233    4.3819233     5173.531   -8226.3818    9372.1389    14374.836   -3667.2133    12398.475    918.34922    84.138414 
   33100    1700.8323   -111.55976    1.5389488   -110.02081    20129.518    4.3520171    4.3520171    4.3520171    20129.518    -27251.36    32007.704     55632.21   -6642.2353   -8816.5516   -18156.823    82.427435 
   33200    979.11535   -110.94068   0.88592415   -110.05476    4206.3421    4.3520507    4.3520507    4.3520507    4206.3421     10161.61   -24187.342    26644.758    167.18375    9056.2106    34928.257    82.429342 
   33300    1593.2672   -111.49963    1.4416217   -110.05801   -16581.496     4.377773     4.377773     4.377773   -16581.496   -21331.092   -14305.262   -14108.135    -8558.026    11621.357    4490.9855    83.899563 
   33400    1421.8993   -111.33084    1.2865644   -110.04427   -5982.9259    4.3747286    4.3747286    4.3747286   -5982.9259   -33749.224   -19584.809    35385.255     -26355.9   -11710.842     18052.09    83.724648 
   33500     1337.688   -111.26019    1.2103682   -110.04983    -38806.17    4.3577283    4.3577283    4.3577283    -38806.17    -22326.01   -36268.036   -57824.464    -1551.358    10842.462    46542.917     82.75237 
   33600    1913.7311   -111.78572    1.7315841   -110.05414     10643.52    4.3483545    4.3483545    4.3483545     10643.52   -23143.185    25803.176    29270.569   -1541.6595    3786.8021   -15472.116    82.219501 
[...]
   91300    1531.7236   -111.44985    1.3859357   -110.06391   -2260.8976    4.3446416    4.3446416    4.3446416   -2260.8976    29666.064   -10778.216   -25670.541     21734.72   -769.51725    10919.182    82.009065 
   91400     1487.744   -111.41191    1.3461421   -110.06577    6532.0429     4.333259     4.333259     4.333259    6532.0429    12063.519    5076.8976    2455.7118   -4925.0499    816.52058   -15781.022    81.366184 
   91500    740.93971   -110.75653   0.67041782   -110.08611    2125.4428    4.3443107    4.3443107    4.3443107    2125.4428    23690.016   -28616.011    11302.323   -3796.5756    2017.2303    53659.955    81.990332 
   91600    1881.8899   -111.75808    1.7027735   -110.05531     18920.95    4.3468973    4.3468973    4.3468973     18920.95    3126.9323    26490.821    27145.097    4599.3189    19766.909   -33681.767    82.136867 
   91700    828.31728   -110.81786   0.74947889   -110.06838   -12564.581     4.348306     4.348306     4.348306   -12564.581    12719.545       -18608    -31805.29   -1398.5794   -2032.6302    28348.275    82.216746 
   91800    1235.3309   -111.18563    1.1177534   -110.06788   -10562.131     4.338019     4.338019     4.338019   -10562.131   -3354.9064   -8398.9109   -19932.577   -10445.086    434.62543    35688.598    81.634614 
   91900     2138.232   -111.99194    1.9347173   -110.05723    14685.655    4.3269471    4.3269471    4.3269471    14685.655    14108.733    22098.264    7849.9696    7514.2865    9709.7785   -11670.567    81.011145 
   92000    995.67845    -110.9895   0.90091079   -110.08859   -28835.602    4.3434391    4.3434391    4.3434391   -28835.602    5931.7709   -52923.083   -39515.493   -8448.2734   -10683.926     67975.88    81.940992 
   92100    1542.0597   -111.47338    1.3952881    -110.0781    -5076.955    4.3428151    4.3428151    4.3428151    -5076.955   -34674.665   -22648.736    42092.537    5220.6424    2652.1379   -11650.062    81.905682 
   92200    1601.3278   -111.51093     1.448915   -110.06202   -8691.0458    4.3445424    4.3445424    4.3445424   -8691.0458    2006.2557    -14341.24   -13738.153    4815.2161    -4119.883     31897.18    82.003449 
   92300    862.41493    -110.8516   0.78033115   -110.07127   -18816.216    4.3382542    4.3382542    4.3382542   -18816.216    12686.854   -35883.564   -33251.937   -5655.4811   -25828.017    46329.281    81.647895 
   92400    1472.8142   -111.39482    1.3326332   -110.06219    19841.558    4.3280831    4.3280831    4.3280831    19841.558   -13642.354   -4976.2473    78143.274    17563.994   -2428.8732   -19753.106    81.074963 
   92500    1555.9124   -111.47508    1.4078222   -110.06725   -10429.839    4.3466491    4.3466491    4.3466491   -10429.839    10564.641   -10715.369   -31138.789   -10540.864   -8670.3083    38178.139      82.1228 
   92600    1126.1739   -111.08434    1.0189859   -110.06535   -18869.199    4.3501257    4.3501257    4.3501257   -18869.199   -34283.506   -16829.164   -5494.9274   -6901.9126    -17991.58    12505.287    82.320008 
   92700    1489.3061   -111.40272    1.3475555   -110.05516     11952.34    4.3325644    4.3325644    4.3325644     11952.34   -2992.5803   -3637.1581    42486.759    13900.103    7270.2089    -2851.523    81.327059 
   92800     1463.488   -111.38608    1.3241947   -110.06188   -11710.247    4.3389341    4.3389341    4.3389341   -11710.247    9245.8049   -15604.062   -28772.485   -2662.6821   -936.61013    26775.447    81.686286 
   92900     1346.082   -111.27976    1.2179633   -110.06179   -9910.8437    4.3399045    4.3399045    4.3399045   -9910.8437   -27008.998   -36320.801    33597.267   -7392.7175    1417.5357    7926.1287    81.741106 
   93000    1402.6938   -111.33393    1.2691869   -110.06474     14421.26     4.334987     4.334987     4.334987     14421.26    12900.698    763.50298    29599.577    12190.575    11933.703   -16364.726    81.463563 
   93100    1700.0082   -111.60523    1.5382031   -110.06703   -15269.037    4.3447497    4.3447497    4.3447497   -15269.037   -42082.204    13054.339   -16779.247   -5359.8532    22556.858    10186.388     82.01519 
   93200    1400.6364   -111.33441    1.2673253   -110.06708    14393.055    4.3308051    4.3308051    4.3308051    14393.055   -20963.204    23004.045    41138.324   -9817.2327   -2233.7424    -3032.334    81.228027 
   93300    1135.5246   -111.10084    1.0274466   -110.07339     30247.82    4.3350994    4.3350994    4.3350994     30247.82     39561.64    30756.334    20425.484    10909.386    13288.101   -31189.453      81.4699 
   93400    1861.3006   -111.74008    1.6841439   -110.05593   -16144.899    4.3520462    4.3520462    4.3520462   -16144.899   -47982.888   -5694.7887    5242.9812   -16833.764    9007.9847    16628.725    82.429085 
   93500    1063.0052   -111.02615   0.96182944   -110.06432    2994.3759    4.3382421    4.3382421    4.3382421    2994.3759   -28867.629     2009.539    35841.217    13227.907   -8556.1286   -30334.163    81.647211 
   93600    1510.2974   -111.43258    1.3665489   -110.06604    12733.355    4.3320472    4.3320472    4.3320472    12733.355    21812.784   -6054.5041    22441.785    4682.6859    11461.398   -14379.705    81.297941 
   93700    1633.0447   -111.54445    1.4776131   -110.06683    5969.6655    4.3305357    4.3305357    4.3305357    5969.6655   -19885.088    7882.7994    29911.285   -16787.081    4966.1575    16088.574    81.212871 
   93800    851.77985   -110.85733   0.77070831   -110.08662    2756.5774    4.3368997    4.3368997    4.3368997    2756.5774    6893.7505    -34338.04    35714.022     18572.57   -12072.278   -47386.494    81.571441 
   93900    1596.3726   -111.51826    1.4444315   -110.07383   -13129.548    4.3523434    4.3523434    4.3523434   -13129.548    5687.5884   -24826.111   -20250.123    450.85008    1895.1871    8252.9571    82.445977 
   94000     1348.201   -111.29182    1.2198806   -110.07193    8633.9062    4.3340926    4.3340926    4.3340926    8633.9062     26748.51   -4962.8196    4116.0285   -9036.1306    1289.0388    14756.402    81.413149 
   94100    1418.3487   -111.34937    1.2833517   -110.06602     16254.32    4.3263273    4.3263273    4.3263273     16254.32    22680.935    12833.156    13248.868    9454.5388   -8296.3942   -41293.498    80.976332 
   94200    1369.4058   -111.30056    1.2390671   -110.06149   -16974.547    4.3479786    4.3479786    4.3479786   -16974.547    36848.854   -35807.487   -51965.009    -10406.46    -6450.356    43455.105     82.19818 
   94300    1546.4219   -111.46027     1.399235   -110.06104   -7255.9535    4.3388661    4.3388661    4.3388661   -7255.9535     20102.78   -17086.517   -24784.124   -3890.6077    20777.104   -8300.6513    81.682447 
   94400     1285.552   -111.23021    1.1631945   -110.06701    5298.2199    4.3321006    4.3321006    4.3321006    5298.2199    33991.305    6315.8876   -24412.533    1642.3206   -21854.526    -4776.929    81.300944 
   94500    1567.3794   -111.48741    1.4181978   -110.06921   -18632.233     4.343503     4.343503     4.343503   -18632.233    1252.5927   -27591.482    -29557.81   -11962.153    1568.4555    39921.697    81.944609 
   94600    1589.5791   -111.50033    1.4382845   -110.06204   -9194.9684    4.3433437    4.3433437    4.3433437   -9194.9684   -21885.394    7781.4891       -13481    7319.8632    19807.162   -21950.818    81.935589 
   94700    1035.0221   -111.00722   0.93650974   -110.07071   -29357.671    4.3454926    4.3454926    4.3454926   -29357.671   -7102.7008   -25196.339   -55773.973   -6984.6603   -42124.281    33958.199    82.057266 
   94800    1873.5199   -111.75478    1.6952002   -110.05958    2436.1838    4.3345657    4.3345657    4.3345657    2436.1838    9769.2538    11941.855   -14402.558   -10950.019    16737.449    8993.8375    81.439816 
   94900    1590.1819   -111.50792      1.43883   -110.06909    12508.744    4.3299116    4.3299116    4.3299116    12508.744    20342.885    34251.957   -17068.609   -1051.4636   -1229.7086    1887.3452    81.177764 
   95000    1129.8708    -111.0988    1.0223308   -110.07647   -16365.614    4.3448326    4.3448326    4.3448326   -16365.614    1122.1964   -8646.0689    -41572.97     8175.845   -34067.001    33265.718    82.019882 
   95100    1782.3264   -111.66324    1.6126864   -110.05055   -7617.6686    4.3519947    4.3519947    4.3519947   -7617.6686   -7937.3577    3961.3762   -18877.024    -13080.09    33421.288   -10571.947    82.426163 
   95200    1262.4377   -111.19787    1.1422801   -110.05559   -14287.003    4.3446493    4.3446493    4.3446493   -14287.003   -24251.052    25789.786   -44399.743    15108.682   -39770.767    28813.959    82.009504 
   95300    1148.4292   -111.10545    1.0391229   -110.06633     2348.009    4.3256339    4.3256339    4.3256339     2348.009   -10131.942    23931.153   -6755.1843    3542.6295   -3227.3313    14264.507    80.937407 
   95400    1838.7812   -111.72853    1.6637679   -110.06476     27615.84    4.3264189    4.3264189    4.3264189     27615.84     -2803.85    65862.353    19789.018    2257.5528    12496.228   -9776.6515    80.981478 
   95500     654.2507    -110.6795   0.59197979   -110.08752   -20572.599    4.3565011    4.3565011    4.3565011   -20572.599   -34074.841    22075.132   -49718.088     19643.01   -35711.957    17358.328    82.682475 
   95600    1706.6738   -111.59618    1.5442343   -110.05195   -13735.376    4.3548708    4.3548708    4.3548708   -13735.376   -17831.583   -9329.6103   -14044.936    3339.3095    11915.939    17668.603    82.589689 
   95700    1505.4636   -111.40887    1.3621751    -110.0467    27026.904    4.3260629    4.3260629    4.3260629    27026.904    12820.672    45287.528    22972.514   -531.75387   -26634.675   -6917.7884    80.961487 
   95800    1238.6872   -111.18772    1.1207902   -110.06693   -7583.5184    4.3317323    4.3317323    4.3317323   -7583.5184    7213.7005   -16179.159   -13785.096    17680.361   -12461.583    30417.939    81.280212 
   95900    1997.5377   -111.86409    1.8074141   -110.05667   -14259.262    4.3496789    4.3496789    4.3496789   -14259.262   -16996.232    -18669.17   -7112.3852    5816.5632    8119.2086    12288.807    82.294651 
   96000    1314.7424   -111.24896    1.1896066   -110.05936    -12052.01    4.3502115    4.3502115    4.3502115    -12052.01    2583.2982   -15785.927   -22953.401    3071.3977    -23268.43   -6961.2366    82.324881 
   96100    1083.8796    -111.0389   0.98071707   -110.05818   -8125.8275    4.3429449    4.3429449    4.3429449   -8125.8275     8838.161   -25372.834   -7842.8095    17569.376    22308.349    22133.534    81.913025 
   96200    1635.8076   -111.53555    1.4801131   -110.05544    4521.2795      4.33295      4.33295      4.33295    4521.2795   -36170.552    54401.308   -4666.9175   -662.66604    27108.476     -12466.1    81.348779 
   96300    1519.8193   -111.43697    1.3751644    -110.0618    19999.508    4.3289431    4.3289431    4.3289431    19999.508    21172.104    7867.5613     30958.86    11290.489    -17833.28   -10096.838    81.123302 
   96400    823.63976   -110.82611   0.74524656   -110.08086   -11309.677     4.351791     4.351791     4.351791   -11309.677   -29931.485    19060.575   -23058.121    16046.158    46511.287    6469.8255     82.41459 
   96500    1621.8928   -111.51968    1.4675227   -110.05215   -9449.4743     4.353838     4.353838     4.353838   -9449.4743   -43247.976    21142.565   -6243.0113    2741.7477    25489.797   -18070.773    82.530939 
   96600    1271.3476   -111.20335     1.150342   -110.05301     13783.95    4.3264163    4.3264163    4.3264163     13783.95    36123.298    1977.1902    3251.3606    8466.4665    -3996.536    -9195.189    80.981335 
   96700    676.47436     -110.691   0.61208822   -110.07891     -6499.34     4.331705     4.331705     4.331705     -6499.34   -19497.275    35427.304   -35428.048    11099.472    63842.028     16522.46    81.278673 
   96800    2126.8472   -111.98768     1.924416   -110.06327    12233.822    4.3417235    4.3417235    4.3417235    12233.822   -887.57313    15264.853    22324.185    6899.8548   -15613.446   -7306.3053    81.843935 
   96900    1171.9643   -111.14102    1.0604179    -110.0806   -4926.6134    4.3462417    4.3462417    4.3462417   -4926.6134    13134.113    8957.0209   -36870.974   -2350.6369    46189.005    -1220.874    82.099709 
   97000    1003.2451   -110.98599   0.90775729   -110.07823   -11918.705    4.3419533    4.3419533    4.3419533   -11918.705   -8635.3132    20444.167   -47564.968    5815.6499    18771.022    20148.755    81.856927 
   97100    1822.8339   -111.71186    1.6493384   -110.06252    20376.448     4.323782     4.323782     4.323782    20376.448     28149.85     30880.63    2098.8638    4848.5265   -31571.372   -13607.215    80.833499 
   97200    1086.9421   -111.06827   0.98348805   -110.08479   -3881.0599     4.335402     4.335402     4.335402   -3881.0599   -11162.578    29667.245   -30147.847   -14858.101     61840.26    15593.745    81.486963 
   97300    1602.1886   -111.52203    1.4496939   -110.07234   -9975.6484    4.3452978    4.3452978    4.3452978   -9975.6484    21490.735   -9109.0579   -42308.622    2423.8075   -22665.524    25183.739     82.04623 
   97400    1458.1224   -111.38616    1.3193398   -110.06682    10084.227    4.3371569    4.3371569    4.3371569    10084.227    30470.712    41699.794   -41917.826    2772.7287    4300.7038   -8724.4054    81.585955 
   97500    1046.2727   -111.02001   0.94668957   -110.07332   -3419.8344    4.3345108    4.3345108    4.3345108   -3419.8344    1604.7866    35495.337   -47359.627    -7574.022    50159.717    25281.527    81.436717 
   97600    1886.1167    -111.7676     1.706598     -110.061    15499.258    4.3325676    4.3325676    4.3325676    15499.258    55943.944    1824.5244   -11270.694   -4022.5557   -27186.885    23147.665    81.327242 
   97700    1280.8107   -111.23823    1.1589045   -110.07932   -13368.899     4.340257     4.340257     4.340257   -13368.899   -21174.665    44443.989   -63376.022    8112.6025    51114.652   -5673.8615    81.761027 
   97800    1017.7683   -111.00601   0.92089814   -110.08511   -11557.684    4.3391549    4.3391549    4.3391549   -11557.684    48703.027   -20864.096   -62511.983   -10213.594    11257.088    43983.946    81.698759 
   97900    2005.4603   -111.88283    1.8145826   -110.06824    1444.2692    4.3419656    4.3419656    4.3419656    1444.2692    4461.0565    30463.684   -30591.932   -1883.8224    1114.4831   -6075.9791    81.857622 
   98000    1075.2853   -111.04729    0.9729407   -110.07435   -34079.839    4.3512787    4.3512787    4.3512787   -34079.839   -39607.839    24501.891   -87133.567    1855.6819    50559.075    21916.364    82.385486 
   98100    1487.3241   -111.40544    1.3457621   -110.05968    18014.829    4.3267202    4.3267202    4.3267202    18014.829     35640.53    36589.466   -18185.511   -8898.6865   -10569.491    20880.716    80.998397 
   98200    1460.2791   -111.39175    1.3212912   -110.07045    14651.922    4.3324749    4.3324749    4.3324749    14651.922   -17307.829    75696.755   -14433.158   -4912.1626    22387.604   -17061.605    81.322022 
   98300    1260.4322   -111.21046    1.1404656   -110.06999   -24937.586    4.3480052    4.3480052    4.3480052   -24937.586   -18041.955    13128.711   -69899.515    13063.804    14526.429    28965.367    82.199689 
   98400    1561.1681   -111.47192    1.4125777   -110.05934    24235.589      4.33055      4.33055      4.33055    24235.589    37908.329    38926.989   -4128.5498   -13013.468   -7497.5331    206.62223    81.213677 
   98500    1197.7426    -111.1611    1.0837426   -110.07736   -10243.775    4.3416105    4.3416105    4.3416105   -10243.775   -29477.347    202.52963   -1456.5084    1905.1226    29285.774   -11601.596     81.83754 
   98600    1679.1724   -111.58187    1.5193504   -110.06252   -6330.7551    4.3462957    4.3462957    4.3462957   -6330.7551   -1124.5827    5358.1449   -23225.828    15133.481   -4499.6502    28720.338     82.10277 
   98700    1348.8513   -111.28095     1.220469   -110.06048    23636.935    4.3319359    4.3319359    4.3319359    23636.935    54142.236    4704.3981    12064.169   -21840.414    8297.8482   -23893.732    81.291676 
   98800    1024.8468   -111.00239   0.92730294   -110.07509   -5685.9107    4.3419744    4.3419744    4.3419744   -5685.9107   -27146.474    23856.055   -13767.313   -272.54702     33129.03    7085.6938    81.858123 
   98900    1971.8083   -111.83724    1.7841336   -110.05311    23537.665    4.3470487    4.3470487    4.3470487    23537.665    31252.019     40001.02   -640.04418   -2952.9063   -14594.094     6980.164    82.145449 
   99000     761.5162   -110.76596   0.68903586   -110.07693   -10329.817    4.3460729    4.3460729    4.3460729   -10329.817   -23797.742    24909.019   -32100.726    -36455.96    26818.645   -22959.145    82.090145 
   99100    1459.4414   -111.38927    1.3205332   -110.06874    14706.166    4.3378473    4.3378473    4.3378473    14706.166   -3656.9588    50598.296   -2822.8385   -3831.3132    22505.136    6259.2968    81.624923 
   99200    1719.5436   -111.62244    1.5558792   -110.06656    20522.119    4.3319848    4.3319848    4.3319848    20522.119    45732.372    35785.141   -19951.155    1289.5567   -13555.228   -11288.603    81.294428 
   99300    637.09344   -110.67079   0.57645553   -110.09434   -36282.632    4.3431769    4.3431769    4.3431769   -36282.632   -51354.573    3626.4184   -61119.742   -29407.805    39785.525   -30914.595    81.926151 
   99400     2146.201   -112.01348    1.9419277   -110.07156   -1539.6273     4.342541     4.342541     4.342541   -1539.6273   -2026.7844   -4434.0829    1841.9855   -4595.6354    -7669.783    12634.944    81.890171 
   99500     1262.837   -111.22116    1.1426415   -110.07852    -19271.12    4.3478428    4.3478428    4.3478428    -19271.12   -19539.887    13394.978    -51668.45     3875.951     21692.26   -16882.354    82.190478 
   99600    983.78604    -110.9603   0.89015029   -110.07015   -18944.584    4.3420136    4.3420136    4.3420136   -18944.584   -32820.303   -28254.674    4241.2244   -27051.049    28163.646   -28667.872    81.860338 
   99700     2138.724   -111.98201    1.9351624   -110.04685     2439.441    4.3344214    4.3344214    4.3344214     2439.441   -2568.9368   -12184.547    22071.807     7601.597     -13480.7    26200.473    81.431678 
   99800    1003.2428    -110.9756   0.90775521   -110.06785   -27137.012    4.3473006    4.3473006    4.3473006   -27137.012   -39535.243    12335.407     -54211.2   -10328.729    48834.622   -29513.226    82.159729 
   99900    1440.1826   -111.36257    1.3031075   -110.05946   -7999.1328    4.3438444    4.3438444    4.3438444   -7999.1328   -21977.166   -26001.321    23981.088   -4762.7309    8334.6963   -17848.968    81.963931 
  100000    1791.3426   -111.67331    1.6208444   -110.05247   -10650.057    4.3409476    4.3409476    4.3409476   -10650.057    -16605.47   -19979.877    4635.1746    19645.803    5517.2493    23278.495    81.800062 
Loop time of 22.2804 on 1 procs for 100000 steps with 8 atoms

Pair  time (%) = 6.90897 (31.0091)
Kspce time (%) = 5.39325 (24.2062)
Neigh time (%) = 0.118085 (0.529993)
Comm  time (%) = 1.04727 (4.70038)
Outpt time (%) = 0.0249097 (0.111801)
Other time (%) = 8.78795 (39.4425)

Nlocal:    8 ave 8 max 8 min
Histogram: 1 0 0 0 0 0 0 0 0 0
Nghost:    2098 ave 2098 max 2098 min
Histogram: 1 0 0 0 0 0 0 0 0 0
Neighs:    2131 ave 2131 max 2131 min
Histogram: 1 0 0 0 0 0 0 0 0 0

Total # of neighbors = 2131
Ave neighs/atom = 266.375
Neighbor list builds = 1387
Dangerous builds = 0
unfix 20
unfix 21
print "seeds:4192371"
seeds:4192371
