LAMMPS (10 Feb 2015)
# ---- initialize simulations
clear
units metal
dimension 3
boundary p p p
atom_style charge
atom_modify map array
# ---- create atoms
read_data /Users/eugeneragasa/pyflamestk_git/pypospack/tests/tests_integration/workflow/WorkflowLammpsThermalExpansion/param_8221/MgO_NaCl_unit.npt.T100/lammps.structure
  triclinic box = (0 0 0) to (4.2565 4.2565 4.2565) with tilt (0 0 0)
  1 by 1 by 1 MPI processor grid
  reading atoms ...
  8 atoms
# ---- define interatomic potential
include potential.mod
mass 1 24.305
mass 2 15.999

group Mg type 1
4 atoms in group Mg
group O type 2
4 atoms in group O

set group Mg charge 1.65389423724
  4 settings made for charge
set group O charge -1.65389423724
  4 settings made for charge

variable R_cut equal 10.0

pair_style buck/coul/long ${R_cut}
pair_style buck/coul/long 10
pair_coeff 1 1 0.0 0.5 0.0 ${R_cut}
pair_coeff 1 1 0.0 0.5 0.0 10
pair_coeff 1 2 1300.0678519 0.288744572517 0.0 ${R_cut}
pair_coeff 1 2 1300.0678519 0.288744572517 0.0 10
pair_coeff 2 2 40472.9144105 0.202420171096 26.2679081719 ${R_cut}
pair_coeff 2 2 40472.9144105 0.202420171096 26.2679081719 10

kspace_style pppm 1.0e-5

neighbor 1.0 bin
neigh_modify every 1 delay 0 check yes
# ---- define settings
compute eng all pe/atom
compute eatoms all reduce sum c_eng
# ---- run minimization
reset_timestep 0
fix 1 all box/relax iso 0.0 vmax 0.001
thermo 10
thermo_style custom step pe lx ly lz xy xz yz press pxx pyy pzz pxy pxz pyz c_eatoms
min_style cg
minimize 1e-25 1e-25 5000 10000
PPPM initialization ...
  G vector (1/distance) = 0.352799
  grid = 8 8 8
  stencil order = 5
  estimated absolute RMS force accuracy = 3.93787e-05
  estimated relative force accuracy = 2.7347e-06
  using double precision FFTs
  3d grid and FFT values/proc = 3375 512
Neighbor list info ...
  1 neighbor list requests
  update every 1 steps, delay 0 steps, check yes
  master list distance cutoff = 11
Memory usage per processor = 4.06549 Mbytes
Step PotEng Lx Ly Lz Xy Xz Yz Press Pxx Pyy Pzz Pxy Pxz Pyz eatoms 
       0   -110.27609       4.2565       4.2565       4.2565            0            0            0    110960.29    110960.29    110960.29    110960.29 9.3314123e-11 1.6239754e-10 5.8891323e-11   -110.27609 
      10   -110.39349     4.299065     4.299065     4.299065            0            0            0    52923.265    52923.265    52923.265    52923.265 1.8718586e-11 -3.674075e-11 -9.001309e-11   -110.39349 
      20   -110.43343      4.34163      4.34163      4.34163            0            0            0    2089.5567    2089.5567    2089.5567    2089.5567 6.9298069e-11 -1.296578e-10 -9.997383e-11   -110.43343 
      22   -110.43352     4.343513     4.343513     4.343513            0            0            0   -5.7193123   -5.7193123   -5.7193123   -5.7193123 4.586585e-11 9.062077e-11 2.6249224e-10   -110.43352 
Loop time of 0.0136399 on 1 procs for 22 steps with 8 atoms

Minimization stats:
  Stopping criterion = linesearch alpha is zero
  Energy initial, next-to-last, final = 
        -110.276087498     -110.433524975     -110.433524975
  Force two-norm initial, final = 16.0227 0.00180648
  Force max component initial, final = 16.0227 0.000859982
  Final line search alpha, max atom move = 0.00390625 3.35931e-06
  Iterations, force evaluations = 22 39

Pair  time (%) = 0.00363851 (26.6754)
Kspce time (%) = 0.00225306 (16.5181)
Neigh time (%) = 0 (0)
Comm  time (%) = 0.000431299 (3.16203)
Outpt time (%) = 3.29018e-05 (0.241217)
Other time (%) = 0.00728416 (53.4033)

Nlocal:    8 ave 8 max 8 min
Histogram: 1 0 0 0 0 0 0 0 0 0
Nghost:    2189 ave 2189 max 2189 min
Histogram: 1 0 0 0 0 0 0 0 0 0
Neighs:    2344 ave 2344 max 2344 min
Histogram: 1 0 0 0 0 0 0 0 0 0

Total # of neighbors = 2344
Ave neighs/atom = 293
Neighbor list builds = 0
Dangerous builds = 0
unfix 1
# ---- define output variables ----
variable natoms equal "count(all)"
variable tot_energy equal "c_eatoms"
variable length_x equal "lx"
variable length_y equal "ly"
variable length_z equal "lz"
variable tilt_xy equal "xy"
variable tilt_xz equal "xz"
variable tilt_yz equal "yz"
variable tot_press equal "press"
variable press_xx equal "pxx"
variable press_yy equal "pyy"
variable press_zz equal "pzz"
variable press_xy equal "pxy"
variable press_xz equal "pxz"
variable press_yz equal "pyz"

# ---- output ----
print "pypospack:output_section:begin"
pypospack:output_section:begin
print "tot_energy = ${tot_energy}"
tot_energy = -110.433524975286
print "num_atoms = ${natoms}"
num_atoms = 8
print "xx = ${length_x}"
xx = 4.34351296178449
print "yy = ${length_y}"
yy = 4.34351296178449
print "zz = ${length_z}"
zz = 4.34351296178449
print "xy = ${tilt_xy}"
xy = 0
print "xz = ${tilt_xz}"
xz = 0
print "yz = ${tilt_yz}"
yz = 0
print "tot_press = ${tot_press}"
tot_press = -5.71931225965551
print "pxx = ${press_xx}"
pxx = -5.71931225981032
print "pyy = ${press_yy}"
pyy = -5.71931225968463
print "pzz = ${press_zz}"
pzz = -5.71931225947158
print "pxy = ${press_xy}"
pxy = 4.5865850341772e-11
print "pxz = ${press_xz}"
pxz = 9.06207702771322e-11
print "pyz = ${press_yz}"
pyz = 2.62492238241466e-10
print "pypospack:output_section:done"
pypospack:output_section:done
print "pypospack:lammps_sim:done"
pypospack:lammps_sim:done
#------------------------------------------------------------------------------
# RUN THERMOSTAT
# running using an NPT Nose-Hoover style thermostat
#------------------------------------------------------------------------------
variable tempdamp equal 0.1
variable pressdamp equal 1.0
# set initial velocities
velocity all create 100 6517193 mom yes dist gaussian loop all
# fix for Nose-Hoover style thermostat
fix 20 all npt temp 100 100 0.1 aniso 0.0 0.0 1.0 drag 1.0 couple xyz
variable boxx equal lx
variable boxy equal ly
variable boxz equal lz
variable boxp equal press
variable boxt equal temp
# calculate averages every 10000 steps
reset_timestep 0
fix 21 all ave/time 10 10 100 v_boxx v_boxy v_boxz v_boxp v_boxt file lattice.out
thermo_style custom step temp pe ke etotal press lx ly lz press pxx pyy pzz pxy pxz pyz vol
thermo_modify flush yes
thermo 100
run 100000
PPPM initialization ...
  G vector (1/distance) = 0.351923
  grid = 8 8 8
  stencil order = 5
  estimated absolute RMS force accuracy = 4.10067e-05
  estimated relative force accuracy = 2.84776e-06
  using double precision FFTs
  3d grid and FFT values/proc = 3375 512
Memory usage per processor = 3.06549 Mbytes
Step Temp PotEng KinEng TotEng Press Lx Ly Lz Press Pxx Pyy Pzz Pxy Pxz Pyz Volume 
       0          100   -110.43354  0.090482101   -110.34305    1171.5983     4.343513     4.343513     4.343513    1171.5983    1165.4719    1650.0128    699.31011   -868.03858   -207.35999   -87.865904    81.945171 
     100    16.387053   -110.34459   0.01482735   -110.32976    5302.2777    4.3432169    4.3432169    4.3432169    5302.2777     3773.564    8900.1876    3233.0816    1892.1405    93.391901   -16.766555    81.928415 
     200    98.784483   -110.39571  0.089382276   -110.30632   -439.40428     4.345534     4.345534     4.345534   -439.40428   -874.74312    467.12872   -910.59843    294.85442    944.31775   -355.60718    82.059614 
     300    72.571607   -110.35007  0.065664315    -110.2844    3122.3618    4.3471173    4.3471173    4.3471173    3122.3618    1717.8761    7706.7063   -57.497049    636.01187   -241.04361    232.78569    82.149337 
     400    88.434389   -110.34894  0.080017294   -110.26892   -210.74332    4.3477255    4.3477255    4.3477255   -210.74332   -445.06043    1427.4142   -1614.5837    922.80087    91.008862    419.94657    82.183823 
     500    88.646974   -110.33784  0.080209645   -110.25763   -1546.2006    4.3496579    4.3496579    4.3496579   -1546.2006   -3341.1287     3194.357   -4491.8302   -379.88692    950.93214    403.22978    82.293455 
     600    87.834324   -110.33186  0.079474342   -110.25239    1287.5284    4.3499663    4.3499663    4.3499663    1287.5284    2860.2992    3870.2145   -2867.9283    1917.3277   -393.58455    393.78354     82.31096 
     700    132.51368     -110.371   0.11990116    -110.2511   -3474.6374     4.350519     4.350519     4.350519   -3474.6374   -5139.0866    -1184.244   -4100.5817   -1303.9007    693.28554    32.982801    82.342338 
     800    46.378992   -110.29416  0.041964687    -110.2522    808.97616    4.3509354    4.3509354    4.3509354    808.97616    1687.2175    6248.2359   -5508.5249    2112.0679    502.49772    556.00091    82.365986 
     900    153.02929    -110.3902   0.13846411   -110.25174   -2843.4776    4.3505292    4.3505292    4.3505292   -2843.4776   -390.82438   -3596.3968   -4543.2115   -411.63138    155.56067   -671.50823     82.34292 
    1000    81.347503   -110.32625  0.073604931   -110.25264    378.43069     4.350506     4.350506     4.350506    378.43069   -2014.3331    8524.0052   -5374.3801    1004.0624    985.17771    6.3630097      82.3416 
    1100     100.0007   -110.34346  0.090482737   -110.25298   -2037.1796      4.35094      4.35094      4.35094   -2037.1796    4006.0692   -4895.9894   -5221.6186   -57.072589    896.33947    515.24891     82.36625 
    1200    106.05439   -110.34857   0.09596024   -110.25261    1103.0457    4.3490027    4.3490027    4.3490027    1103.0457   -2278.2424    9380.2057   -3792.8262   -552.60262   -141.19836   -433.94979    82.256276 
    1300    117.56712   -110.35911    0.1063772   -110.25273   -1073.1689    4.3501828    4.3501828    4.3501828   -1073.1689    3172.4045   -2838.5707   -3553.3406    1472.9666    325.39496    230.15093    82.323253 
    1400    62.819035   -110.31011  0.056839983   -110.25327    357.91217    4.3493834    4.3493834    4.3493834    357.91217   -240.90236    6186.8266   -4872.1877   -924.51014    1488.5437   -437.11544    82.277878 
    1500    127.85432   -110.36826   0.11568528   -110.25258   -544.68694    4.3482661    4.3482661    4.3482661   -544.68694   -887.48621    1543.5918   -2290.1664    1167.4373   -326.57697     234.4302    82.214484 
    1600    85.633125   -110.33002  0.077482651   -110.25254    1401.7974    4.3492516    4.3492516    4.3492516    1401.7974    3209.0181    3796.2406   -2799.8666   -1210.9871   -36.526847   -530.71681    82.270396 
    1700    86.516751   -110.33095  0.078282174   -110.25267   -928.00172     4.348715     4.348715     4.348715   -928.00172   -4162.0036    4685.2627   -3307.2643    1640.8628    1462.9038    -501.1168    82.239951 
    1800    107.52213   -110.34969   0.09728828    -110.2524    681.64834    4.3480066    4.3480066    4.3480066    681.64834    2404.5199    749.79476   -1109.3696   -1212.1279   -430.09198    184.42636    82.199766 
    1900    98.545028   -110.34153  0.089165612   -110.25237    880.58511     4.349013     4.349013     4.349013    880.58511   -1817.3548    8437.9033   -3978.7932   -292.41095     105.1147   -627.57905    82.256857 
    2000     112.1377   -110.35412   0.10146455   -110.25266   -2527.9917    4.3488048    4.3488048    4.3488048   -2527.9917   -1712.3572   -2736.3641   -3135.2538    1308.9625    406.87252    118.72664    82.245043 
    2100     67.02592   -110.31348  0.060646461   -110.25283    3011.3342    4.3484338    4.3484338    4.3484338    3011.3342    570.28087    9956.6385   -1492.9168   -1922.6007    282.55095   -123.92404    82.223998 
    2200     174.1163   -110.40986   0.15754409   -110.25232   -3699.6582    4.3496092    4.3496092    4.3496092   -3699.6582   -3384.6894   -2897.3129   -4816.9722    458.39732    598.03013     583.8078    82.290691 
    2300    21.171648   -110.27283  0.019156552   -110.25367    3018.0133     4.348536     4.348536     4.348536    3018.0133    660.70851    9538.8443    -1145.513   -2093.6869    386.83834      698.932    82.229797 
    2400    159.91435   -110.39755   0.14469386   -110.25286   -4308.4138    4.3501786    4.3501786    4.3501786   -4308.4138    -5084.756   -2725.7113    -5114.774    1272.3336   -65.756959   -159.89376    82.323016 
    2500    69.041339   -110.31574  0.062470055   -110.25327    2707.7809    4.3488651    4.3488651    4.3488651    2707.7809    2188.4772     7855.432   -1920.5663   -1972.3331    -261.8966    335.11884    82.248465 
    2600    100.14121   -110.34373  0.090609875   -110.25312   -2313.5797    4.3497571    4.3497571    4.3497571   -2313.5797   -3774.2338    9.4067874   -3175.9122    3.6542399    1181.6484    480.58084    82.299089 
    2700    95.316922   -110.33911  0.086244754   -110.25287   -396.07862    4.3501074    4.3501074    4.3501074   -396.07862   -789.56523    2659.4969   -3058.1675    285.69648   -261.47302   -364.05027    82.318973 
    2800    92.003011    -110.3356  0.083246258   -110.25235    1813.1322    4.3488319    4.3488319    4.3488319    1813.1322    2899.1985    4636.4612   -2096.2632   -1272.2306    -302.8614   -121.88696    82.246582 
    2900    121.27657   -110.36221   0.10973359   -110.25248   -2825.9138    4.3499943    4.3499943    4.3499943   -2825.9138   -3862.7248   -124.57129   -4490.4453    893.24305    1290.5493    506.79155    82.312554 
    3000    53.339975   -110.30117   0.04826313   -110.25291    3066.0911    4.3494745    4.3494745    4.3494745    3066.0911    5543.6703    6021.4441   -2366.8411   -1597.6155    192.80185   -422.05842    82.283048 
    3100    168.50703   -110.40451   0.15246871   -110.25204    -1951.791    4.3490199    4.3490199    4.3490199    -1951.791   -1425.0239   -1220.8607   -3209.4885    1479.5289   -98.229302   -165.86539     82.25725 
    3200    51.808288   -110.29992  0.046877228   -110.25305    2894.8998    4.3491347    4.3491347    4.3491347    2894.8998    2033.3456     9300.934   -2649.5801   -1503.9039    739.07401    389.38193    82.263764 
    3300    130.63199   -110.37095   0.11819857   -110.25275   -1831.8661    4.3496892    4.3496892    4.3496892   -1831.8661    2593.6537   -3804.9852   -4284.2669    122.08012    869.40643    211.81951    82.295234 
    3400    94.102352   -110.33808  0.085145785   -110.25293    2592.4319     4.348278     4.348278     4.348278    2592.4319   -1487.3537    11351.145    -2086.495   -742.96992    221.53158    431.14257    82.215157 
    3500    104.85826   -110.34798  0.094877958   -110.25311   -789.58597    4.3494476    4.3494476    4.3494476   -789.58597    4159.6689    -2339.683   -4188.7438   -156.56003    617.80508   -21.013751    82.281519 
    3600    73.694249   -110.31974  0.066680105   -110.25306    988.21037    4.3489666    4.3489666    4.3489666    988.21037   -2057.6355     8047.015   -3024.7484    834.51494    483.26553    642.01599    82.254227 
    3700    122.13716   -110.36288   0.11051227   -110.25237   -160.99239    4.3488014    4.3488014    4.3488014   -160.99239    771.49099    974.63676   -2229.1049    -1619.008   -303.20349   -30.143733     82.24485 
    3800    77.545524   -110.32286  0.070164819   -110.25269    204.80536    4.3494074    4.3494074    4.3494074    204.80536    481.77945    4556.6077   -4423.9711    1978.1602    906.23438    665.43312     82.27924 
    3900    97.634375   -110.34093  0.088341634   -110.25259   -1537.2868    4.3491329    4.3491329    4.3491329   -1537.2868   -3388.4058    3120.4169   -4343.8713   -1384.7289   -101.34343    358.87583    82.263662 
    4000    110.71721    -110.3524   0.10017926   -110.25222   -114.10115    4.3492174    4.3492174    4.3492174   -114.10115    1068.4047    222.76148   -1633.4696    932.10525   -307.22344    328.29145    82.268459 
    4100    99.977352   -110.34282  0.090461609   -110.25236   -1313.1997    4.3497317    4.3497317    4.3497317   -1313.1997   -4472.1505    6255.4053    -5722.854   -545.11449    1721.1841    913.39348    82.297648 
    4200    104.03587   -110.34663  0.094133841    -110.2525   -2237.2251    4.3491962    4.3491962    4.3491962   -2237.2251   -968.82083   -3318.5894   -2424.2652    892.39512    108.64722   -428.98581    82.267251 
    4300     93.73575   -110.33728  0.084814076   -110.25247    521.48205    4.3495402    4.3495402    4.3495402    521.48205   -2961.9135    8046.6855   -3520.3258    1365.8568   -366.92656    180.54261    82.286779 
    4400    138.20601   -110.37762    0.1250517   -110.25257   -3634.0832    4.3499242    4.3499242    4.3499242   -3634.0832   -2440.7315    -3610.591   -4850.9272   -1248.2557    480.06656    496.73842    82.308573 
    4500    37.164485   -110.28703  0.033627207   -110.25341    2127.1203      4.34861      4.34861      4.34861    2127.1203   -645.31895     8362.773   -1336.0931    3293.8504    690.96318   -415.06133    82.233994 
    4600    158.23186   -110.39564   0.14317151   -110.25247   -3512.4748    4.3502739    4.3502739    4.3502739   -3512.4748   -3953.5963   -3000.5795   -3583.2486   -835.47617   -94.815117   -588.59682    82.328423 
    4700    51.272607   -110.29954  0.046392532   -110.25315    2835.4243     4.348773     4.348773     4.348773    2835.4243    1581.0061    8472.2668   -1546.9999    2299.5749   -20.257493   -122.37858    82.243243 
    4800    113.88174   -110.35599   0.10304259   -110.25295   -2258.0479    4.3493315    4.3493315    4.3493315   -2258.0479   -3851.9947   -397.56624   -2524.5829    177.33717    497.72741    4.0176854    82.274934 
    4900    93.613962   -110.33761   0.08470388   -110.25291    1518.2507    4.3495505    4.3495505    4.3495505    1518.2507    2123.1184    4863.2934   -2431.6597    728.23798   -250.41829   -576.23261    82.287358 
    5000    99.325104    -110.3425  0.089871441   -110.25263    1285.3123     4.348639     4.348639     4.348639    1285.3123   -500.24828    4808.9659   -452.78062    856.67821     585.5909    284.65358    82.235639 
    5100    115.54827   -110.35712   0.10455051   -110.25257   -1158.7108    4.3495123    4.3495123    4.3495123   -1158.7108   -1567.9059    983.03376   -2891.2603    -963.6058    324.77275    277.88274    82.285192 
    5200    70.386468   -110.31621  0.063687155   -110.25253    3918.2133    4.3489098    4.3489098    4.3489098    3918.2133    5028.9406    7665.3956   -939.69636    1757.0197    49.856651    58.793169    82.251001 
    5300    163.79831    -110.4003   0.14820816   -110.25209   -2238.7579    4.3489145    4.3489145    4.3489145   -2238.7579   -2960.4047   -563.60052   -3192.2684   -485.70464    1214.1555   -344.68325    82.251269 
    5400    35.479129   -110.28525  0.032102261   -110.25315    4037.7324    4.3491129    4.3491129    4.3491129    4037.7324    4704.8783     9077.464   -1669.1449     1502.959    618.53711    58.090653    82.262525 
    5500    153.40344    -110.3912   0.13880265    -110.2524   -2106.5777    4.3492131    4.3492131    4.3492131   -2106.5777    270.38488   -2849.6393   -3740.4788   -849.23889   -385.73445    23.844658    82.268212 
    5600     66.08716   -110.31279  0.059797051   -110.25299    3350.3705    4.3483938    4.3483938    4.3483938    3350.3705   0.49244754    10875.629   -825.00973    1097.2141    350.85044   -783.15728    82.221728 
    5700    110.16896   -110.35268  0.099683192   -110.25299   -1973.9246     4.350059     4.350059     4.350059   -1973.9246     2205.691   -3265.7223   -4861.7423     794.0052    805.73304    236.40347    82.316222 
    5800    79.487908   -110.32498  0.071922329   -110.25305    1219.9342    4.3484637    4.3484637    4.3484637    1219.9342   -1592.5965    8006.9914   -2754.5921   -572.21025   -350.01717   -1216.7987    82.225694 
    5900    118.38512   -110.35973   0.10711734   -110.25261   -1113.3669    4.3494061    4.3494061    4.3494061   -1113.3669    528.18032   -445.49553   -3422.7856    1081.0013    97.511839    128.17132    82.279166 
    6000    80.491599    -110.3256  0.072830491   -110.25277   -714.71426     4.349886     4.349886     4.349886   -714.71426   -2042.7027     4136.753   -4238.1931   -373.36602    1330.0906   -636.81023    82.306406 
    6100    106.45419   -110.34879  0.096321991   -110.25246    -1126.936    4.3487671    4.3487671    4.3487671    -1126.936   -1792.8254     1690.698   -3278.6805    1276.8086   -32.041335   -608.10315    82.242904 
    6200    112.16954   -110.35372   0.10149336   -110.25223    -1026.671    4.3498295    4.3498295    4.3498295    -1026.671   -429.81029    1135.9382    -3786.141   -1666.3628    317.13997    271.59654    82.303196 
    6300    91.432149   -110.33517   0.08272973   -110.25244   -1562.1522    4.3497663    4.3497663    4.3497663   -1562.1522   -3664.2403    4819.6116    -5841.828    1462.9556    447.28581   -854.18861    82.299611 
    6400    108.49322   -110.35051  0.098166941   -110.25235   -1668.1653    4.3491153    4.3491153    4.3491153   -1668.1653   -199.24496   -2911.2861   -1893.9648     205.2089   -182.37356   -322.67683    82.262664 
    6500    97.013682   -110.34009  0.087780018   -110.25231    22.926058    4.3498201    4.3498201    4.3498201    22.926058   -3828.2458    8634.8772   -4737.8533   -546.23697     1181.525    -506.2377    82.302664 
    6600    114.34732   -110.35593   0.10346386   -110.25247   -2692.9431    4.3494296    4.3494296    4.3494296   -2692.9431   -1522.5196   -3602.8795   -2953.4304    433.60215    150.07186    364.64758    82.280502 
    6700    60.351527   -110.30755   0.05460733   -110.25295    1218.1647    4.3490833    4.3490833    4.3490833    1218.1647   -2607.9943    8406.6816   -2144.1932   -1497.1744   -490.17485    19.879196    82.260848 
    6800    146.41498   -110.38495   0.13247935   -110.25247   -2776.4878    4.3499447    4.3499447    4.3499447   -2776.4878   -2409.1159   -2082.4285   -3837.9191    942.14983    264.46054   -377.93419    82.309737 
    6900    50.858148   -110.29921  0.046017521   -110.25319     2533.286    4.3484169    4.3484169    4.3484169     2533.286    298.07702     7857.317    -555.5361   -2198.7245     799.7148    1421.0146    82.223039 
    7000    126.93927   -110.36757   0.11485732   -110.25271   -2289.1061    4.3498732    4.3498732    4.3498732   -2289.1061   -4478.7031   -714.77676   -1673.8385    763.22197   -196.54706   -322.35601    82.305676 
    7100    84.096708   -110.32895  0.076092469   -110.25286    2505.6439     4.348899     4.348899     4.348899    2505.6439     3586.903    4690.0275   -759.99883    -920.1221   -3.9144927     461.7905    82.250392 
    7200    110.05561   -110.35223   0.09958063   -110.25265    155.87308    4.3486384    4.3486384    4.3486384    155.87308   -1932.7405    3993.3416   -1592.9819   -255.28539    1294.5086    318.56959    82.235604 
    7300    102.27714   -110.34525  0.092542508   -110.25271    188.01909    4.3497458    4.3497458    4.3497458    188.01909     896.8603     157.4568   -490.25983   -227.10953    153.92504    341.47444    82.298445 
    7400    88.392812   -110.33239  0.079979674   -110.25241    2949.4014     4.348519     4.348519     4.348519    2949.4014    3066.1223    6557.6781   -775.59637   -988.72511   -80.896209   -365.18527    82.228834 
    7500    141.91394   -110.38056   0.12840671   -110.25215   -1405.8782    4.3490556    4.3490556    4.3490556   -1405.8782   -3086.4388    -273.2246   -857.97129    1199.0268     336.5931   -299.91893    82.259274 
    7600    45.853927   -110.29436  0.041489597   -110.25287    3523.6815    4.3493006    4.3493006    4.3493006    3523.6815    3786.1831    7142.2242   -357.36283   -1503.7881    96.523188    120.05649    82.273175 
    7700    155.02534   -110.39253   0.14027019   -110.25226   -2302.5182    4.3490234    4.3490234    4.3490234   -2302.5182   -2502.9214   -1854.6432   -2549.9899     569.8763     403.7414   -386.25223    82.257447 
    7800     56.35585   -110.30409  0.050991958    -110.2531    3428.1557    4.3486601    4.3486601    4.3486601    3428.1557    247.02313    10326.369   -288.92511   -1353.3003    417.66159    962.98887    82.236834 
    7900    118.44196   -110.36004   0.10716877   -110.25287   -1946.1208     4.349838     4.349838     4.349838   -1946.1208    222.43748   -3098.4827   -2962.3172     262.9135     47.57948   -638.67544    82.303679 
    8000    81.911577   -110.32706  0.074115317   -110.25294    1506.7329    4.3485826    4.3485826    4.3485826    1506.7329   -3316.2596    8651.0367   -814.57846   -681.53409    267.28927    938.55193    82.232441 
    8100    108.03967   -110.35046  0.097756564    -110.2527   -445.84928    4.3493381    4.3493381    4.3493381   -445.84928    1001.7058    746.67942   -3085.9331   -1120.0906    851.45223    182.96616    82.275304 
    8200    94.788937   -110.33852  0.085767022   -110.25275   -997.43252    4.3496337    4.3496337    4.3496337   -997.43252   -2803.8283    4021.5732   -4210.0424    1126.3559     -321.608    232.47883    82.292083 
    8300    96.228015   -110.33967   0.08706913    -110.2526    -171.7705    4.3489766    4.3489766    4.3489766    -171.7705   -1909.5504    2713.6077   -1319.3688    -2099.035   -250.20246    192.55112    82.254792 
    8400     122.5129   -110.36315   0.11085225    -110.2523   -1883.1954    4.3498538    4.3498538    4.3498538   -1883.1954   -2280.7103    1230.2752    -4599.151    764.43804    1723.5922    541.66239    82.304575 
    8500    81.825636   -110.32648  0.074037555   -110.25244   -633.50053     4.349366     4.349366     4.349366   -633.50053   -3586.1775    4256.8559   -2571.1799   -1262.8104    39.186896    672.86007     82.27689 
    8600    121.63635   -110.36223   0.11005912   -110.25217   -2948.7051    4.3495516    4.3495516    4.3495516   -2948.7051    -3142.528   -2668.0717   -3035.5156    820.93945   -263.23865    -1044.778    82.287423 
    8700    85.847349   -110.33011  0.077676486   -110.25244   -236.82013     4.349825     4.349825     4.349825   -236.82013   -4354.6171    7049.4978   -3405.3411   -197.82436    510.49421    1207.7208    82.302941 
    8800    115.09902   -110.35657   0.10414402   -110.25242    -3003.146    4.3493084    4.3493084    4.3493084    -3003.146   -2365.4729   -3873.4952     -2770.47   -1011.4114    192.81363     263.1791    82.273619 
    8900    65.637571   -110.31223  0.059390254   -110.25284    576.29008    4.3492739    4.3492739    4.3492739    576.29008   -4654.8775     6595.515   -211.76725    1900.6545    480.73689   -427.29875    82.271664 
    9000    131.09165   -110.37094   0.11861448   -110.25232   -2569.4753    4.3500254    4.3500254    4.3500254   -2569.4753   -2383.6013   -2326.2175    -2998.607   -1385.3459    234.95525    566.12033    82.314315 
    9100    60.175947    -110.3074  0.054448461   -110.25295    1899.2022    4.3482881    4.3482881    4.3482881    1899.2022   -1006.4699    6746.8118   -42.735177    1584.5391    309.66352   -576.76581    82.215733 
    9200    126.71481   -110.36737   0.11465423   -110.25272   -1976.6772    4.3498251    4.3498251    4.3498251   -1976.6772     -3491.99   -1400.7855    -1037.256   -377.09645    167.24387    130.45663    82.302945 
    9300    83.271537   -110.32822  0.075345837   -110.25288    2569.5051    4.3490665    4.3490665    4.3490665    2569.5051    1804.2175     4856.477    1047.8208    1400.6253    769.68148   -1278.9388    82.259895 
    9400    120.99082   -110.36206   0.10947504   -110.25258   -58.504663    4.3485122    4.3485122    4.3485122   -58.504663   -3623.6614     3155.981    292.16646    358.07639   -390.81938    632.39623    82.228446 
    9500    93.341081   -110.33706  0.084456971    -110.2526    1296.6341    4.3496501    4.3496501    4.3496501    1296.6341    1453.8534    381.36989     2054.679   -591.62268    -172.5771    -651.2007    82.293012 
    9600    102.95167   -110.34539  0.093152831   -110.25224    1993.3156    4.3486485    4.3486485    4.3486485    1993.3156   -1239.0744    7706.1507   -487.12938    1351.3998    1261.9854    478.42201    82.236178 
    9700    123.24149   -110.36376   0.11151149   -110.25225    70.958642    4.3488123    4.3488123    4.3488123    70.958642   -1601.2125   -469.09817    2283.1866   -575.75171    74.235968   -180.16243     82.24547 
    9800    60.341648    -110.3073  0.054598391    -110.2527    2988.7623    4.3493975    4.3493975    4.3493975    2988.7623    1665.1215    6992.4399    308.72562    756.46933    -189.5215   -101.20461    82.278678 
    9900    137.32249   -110.37642   0.12425227   -110.25217   -1208.1202    4.3487551    4.3487551    4.3487551   -1208.1202   -3703.9124   -195.09165    274.64347   -750.17427    300.84259    875.29204    82.242228 
   10000    64.787041   -110.31134  0.058620676   -110.25272    2653.1133    4.3489655    4.3489655    4.3489655    2653.1133    647.75512    7093.9642    217.62051     981.2745    447.59936   -758.33928    82.254166 
   10100    117.83269   -110.35932   0.10661749    -110.2527   -2069.1383    4.3497879    4.3497879    4.3497879   -2069.1383   -1294.7432   -1769.5583   -3143.1134   -171.31608   -374.71278    536.45662    82.300836 
   10200    79.417685   -110.32512   0.07185879   -110.25326    1474.4061    4.3483363    4.3483363    4.3483363    1474.4061   -2291.8201    6744.7106   -29.672143    170.90884    254.42012   -1546.0611    82.218467 
   10300    117.22468   -110.35907   0.10606735     -110.253   -1311.9156    4.3500564    4.3500564    4.3500564   -1311.9156   -1189.9718    234.39539   -2980.1705     1320.677    902.75884    528.15328    82.316078 
   10400    92.240814   -110.33644  0.083461427   -110.25298   -926.55835    4.3492327    4.3492327    4.3492327   -926.55835   -2780.6191    2613.8861    -2612.942   -316.33254     31.28557   -1482.1317    82.269322 
   10500    96.300468   -110.33974  0.087134687   -110.25261   -452.75705    4.3489034    4.3489034    4.3489034   -452.75705   -2766.8436    3829.5266   -2420.9541    1278.4984    1023.5245   -690.68019     82.25064 
   10600    128.57102   -110.36852   0.11633376   -110.25219   -2538.7202    4.3505876    4.3505876    4.3505876   -2538.7202   -3570.1309     48.77786   -4094.8075   -1218.4851   -174.98358    769.60486    82.346235 
   10700    73.924646   -110.31943  0.066888573   -110.25254    51.279207    4.3486103    4.3486103    4.3486103    51.279207   -2918.1496    4770.9212    -1698.934    1059.6648   -65.731718   -2064.2609    82.234011 
   10800    122.89896   -110.36342   0.11120156   -110.25222    -2750.703     4.349684     4.349684     4.349684    -2750.703   -4516.4714   -975.74758   -2759.8901   -25.324301    1536.8112    182.72745     82.29494 
   10900    88.053132     -110.332  0.079672324   -110.25233   -205.48278    4.3501007    4.3501007    4.3501007   -205.48278   -4112.4464    6148.7335   -2652.7355   -112.51045    99.223641   -1351.8409    82.318594 
   11000    102.68503   -110.34531  0.092911573    -110.2524    -2018.015    4.3486064    4.3486064    4.3486064    -2018.015   -3083.6901   -1114.4552   -1855.8997    582.17916   -94.331871   -146.51877    82.233788 
   11100    77.972321   -110.32335  0.070550995    -110.2528    303.23538    4.3497136    4.3497136    4.3497136    303.23538   -4370.9077    7484.3481   -2203.7343   -753.80213    451.05041    -937.5302    82.296619 
   11200    118.72776      -110.36   0.10742738   -110.25258   -1039.5426    4.3495204    4.3495204    4.3495204   -1039.5426    -2558.552   -432.68305   -127.39285    1201.3429    752.63787   -727.51509    82.285652 
   11300    80.594152   -110.32608  0.072923282   -110.25316    568.00021     4.348405     4.348405     4.348405    568.00021   -3605.3997    5906.8597   -597.45934   -2246.6578   -410.37522    760.33316    82.222361 
   11400    105.12202     -110.348  0.095116616   -110.25289   -577.30194    4.3500686    4.3500686    4.3500686   -577.30194   -3513.9103    505.61129    1276.3932    602.39327     214.0617    -1560.233    82.316769 
   11500    115.76828   -110.35726   0.10474957   -110.25252    508.35494    4.3486901    4.3486901    4.3486901    508.35494   -1590.2928    3880.4019   -765.04429   -597.08417    879.60515    1097.6264    82.238538 
   11600    96.835188   -110.34019  0.087618513   -110.25257    755.00413    4.3489598    4.3489598    4.3489598    755.00413   -3899.4793    3104.4236    3060.0682   -1343.0458   -139.69901    -1042.942    82.253838 
   11700    102.56866   -110.34538  0.092806277   -110.25257    437.01662    4.3497085    4.3497085    4.3497085    437.01662   -1241.5102    621.25887    1931.3012   -204.84723    710.11318    1046.2143    82.296326 
   11800    106.06441   -110.34833  0.095969308   -110.25236    1672.2943    4.3481553    4.3481553    4.3481553    1672.2943   -2583.1412    7025.9313    574.09267   -1075.6267   -310.95405   -736.15143    82.208199 
   11900    102.11432    -110.3448  0.092395179   -110.25241    123.09563     4.349717     4.349717     4.349717    123.09563   -2991.4089   -652.27314     4012.969    746.70511   -210.36344   -428.51586    82.296811 
   12000    75.065176   -110.32042  0.067920549    -110.2525     1517.817    4.3490481    4.3490481    4.3490481     1517.817   -605.32616    6457.9418   -1299.1647   -1013.5304    540.07352    -232.2121    82.258849 
   12100    129.03531   -110.36888   0.11675386   -110.25212   -389.55854    4.3484846    4.3484846    4.3484846   -389.55854   -2912.8024    67.559996    1676.5667    597.97034    178.55109   -731.34732    82.226881 
   12200    69.224975   -110.31542  0.062636212   -110.25278    1909.6037     4.349849     4.349849     4.349849    1909.6037   -1917.7162    6079.7944    1566.7331   -391.87018    99.095493    527.26825    82.304305 
   12300    118.52767   -110.36004   0.10724632    -110.2528     -2037.43    4.3490079    4.3490079    4.3490079     -2037.43   -2118.4438    -830.3801   -3163.4662   -448.61234    606.23651   -1650.6363    82.256571 
   12400    81.766756   -110.32694  0.073984279   -110.25296    1870.6221    4.3486998    4.3486998    4.3486998    1870.6221   -2977.8421    7323.9425    1265.7659   -188.29456    1293.8652    1841.3294    82.239089 
   12500    124.93847   -110.36569   0.11304695   -110.25264   -1847.7533     4.350341     4.350341     4.350341   -1847.7533   -2315.4893    769.33895   -3997.1095   -934.63135   -715.39172   -1075.1074    82.332237 
   12600    76.749397   -110.32245  0.069444467   -110.25301    600.07865    4.3483683    4.3483683    4.3483683    600.07865    -2301.819    3673.9654    428.08962    741.75428    668.55004     423.4872    82.220282 
   12700    119.87548   -110.36108   0.10846586   -110.25262   -1025.3888    4.3495542    4.3495542    4.3495542   -1025.3888   -4467.4785    4664.8091   -3273.4969   -1521.4589    1514.1072    733.94865    82.287569 
   12800    110.67998   -110.35276   0.10014557   -110.25262   -1401.8361    4.3500299    4.3500299    4.3500299   -1401.8361   -2350.7226   -205.95471   -1648.8311    375.79177   -216.98217    534.84586    82.314571 
   12900    73.916934   -110.31969  0.066881595   -110.25281   -308.58942    4.3485973    4.3485973    4.3485973   -308.58942   -4541.7997    5167.0399   -1551.0085   -729.25241    917.00936    1006.2603    82.233274 
   13000    132.49004   -110.37205   0.11987977   -110.25217   -2668.9474    4.3500725    4.3500725    4.3500725   -2668.9474   -4014.6212   -461.05472   -3531.1662    142.00697    322.08803   -986.03419    82.316989 
   13100    65.196747   -110.31143  0.058991387   -110.25244    1739.1526    4.3490476    4.3490476    4.3490476    1739.1526   -2661.2186    6108.1967    1770.4798   -151.98391    135.46651    2223.2217    82.258823 
   13200    123.56203   -110.36435   0.11180152   -110.25254   -3643.2842    4.3493567    4.3493567    4.3493567   -3643.2842   -5822.3598   -1243.8907   -3863.6021   -976.90684    514.01762   -888.56178    82.276363 
   13300    62.942819   -110.31015  0.056951985    -110.2532    1820.4449    4.3494095    4.3494095    4.3494095    1820.4449   -3325.6674    6497.0968    2289.9052    1557.1565    530.44977    1457.8458     82.27936 
   13400    132.96234   -110.37298   0.12030712   -110.25267   -1900.7968     4.349062     4.349062     4.349062   -1900.7968   -3425.2616   -184.66368   -2092.4652   -1768.5495   -1.0267515    494.70254     82.25964 
   13500    77.954964    -110.3237  0.070535289   -110.25317    461.96994    4.3493027    4.3493027    4.3493027    461.96994   -4619.2656    4068.1874     1936.988    883.22621    423.10326      658.723    82.273295 
   13600     108.0313   -110.35056  0.097748994   -110.25282     306.0365     4.349281     4.349281     4.349281     306.0365   -3072.5264     1437.375    2553.2609    94.342844    1290.1053    997.01406    82.272065 
   13700    123.36625   -110.36446   0.11162438   -110.25283   -17.153298    4.3485776    4.3485776    4.3485776   -17.153298   -3269.2857    4308.1568    -1090.331    728.61116   -981.24102   -796.24679    82.232154 
   13800    78.803793   -110.32454  0.071303328   -110.25323    749.90335    4.3496485    4.3496485    4.3496485    749.90335   -4800.9059    1978.0146    5072.6014    591.14908    350.35571    1297.1327    82.292924 
   13900    116.57226   -110.35817   0.10547703   -110.25269   -275.99039    4.3490825    4.3490825    4.3490825   -275.99039   -2555.9064     3113.611   -1385.6758   -447.63599    733.67734   -751.79757    82.260801 
   14000    92.848612   -110.33635  0.084011375   -110.25234     2351.323    4.3483204    4.3483204    4.3483204     2351.323   -2880.6035    7076.2582    2858.3142    1721.9191   -346.76329    990.94034    82.217565 
   14100    101.21092   -110.34403  0.091577766   -110.25246   -883.26185    4.3501522    4.3501522    4.3501522   -883.26185   -4016.2377   -1565.2936    2931.7457   -900.59228    415.45727    -938.9804    82.321513 
   14200    84.810964   -110.32935  0.076738743   -110.25261     833.3517    4.3486383    4.3486383    4.3486383     833.3517    -2429.286    8426.8463   -3497.5052       952.18    716.25664    690.67955    82.235599 
   14300    114.30912   -110.35572    0.1034293   -110.25229      78.1969    4.3488734    4.3488734    4.3488734      78.1969   -3158.5173   -335.92241    3729.0304   -151.60024    534.47326    468.51184    82.248936 
   14400    90.964461   -110.33493  0.082306556   -110.25262   -587.18117    4.3500815    4.3500815    4.3500815   -587.18117   -2973.5137    4371.1658   -3159.1957   -69.325914   -414.12844    -590.4123      82.3175 
   14500    94.564302   -110.33821  0.085563768   -110.25265    23.752428    4.3486461    4.3486461    4.3486461    23.752428   -2068.6195    1845.6944    294.18239    208.46806    1522.8731    1133.5734    82.236039 
   14600    112.17008   -110.35404   0.10149385   -110.25255    252.97597     4.349133     4.349133     4.349133    252.97597    -3385.506    4439.2087   -294.77478   -942.52017    229.94049   -1138.4196    82.263668 
   14700    106.20303   -110.34903  0.096094734   -110.25293    -1707.253    4.3498948    4.3498948    4.3498948    -1707.253   -2586.9808    622.33247   -3157.1106    975.59535    321.17605    895.83739    82.306901 
   14800     80.30467   -110.32593  0.072661353   -110.25326    109.68709    4.3487754    4.3487754    4.3487754    109.68709   -2812.6722    3069.2524    72.481149   -569.96285    1608.4902   -2447.1919    82.243378 
   14900    129.91832   -110.37007   0.11755282   -110.25252   -1113.1945    4.3495666    4.3495666    4.3495666   -1113.1945   -3958.0362    3030.8391   -2412.3863    676.07968     -847.235    707.82607    82.288274 
   15000    87.731089   -110.33201  0.079380933   -110.25263   -178.33737    4.3493084    4.3493084    4.3493084   -178.33737   -886.75073   -492.97139    844.71002   -789.60328    666.06581   -450.23683    82.273621 
   15100    89.336959   -110.33337  0.080833958   -110.25254   -948.72101    4.3492642    4.3492642    4.3492642   -948.72101   -5393.6999    5701.3134   -3153.7764     731.1006    775.96015     -1301.45    82.271113 
   15200    116.37512   -110.35755   0.10529865   -110.25225   -579.03577     4.349489     4.349489     4.349489   -579.03577   -2595.9854   -173.59522    1032.4733    48.679721   -35.426793    522.58645    82.283873 
   15300    80.066584   -110.32497  0.072445928   -110.25253    759.48315    4.3487258    4.3487258    4.3487258    759.48315   -2374.6948    6316.6296   -1663.4854   -735.09446    24.925333   -1337.1955     82.24056 
   15400     102.7056   -110.34536  0.092930187   -110.25243   -1241.2682    4.3497692    4.3497692    4.3497692   -1241.2682   -5167.7942    809.53468    634.45489    1134.6906    1031.7496    689.48882    82.299771 
   15500    94.546757   -110.33795  0.085547893    -110.2524    1894.1992    4.3489566    4.3489566    4.3489566    1894.1992   -1826.4868    6195.3637    1313.7206   -839.97492    772.70935   -1659.4329     82.25366 
   15600    121.70542   -110.36268   0.11012163   -110.25256   -1003.2431    4.3486672    4.3486672    4.3486672   -1003.2431   -3803.8242    2089.3188    -1295.224    564.69538   -944.14332    584.40845    82.237239 
   15700    78.665814   -110.32456  0.071178482   -110.25338    363.66775    4.3498561    4.3498561    4.3498561    363.66775   -5067.9204    3862.0359    2296.8877    -1556.512    1560.4122    -733.7959    82.304705 
   15800      120.704   -110.36216   0.10921552   -110.25295    227.49406    4.3489493    4.3489493    4.3489493    227.49406   -2683.5431    3929.7828   -563.75749    869.33184   -184.70293   -831.17106    82.253245 
   15900    112.71157   -110.35491    0.1019838   -110.25292   -52.571096      4.34867      4.34867      4.34867   -52.571096   -4386.4149    2799.9573    1428.7443   -584.02233   -328.75585   -154.44221    82.237397 
   16000    65.918788   -110.31274  0.059644705   -110.25309    903.98715    4.3499258    4.3499258    4.3499258    903.98715   -4226.7664    4834.9664    2103.7614   -1197.5455    1284.1463   -911.80856    82.308663 
   16100    134.36276   -110.37393   0.12157425   -110.25236   -1655.9597    4.3489917    4.3489917    4.3489917   -1655.9597   -3814.6874    2141.1463   -3294.3379    397.02678   -529.28639    792.60815    82.255649 
   16200     73.92039   -110.31953  0.066884722   -110.25265    1639.8423    4.3487202    4.3487202    4.3487202    1639.8423   -4065.5859    5641.2935    3343.8193   -1752.5144    376.91155   -1214.5929    82.240245 
   16300    102.65086   -110.34547  0.092880651   -110.25259   -2049.1759    4.3500979    4.3500979    4.3500979   -2049.1759   -4022.5709     215.2663   -2340.2231    463.90226    276.35961    69.907515    82.318434 
   16400     93.64841   -110.33714  0.084735049   -110.25241    861.50574    4.3487736    4.3487736    4.3487736    861.50574   -2880.2493    5959.5836   -494.81705   -1530.0146    566.62889   -532.18619    82.243274 
   16500    112.62248   -110.35409   0.10190318   -110.25218   -638.87706    4.3493426    4.3493426    4.3493426   -638.87706    -3637.822    13.273663    1707.9171    228.01788   -66.182082   -453.72189    82.275561 
   16600    85.117773   -110.32975   0.07701635   -110.25274   -785.09572    4.3494112    4.3494112    4.3494112   -785.09572   -3401.7587    5520.6669   -4474.1953    215.14426    1082.0011   -493.91467    82.279456 
   16700    110.88512   -110.35297   0.10033118   -110.25264   -370.01785    4.3491596    4.3491596    4.3491596   -370.01785   -2926.3967    1034.4454    781.89774    -694.9981    1000.7998    -1032.715    82.265176 
   16800    113.37979    -110.3553   0.10258841   -110.25271   -43.705932    4.3493851    4.3493851    4.3493851   -43.705932   -3961.5679    4500.4157   -669.96564    744.05773   -1326.1363    1072.5273    82.277973 
   16900    84.205148   -110.32919  0.076190588     -110.253   -62.826199    4.3488816    4.3488816    4.3488816   -62.826199   -1517.6019    3195.5988   -1866.4756   -520.11565    1642.8149   -2125.4152    82.249401 
   17000    112.27627   -110.35417   0.10158993   -110.25258   -788.91627    4.3495944    4.3495944    4.3495944   -788.91627   -4281.3453    1909.1896    5.4068218    1309.6097    204.22186    717.63523    82.289854 
   17100    104.28335   -110.34687  0.094357765   -110.25251    149.52032    4.3492558    4.3492558    4.3492558    149.52032    -3159.076    4829.2059    -1221.569    -1060.307   -680.31198   -570.10527    82.270638 
   17200    87.303941   -110.33187  0.078994441   -110.25287   -500.85228    4.3487199    4.3487199    4.3487199   -500.85228    -1778.609    422.58205   -146.52991    617.44195    1019.4038    675.93525     82.24023 
   17300    93.083959   -110.33687  0.084224322   -110.25264    416.99629    4.3497199    4.3497199    4.3497199    416.99629   -5023.5069    6258.7616    15.734195    -200.6575    319.82262   -47.363261    82.296975 
   17400    117.27691   -110.35838   0.10611461   -110.25227   -206.69821    4.3491823    4.3491823    4.3491823   -206.69821   -1251.9893   -120.37819    752.27284   -590.33416    418.68048   -3.7768665    82.266463 
   17500    68.864837   -110.31491  0.062310352    -110.2526    1007.6044    4.3486122    4.3486122    4.3486122    1007.6044   -3285.8984     6564.666    -255.9545    256.24833    148.79475     836.1946    82.234116 
   17600    125.90276   -110.36618   0.11391947   -110.25226   -1807.5424    4.3499734    4.3499734    4.3499734   -1807.5424   -5019.0113    368.99851    -772.6143   -336.83115    1141.6451   -986.39136    82.311366 
   17700    91.807275   -110.33558  0.083069152   -110.25251    1784.0125    4.3488144    4.3488144    4.3488144    1784.0125   -1511.1392    4643.8305    2219.3462    1146.0472   -471.30936    672.47843    82.245592 
   17800    113.70268   -110.35556   0.10288058   -110.25268   -1468.7348    4.3492373    4.3492373    4.3492373   -1468.7348   -5225.2415    2127.1809   -1308.1437   -1532.3647    870.01856   -432.54771    82.269585 
   17900    92.143112   -110.33628  0.083373024   -110.25291    468.72612    4.3493827    4.3493827    4.3493827    468.72612   -3709.6233    2676.1378    2439.6639    1016.1135    1103.1316    1098.0564    82.277838 
   18000    114.93844    -110.3565   0.10399872    -110.2525   -283.33478    4.3491766    4.3491766    4.3491766   -283.33478   -3365.7938    4141.9457   -1626.1563   -319.69538   -1383.2817   -227.67421    82.266142 
   18100    92.707681   -110.33685  0.083883858   -110.25297   -632.03045    4.3492527    4.3492527    4.3492527   -632.03045   -5500.2972    1868.9909     1735.215   -59.478574    1431.9237    191.02941    82.270463 
   18200    80.211196   -110.32564  0.072576776   -110.25307    1059.9647     4.348943     4.348943     4.348943    1059.9647   -3610.5776    6693.7953    96.676394    496.71563    259.41864    1035.3837    82.252884 
   18300    127.17878   -110.36763   0.11507403   -110.25255   -1092.5935    4.3495941    4.3495941    4.3495941   -1092.5935   -3454.0002    1046.7213   -870.50153   -445.42483   -699.75928    57.122503    82.289834 
   18400    61.892589   -110.30887  0.056001715   -110.25287     1271.136    4.3491259    4.3491259    4.3491259     1271.136   -4883.0574    6686.1007    2010.3649      1385.75    993.10169    800.86283    82.263263 
   18500    124.41437    -110.3649   0.11257274   -110.25232   -2018.6996    4.3491261    4.3491261    4.3491261   -2018.6996    -2671.839    868.65114   -4252.9109   -724.06391    801.06255   -465.07284    82.263278 
   18600    93.153193   -110.33665  0.084286967   -110.25236    1435.0404    4.3493521    4.3493521    4.3493521    1435.0404    -3952.535    6714.0037    1543.6526    1051.8669    49.898016    1450.5367    82.276098 
   18700    109.96859   -110.35212  0.099501892   -110.25262    -1192.251    4.3493817    4.3493817    4.3493817    -1192.251   -3901.9057    650.20174   -325.04901    153.55379   -123.12133   -502.94183    82.277783 
   18800    96.295412   -110.33997  0.087130112   -110.25284     244.2024    4.3488451    4.3488451    4.3488451     244.2024   -2228.9151    5779.3573    -2817.835    256.32923    1171.1556    808.92438    82.247333 
   18900     107.2856   -110.34955  0.097074261   -110.25247    454.30931    4.3494443    4.3494443    4.3494443    454.30931   -3745.9696    2734.7485    2374.1491    186.58702   -300.05934    1153.2491    82.281332 
   19000    106.57376   -110.34916  0.096430179   -110.25273   -1468.5342    4.3493639    4.3493639    4.3493639   -1468.5342   -3463.1877    2460.6845   -3403.0994   -1637.9582    433.01233    682.46629    82.276772 
   19100    76.289946   -110.32211  0.069028746   -110.25308    822.94062    4.3488903    4.3488903    4.3488903    822.94062   -2652.8575    4535.2858    586.39352    874.55109    737.32139     1334.596    82.249897 
   19200    124.76614   -110.36571   0.11289102   -110.25282   -1035.8644    4.3493353    4.3493353    4.3493353   -1035.8644    -3761.819    917.14233    -262.9165   -1489.4497   -579.75691   -1021.4444    82.275146 
   19300    79.111476    -110.3247  0.071581726   -110.25312    -158.7569    4.3495239    4.3495239    4.3495239    -158.7569    -2504.258    3356.4647   -1328.4774   -294.63374    1118.2414    1819.1529    82.285851 
   19400    100.00228   -110.34328  0.090484169    -110.2528   -1378.5576    4.3493071    4.3493071    4.3493071   -1378.5576   -3022.1247    31.514508   -1145.0626   -92.614694    786.68803   -1367.2728    82.273545 
   19500    105.93367    -110.3482  0.095851011   -110.25235    256.53919    4.3489101    4.3489101    4.3489101    256.53919    -3164.482    6107.8202   -2173.7206   -247.92897   -271.40823    481.63597    82.251021 
   19600    98.110954   -110.34123  0.088772853   -110.25246   -706.71931    4.3498354    4.3498354    4.3498354   -706.71931   -2351.2415   -1560.6151    1791.6987   -563.89891    402.78427   -202.47056    82.303531 
   19700    95.271425   -110.33878  0.086203588   -110.25258   -217.86251    4.3490838    4.3490838    4.3490838   -217.86251   -3565.1852    6932.8588   -4021.2611   -435.67085    1830.6969   -266.20089    82.260877 
   19800    110.31507   -110.35208  0.099815391   -110.25226    840.05095      4.34873      4.34873      4.34873    840.05095   -2227.2171    1242.9031    3504.4668     827.6116   -28.016649    290.71882      82.2408 
   19900    105.10171   -110.34741  0.095098232   -110.25231   -610.89892    4.3498442    4.3498442    4.3498442   -610.89892   -3094.1975    3925.8594   -2664.3586   -1161.6243   -400.24778   -1139.4068    82.304028 
   20000    90.033644     -110.334  0.081464334   -110.25253    267.64116    4.3489722    4.3489722    4.3489722    267.64116   -4240.5231    3958.7896     1084.657    171.20779    1763.2287    1320.4712    82.254544 
   20100    114.14645   -110.35577    0.1032821   -110.25249    790.41765    4.3488512    4.3488512    4.3488512    790.41765   -2882.3601    3261.8239    1991.7892   -596.92679   -325.32399   -1401.0327    82.247677 
   20200    96.009043   -110.33972  0.086870999   -110.25285    27.750702    4.3495823    4.3495823    4.3495823    27.750702    -3394.416    5171.7849   -1694.1168   -59.625934    290.81859    402.12768    82.289163 
   20300    88.470574   -110.33317  0.080050035   -110.25312   -235.69767    4.3491349    4.3491349    4.3491349   -235.69767   -4592.5717    1631.0474    2254.4313   -361.95138    1202.7559   -1242.2481    82.263773 
   20400    99.464902   -110.34261  0.089997934   -110.25261    1159.5914    4.3489193    4.3489193    4.3489193    1159.5914   -2083.4891    8220.2722    -2658.009   -290.30107   -197.31545   -190.72847    82.251543 
   20500    112.15062    -110.3541   0.10147624   -110.25263   -943.93665    4.3492784    4.3492784    4.3492784   -943.93665   -4018.8703   -561.16379    1748.2242    279.71119    835.89879   -136.50558    82.271918 
   20600    68.923561   -110.31541  0.062363487   -110.25305    933.40204    4.3493131    4.3493131    4.3493131    933.40204   -4285.0532    6926.8475    158.41173     -860.511    851.58001   -1131.4095    82.273889 
   20700      137.214    -110.3766   0.12415411   -110.25244   -1283.2025    4.3492089    4.3492089    4.3492089   -1283.2025   -1729.4154   -33.023595   -2087.1687    -86.78671   -282.63536     1020.983    82.267975 
   20800    82.070221   -110.32691   0.07425886   -110.25265    1093.8467    4.3487639    4.3487639    4.3487639    1093.8467   -4030.4776    4457.2431    2854.7747   -1494.7465     709.0416   -1294.8972    82.242727 
   20900    110.61693   -110.35249   0.10008852    -110.2524   -2238.3321    4.3501289    4.3501289    4.3501289   -2238.3321   -3909.8218    671.29749    -3476.472    146.92685     1641.093     612.8378    82.320192 
   21000    98.728702   -110.34171  0.089331804   -110.25238    1048.1358    4.3488001    4.3488001    4.3488001    1048.1358   -2309.6396    4212.4768    1241.5703    -74.18745   -363.90747   -1824.2407    82.244781 
   21100    106.47289    -110.3489  0.096338906   -110.25256   -359.76459    4.3488859    4.3488859    4.3488859   -359.76459   -4249.4073    2905.7203    264.39331   -1343.5494   -241.53702     279.3338    82.249644 
   21200    90.657515   -110.33508  0.082028825   -110.25305   -1372.7768    4.3501587    4.3501587    4.3501587   -1372.7768   -3358.8427    1993.6508   -2753.1384    913.68651    1582.2653   -590.98389    82.321885 
   21300    85.293151   -110.33003  0.077175035   -110.25285    1308.7121     4.348599     4.348599     4.348599    1308.7121   -2163.9004    5711.8345    378.20215   -383.88777    2.1270104   -1980.4652    82.233371 
   21400     136.0406   -110.37561   0.12309239   -110.25252   -2333.9724    4.3493013    4.3493013    4.3493013   -2333.9724   -4009.4138   -8.6065301    -2983.897    431.95225    -298.1635    553.15942    82.273218 
   21500    45.903867   -110.29471  0.041534783   -110.25318    1754.7716    4.3495662    4.3495662    4.3495662    1754.7716   -2364.2824    6594.4045    1034.1927   -130.21328    950.91276   -1850.1884    82.288251 
   21600    148.10981   -110.38662   0.13401287    -110.2526   -2580.1583    4.3491547    4.3491547    4.3491547   -2580.1583   -3365.5411   -581.12375   -3793.8102    924.93317    645.95589    589.50017    82.264897 
   21700    73.708592   -110.31965  0.066693083   -110.25296    2229.1763    4.3489204    4.3489204    4.3489204    2229.1763   -2033.6377    7300.3068    1420.8598    133.61563    331.57148   -1099.0081    82.251606 
   21800    113.10278   -110.35508   0.10233777   -110.25274   -2400.7304    4.3497347    4.3497347    4.3497347   -2400.7304   -3335.6509    -381.8551   -3484.6853   -721.98587     714.8091    577.27069    82.297814 
   21900    93.134919   -110.33679  0.084270432   -110.25252     883.6999    4.3491279    4.3491279    4.3491279     883.6999   -3139.6775    6134.0964   -343.31921    749.31542     292.3244    362.69543    82.263379 
   22000    114.94025   -110.35617   0.10400035   -110.25217   -144.38729    4.3492576    4.3492576    4.3492576   -144.38729   -2764.9349    1022.1244    1309.6486   -442.55556    23.583309   -1264.0677     82.27074 
   22100    93.415995   -110.33706  0.084524755   -110.25253   -962.62294    4.3491319    4.3491319    4.3491319   -962.62294   -3609.9992    3260.7229   -2538.5925    492.97848    1757.0665    799.31169    82.263602 
   22200    88.995951   -110.33301  0.080525407   -110.25249    463.92887    4.3496362    4.3496362    4.3496362    463.92887   -3169.6915    3129.1654    1432.3128   -262.66882    99.031871   -625.44215    82.292224 
   22300    130.82292   -110.37058   0.11837132    -110.2522   -1491.3769    4.3492427    4.3492427    4.3492427   -1491.3769    -3418.064     181.6895   -1237.7563    190.14822   -615.07581     918.0353    82.269895 
   22400    56.502786   -110.30396  0.051124908   -110.25283    1673.0012    4.3485508    4.3485508    4.3485508    1673.0012   -2361.3544    6682.4275    697.93063      191.071    2122.5585   -1137.8289    82.230635 
   22500    124.85262   -110.36539   0.11296927   -110.25242   -1548.1157    4.3500583    4.3500583    4.3500583   -1548.1157   -5070.8618   -1445.7619    1872.2764   -407.20696     239.1315    683.91354    82.316183 
   22600    88.693449   -110.33295  0.080251696    -110.2527     1953.053    4.3485046    4.3485046    4.3485046     1953.053   -1138.7925    7970.0443   -972.09284    474.21193   -380.38808   -98.496143    82.228015 
   22700    100.40579   -110.34378  0.090849271   -110.25293   -643.37151    4.3489907    4.3489907    4.3489907   -643.37151   -3503.6222   -506.90282    2080.4105   -276.16535    1866.3705   -174.38992    82.255594 
   22800    95.239592   -110.33885  0.086174784   -110.25268    647.16109    4.3497159    4.3497159    4.3497159    647.16109   -4138.9209    6704.0172   -623.61305    734.70715    884.38986    261.23133     82.29675 
   22900    121.92776   -110.36253    0.1103228   -110.25221    330.32027    4.3487411    4.3487411    4.3487411    330.32027   -803.27663   -207.64574    2001.8832   -480.11906    133.86164   -129.32918    82.241429 
   23000    87.292232   -110.33143  0.078983846   -110.25245    580.21725    4.3490966    4.3490966    4.3490966    580.21725   -5315.2851    6185.3394    870.59738    133.85837    708.62145    813.16197      82.2616 
   23100    105.51227   -110.34779  0.095469722   -110.25232   -499.29841    4.3495791    4.3495791    4.3495791   -499.29841   -2187.2632    1586.9187   -897.55066    924.38973     314.5317   -1249.5863    82.288986 
   23200    108.69432   -110.35055  0.098348907    -110.2522    276.78249     4.348969     4.348969     4.348969    276.78249   -2581.0929    2821.6881    589.75225   -434.60425    21.592298    498.84013    82.254362 
   23300    85.530972   -110.32993  0.077390221   -110.25254   -134.42504    4.3493778    4.3493778    4.3493778   -134.42504   -4738.4382    5840.3009   -1505.1378    916.72808    819.51137   -434.26345    82.277561 
   23400    99.958376   -110.34292  0.090444439   -110.25247    -864.3425     4.349223     4.349223     4.349223    -864.3425   -1546.9869   -1077.1582    31.117664   -553.38536   -92.572595    880.68598    82.268773 
   23500    96.402087   -110.33968  0.087226634   -110.25245    271.99391    4.3493548    4.3493548    4.3493548    271.99391   -4704.1329    7430.5056   -1910.3909    936.53827    -544.2043    228.55175    82.276255 
   23600    108.23612   -110.35083  0.097934314   -110.25289   -2166.7381    4.3495328    4.3495328    4.3495328   -2166.7381   -2412.5538   -2807.1511   -1280.5094   -994.11741    1409.8182    334.85232    82.286358 
   23700    71.975465   -110.31831  0.065124913   -110.25318    424.99792    4.3488302    4.3488302    4.3488302    424.99792    -2721.618    7181.2358    -3184.624   -349.53654    262.53107    2068.2819    82.246485 
   23800    141.99734   -110.38104   0.12848218   -110.25256   -2572.9246    4.3501105    4.3501105    4.3501105   -2572.9246   -4028.9557   -2497.8698   -1191.9484    679.03293   -1136.1192    -558.6781    82.319149 
   23900     65.98459   -110.31253  0.059704244   -110.25282    1435.2436    4.3489275    4.3489275    4.3489275    1435.2436   -1974.9982    6758.0761   -477.34725    -1667.525    1164.1396    1249.7174    82.252009 
   24000    123.59236   -110.36417   0.11182896   -110.25234   -2398.4211    4.3491317    4.3491317    4.3491317   -2398.4211   -3601.9992    47.397085   -3640.6611    261.18935    1017.2404    421.05431    82.263596 
   24100    94.071203   -110.33752  0.085117601    -110.2524    751.73036    4.3497424    4.3497424    4.3497424    751.73036   -2232.9545    4964.0906   -475.94496   -1080.9306   -439.21831    816.22804    82.298253 
   24200    99.780469   -110.34281  0.090283466   -110.25253   -418.59742    4.3490271    4.3490271    4.3490271   -418.59742   -2829.0801    2799.4287   -1226.1408    149.63807    135.84814    -1.041669    82.257659 
   24300    105.66469   -110.34817   0.09560763   -110.25256   -842.44606    4.3491297    4.3491297    4.3491297   -842.44606   -2220.8111    2809.9723   -3116.4994   -347.81279    862.28764   -266.28034    82.263478 
   24400    77.099765   -110.32222  0.069761487   -110.25246    2337.5166    4.3493217    4.3493217    4.3493217    2337.5166   -2377.7156    6149.2734    3240.9919   -445.92201   -141.29334    1362.3404    82.274376 
   24500    139.18279    -110.3784   0.12593551   -110.25247   -2622.2431    4.3492113    4.3492113    4.3492113   -2622.2431   -3122.8259   -25.040788   -4718.8627    509.83755    693.20873   -358.14733    82.268109 
   24600    37.523093   -110.28734  0.033951683   -110.25339    3623.8063    4.3486928    4.3486928    4.3486928    3623.8063   -289.11636    9999.9097    1160.6257   -890.78424     1106.131    1320.7234    82.238689 
   24700    159.76589   -110.39718   0.14455954   -110.25262   -2612.9307    4.3495473    4.3495473    4.3495473   -2612.9307   -4255.7726   -2110.8654   -1472.1542    103.12723    -369.5614    -317.4712    82.287181 
   24800    52.190747   -110.30037  0.047223285   -110.25315    3766.7526    4.3486511    4.3486511    4.3486511    3766.7526    204.42107     10748.14    347.69712   -990.31926    1681.7354    1078.4199    82.236324 
   24900    131.61513   -110.37168   0.11908814   -110.25259   -2092.2305     4.349556     4.349556     4.349556   -2092.2305   -4091.9466   -2318.8219     134.0769    520.87467    734.49034   -398.55807    82.287673 
   25000    87.882882   -110.33205  0.079518278   -110.25253    2035.7385    4.3486568    4.3486568    4.3486568    2035.7385   -898.57278    8205.6049   -1199.8166   -443.30822   -1038.2304     30.47983    82.236647 
   25100     114.0555   -110.35563   0.10319981   -110.25243    -647.0643    4.3495529    4.3495529    4.3495529    -647.0643   -1477.0389   -682.30471    218.15071   -729.50837    1336.7466    819.98153      82.2875 
   25200    95.560008   -110.33901  0.086464703   -110.25254   -304.48138    4.3493853    4.3493853    4.3493853   -304.48138   -3866.1969    4115.1097   -1162.3569    221.66593    937.90085    -254.8249    82.277984 
   25300    91.356795   -110.33503  0.082661548   -110.25237    1283.8757    4.3486409    4.3486409    4.3486409    1283.8757    1014.7167    3024.7681   -187.85779   -407.94959   -707.76203    1075.4155    82.235747 
   25400    119.65257   -110.36044   0.10826416   -110.25218   -1706.2443    4.3499227    4.3499227    4.3499227   -1706.2443   -4856.5185    953.12893   -1215.3432    240.13836    17.265509   -958.31473    82.308488 
   25500    63.594535   -110.31022  0.057541672   -110.25267    691.80663    4.3490994    4.3490994    4.3490994    691.80663    -1363.813    5810.0671   -2370.8342   -1356.3148    936.20363    1689.5877    82.261761 
   25600    126.00386   -110.36641   0.11401094    -110.2524   -1961.1227    4.3490365    4.3490365    4.3490365   -1961.1227   -1353.0637   -1470.8606   -3059.4437    859.38874   -268.53157   -517.30427    82.258193 
   25700    78.987536   -110.32424  0.071469582   -110.25277    853.44783    4.3496325    4.3496325    4.3496325    853.44783   -4170.4919    8103.0112   -1372.1758   -1290.4805   -377.77338   -365.18336    82.292017 
   25800    118.22998   -110.35958   0.10697697   -110.25261   -2556.7616    4.3494821    4.3494821    4.3494821   -2556.7616   -1683.7518   -3813.1844   -2173.3486   -320.37977    804.47553    581.51939    82.283481 
   25900    76.789074   -110.32217  0.069480368   -110.25269    1403.3793    4.3487182    4.3487182    4.3487182    1403.3793   -2409.5798    10041.598     -3421.88   -19.187722   -291.03799   -1504.9994     82.24013 
   26000     140.7383   -110.37969   0.12734297   -110.25235   -2752.1378    4.3499176    4.3499176    4.3499176   -2752.1378   -2982.7805   -3236.0604   -2037.5725    19.056797    785.45792    52.980749    82.308196 
   26100     59.06022   -110.30645  0.053438929   -110.25301    1646.3077    4.3489326    4.3489326    4.3489326    1646.3077   -1793.1002    8363.5745   -1631.5511    1254.5359    375.96489   -1918.7897    82.252294 
   26200    135.34788     -110.375   0.12246561   -110.25254   -2078.2144    4.3493496    4.3493496    4.3493496   -2078.2144   -2723.6435    342.24448   -3853.2441   -602.01142   -1113.6492    739.53694     82.27596 
   26300    77.566901   -110.32284  0.070184162   -110.25265    1852.2471     4.349152     4.349152     4.349152    1852.2471   -1261.7415    4541.7627    2276.7201    1517.3678     772.1709   -806.43139    82.264747 
   26400    111.30052   -110.35312   0.10070705   -110.25241   -1946.9022    4.3493942    4.3493942    4.3493942   -1946.9022   -4088.2551    3507.3698   -5259.8212   -380.24306    1108.9384   -837.60404     82.27849 
   26500    90.694756   -110.33464  0.082062521   -110.25257    121.39361    4.3492745    4.3492745    4.3492745    121.39361   -480.49491    878.04248   -33.366754    630.32569   -200.52213    279.51713    82.271696 
   26600    93.987314   -110.33747  0.085041696   -110.25243    755.77787    4.3490089    4.3490089    4.3490089    755.77787   -3058.6668    6584.4598   -1258.4595    96.038098   -206.80546   -659.71211    82.256624 
   26700    118.58473   -110.35991   0.10729795   -110.25261   -1867.6328    4.3494947    4.3494947    4.3494947   -1867.6328   -2931.1424   -832.05104    -1839.705    28.899075     1759.048    134.14004    82.284192 
   26800    55.127362   -110.30279  0.049880396   -110.25291    2833.2822    4.3490527    4.3490527    4.3490527    2833.2822   -1102.5464    8065.1355    1537.2575    1251.0492   -118.66054   -889.09368    82.259113 
   26900    158.26022   -110.39544   0.14319717   -110.25224   -2845.4372    4.3490786    4.3490786    4.3490786   -2845.4372   -3867.3957   -1792.9907   -2875.9252   -953.60691   -448.22852    714.97101     82.26058 
   27000    48.517333   -110.29694  0.043899502   -110.25304    3311.7174    4.3489439    4.3489439    4.3489439    3311.7174   -290.68372    9590.5967    635.23917      1665.56    1424.6203   -749.75915    82.252936 
   27100    140.21344   -110.37944   0.12686807   -110.25257   -2179.9104    4.3498728    4.3498728    4.3498728   -2179.9104   -3886.2726   -3100.9069    447.44824   -89.296217   -191.82169   -236.50044    82.305656 
   27200    83.419774   -110.32834  0.075479965   -110.25286    2777.1235    4.3481736    4.3481736    4.3481736    2777.1235   -13.731003    9168.5377   -823.43612     1020.899    618.64541   -210.87916    82.209236 
   27300     106.2942   -110.34886  0.096177226   -110.25268   -238.96158    4.3496337    4.3496337    4.3496337   -238.96158   -2108.5713   -276.91452    1668.6011  -0.98615473    531.54471    192.22492    82.292082 
   27400    104.00635   -110.34663  0.094107127   -110.25252   -693.37782    4.3495819    4.3495819    4.3495819   -693.37782   -3560.7306    4345.4899   -2864.8927    -181.8564   -751.43006    807.98996    82.289142 
   27500    77.478255   -110.32257  0.070103953   -110.25246    2219.7995    4.3481961    4.3481961    4.3481961    2219.7995    1685.2984    5171.5126   -197.41247    1225.4264    423.74841   -962.04512    82.210515 
   27600    131.70592   -110.37139   0.11917029   -110.25222   -2407.0375     4.350106     4.350106     4.350106   -2407.0375   -5563.3021     214.1111   -1871.9214   -1083.7534    582.16708    529.34936     82.31889 
   27700    51.918862   -110.29972  0.046977277   -110.25275    2088.5083    4.3490123    4.3490123    4.3490123    2088.5083   -70.212079    7190.0151   -854.27803    1768.2776   -590.62176   -571.71153     82.25682 
   27800    142.16403   -110.38082     0.128633   -110.25219    -2877.226    4.3490967    4.3490967    4.3490967    -2877.226   -2662.3403   -2559.5002   -3409.8375    -456.7054    -475.7547     519.1532     82.26161 
   27900    70.319874   -110.31623    0.0636269   -110.25261    1096.7133    4.3495442    4.3495442    4.3495442    1096.7133   -2864.8073     8339.468   -2184.5207    1603.0068     1524.551   -936.61979    82.287005 
   28000    121.68426   -110.36267   0.11010247   -110.25257   -2871.9694    4.3493616    4.3493616    4.3493616   -2871.9694   -716.00674   -4754.5623   -3145.3392   -262.29195   -331.97637    818.55362     82.27664 
   28100    84.378786   -110.32922  0.076347699   -110.25287    798.86157    4.3492028    4.3492028    4.3492028    798.86157   -2955.7342     7631.922   -2279.6032    317.46071   -1187.7774    1313.1696    82.267629 
   28200    121.59781   -110.36266   0.11002426   -110.25264    -1592.458    4.3495757    4.3495757    4.3495757    -1592.458   -723.71881   -3096.8832   -956.77202    1163.8457    1137.5014   -1136.7438    82.288791 
   28300    79.615245   -110.32488  0.072037547   -110.25284   -114.70055    4.3488825    4.3488825    4.3488825   -114.70055   -2311.2611    5569.7954    -3602.636   -1354.9619    167.20784    1763.4777    82.249455 
   28400     113.0175   -110.35467   0.10226061   -110.25241   -1489.7438    4.3500398    4.3500398    4.3500398   -1489.7438   -1547.9462   -1122.0311   -1799.2542    1285.5952    159.70984    205.04817    82.315133 
   28500    95.427459   -110.33868   0.08634477   -110.25234    537.40887    4.3487053    4.3487053    4.3487053    537.40887    -1168.836         3904   -1122.9374   -1457.3448    171.13997    1232.9026    82.239399 
   28600    95.266627    -110.3386  0.086199246    -110.2524   -608.07643    4.3491696    4.3491696    4.3491696   -608.07643   -2854.4981    3447.8233   -2417.5545    733.76102   -23.130079   -241.08873    82.265742 
   28700    101.71798   -110.34431   0.09203657   -110.25227   -458.27062    4.3501458    4.3501458    4.3501458   -458.27062   -963.95473   -831.42593    420.56881   -568.88737   -26.889498    480.54867    82.321155 
   28800     90.63953   -110.33421  0.082012552    -110.2522     1434.146    4.3480414    4.3480414    4.3480414     1434.146    -2892.016    9284.0882   -2089.6342   -346.48621    540.57966    389.44546    82.201741 
   28900    120.80123   -110.36156   0.10930349   -110.25225   -1732.0496    4.3496431    4.3496431    4.3496431   -1732.0496     -222.481    -2746.619   -2227.0487    821.57748    65.592828   -512.70569    82.292617 
   29000    56.135333   -110.30351  0.050792429   -110.25271    3303.7709    4.3494262    4.3494262    4.3494262    3303.7709   -2127.8594    9777.4211     2261.751   -1268.0151   -596.53724    905.97891    82.280304 
   29100    163.07968   -110.39994   0.14755792   -110.25239   -2040.4334    4.3483522    4.3483522    4.3483522   -2040.4334   -1594.0041   -1503.4571    -3023.839    605.58971    1795.1027   -242.80514    82.219367 
   29200     38.62946   -110.28824  0.034952747   -110.25329    4310.7549    4.3492297    4.3492297    4.3492297    4310.7549     995.5602    9117.6437    2819.0608   -1550.4106   -161.13478    1312.1902    82.269153 
   29300    153.63051   -110.39163   0.13900812   -110.25263   -3401.9747     4.349728     4.349728     4.349728   -3401.9747   -4574.3938   -2065.5429   -3565.9874    950.37388   -1130.0616   -576.12828    82.297438 
   29400    65.807129   -110.31252  0.059543673   -110.25297    3519.8139    4.3480543    4.3480543    4.3480543    3519.8139    2244.2302     7780.654    534.55751   -1170.1203    1065.5264    413.00545    82.202469 
   29500    120.96203   -110.36205   0.10944899   -110.25261   -1701.4883    4.3501328    4.3501328    4.3501328   -1701.4883   -4276.8554      427.701   -1255.3105   -333.72745     96.78606    701.90933    82.320412 
   29600    86.681769    -110.3311  0.078431486   -110.25267    197.01039    4.3487823    4.3487823    4.3487823    197.01039   -526.11446    2996.1421   -1878.9965    158.69248   -584.85662    201.95935    82.243766 
   29700    94.401986   -110.33778    0.0854169   -110.25236    435.51109    4.3492397    4.3492397    4.3492397    435.51109    -1689.565    4453.8689   -1457.7707   -927.37057     114.7619    867.68258    82.269722 
   29800    121.37094   -110.36203   0.10981897   -110.25222   -2660.4814    4.3498961    4.3498961    4.3498961   -2660.4814   -3103.8695   -885.05071   -3992.5239    560.96619    261.92007   -471.66813    82.306974 
   29900    54.331923   -110.30183  0.049160665   -110.25267    1659.3432    4.3482399    4.3482399    4.3482399    1659.3432    1463.5833    6943.6884   -3429.2421   -1497.1695   -477.62073    2333.8542    82.212996 
   30000    149.99042   -110.38786   0.13571449   -110.25214   -3144.1808    4.3504823    4.3504823    4.3504823   -3144.1808   -3891.9241   -3415.1171    -2125.501    1108.8249    10.027405    -741.8809     82.34026 
   30100    59.911785   -110.30715  0.054209442   -110.25294    2190.3641     4.348622     4.348622     4.348622    2190.3641    1400.7104    8473.9707   -3303.5889    -1350.785    10.583909    1151.1947    82.234676 
   30200    125.76979   -110.36657   0.11379915   -110.25277   -2764.0026     4.349019     4.349019     4.349019   -2764.0026   -940.34174   -3822.5814   -3529.0847   -77.185405   -481.88998    1395.7199    82.257197 
   30300    90.061536   -110.33441  0.081489571   -110.25292    664.22999    4.3502608    4.3502608    4.3502608    664.22999   -1133.2135    7173.4674    -4047.564   -856.71359    1405.2051   -254.62122    82.327679 
   30400    112.53595   -110.35462    0.1018249   -110.25279   -825.22498    4.3483754    4.3483754    4.3483754   -825.22498    519.65164    -1284.284   -1711.0426   -565.67335   -194.89846     901.5642    82.220687 
   30500    89.221439   -110.33364  0.080729433   -110.25291    -326.1882    4.3493026    4.3493026    4.3493026    -326.1882   -1382.6534    5084.9268    -4680.838    452.52434   -1037.2223   -1300.5434     82.27329 
   30600    102.63826   -110.34532   0.09286925   -110.25245   -91.913255    4.3500831    4.3500831    4.3500831   -91.913255   -675.45821    1228.8183   -829.09983   -1444.2213    658.47286    1259.7978    82.317592 
   30700    110.44894   -110.35228  0.099936523   -110.25235   -949.35034    4.3483306    4.3483306    4.3483306   -949.35034   -2104.0455    2550.7926   -3294.7982    1228.3832    363.91552   -1051.6144    82.218142 
   30800    71.086556   -110.31688   0.06432061   -110.25256    440.64364    4.3496544    4.3496544    4.3496544    440.64364    1244.2729    4519.5791   -4441.9211   -877.42911   -594.21579   -80.464939     82.29326 
   30900    122.98784   -110.36338   0.11128198   -110.25209   -1049.9897    4.3495207    4.3495207    4.3495207   -1049.9897    -2503.537   -1182.1173    535.68526    657.75024   -223.57256    393.34392    82.285667 
   31000    80.574813   -110.32526  0.072905784   -110.25236    1922.4721    4.3483548    4.3483548    4.3483548    1922.4721    159.26178    8165.3847   -2557.2302   -70.621478    1336.3756   -678.99926    82.219519 
   31100    112.29638   -110.35408   0.10160812   -110.25247   -1452.7049    4.3500632    4.3500632    4.3500632   -1452.7049   -63.533132   -3805.9872   -488.59429     159.0834   -545.22754    360.03427    82.316463 
   31200    83.489194   -110.32818  0.075542777   -110.25264    2035.7772    4.3483497    4.3483497    4.3483497    2035.7772   -2111.7463    8558.6835   -339.60568    807.75298   -67.566444   -936.67251    82.219229 
   31300    135.99267   -110.37546   0.12304903   -110.25241   -1474.2195    4.3494827    4.3494827    4.3494827   -1474.2195    54.015949   -2201.5298   -2275.1446   -1271.8453     513.8616    1042.5946    82.283514 
   31400    65.741754   -110.31243   0.05948452   -110.25294    1766.9708     4.349394     4.349394     4.349394    1766.9708   -2091.5725    5551.2762    1841.2087    1358.7026   -572.72001   -542.15732    82.278477 
   31500    131.35571   -110.37127   0.11885341   -110.25241   -1072.4937    4.3484415    4.3484415    4.3484415   -1072.4937   -1741.6608    1157.3301   -2633.1504    -975.8886    752.88607   -78.729923    82.224437 
   31600    90.287564   -110.33433  0.081694086   -110.25263    959.21703    4.3498373    4.3498373    4.3498373    959.21703   -1749.5494    4015.3776    611.82292    1275.8438   -126.32801   -589.51254    82.303637 
   31700    92.365405   -110.33627  0.083574159    -110.2527    -791.8365    4.3491663    4.3491663    4.3491663    -791.8365   -2402.6381    2682.8436    -2655.715   -518.34389   -1058.9632    90.936097    82.265558 
   31800    103.86683   -110.34653  0.093980887   -110.25255   -89.870004    4.3484388    4.3484388    4.3484388   -89.870004    319.85791    3021.2296   -3610.6975    469.15829    70.844896     319.6406    82.224284 
   31900    87.657437   -110.33168  0.079314291   -110.25236    1138.3146    4.3500397    4.3500397    4.3500397    1138.3146   -2419.7228    5611.6034    223.06329    602.37449    232.78369    -1384.493    82.315126 
   32000    111.52232   -110.35328   0.10090774   -110.25237   -1715.3642    4.3489386    4.3489386    4.3489386   -1715.3642   -274.25613   -644.47768   -4227.3587   -896.03121   -1143.4731    944.92134    82.252638 
   32100    67.562323   -110.31375   0.06113181   -110.25261    2316.8122    4.3486153    4.3486153    4.3486153    2316.8122    210.89866    8737.1649   -1997.6269    1063.2195   -119.28255   -1093.0472    82.234294 
   32200     150.3316   -110.38816   0.13602319   -110.25214   -2743.9153    4.3502978    4.3502978    4.3502978   -2743.9153   -1835.6277   -2281.9628   -4114.1555   -840.37415    1226.3359   -455.22956    82.329779 
   32300    56.149356   -110.30377  0.050805117   -110.25297    1901.2995    4.3483115    4.3483115    4.3483115    1901.2995    392.02515    8013.9244   -2702.0512    1362.2144    -752.7057   -1678.6091    82.217059 
   32400    140.29396   -110.37954   0.12694092    -110.2526   -2711.1118    4.3497682    4.3497682    4.3497682   -2711.1118   -1583.5757    -1843.258   -4706.5018    -876.9245   -401.24539    384.87878    82.299716 
   32500    85.958668   -110.33069  0.077777209   -110.25291    1343.0563    4.3492793    4.3492793    4.3492793    1343.0563   -257.59625    6148.0566   -1861.2914     893.6924    328.98991   -297.73639    82.271967 
   32600    111.81566   -110.35409   0.10117316   -110.25291   -2584.1547    4.3491833    4.3491833    4.3491833   -2584.1547   -2013.0942   -599.23672   -5140.1331    727.23758   -436.47134   -1973.1922    82.266521 
   32700    80.415345   -110.32577  0.072761494   -110.25301    25.123519    4.3496307    4.3496307    4.3496307    25.123519    1686.8352    3401.2453     -5012.71    49.922038    107.53693    1379.4681    82.291911 
   32800    114.81415   -110.35633   0.10388625   -110.25244   -701.39905    4.3489292    4.3489292    4.3489292   -701.39905   -1928.1474    2608.0802     -2784.13    1429.3559    -119.0496   -1109.9475    82.252102 
   32900    84.537754   -110.32919  0.076491537    -110.2527   -542.36097    4.3493598    4.3493598    4.3493598   -542.36097    986.28612     970.4278   -3583.7968   -580.33551    -125.5627    634.04689    82.276538 
   33000    85.372299   -110.32981   0.07724665   -110.25256    207.73738    4.3496044    4.3496044    4.3496044    207.73738   -160.23003    4197.9244   -3414.4822    1555.1321   -138.72311    95.977885    82.290421 
   33100    125.99474   -110.36611   0.11400269    -110.2521   -478.05046    4.3485452    4.3485452    4.3485452   -478.05046   -1106.4449     525.1569   -852.86337   -713.35525    736.26795     358.1741    82.230319 
   33200    75.214488    -110.3206   0.06805565   -110.25254    934.72457    4.3495323    4.3495323    4.3495323    934.72457    629.73569      6781.06    -4606.622    475.06409   -665.96831    643.97431    82.286328 
   33300     121.5402    -110.3623   0.10997213   -110.25233   -1282.1299    4.3496039    4.3496039    4.3496039   -1282.1299   -2869.7533   -2023.3258    1046.6896    496.80589   -398.00868   -770.15801     82.29039 
   33400      96.9103   -110.34013  0.087686476   -110.25245    2505.3945    4.3480531    4.3480531    4.3480531    2505.3945   -806.45986    10165.993   -1843.3494   -487.74586     1418.793     806.7253    82.202406 
   33500    118.97506   -110.36031   0.10765113   -110.25266   -1418.3071    4.3499792    4.3499792    4.3499792   -1418.3071   -1731.6443   -1660.0858   -863.19134    812.21516   -679.47023    -349.6958    82.311694 
[...]
   91300    99.282176   -110.34269  0.089832599   -110.25286   -472.01161    4.3495183    4.3495183    4.3495183   -472.01161   -2755.1813    2505.0884    -1165.942   -636.49693   -201.70241    2718.2916    82.285533 
   91400    108.76512   -110.35108   0.09841297   -110.25267   -64.947408    4.3496991    4.3496991    4.3496991   -64.947408   -1851.7657    2585.5524    -928.6289    1470.0146   -655.92546   -133.86013    82.295796 
   91500    105.97146   -110.34868  0.095885206    -110.2528    -797.2523    4.3487428    4.3487428    4.3487428    -797.2523   -3089.8014    1800.5763   -1102.5318   -1115.5211    -692.9677    416.09281    82.241526 
   91600    76.462087   -110.32183  0.069184503   -110.25265    1598.2342    4.3491219    4.3491219    4.3491219    1598.2342    558.29367     3561.937    674.47191     1537.793     330.7459    2759.6489    82.263035 
   91700    136.94446   -110.37592   0.12391023   -110.25201   -2076.6096    4.3502267    4.3502267    4.3502267   -2076.6096   -3376.6846    562.62417   -3415.7685   -634.25666   -761.45723   -319.86173    82.325746 
   91800    58.797826   -110.30579  0.053201509   -110.25259    1700.1529    4.3482979    4.3482979    4.3482979    1700.1529   -954.46486    5695.7608    359.16259    260.90643   -760.46186    2195.3129    82.216287 
   91900    118.93861   -110.35979   0.10761815   -110.25217   -1659.5405    4.3495914    4.3495914    4.3495914   -1659.5405   -125.42689   -508.89123   -4344.3035    596.47157     526.1792   -482.78752    82.289682 
   92000    90.533767   -110.33415  0.081916855   -110.25224     1512.279    4.3496915    4.3496915    4.3496915     1512.279   -3385.1218    5439.0923    2482.8665   -956.34408   -118.60399    1368.0196    82.295366 
   92100    99.594879   -110.34247  0.090115539   -110.25236    73.789097    4.3486397    4.3486397    4.3486397    73.789097    463.31396    2037.4973   -2279.4439    964.13951   -767.86947    53.436477     82.23568 
   92200    95.185401   -110.33863  0.086125751   -110.25251    613.35019    4.3492314    4.3492314    4.3492314    613.35019   -1573.2224    4975.2112   -1561.9382   -990.17035    408.57566   -152.75373     82.26925 
   92300    116.02519   -110.35727   0.10498203   -110.25229    221.31991    4.3496218    4.3496218    4.3496218    221.31991   -2372.2897    1663.2593    1372.9901    983.12757    430.40829    992.87369    82.291409 
   92400      100.836   -110.34398  0.091238531   -110.25274    395.15089    4.3489021    4.3489021    4.3489021    395.15089    103.93904    3577.0272   -2495.5135   -815.24086   -1079.3812   -455.52524    82.250565 
   92500    94.125941   -110.33793   0.08516713   -110.25277    1256.2691    4.3489163    4.3489163    4.3489163    1256.2691   -2986.3321    4545.7789    2209.3605    1036.6095   -633.77773    2271.9862    82.251369 
   92600    122.18957   -110.36274   0.11055969   -110.25218   -336.87262    4.3495513    4.3495513    4.3495513   -336.87262   -379.01469   -182.95233   -448.65083     395.4218    68.178647   -1610.9493    82.287406 
   92700    81.934001   -110.32657  0.074135606   -110.25243    139.68059    4.3494662    4.3494662    4.3494662    139.68059   -3598.3164     7028.545   -3011.1869   -249.18563   -975.27482    1297.0823    82.282576 
   92800    100.90995   -110.34356  0.091305447   -110.25225   -1115.6686    4.3491164    4.3491164    4.3491164   -1115.6686   -2417.0207   -1387.9199    457.93475    1130.5105    -167.5521    311.12644    82.262724 
   92900    98.402085   -110.34113  0.089036275    -110.2521    165.24744    4.3493369    4.3493369    4.3493369    165.24744   -1738.7944    4528.0312   -2293.4945   -876.88938   -422.37573   -243.37059    82.275237 
   93000    94.204137   -110.33755  0.085237882   -110.25232   -998.58212    4.3501038    4.3501038    4.3501038   -998.58212   -4942.0597    1602.8199    343.49345    721.66117   -944.96709    895.76637    82.318766 
   93100     93.19204   -110.33671  0.084322116   -110.25238   -795.23577      4.34883      4.34883      4.34883   -795.23577    -1428.638    1058.1652   -2015.2345   -755.09902    113.70933   -515.37077    82.246478 
   93200    107.21393    -110.3491  0.097009412   -110.25209   -661.27821    4.3493098    4.3493098    4.3493098   -661.27821   -2995.5905    2638.3864   -1626.6304    69.959482    -454.7602    2113.6604    82.273698 
   93300    107.82305   -110.35006  0.097560564    -110.2525   -1760.7294    4.3503675    4.3503675    4.3503675   -1760.7294   -3120.9981   -1253.1278   -908.06244   -396.50679   -1266.9437   -1783.1403    82.333737 
   93400    87.328188   -110.33192   0.07901638   -110.25291    317.92117    4.3485882    4.3485882    4.3485882    317.92117   -1927.1579    3807.4038   -926.48238    117.86314    63.007267    2991.2498    82.232758 
   93500    123.39411   -110.36419   0.11164959   -110.25254   -673.99371    4.3492944    4.3492944    4.3492944   -673.99371   -976.78465   -1408.8586    363.66214    383.36897    407.45512     80.68143    82.272825 
   93600    88.426504   -110.33259  0.080010159   -110.25258   -305.54411    4.3501832    4.3501832    4.3501832   -305.54411   -3445.1681    5051.8351   -2523.2994   -1120.5433   -1080.6093    -439.7869    82.323277 
   93700    101.96756   -110.34467  0.092262392    -110.2524   -1457.1129     4.348876     4.348876     4.348876   -1457.1129   -1569.4719   -2420.4054   -381.46135    884.96838   -395.54965    1647.4882    82.249082 
   93800    97.158787   -110.34007  0.087911312   -110.25215    744.51842    4.3489989    4.3489989    4.3489989    744.51842   -126.32422     5389.661   -3029.7815   -995.93216    345.63005   -1499.2742    82.256057 
   93900    99.152153    -110.3419  0.089714951   -110.25218   -262.67474    4.3500896    4.3500896    4.3500896   -262.67474   -3449.7101    491.45513    2170.2307    45.747573   -510.62162    1476.4145     82.31796 
   94000    92.233511    -110.3358  0.083454819   -110.25234   -112.05029    4.3489199    4.3489199    4.3489199   -112.05029    4.5400364    2762.2196   -3102.9105   -524.02552    48.378228    -1318.198    82.251576 
   94100    91.677741   -110.33509  0.082951947   -110.25214    1593.8371    4.3487347    4.3487347    4.3487347    1593.8371    63.283413    5027.4916   -309.26378   -178.62205    367.80847    923.06448    82.241068 
   94200    127.17236   -110.36714   0.11506822   -110.25207   -1540.1611    4.3498763    4.3498763    4.3498763   -1540.1611   -2594.9674   -913.90705   -1111.6087     201.7499    -232.2364   -175.61242    82.305854 
   94300    60.237421   -110.30731  0.054504085   -110.25281    2681.8829    4.3488923    4.3488923    4.3488923    2681.8829    1494.5034    7978.8645   -1427.7192   -516.59804    389.39296   -122.06227    82.250009 
   94400    149.28561   -110.38752   0.13507675   -110.25245    -947.4162    4.3489779    4.3489779    4.3489779    -947.4162   -2226.2595   -1849.0736    1233.0845    821.39768   -316.04245    649.89645    82.254864 
   94500    65.538943   -110.31214  0.059301013   -110.25284    3164.1915    4.3489708    4.3489708    4.3489708    3164.1915    1280.4342    8534.2021   -322.06164   -1052.4446   -356.82691   -1304.5463    82.254466 
   94600    135.38816   -110.37497   0.12250206   -110.25246    -3470.559    4.3500996    4.3500996    4.3500996    -3470.559   -4002.7106   -2886.0245   -3522.9418    954.47376   -198.71381    2278.2096    82.318529 
   94700    68.795909   -110.31481  0.062247984   -110.25256    2615.0104    4.3485582    4.3485582    4.3485582    2615.0104    491.92461    5661.5912    1691.5155   -631.82593    151.96826   -1253.4432    82.231056 
   94800    130.74375    -110.3704   0.11829969    -110.2521   -1815.2185    4.3493724    4.3493724    4.3493724   -1815.2185   -2231.4561    191.24015   -3405.4395   -172.53913    -624.4453    154.93422    82.277253 
   94900    69.466972   -110.31547  0.062855176   -110.25262    168.87514    4.3499938    4.3499938    4.3499938    168.87514   -3567.1524    3433.7212    640.05662    252.70561   -1124.1487    262.76284    82.312522 
   95000    98.650588   -110.34152  0.089261125   -110.25226   -365.60169     4.348922     4.348922     4.348922   -365.60169   -255.17619    1107.0134   -1948.6423   -742.19894    642.88564     34.73653    82.251694 
   95100    116.06842   -110.35704   0.10502114   -110.25202   -1568.0294    4.3490723    4.3490723    4.3490723   -1568.0294    -3552.209    1402.4491   -2554.3283    781.58618   -989.58509    156.91566    82.260224 
   95200    62.178794   -110.30877  0.056260679   -110.25251    479.64477    4.3502143    4.3502143    4.3502143    479.64477   -1833.0833    3699.1746   -427.15693   -975.71576    -754.2516   -761.50804    82.325043 
   95300     139.4546   -110.37832   0.12618145   -110.25214   -2152.0764    4.3492904    4.3492904    4.3492904   -2152.0764   -3182.7304   -2922.7878   -350.71099    1247.8913    447.90342    2422.7789      82.2726 
   95400    73.863086   -110.31943  0.066832873    -110.2526    2759.3983      4.34835      4.34835      4.34835    2759.3983   -790.39262    8578.8789    489.70858   -610.02958   -480.67633    -1931.717    82.219247 
   95500    133.70385   -110.37351   0.12097805   -110.25253   -3693.8468    4.3506888    4.3506888    4.3506888   -3693.8468    -4904.976   -4835.6403   -1340.9241    196.08709   0.47278155    332.73981    82.351981 
   95600    71.358799   -110.31738  0.064566941   -110.25281     1806.662    4.3487154    4.3487154    4.3487154     1806.662   -2370.5268    7007.8103    782.70233     880.2373   -465.05619   -217.26465    82.239974 
   95700    135.89507   -110.37521   0.12296072   -110.25225   -1131.8487    4.3489166    4.3489166    4.3489166   -1131.8487   -1244.0972   -534.18542   -1617.2634    -598.4041   -386.91655    31.129648    82.251388 
   95800    70.155712   -110.31615  0.063478363   -110.25267    953.96534    4.3499732    4.3499732    4.3499732    953.96534   -4907.3684    4879.2305    2890.0339    1552.9061   -137.58897    12.993626    82.311355 
   95900    107.53102   -110.34973  0.097296329   -110.25244   -939.37984    4.3490838    4.3490838    4.3490838   -939.37984   -211.20755    733.65298   -3340.5849   -369.43234    181.91359    -794.6383    82.260875 
   96000    96.293972   -110.33945   0.08712881   -110.25232    576.42434    4.3488771    4.3488771    4.3488771    576.42434   -1409.8307    2288.4633    850.64037    1049.3057    96.151801    727.85529    82.249147 
   96100    91.064973   -110.33472  0.082397501   -110.25233   -763.27226    4.3497985    4.3497985    4.3497985   -763.27226   -2830.9004    3015.8297   -2474.7461    259.15993   -458.21763   -909.09528    82.301438 
   96200    96.808384    -110.3399   0.08759426   -110.25231   -25.867129    4.3493201    4.3493201    4.3493201   -25.867129    1451.2643   -608.19888   -920.66685    417.37545    1430.5089    995.85404    82.274287 
   96300    105.78985   -110.34792  0.095720883    -110.2522    1006.1533    4.3490421    4.3490421    4.3490421    1006.1533     -2998.12     4737.123     1279.457    67.445925   -391.47868   -568.45983    82.258508 
   96400    104.60064   -110.34702  0.094644857   -110.25237    -881.2279    4.3492389    4.3492389    4.3492389    -881.2279    1149.2032   -1253.0706   -2539.8163   -193.75169    211.87665    1143.2374    82.269678 
   96500    91.796023    -110.3356  0.083058971   -110.25254   -286.06513    4.3497157    4.3497157    4.3497157   -286.06513   -3168.1702    3638.2155   -1328.2408     953.8427    711.62493    1639.6092    82.296736 
   96600    125.52738    -110.3657   0.11357981   -110.25212   -558.10891    4.3494252    4.3494252    4.3494252   -558.10891   -650.86239   -1185.5493    162.08495   -710.15659   -267.74597   -1570.4231     82.28025 
   96700    86.154116   -110.33043  0.077954055   -110.25247    890.79517    4.3484964    4.3484964    4.3484964    890.79517   -966.42952    5852.1294   -2213.3143    738.83367    490.05325     1012.096     82.22755 
   96800    108.15675    -110.3503  0.097862497   -110.25244   -1554.0439    4.3503169    4.3503169    4.3503169   -1554.0439   -3481.7359   -1210.2506     29.85466   -358.62299   -946.26666    318.76554    82.330867 
   96900    96.463626   -110.33974  0.087282316   -110.25245    451.95327    4.3491268    4.3491268    4.3491268    451.95327    373.28234    2756.5575     -1773.98    160.39584    616.49954    979.24394    82.263316 
   97000    96.253769    -110.3396  0.087092433   -110.25251   -318.49065    4.3483829    4.3483829    4.3483829   -318.49065   -2675.8623    4366.7128   -2646.3225    282.28033   -460.80991   -908.61119     82.22111 
   97100    89.883778   -110.33383  0.081328731    -110.2525   -274.11829    4.3505305    4.3505305    4.3505305   -274.11829   -913.37018   -292.41605    383.43136   -491.97942   -78.773638    1349.0732    82.342995 
   97200    93.764599   -110.33698   0.08484018   -110.25214    1590.5016    4.3487576    4.3487576    4.3487576    1590.5016   -1718.0013    6185.2263    304.27989    617.78182    808.64216    892.55614    82.242366 
   97300    113.62273   -110.35503   0.10280823   -110.25222   -499.67255    4.3485715    4.3485715    4.3485715   -499.67255   -1772.3529    647.05133   -373.71611   -482.11359   -743.97584   -1019.2084    82.231808 
   97400    77.919478   -110.32301  0.070503181   -110.25251    690.27652    4.3502073    4.3502073    4.3502073    690.27652   -2467.1791    3584.4606    953.54806    1188.1483    1193.8086     1262.821    82.324644 
   97500    132.10054   -110.37161   0.11952734   -110.25209   -940.95029     4.348979     4.348979     4.348979   -940.95029   -3472.3093    1215.2019   -565.74345   -385.48807   -549.46834   -338.94493    82.254926 
   97600    94.563604   -110.33797  0.085563136   -110.25241    1204.1658    4.3488857    4.3488857    4.3488857    1204.1658   -1062.2036    3032.7651     1641.936    574.77863   -534.08163    1376.0686    82.249635 
   97700    100.12615    -110.3431  0.090596248    -110.2525   -627.87527    4.3498478    4.3498478    4.3498478   -627.87527   -4649.6888    1832.6184    933.44459    1229.8572    381.74232   -1018.6456    82.304237 
   97800    118.23326   -110.35946   0.10697994   -110.25248   -1263.6766    4.3490865    4.3490865    4.3490865   -1263.6766   -871.82952   -529.58021     -2389.62   -387.24997   -420.17963    704.68437    82.261027 
   97900    76.330521   -110.32191   0.06906546   -110.25284    696.55433     4.349501     4.349501     4.349501    696.55433   -2672.3607    3917.7025    844.32117    967.93679    272.57525    21.907403    82.284552 
   98000    116.29665   -110.35783   0.10522765    -110.2526   -2661.9778    4.3494171    4.3494171    4.3494171   -2661.9778   -2519.2403   -1381.7153   -4084.9779   -444.43978   -501.18188    1119.3964    82.279789 
   98100    63.379088   -110.30996  0.057346731   -110.25262    1911.4291    4.3491942    4.3491942    4.3491942    1911.4291    1368.4889    3731.2641    634.53426    517.91987    1101.5791     1550.106    82.267141 
   98200    130.55833    -110.3703   0.11813192   -110.25216   -2704.9669    4.3501504    4.3501504    4.3501504   -2704.9669   -4905.7044   -1723.7078   -1485.4887   -65.748078   -193.14377     -593.509    82.321416 
   98300    63.205183   -110.30982  0.057189378   -110.25263    1135.8986    4.3482351    4.3482351    4.3482351    1135.8986    2110.8286    3643.1228   -2346.2555    241.88827    504.27348    3299.4682    82.212726 
   98400    120.52191   -110.36116   0.10905075   -110.25211   -1694.4154    4.3503735    4.3503735    4.3503735   -1694.4154   -3398.7128   -91.427605   -1593.1058   -206.14047    990.64198   -450.61538    82.334082 
   98500    112.97928   -110.35441   0.10222603   -110.25218   -320.09502    4.3495883    4.3495883    4.3495883   -320.09502   -2361.2673    2288.9573   -887.97509    67.862194   -598.85093    147.92557    82.289505 
   98600    80.288734   -110.32516  0.072646933   -110.25252    1479.3069     4.347872     4.347872     4.347872    1479.3069    1361.8261    4696.1556   -1620.0611    451.78383    1218.3675    1429.3632    82.192132 
   98700     141.4431   -110.38018   0.12798069    -110.2522   -2537.6007    4.3508468    4.3508468    4.3508468   -2537.6007   -4989.5737   -1112.5897   -1510.6386   -851.58784   -687.20719    273.66376    82.360956 
   98800    70.494486   -110.31642  0.063784893   -110.25263    2286.4228    4.3486953    4.3486953    4.3486953    2286.4228    697.75901    7928.9832   -1767.4737    290.38727    253.75005    1046.4645    82.238832 
   98900    124.40806   -110.36514   0.11256702   -110.25257   -1798.8981    4.3487285    4.3487285    4.3487285   -1798.8981   -2089.9583    338.28506   -3645.0212    164.31342    298.57066   -955.86225    82.240716 
   99000    70.252437   -110.31626  0.063565881   -110.25269    2122.3414    4.3501154    4.3501154    4.3501154    2122.3414   -1387.4404    7445.0301    309.43446    89.171044   -227.81449    2447.2296    82.319426 
   99100    114.41658   -110.35581   0.10352652   -110.25229   -357.97808    4.3486278    4.3486278    4.3486278   -357.97808   -324.10817    123.36507   -873.19114   -108.88141    1075.4264   -1270.6741       82.235 
   99200    81.355892   -110.32614  0.073612521   -110.25252    775.18053    4.3491114    4.3491114    4.3491114    775.18053   -2903.3247    6158.4187   -929.55241    310.65443   -411.77359    1515.8214    82.262444 
   99300    94.404033   -110.33777  0.085418753   -110.25235    526.45914    4.3496428    4.3496428    4.3496428    526.45914   -144.56628    368.21501    1355.7287    524.04632    1276.2847    476.58868    82.292601 
   99400    121.15555   -110.36177   0.10962409   -110.25215   -503.98789    4.3488227    4.3488227    4.3488227   -503.98789   -3551.7017    4026.9533   -1987.2153   -564.35542   -145.79754   -88.818065     82.24606 
   99500    79.684585   -110.32455  0.072100287   -110.25245     1403.507    4.3495965    4.3495965    4.3495965     1403.507   -1585.3304    2123.5732    3672.2782    854.98539   -447.94377    1266.2487    82.289973 
   99600    127.74369   -110.36766   0.11558518   -110.25208   -1372.1909    4.3489777    4.3489777    4.3489777   -1372.1909    -2255.499   -754.27366   -1106.8002   -596.10862    872.02657   -1149.1223    82.254856 
   99700    94.945154   -110.33807  0.085908371   -110.25216    511.34965    4.3493318    4.3493318    4.3493318    511.34965   -2977.1971    4642.4138   -131.16775     260.7266   -945.23396    2023.6445    82.274947 
   99800    110.87035   -110.35258   0.10031782   -110.25226   -1777.9553    4.3501856    4.3501856    4.3501856   -1777.9553   -2464.4516   -2850.0801   -19.334251    79.205596    441.92363    -650.2425    82.323414 
   99900    84.060104    -110.3286  0.076059349   -110.25254    618.64791    4.3480543    4.3480543    4.3480543    618.64791   -1183.9987    5770.4624     -2730.52   -791.50799     -384.472    2494.1423    82.202473 
  100000    112.63492   -110.35422   0.10191444    -110.2523   -1148.8548    4.3502302    4.3502302    4.3502302   -1148.8548   -1408.8822   -3426.9158    1389.2335    237.06199    127.53833   -366.00713    82.325945 
Loop time of 23.0024 on 1 procs for 100000 steps with 8 atoms

Pair  time (%) = 6.98313 (30.3583)
Kspce time (%) = 5.71587 (24.849)
Neigh time (%) = 0 (0)
Comm  time (%) = 1.17277 (5.09845)
Outpt time (%) = 0.0309825 (0.134692)
Other time (%) = 9.09965 (39.5596)

Nlocal:    8 ave 8 max 8 min
Histogram: 1 0 0 0 0 0 0 0 0 0
Nghost:    2189 ave 2189 max 2189 min
Histogram: 1 0 0 0 0 0 0 0 0 0
Neighs:    2056 ave 2056 max 2056 min
Histogram: 1 0 0 0 0 0 0 0 0 0

Total # of neighbors = 2056
Ave neighs/atom = 257
Neighbor list builds = 0
Dangerous builds = 0
unfix 20
unfix 21
print "seeds:6517193"
seeds:6517193
