# ['Ni']

107 atoms
1 atom types

    0.0000    10.5202 xlo xhi
    0.0000    10.5202 ylo yhi
    0.0000    10.5202 zlo zhi

    0.0000    -0.0000    -0.0000 xy xz yz

Atoms

1 1     1.7534     1.7534     0.0000
2 1     1.7534     0.0000     1.7534
3 1     0.0000     1.7534     1.7534
4 1     0.0000     0.0000     3.5067
5 1     1.7534     1.7534     3.5067
6 1     1.7534     0.0000     5.2601
7 1     0.0000     1.7534     5.2601
8 1     0.0000     0.0000     7.0135
9 1     1.7534     1.7534     7.0135
10 1     1.7534     0.0000     8.7669
11 1     0.0000     1.7534     8.7669
12 1     0.0000     3.5067     0.0000
13 1     1.7534     5.2601     0.0000
14 1     1.7534     3.5067     1.7534
15 1     0.0000     5.2601     1.7534
16 1     0.0000     3.5067     3.5067
17 1     1.7534     5.2601     3.5067
18 1     1.7534     3.5067     5.2601
19 1     0.0000     5.2601     5.2601
20 1     0.0000     3.5067     7.0135
21 1     1.7534     5.2601     7.0135
22 1     1.7534     3.5067     8.7669
23 1     0.0000     5.2601     8.7669
24 1     0.0000     7.0135     0.0000
25 1     1.7534     8.7669     0.0000
26 1     1.7534     7.0135     1.7534
27 1     0.0000     8.7669     1.7534
28 1     0.0000     7.0135     3.5067
29 1     1.7534     8.7669     3.5067
30 1     1.7534     7.0135     5.2601
31 1     0.0000     8.7669     5.2601
32 1     0.0000     7.0135     7.0135
33 1     1.7534     8.7669     7.0135
34 1     1.7534     7.0135     8.7669
35 1     0.0000     8.7669     8.7669
36 1     3.5067     0.0000     0.0000
37 1     5.2601     1.7534     0.0000
38 1     5.2601     0.0000     1.7534
39 1     3.5067     1.7534     1.7534
40 1     3.5067     0.0000     3.5067
41 1     5.2601     1.7534     3.5067
42 1     5.2601     0.0000     5.2601
43 1     3.5067     1.7534     5.2601
44 1     3.5067     0.0000     7.0135
45 1     5.2601     1.7534     7.0135
46 1     5.2601     0.0000     8.7669
47 1     3.5067     1.7534     8.7669
48 1     3.5067     3.5067     0.0000
49 1     5.2601     5.2601     0.0000
50 1     5.2601     3.5067     1.7534
51 1     3.5067     5.2601     1.7534
52 1     3.5067     3.5067     3.5067
53 1     5.2601     5.2601     3.5067
54 1     5.2601     3.5067     5.2601
55 1     3.5067     5.2601     5.2601
56 1     3.5067     3.5067     7.0135
57 1     5.2601     5.2601     7.0135
58 1     5.2601     3.5067     8.7669
59 1     3.5067     5.2601     8.7669
60 1     3.5067     7.0135     0.0000
61 1     5.2601     8.7669     0.0000
62 1     5.2601     7.0135     1.7534
63 1     3.5067     8.7669     1.7534
64 1     3.5067     7.0135     3.5067
65 1     5.2601     8.7669     3.5067
66 1     5.2601     7.0135     5.2601
67 1     3.5067     8.7669     5.2601
68 1     3.5067     7.0135     7.0135
69 1     5.2601     8.7669     7.0135
70 1     5.2601     7.0135     8.7669
71 1     3.5067     8.7669     8.7669
72 1     7.0135     0.0000     0.0000
73 1     8.7669     1.7534     0.0000
74 1     8.7669     0.0000     1.7534
75 1     7.0135     1.7534     1.7534
76 1     7.0135     0.0000     3.5067
77 1     8.7669     1.7534     3.5067
78 1     8.7669     0.0000     5.2601
79 1     7.0135     1.7534     5.2601
80 1     7.0135     0.0000     7.0135
81 1     8.7669     1.7534     7.0135
82 1     8.7669     0.0000     8.7669
83 1     7.0135     1.7534     8.7669
84 1     7.0135     3.5067     0.0000
85 1     8.7669     5.2601     0.0000
86 1     8.7669     3.5067     1.7534
87 1     7.0135     5.2601     1.7534
88 1     7.0135     3.5067     3.5067
89 1     8.7669     5.2601     3.5067
90 1     8.7669     3.5067     5.2601
91 1     7.0135     5.2601     5.2601
92 1     7.0135     3.5067     7.0135
93 1     8.7669     5.2601     7.0135
94 1     8.7669     3.5067     8.7669
95 1     7.0135     5.2601     8.7669
96 1     7.0135     7.0135     0.0000
97 1     8.7669     8.7669     0.0000
98 1     8.7669     7.0135     1.7534
99 1     7.0135     8.7669     1.7534
100 1     7.0135     7.0135     3.5067
101 1     8.7669     8.7669     3.5067
102 1     8.7669     7.0135     5.2601
103 1     7.0135     8.7669     5.2601
104 1     7.0135     7.0135     7.0135
105 1     8.7669     8.7669     7.0135
106 1     8.7669     7.0135     8.7669
107 1     7.0135     8.7669     8.7669
