LAMMPS (11 Aug 2017)
Reading data file ...
  triclinic box = (0 0 0) to (3.6 6.2354 5.8788) with tilt (0 0 0)
  1 by 1 by 1 MPI processor grid
  reading atoms ...
  4 atoms
4 atoms in group Ni
Neighbor list info ...
  update every 1 steps, delay 0 steps, check yes
  max neighbors/atom: 2000, page size: 100000
  master list distance cutoff = 5.64464
  ghost atom cutoff = 5.64464
  binsize = 2.82232, bins = 2 3 3
  1 neighbor lists, perpetual/occasional/extra = 1 0 0
  (1) pair eam/alloy, perpetual
      attributes: half, newton on
      pair build: half/bin/newton/tri
      stencil: half/bin/3d/newton/tri
      bin: standard
Setting up cg style minimization ...
  Unit style    : metal
  Current step  : 0
WARNING: Energy due to 3 extra global DOFs will be included in minimizer energies
Per MPI rank memory allocation (min/avg/max) = 4.194 | 4.194 | 4.194 Mbytes
Step PotEng Xhi Xlo Yhi Ylo Zhi Xy Xz Yz Press Pxx Pyy Pzz Pxy Pxz Pyz c_eatoms 
       0   -3.8978925          3.6            0       6.2354            0       5.8788            0            0            0   -73929.017   -73929.696   -73928.621   -73928.734 -5.0547112e-13 2.695846e-12 8.087538e-12   -3.8978925 
      10   -4.0826819        3.582        0.018    6.2042235  0.031176548    5.8494064            0            0            0   -77181.578   -77182.274   -77181.171    -77181.29 -7.6405051e-12 -2.6264236e-12            0   -4.0826819 
      20   -4.2717466        3.564        0.036    6.1730469  0.062353099    5.8200128            0            0            0   -80579.931   -80580.644   -80579.513   -80579.638 -1.1748054e-12 2.7188354e-12            0   -4.2717466 
      30   -4.4651479        3.546        0.054    6.1418703  0.093529654    5.7906191            0            0            0   -84126.852   -84127.581   -84126.422   -84126.554 3.3460894e-12 -1.0384415e-12            0   -4.4651479 
      40    -4.662936        3.528        0.072    6.1106938   0.12470621    5.7612255            0            0            0   -87823.993   -87824.737   -87823.552   -87823.691 -1.0902759e-11 -8.427023e-12            0    -4.662936 
      50   -4.8651468         3.51         0.09    6.0795172   0.15588278    5.7318319            0            0            0   -91671.522    -91672.28   -91671.069   -91671.215 -5.895558e-13 1.2036764e-11 3.1442976e-12   -4.8651468 
      60   -5.0717989        3.492        0.108    6.0483407   0.18705934    5.7024382            0            0            0   -95667.672   -95668.444    -95667.21   -95667.363 -7.3789368e-12 -5.5785777e-13 1.2982872e-11   -5.0717989 
      70   -5.2828893        3.474        0.126    6.0171641   0.21823591    5.6730446            0            0            0   -99808.188   -99808.971   -99807.716   -99807.877 -2.880236e-12 3.4562832e-12            0   -5.2828893 
      80   -5.4983884        3.456        0.144    5.9859875   0.24941249    5.6436509            0            0            0   -104085.62   -104086.41   -104085.14   -104085.31 1.6228257e-13 2.2178618e-12 -3.4620282e-12   -5.4983884 
      90   -5.7182688        3.438        0.162    5.9548109   0.28058909    5.6142573            0            0            0   -108653.81   -108654.45   -108653.47    -108653.5 -1.0313027e-11 2.4070718e-12 2.9677902e-12   -5.7182688 
     100   -5.9435027         3.42         0.18    5.9236342   0.31176578    5.5848635            0            0            0   -113969.57    -113970.2   -113969.24   -113969.27 -1.9992285e-11 1.2300167e-11 9.1294251e-12   -5.9435027 
     110   -6.1744063        3.402        0.198    5.8924575   0.34294247    5.5554698            0            0            0   -119381.15   -119381.76   -119380.83   -119380.86 8.8431188e-12 -8.5144894e-13 4.690438e-12   -6.1744063 
     120   -6.4107237        3.384        0.216    5.8612808   0.37411919    5.5260761            0            0            0   -124861.83   -124862.41   -124861.52   -124861.56 3.1832656e-12 -4.5740127e-12 -4.1413358e-12   -6.4107237 
     130   -6.6521365        3.366        0.234    5.8301041   0.40529592    5.4966823            0            0            0   -130374.85   -130375.38   -130374.56    -130374.6 7.292235e-12 1.0138765e-11 -2.5171004e-11   -6.6521365 
     140   -6.8982486        3.348        0.252    5.7989273   0.43647268    5.4672885            0            0            0   -135870.89   -135871.37   -135870.63   -135870.67 -1.2582638e-12 4.5363722e-12 8.7416224e-12   -6.8982486 
     150   -7.1485683         3.33         0.27    5.7677505   0.46764946    5.4378947            0            0            0   -141284.99    -141285.4   -141284.76    -141284.8 6.3788082e-12 5.0756109e-12 -1.4746707e-11   -7.1485683 
     160   -7.4024871        3.312        0.288    5.7365737   0.49882626    5.4085009            0            0            0   -146532.72   -146533.04   -146532.54   -146532.58 4.2640932e-13 5.2590483e-12 -2.1320466e-12   -7.4024871 
     170   -7.6592543        3.294        0.306    5.7053969    0.5300031     5.379107            0            0            0   -151505.46   -151505.67   -151505.33   -151505.38 -1.4733602e-12 -1.112387e-11 1.9153683e-12   -7.6592543 
     180   -7.9179469        3.276        0.324      5.67422   0.56117998    5.3497131            0            0            0   -156064.52   -156064.59   -156064.46    -156064.5 1.3751311e-11 -9.1675407e-13 2.6127491e-11   -7.9179469 
     190   -8.1774341        3.258        0.342    5.6430431    0.5923569    5.3203192            0            0            0   -160033.88   -160033.78    -160033.9   -160033.95 -1.093798e-11 -2.1400396e-12 1.0303895e-11   -8.1774341 
     200   -8.4363346         3.24         0.36    5.6118661   0.62353387    5.2909252            0            0            0   -163191.22   -163190.91   -163191.35    -163191.4 -6.2525433e-12 -1.2505087e-11 1.1024221e-11   -8.4363346 
     210   -8.6929653        3.222   0.37799997    5.5806891   0.65471086    5.2615312            0            0            0   -165256.74   -165256.24   -165257.06   -165256.91 1.0081236e-11 4.6134469e-12 2.4775919e-11   -8.6929653 
     220   -8.9451048    3.2040432    0.3959568    5.5495868   0.68581321    5.2321372            0            0            0   -166177.68   -165875.66   -165876.93   -166780.44 -8.8756981e-12 1.1360894e-11 2.911229e-11   -8.9451048 
     230   -9.1900161    3.1861885    0.4138115    5.5186613   0.71673874    5.2027432            0            0            0   -165248.76   -164625.19   -164626.99    -166494.1 -1.1068888e-12 9.2240737e-13 4.0954887e-11   -9.1900161 
     240   -9.4247719    3.1684442   0.43155578    5.4879269   0.74747314    5.1733492            0            0            0   -161955.02   -160998.86   -161001.29   -163864.92 -1.150725e-12 8.8222253e-12 2.3781651e-11   -9.4247719 
     250   -9.6459084    3.1508219   0.44917808    5.4574036    0.7779964    5.1439552            0            0            0   -155672.87   -154382.33   -154385.47   -158250.82 -1.555698e-11 -6.5817993e-12 -3.2310651e-11   -9.6459084 
     260   -9.8498041    3.1333198   0.46668023    5.4270883   0.80831166    5.1145612            0            0            0   -146815.37   -145528.35   -145531.31   -149386.46 -9.1942041e-12 4.9083304e-12 2.2077761e-11   -9.8498041 
     270   -10.035845    3.1157365   0.48426355    5.3966324   0.83876762    5.0851672            0            0            0   -134890.56   -134115.59   -134119.44   -136436.65 -2.3488589e-12 -2.3718076e-11 -2.4204046e-11   -10.035845 
     280   -10.199011    3.0979788   0.50202123    5.3658741    0.8695259    5.0557732            0            0            0   -116948.64   -116741.31   -116746.11   -117358.49 9.8446185e-12 -4.556652e-12 -2.0575253e-11   -10.199011 
     290   -10.331513    3.0800133   0.51998665    5.3347555   0.90064453    5.0264521            0            0            0   -91298.282   -91685.851   -91691.555    -90517.44 2.0236964e-12 -1.1731574e-12 1.6438867e-11   -10.331513 
     300    -10.42281    3.0620148   0.53798523    5.3035785   0.93182153    4.9977845            0            0            0   -56333.326   -57241.397    -57247.58   -54511.001 3.7321879e-12 -6.3630745e-12 1.3123841e-11    -10.42281 
     310   -10.463132    3.0440179   0.55598205    5.2724015   0.96299853    4.9711201            0            0            0   -10768.131   -11683.767   -11688.423   -8932.2032 -7.1448156e-12 4.1975792e-11 5.4798184e-11   -10.463132 
     320   -10.464433    3.0396985    0.5603015    5.2649208   0.97047919    4.9679867            0            0            0 -0.023581871 -0.031835788 -0.026363403 -0.012546422 -2.2132105e-11 3.1911407e-11 -7.1511147e-11   -10.464433 
     330   -10.464433    3.0396985   0.56030151    5.2649208   0.97047923    4.9679867            0            0            0 -2.8555238e-06 -5.929533e-06 -2.8959925e-06 2.5895413e-07 5.2113388e-12 6.266474e-11 -5.4461707e-11   -10.464433 
     338   -10.464433    3.0396985   0.56030151    5.2649208   0.97047923    4.9679867            0            0            0 -8.5845279e-10 -4.8253137e-10 -1.5270429e-09 -5.6578411e-10 -7.3923805e-11 -3.3069483e-11 -7.7140681e-11   -10.464433 
Loop time of 0.0617771 on 1 procs for 338 steps with 4 atoms

7.4% CPU use with 1 MPI tasks x no OpenMP threads

Minimization stats:
  Stopping criterion = energy tolerance
  Energy initial, next-to-last, final = 
        -3.89789253958     -10.4644327044     -10.4644327044
  Force two-norm initial, final = 10.5468 9.01149e-14
  Force max component initial, final = 6.08925 5.97826e-14
  Final line search alpha, max atom move = 1 5.97826e-14
  Iterations, force evaluations = 338 364

MPI task timing breakdown:
Section |  min time  |  avg time  |  max time  |%varavg| %total
---------------------------------------------------------------
Pair    | 0.0020328  | 0.0020328  | 0.0020328  |   0.0 |  3.29
Neigh   | 7.987e-05  | 7.987e-05  | 7.987e-05  |   0.0 |  0.13
Comm    | 0.00047112 | 0.00047112 | 0.00047112 |   0.0 |  0.76
Output  | 0.057521   | 0.057521   | 0.057521   |   0.0 | 93.11
Modify  | 0          | 0          | 0          |   0.0 |  0.00
Other   |            | 0.001672   |            |       |  2.71

Nlocal:    4 ave 4 max 4 min
Histogram: 1 0 0 0 0 0 0 0 0 0
Nghost:    266 ave 266 max 266 min
Histogram: 1 0 0 0 0 0 0 0 0 0
Neighs:    112 ave 112 max 112 min
Histogram: 1 0 0 0 0 0 0 0 0 0

Total # of neighbors = 112
Ave neighs/atom = 28
Neighbor list builds = 5
Dangerous builds = 0
pypospack:output_section:begin
tot_energy = -10.4644327044
num_atoms = 4
a11 = 2.47939698472948
a22 = 4.29444154968454
a33 = 4.05717333288531
a12 = 0
a13 = 0
a23 = 0
tot_press = -8.58452789164194e-10
pxx = -4.82531366574613e-10
pyy = -1.52704288923035e-09
pzz = -5.6578411168762e-10
pxy = -7.39238053592307e-11
pxz = -3.30694829892468e-11
pyz = -7.71406811363948e-11
pypospack:output_section:done
pypospack:lammps_sim:done
Total wall time: 0:00:00
