# ['Ni']

10 atoms
1 atom types

    0.0000     3.4922 xlo xhi
    0.0000     2.4999 ylo yhi
    0.0000    24.9988 zlo zhi

    0.0000     0.0000     0.0000 xy xz yz

Atoms

1 1     0.0000     0.0000     0.0000
2 1     1.7461     1.2499     1.2499
3 1     0.0000     0.0000     2.4999
4 1     1.7461     1.2499     3.7498
5 1     0.0000     0.0000     4.9998
6 1     1.7461     1.2499     6.2497
7 1     0.0000     0.0000     7.4996
8 1     1.7461     1.2499     8.7496
9 1     0.0000     0.0000     9.9995
10 1     1.7461     1.2499    11.2495
