# ['Si']

215 atoms
1 atom types

    0.0000    87.5212 xlo xhi
    0.0000    87.5212 ylo yhi
    0.0000    87.5212 zlo zhi

    0.0000     0.0000     0.0000 xy xz yz

Atoms

1 1     7.2934     7.2934     7.2934
2 1     0.0000    14.5869    14.5869
3 1     7.2934    21.8803    21.8803
4 1    14.5869     0.0000    14.5869
5 1    21.8803     7.2934    21.8803
6 1    14.5869    14.5869     0.0000
7 1    21.8803    21.8803     7.2934
8 1     0.0000     0.0000    29.1737
9 1     7.2934     7.2934    36.4672
10 1     0.0000    14.5869    43.7606
11 1     7.2934    21.8803    51.0540
12 1    14.5869     0.0000    43.7606
13 1    21.8803     7.2934    51.0540
14 1    14.5869    14.5869    29.1737
15 1    21.8803    21.8803    36.4672
16 1     0.0000     0.0000    58.3475
17 1     7.2934     7.2934    65.6409
18 1     0.0000    14.5869    72.9343
19 1     7.2934    21.8803    80.2278
20 1    14.5869     0.0000    72.9343
21 1    21.8803     7.2934    80.2278
22 1    14.5869    14.5869    58.3475
23 1    21.8803    21.8803    65.6409
24 1     0.0000    29.1737     0.0000
25 1     7.2934    36.4672     7.2934
26 1     0.0000    43.7606    14.5869
27 1     7.2934    51.0540    21.8803
28 1    14.5869    29.1737    14.5869
29 1    21.8803    36.4672    21.8803
30 1    14.5869    43.7606     0.0000
31 1    21.8803    51.0540     7.2934
32 1     0.0000    29.1737    29.1737
33 1     7.2934    36.4672    36.4672
34 1     0.0000    43.7606    43.7606
35 1     7.2934    51.0540    51.0540
36 1    14.5869    29.1737    43.7606
37 1    21.8803    36.4672    51.0540
38 1    14.5869    43.7606    29.1737
39 1    21.8803    51.0540    36.4672
40 1     0.0000    29.1737    58.3475
41 1     7.2934    36.4672    65.6409
42 1     0.0000    43.7606    72.9343
43 1     7.2934    51.0540    80.2278
44 1    14.5869    29.1737    72.9343
45 1    21.8803    36.4672    80.2278
46 1    14.5869    43.7606    58.3475
47 1    21.8803    51.0540    65.6409
48 1     0.0000    58.3475     0.0000
49 1     7.2934    65.6409     7.2934
50 1     0.0000    72.9343    14.5869
51 1     7.2934    80.2278    21.8803
52 1    14.5869    58.3475    14.5869
53 1    21.8803    65.6409    21.8803
54 1    14.5869    72.9343     0.0000
55 1    21.8803    80.2278     7.2934
56 1     0.0000    58.3475    29.1737
57 1     7.2934    65.6409    36.4672
58 1     0.0000    72.9343    43.7606
59 1     7.2934    80.2278    51.0540
60 1    14.5869    58.3475    43.7606
61 1    21.8803    65.6409    51.0540
62 1    14.5869    72.9343    29.1737
63 1    21.8803    80.2278    36.4672
64 1     0.0000    58.3475    58.3475
65 1     7.2934    65.6409    65.6409
66 1     0.0000    72.9343    72.9343
67 1     7.2934    80.2278    80.2278
68 1    14.5869    58.3475    72.9343
69 1    21.8803    65.6409    80.2278
70 1    14.5869    72.9343    58.3475
71 1    21.8803    80.2278    65.6409
72 1    29.1737     0.0000     0.0000
73 1    36.4672     7.2934     7.2934
74 1    29.1737    14.5869    14.5869
75 1    36.4672    21.8803    21.8803
76 1    43.7606     0.0000    14.5869
77 1    51.0540     7.2934    21.8803
78 1    43.7606    14.5869     0.0000
79 1    51.0540    21.8803     7.2934
80 1    29.1737     0.0000    29.1737
81 1    36.4672     7.2934    36.4672
82 1    29.1737    14.5869    43.7606
83 1    36.4672    21.8803    51.0540
84 1    43.7606     0.0000    43.7606
85 1    51.0540     7.2934    51.0540
86 1    43.7606    14.5869    29.1737
87 1    51.0540    21.8803    36.4672
88 1    29.1737     0.0000    58.3475
89 1    36.4672     7.2934    65.6409
90 1    29.1737    14.5869    72.9343
91 1    36.4672    21.8803    80.2278
92 1    43.7606     0.0000    72.9343
93 1    51.0540     7.2934    80.2278
94 1    43.7606    14.5869    58.3475
95 1    51.0540    21.8803    65.6409
96 1    29.1737    29.1737     0.0000
97 1    36.4672    36.4672     7.2934
98 1    29.1737    43.7606    14.5869
99 1    36.4672    51.0540    21.8803
100 1    43.7606    29.1737    14.5869
101 1    51.0540    36.4672    21.8803
102 1    43.7606    43.7606     0.0000
103 1    51.0540    51.0540     7.2934
104 1    29.1737    29.1737    29.1737
105 1    36.4672    36.4672    36.4672
106 1    29.1737    43.7606    43.7606
107 1    36.4672    51.0540    51.0540
108 1    43.7606    29.1737    43.7606
109 1    51.0540    36.4672    51.0540
110 1    43.7606    43.7606    29.1737
111 1    51.0540    51.0540    36.4672
112 1    29.1737    29.1737    58.3475
113 1    36.4672    36.4672    65.6409
114 1    29.1737    43.7606    72.9343
115 1    36.4672    51.0540    80.2278
116 1    43.7606    29.1737    72.9343
117 1    51.0540    36.4672    80.2278
118 1    43.7606    43.7606    58.3475
119 1    51.0540    51.0540    65.6409
120 1    29.1737    58.3475     0.0000
121 1    36.4672    65.6409     7.2934
122 1    29.1737    72.9343    14.5869
123 1    36.4672    80.2278    21.8803
124 1    43.7606    58.3475    14.5869
125 1    51.0540    65.6409    21.8803
126 1    43.7606    72.9343     0.0000
127 1    51.0540    80.2278     7.2934
128 1    29.1737    58.3475    29.1737
129 1    36.4672    65.6409    36.4672
130 1    29.1737    72.9343    43.7606
131 1    36.4672    80.2278    51.0540
132 1    43.7606    58.3475    43.7606
133 1    51.0540    65.6409    51.0540
134 1    43.7606    72.9343    29.1737
135 1    51.0540    80.2278    36.4672
136 1    29.1737    58.3475    58.3475
137 1    36.4672    65.6409    65.6409
138 1    29.1737    72.9343    72.9343
139 1    36.4672    80.2278    80.2278
140 1    43.7606    58.3475    72.9343
141 1    51.0540    65.6409    80.2278
142 1    43.7606    72.9343    58.3475
143 1    51.0540    80.2278    65.6409
144 1    58.3475     0.0000     0.0000
145 1    65.6409     7.2934     7.2934
146 1    58.3475    14.5869    14.5869
147 1    65.6409    21.8803    21.8803
148 1    72.9343     0.0000    14.5869
149 1    80.2278     7.2934    21.8803
150 1    72.9343    14.5869     0.0000
151 1    80.2278    21.8803     7.2934
152 1    58.3475     0.0000    29.1737
153 1    65.6409     7.2934    36.4672
154 1    58.3475    14.5869    43.7606
155 1    65.6409    21.8803    51.0540
156 1    72.9343     0.0000    43.7606
157 1    80.2278     7.2934    51.0540
158 1    72.9343    14.5869    29.1737
159 1    80.2278    21.8803    36.4672
160 1    58.3475     0.0000    58.3475
161 1    65.6409     7.2934    65.6409
162 1    58.3475    14.5869    72.9343
163 1    65.6409    21.8803    80.2278
164 1    72.9343     0.0000    72.9343
165 1    80.2278     7.2934    80.2278
166 1    72.9343    14.5869    58.3475
167 1    80.2278    21.8803    65.6409
168 1    58.3475    29.1737     0.0000
169 1    65.6409    36.4672     7.2934
170 1    58.3475    43.7606    14.5869
171 1    65.6409    51.0540    21.8803
172 1    72.9343    29.1737    14.5869
173 1    80.2278    36.4672    21.8803
174 1    72.9343    43.7606     0.0000
175 1    80.2278    51.0540     7.2934
176 1    58.3475    29.1737    29.1737
177 1    65.6409    36.4672    36.4672
178 1    58.3475    43.7606    43.7606
179 1    65.6409    51.0540    51.0540
180 1    72.9343    29.1737    43.7606
181 1    80.2278    36.4672    51.0540
182 1    72.9343    43.7606    29.1737
183 1    80.2278    51.0540    36.4672
184 1    58.3475    29.1737    58.3475
185 1    65.6409    36.4672    65.6409
186 1    58.3475    43.7606    72.9343
187 1    65.6409    51.0540    80.2278
188 1    72.9343    29.1737    72.9343
189 1    80.2278    36.4672    80.2278
190 1    72.9343    43.7606    58.3475
191 1    80.2278    51.0540    65.6409
192 1    58.3475    58.3475     0.0000
193 1    65.6409    65.6409     7.2934
194 1    58.3475    72.9343    14.5869
195 1    65.6409    80.2278    21.8803
196 1    72.9343    58.3475    14.5869
197 1    80.2278    65.6409    21.8803
198 1    72.9343    72.9343     0.0000
199 1    80.2278    80.2278     7.2934
200 1    58.3475    58.3475    29.1737
201 1    65.6409    65.6409    36.4672
202 1    58.3475    72.9343    43.7606
203 1    65.6409    80.2278    51.0540
204 1    72.9343    58.3475    43.7606
205 1    80.2278    65.6409    51.0540
206 1    72.9343    72.9343    29.1737
207 1    80.2278    80.2278    36.4672
208 1    58.3475    58.3475    58.3475
209 1    65.6409    65.6409    65.6409
210 1    58.3475    72.9343    72.9343
211 1    65.6409    80.2278    80.2278
212 1    72.9343    58.3475    72.9343
213 1    80.2278    65.6409    80.2278
214 1    72.9343    72.9343    58.3475
215 1    80.2278    80.2278    65.6409
