# ['Ni']

28 atoms
1 atom types

    0.0000     2.4823 xlo xhi
    0.0000     4.2995 ylo yhi
    0.0000    28.3752 zlo zhi

    0.0000     0.0000     0.0000 xy xz yz

Atoms

1 1     0.0000     0.0000     0.0000
2 1     1.2412     2.1497     0.0000
3 1     1.2412     0.7166     2.0268
4 1     0.0000     2.8663     2.0268
5 1     0.0000     1.4332     4.0536
6 1     1.2412     3.5829     4.0536
7 1     0.0000     0.0000     6.0804
8 1     1.2412     2.1497     6.0804
9 1     1.2412     0.7166     8.1072
10 1     0.0000     2.8663     8.1072
11 1     0.0000     1.4332    10.1340
12 1     1.2412     3.5829    10.1340
13 1     0.0000     0.0000    12.1608
14 1     1.2412     2.1497    12.1608
15 1     0.0000     1.4332    14.1876
16 1     1.2412     3.5829    14.1876
17 1     0.0000     0.0000    16.2144
18 1     1.2412     2.1497    16.2144
19 1     1.2412     0.7166    18.2412
20 1     0.0000     2.8663    18.2412
21 1     0.0000     1.4332    20.2680
22 1     1.2412     3.5829    20.2680
23 1     0.0000     0.0000    22.2948
24 1     1.2412     2.1497    22.2948
25 1     1.2412     0.7166    24.3216
26 1     0.0000     2.8663    24.3216
27 1     0.0000     1.4332    26.3484
28 1     1.2412     3.5829    26.3484
