# ['Ni']

107 atoms
1 atom types

    0.0000    10.9876 xlo xhi
    0.0000    10.9876 ylo yhi
    0.0000    10.9876 zlo zhi

    0.0000    -0.0000    -0.0000 xy xz yz

Atoms

1 1     1.8939     1.8939     0.0000
2 1     1.8939     0.0000     1.8939
3 1     0.0000     1.8939     1.8939
4 1     0.0000     0.0000     3.7878
5 1     1.8939     1.8939     3.7878
6 1     1.8939     0.0000     5.6818
7 1     0.0000     1.8939     5.6818
8 1     0.0000     0.0000     7.5757
9 1     1.8939     1.8939     7.5757
10 1     1.8939     0.0000     9.4696
11 1     0.0000     1.8939     9.4696
12 1     0.0000     3.7878     0.0000
13 1     1.8939     5.6818     0.0000
14 1     1.8939     3.7878     1.8939
15 1     0.0000     5.6818     1.8939
16 1     0.0000     3.7878     3.7878
17 1     1.8939     5.6818     3.7878
18 1     1.8939     3.7878     5.6818
19 1     0.0000     5.6818     5.6818
20 1     0.0000     3.7878     7.5757
21 1     1.8939     5.6818     7.5757
22 1     1.8939     3.7878     9.4696
23 1     0.0000     5.6818     9.4696
24 1     0.0000     7.5757     0.0000
25 1     1.8939     9.4696     0.0000
26 1     1.8939     7.5757     1.8939
27 1     0.0000     9.4696     1.8939
28 1     0.0000     7.5757     3.7878
29 1     1.8939     9.4696     3.7878
30 1     1.8939     7.5757     5.6818
31 1     0.0000     9.4696     5.6818
32 1     0.0000     7.5757     7.5757
33 1     1.8939     9.4696     7.5757
34 1     1.8939     7.5757     9.4696
35 1     0.0000     9.4696     9.4696
36 1     3.7878     0.0000     0.0000
37 1     5.6818     1.8939     0.0000
38 1     5.6818     0.0000     1.8939
39 1     3.7878     1.8939     1.8939
40 1     3.7878     0.0000     3.7878
41 1     5.6818     1.8939     3.7878
42 1     5.6818     0.0000     5.6818
43 1     3.7878     1.8939     5.6818
44 1     3.7878     0.0000     7.5757
45 1     5.6818     1.8939     7.5757
46 1     5.6818     0.0000     9.4696
47 1     3.7878     1.8939     9.4696
48 1     3.7878     3.7878     0.0000
49 1     5.6818     5.6818     0.0000
50 1     5.6818     3.7878     1.8939
51 1     3.7878     5.6818     1.8939
52 1     3.7878     3.7878     3.7878
53 1     5.6818     5.6818     3.7878
54 1     5.6818     3.7878     5.6818
55 1     3.7878     5.6818     5.6818
56 1     3.7878     3.7878     7.5757
57 1     5.6818     5.6818     7.5757
58 1     5.6818     3.7878     9.4696
59 1     3.7878     5.6818     9.4696
60 1     3.7878     7.5757     0.0000
61 1     5.6818     9.4696     0.0000
62 1     5.6818     7.5757     1.8939
63 1     3.7878     9.4696     1.8939
64 1     3.7878     7.5757     3.7878
65 1     5.6818     9.4696     3.7878
66 1     5.6818     7.5757     5.6818
67 1     3.7878     9.4696     5.6818
68 1     3.7878     7.5757     7.5757
69 1     5.6818     9.4696     7.5757
70 1     5.6818     7.5757     9.4696
71 1     3.7878     9.4696     9.4696
72 1     7.5757     0.0000     0.0000
73 1     9.4696     1.8939     0.0000
74 1     9.4696     0.0000     1.8939
75 1     7.5757     1.8939     1.8939
76 1     7.5757     0.0000     3.7878
77 1     9.4696     1.8939     3.7878
78 1     9.4696     0.0000     5.6818
79 1     7.5757     1.8939     5.6818
80 1     7.5757     0.0000     7.5757
81 1     9.4696     1.8939     7.5757
82 1     9.4696     0.0000     9.4696
83 1     7.5757     1.8939     9.4696
84 1     7.5757     3.7878     0.0000
85 1     9.4696     5.6818     0.0000
86 1     9.4696     3.7878     1.8939
87 1     7.5757     5.6818     1.8939
88 1     7.5757     3.7878     3.7878
89 1     9.4696     5.6818     3.7878
90 1     9.4696     3.7878     5.6818
91 1     7.5757     5.6818     5.6818
92 1     7.5757     3.7878     7.5757
93 1     9.4696     5.6818     7.5757
94 1     9.4696     3.7878     9.4696
95 1     7.5757     5.6818     9.4696
96 1     7.5757     7.5757     0.0000
97 1     9.4696     9.4696     0.0000
98 1     9.4696     7.5757     1.8939
99 1     7.5757     9.4696     1.8939
100 1     7.5757     7.5757     3.7878
101 1     9.4696     9.4696     3.7878
102 1     9.4696     7.5757     5.6818
103 1     7.5757     9.4696     5.6818
104 1     7.5757     7.5757     7.5757
105 1     9.4696     9.4696     7.5757
106 1     9.4696     7.5757     9.4696
107 1     7.5757     9.4696     9.4696
