LAMMPS (11 Aug 2017)
Reading data file ...
  triclinic box = (0 0 0) to (3.6 6.2354 5.8788) with tilt (0 0 0)
  1 by 1 by 1 MPI processor grid
  reading atoms ...
  4 atoms
4 atoms in group Ni
Neighbor list info ...
  update every 1 steps, delay 0 steps, check yes
  max neighbors/atom: 2000, page size: 100000
  master list distance cutoff = 5.64464
  ghost atom cutoff = 5.64464
  binsize = 2.82232, bins = 2 3 3
  1 neighbor lists, perpetual/occasional/extra = 1 0 0
  (1) pair eam/alloy, perpetual
      attributes: half, newton on
      pair build: half/bin/newton/tri
      stencil: half/bin/3d/newton/tri
      bin: standard
Setting up cg style minimization ...
  Unit style    : metal
  Current step  : 0
WARNING: Energy due to 3 extra global DOFs will be included in minimizer energies
Per MPI rank memory allocation (min/avg/max) = 4.194 | 4.194 | 4.194 Mbytes
Step PotEng Xhi Xlo Yhi Ylo Zhi Xy Xz Yz Press Pxx Pyy Pzz Pxy Pxz Pyz c_eatoms 
       0   -5.4404978          3.6            0       6.2354            0       5.8788            0            0            0   -97529.265   -97530.039   -97528.797   -97528.958 -1.347923e-12 1.347923e-12 1.6175076e-11   -5.4404978 
      10   -5.6837124        3.582        0.018    6.2042234  0.031176606    5.8494063            0            0            0   -101350.43   -101351.21   -101349.95   -101350.12 -1.0538254e-11 1.9426853e-12            0   -5.6837124 
      20   -5.9314073        3.564        0.036    6.1730468  0.062353217    5.8200126            0            0            0   -105325.77   -105326.56   -105325.28   -105325.46 4.5425813e-12 -7.3844918e-13 -8.5928632e-12   -5.9314073 
      30   -6.1836191        3.546        0.054    6.1418702  0.093529834    5.7906189            0            0            0   -109457.58   -109458.37   -109457.08   -109457.27 -4.9383671e-12 -7.6152389e-13 -1.1815159e-11   -6.1836191 
      40   -6.4403718        3.528        0.072    6.1106935   0.12470646    5.7612253            0            0            0   -113746.99   -113747.79   -113746.49   -113746.68 -1.0831345e-11 -4.4753689e-12            0   -6.4403718 
      50    -6.701674         3.51         0.09    6.0795169   0.15588309    5.7318315            0            0            0   -118193.64   -118194.45   -118193.13   -118193.34 1.2282415e-11 -8.1555237e-12 -6.2885966e-12    -6.701674 
      60   -6.9675157        3.492        0.108    6.0483403   0.18705972    5.7024378            0            0            0   -122795.23   -122796.04   -122794.72   -122794.93 -2.8907183e-12 2.1807173e-12 -3.2457188e-11   -6.9675157 
      70   -7.2378639        3.474        0.126    6.0171636   0.21823636    5.6730441            0            0            0   -127547.02   -127547.83    -127546.5   -127546.72 1.5081968e-11 -8.5883429e-12 1.3406194e-11   -7.2378639 
      80   -7.5126581        3.456        0.144     5.985987   0.24941301    5.6436504            0            0            0   -132441.15   -132441.96   -132440.63   -132440.87 -4.4898195e-12 -7.7895663e-12            0   -7.5126581 
      90   -7.7918614        3.438        0.162    5.9548103    0.2805897    5.6142566            0            0            0   -137733.63   -137734.19   -137733.35   -137733.36 3.4900809e-12 8.7671252e-12 -4.5765826e-12   -7.7918614 
     100   -8.0770767         3.42         0.18    5.9236335   0.31176648    5.5848628            0            0            0   -144170.06   -144170.58   -144169.79    -144169.8 7.0781971e-13 -4.7813944e-12 -9.4038904e-12   -8.0770767 
     110   -8.3688649        3.402        0.198    5.8924567   0.34294328     5.555469            0            0            0   -150706.13   -150706.61   -150705.88   -150705.89 8.1559893e-12 -1.4489578e-11 5.9153329e-12   -8.3688649 
     120   -8.6668961        3.384        0.216    5.8612799   0.37412009    5.5260752            0            0            0   -157317.82   -157318.26    -157317.6   -157317.61 4.5122047e-12 1.7925197e-12 -7.1082676e-12   -8.6668961 
     130   -8.9707844        3.366        0.234    5.8301031   0.40529692    5.4966813            0            0            0    -163971.8   -163972.17    -163971.6   -163971.61 -5.1813287e-12 -8.1238117e-12 1.0490591e-11   -8.9707844 
     140   -9.2800741        3.348        0.252    5.7989262   0.43647378    5.4672875            0            0            0    -170623.2    -170623.5   -170623.04   -170623.05 -5.6953041e-12 1.1059486e-11 -3.4039376e-11   -9.2800741 
     150   -9.5942234         3.33         0.27    5.7677493   0.46765066    5.4378936            0            0            0   -177212.97   -177213.19   -177212.85   -177212.86 -1.4540952e-11 8.5050854e-12 2.8944726e-11   -9.5942234 
     160   -9.9125851        3.312        0.288    5.7365724   0.49882756    5.4084997            0            0            0   -183664.54   -183664.65   -183664.47   -183664.48 -1.3502975e-11 -2.5584584e-12 -3.283355e-11   -9.9125851 
     170   -10.234384        3.294        0.306    5.7053955   0.53000449    5.3791057            0            0            0   -189879.75   -189879.75   -189879.75   -189879.76 -1.4291609e-11 2.6520512e-12 9.7241878e-12   -10.234384 
     180   -10.558692        3.276        0.324    5.6742186   0.56118145    5.3497118            0            0            0    -195733.9   -195733.75   -195733.97   -195733.98 -5.5005307e-12 -1.2987364e-11 4.125398e-12   -10.558692 
     190   -10.884394        3.258        0.342    5.6430416   0.59235843    5.3203178            0            0            0   -201069.56   -201069.24   -201069.71   -201069.72 -3.8045195e-12 -8.2431255e-12 -9.0357338e-12   -10.884394 
     200   -11.210155         3.24   0.35999997    5.6118646   0.62353542    5.2909238            0            0            0   -205689.06   -205688.54   -205689.31   -205689.32 1.0530612e-11 2.1554846e-11 4.8374999e-11   -11.210155 
     210   -11.534373    3.2220001   0.37799992    5.5806876   0.65471241    5.2615298            0            0            0   -209345.15   -209344.51   -209345.64    -209345.3 -1.3327752e-11 -9.7395108e-12 -1.4865569e-11   -11.534373 
     220   -11.854836    3.2040568   0.39594318    5.5496087   0.68579128    5.2321358            0            0            0   -212225.01    -211720.5   -211722.04   -213232.48 5.3253225e-12 -2.5029016e-11 -4.1360005e-11   -11.854836 
     230   -12.168812    3.1862452   0.41375477    5.5187579   0.71664214    5.2027418            0            0            0    -213482.9   -212445.25   -212447.27   -215556.19 6.2718651e-12 -4.4271989e-12 -4.4271989e-11   -12.168812 
     240   -12.473651    3.1685711   0.43142891     5.488145   0.74725501    5.1733478            0            0            0   -212678.93   -211091.14    -211093.7   -215851.95 -4.2185485e-12 -5.7525661e-12 4.2185485e-12   -12.473651 
     250   -12.766266    3.1510425    0.4489575    5.4577841   0.77761586    5.1439538            0            0            0   -209288.97   -207143.92    -207147.1   -213575.89 1.1963016e-11 3.987672e-12 -2.6318635e-11   -12.766266 
     260   -13.043793    3.1336501   0.46634992    5.4276591    0.8077409    5.1145598            0            0            0   -204601.49   -202437.05   -202439.38   -208928.03 -6.1599249e-12 -4.3339819e-12 -1.2652959e-10   -13.043793 
     270   -13.309165    3.1161445   0.48385554     5.397338   0.83806196    5.0851658            0            0            0    -198803.5   -197478.68   -197481.79   -201450.03 8.4182818e-12 2.4081143e-12 2.1032214e-11   -13.309165 
     280   -13.558956    3.0984265   0.50157347    5.3666491   0.86875093    5.0557718            0            0            0   -187989.95   -187582.88   -187586.89   -188800.09 -1.3829191e-11 5.8464873e-12 -1.6344867e-11   -13.558956 
     290   -13.786398    3.0804756   0.51952438    5.3355564   0.89984364    5.0264208            0            0            0   -170748.52   -171317.82   -171322.79   -169604.96 1.4243785e-11 -2.2274231e-12 -4.4900161e-11   -13.786398 
     300   -13.981067    3.0624762   0.53752379    5.3043794   0.93102064    4.9975365            0            0            0   -145642.51   -147185.99   -147191.93   -142549.63 7.8878356e-12 1.6387131e-11 -1.4491605e-11   -13.981067 
     310   -14.133704    3.0444771   0.55552292    5.2732024   0.96219764    4.9694145            0            0            0    -111014.2   -113413.92   -113420.65   -106208.03 -4.0193574e-12 -5.1039459e-12 3.5185327e-11   -14.133704 
     320   -14.234748    3.0264784   0.57352156    5.2420254   0.99337464    4.9425725            0            0            0   -65117.378   -67980.212     -67987.1   -59384.822 -4.9258712e-11 1.0384269e-11 -8.0344953e-11   -14.234748 
     330   -14.274859    3.0084815   0.59151847    5.2108484    1.0245516    4.9195622            0            0            0   -8044.1956   -9682.2551   -9686.5712   -4763.7606 -1.8588512e-11 -1.9420833e-12 4.3974315e-11   -14.274859 
     340   -14.275482    3.0054453   0.59455472    5.2055925    1.0298075    4.9191839            0            0            0 -2.8419748e-05 4.7497328e-05 -9.2277237e-05 -4.0479335e-05 1.4641868e-11 -5.0479585e-11 -2.5309516e-11   -14.275482 
     348   -14.275482    3.0054453   0.59455472    5.2055925    1.0298075    4.9191839            0            0            0 -3.823502e-08 -4.3362242e-08 -3.5831406e-08 -3.5511412e-08 -7.1675432e-11 1.0597924e-11 1.1295156e-11   -14.275482 
Loop time of 0.0415192 on 1 procs for 348 steps with 4 atoms

10.9% CPU use with 1 MPI tasks x no OpenMP threads

Minimization stats:
  Stopping criterion = energy tolerance
  Energy initial, next-to-last, final = 
        -5.44049775468     -14.2754817811     -14.2754817811
  Force two-norm initial, final = 13.9136 2.69426e-12
  Force max component initial, final = 8.03311 1.61098e-12
  Final line search alpha, max atom move = 1 1.61098e-12
  Iterations, force evaluations = 348 365

MPI task timing breakdown:
Section |  min time  |  avg time  |  max time  |%varavg| %total
---------------------------------------------------------------
Pair    | 0.002176   | 0.002176   | 0.002176   |   0.0 |  5.24
Neigh   | 9.6798e-05 | 9.6798e-05 | 9.6798e-05 |   0.0 |  0.23
Comm    | 0.00049639 | 0.00049639 | 0.00049639 |   0.0 |  1.20
Output  | 0.037217   | 0.037217   | 0.037217   |   0.0 | 89.64
Modify  | 0          | 0          | 0          |   0.0 |  0.00
Other   |            | 0.001533   |            |       |  3.69

Nlocal:    4 ave 4 max 4 min
Histogram: 1 0 0 0 0 0 0 0 0 0
Nghost:    284 ave 284 max 284 min
Histogram: 1 0 0 0 0 0 0 0 0 0
Neighs:    136 ave 136 max 136 min
Histogram: 1 0 0 0 0 0 0 0 0 0

Total # of neighbors = 136
Ave neighs/atom = 34
Neighbor list builds = 6
Dangerous builds = 0
pypospack:output_section:begin
tot_energy = -14.2754817810523
num_atoms = 4
a11 = 2.41089055527737
a22 = 4.17578493322812
a33 = 3.95956783887663
a12 = 0
a13 = 0
a23 = 0
tot_press = -3.82350199976208e-08
pxx = -4.33622421006486e-08
pyy = -3.58314062207732e-08
pzz = -3.55114116714406e-08
pxy = -7.1675432337707e-11
pxz = 1.05979238475987e-11
pyz = 1.12951556796776e-11
pypospack:output_section:done
pypospack:lammps_sim:done
Total wall time: 0:00:00
