# ['Ni']

10 atoms
1 atom types

    0.0000     3.2583 xlo xhi
    0.0000     2.3324 ylo yhi
    0.0000    23.3240 zlo zhi

    0.0000     0.0000     0.0000 xy xz yz

Atoms

1 1     0.0000     0.0000     0.0000
2 1     1.6291     1.1662     1.1662
3 1     0.0000     0.0000     2.3324
4 1     1.6291     1.1662     3.4986
5 1     0.0000     0.0000     4.6648
6 1     1.6291     1.1662     5.8310
7 1     0.0000     0.0000     6.9972
8 1     1.6291     1.1662     8.1634
9 1     0.0000     0.0000     9.3296
10 1     1.6291     1.1662    10.4958
