# ['Ni']

10 atoms
1 atom types

    0.0000     3.1798 xlo xhi
    0.0000     2.2762 ylo yhi
    0.0000    22.7623 zlo zhi

    0.0000     0.0000     0.0000 xy xz yz

Atoms

1 1     0.0000     0.0000     0.0000
2 1     1.5899     1.1381     1.1381
3 1     0.0000     0.0000     2.2762
4 1     1.5899     1.1381     3.4143
5 1     0.0000     0.0000     4.5525
6 1     1.5899     1.1381     5.6906
7 1     0.0000     0.0000     6.8287
8 1     1.5899     1.1381     7.9668
9 1     0.0000     0.0000     9.1049
10 1     1.5899     1.1381    10.2430
