LAMMPS (11 Aug 2017)
Reading data file ...
  triclinic box = (0 0 0) to (3.5137 3.5137 35.1372) with tilt (0 -0 0)
  1 by 1 by 1 MPI processor grid
  reading atoms ...
  20 atoms
20 atoms in group Ni
Neighbor list info ...
  update every 1 steps, delay 0 steps, check yes
  max neighbors/atom: 2000, page size: 100000
  master list distance cutoff = 11
  ghost atom cutoff = 11
  binsize = 5.5, bins = 1 1 7
  1 neighbor lists, perpetual/occasional/extra = 1 0 0
  (1) pair eam/alloy, perpetual
      attributes: half, newton on
      pair build: half/bin/newton/tri
      stencil: half/bin/3d/newton/tri
      bin: standard
Setting up cg style minimization ...
  Unit style    : metal
  Current step  : 0
Per MPI rank memory allocation (min/avg/max) = 4.357 | 4.357 | 4.357 Mbytes
Step PotEng Lx Ly Lz Xy Xz Yz Press Pxx Pyy Pzz Pxy Pxz Pyz c_eatoms 
       0   -87.002713       3.5137       3.5137      35.1372            0           -0            0   -18541.395   -23544.686   -23544.686   -8534.8132 -1.9368649e-09 -5.0073673e-12 1.7229153e-12   -87.002713 
       1   -87.034282       3.5137       3.5137      35.1372            0           -0            0   -15295.827   -20333.071   -20333.071   -5221.3374 1.1430648e-08 -4.6634734e-12 -9.0265697e-12   -87.034282 
       2   -87.039236       3.5137       3.5137      35.1372            0           -0            0   -14025.058   -19067.454   -19067.454    -3940.268 -1.6000403e-09 2.0336214e-11 -1.9233888e-12   -87.039236 
       3   -87.040535       3.5137       3.5137      35.1372            0           -0            0   -13056.863   -18105.789   -18105.789   -2959.0105 -7.4185358e-11 -5.8431412e-12 1.4109633e-11   -87.040535 
       4   -87.040937       3.5137       3.5137      35.1372            0           -0            0    -12563.08   -17624.414   -17624.414   -2440.4118 -1.2670224e-10 8.5195594e-12 -2.7842615e-12   -87.040937 
       5   -87.041797       3.5137       3.5137      35.1372            0           -0            0   -10747.849   -15852.576   -15852.576   -538.39577 -7.3110686e-10 7.2422138e-12 -2.2966409e-11   -87.041797 
       6    -87.04215       3.5137       3.5137      35.1372            0           -0            0   -10059.072   -15180.651   -15180.651    184.08557 -1.6320048e-10 -2.8970045e-11 1.7878002e-12    -87.04215 
       7   -87.042215       3.5137       3.5137      35.1372            0           -0            0   -10138.509   -15263.732   -15263.732    111.93629 -7.6852501e-11 9.1730261e-12 -9.8674491e-12   -87.042215 
       8   -87.042217       3.5137       3.5137      35.1372            0           -0            0   -10148.414    -15273.59    -15273.59    101.93867 9.6705419e-12 1.3862393e-11 -6.8713708e-13   -87.042217 
       9   -87.042218       3.5137       3.5137      35.1372            0           -0            0   -10163.393   -15288.243   -15288.243    86.307028 -1.4858277e-11 2.0107283e-11 -1.0927988e-11   -87.042218 
      10   -87.042218       3.5137       3.5137      35.1372            0           -0            0   -10201.669   -15325.944   -15325.944    46.882207 1.7178974e-13 -4.0204209e-12 -1.6907644e-11   -87.042218 
      11   -87.042219       3.5137       3.5137      35.1372            0           -0            0    -10242.76    -15365.99    -15365.99    3.7006019 -7.7593192e-12 -7.1560874e-12 2.115993e-11   -87.042219 
      12   -87.042219       3.5137       3.5137      35.1372            0           -0            0   -10250.709   -15373.512   -15373.512   -5.1018215 1.5264993e-11 -8.5497416e-12 9.2902701e-12   -87.042219 
      13   -87.042219       3.5137       3.5137      35.1372            0           -0            0   -10249.439   -15372.231   -15372.231   -3.8554126 -2.4780581e-11 -1.1043901e-11 9.0006983e-12   -87.042219 
      14   -87.042219       3.5137       3.5137      35.1372            0           -0            0   -10248.875   -15371.674   -15371.674   -3.2781296 1.724029e-11 -2.0012343e-11 2.2610088e-13   -87.042219 
      15   -87.042219       3.5137       3.5137      35.1372            0           -0            0   -10247.634   -15370.451   -15370.451   -1.9990414 7.5579041e-12 -2.399233e-12 -1.4766748e-11   -87.042219 
      16   -87.042219       3.5137       3.5137      35.1372            0           -0            0   -10245.901   -15368.759   -15368.759  -0.18355134 1.116582e-11 1.9815394e-11 5.2631186e-12   -87.042219 
      17   -87.042219       3.5137       3.5137      35.1372            0           -0            0   -10245.634    -15368.51    -15368.51   0.11840711 -1.14807e-12 3.358452e-11 2.1441715e-12   -87.042219 
      18   -87.042219       3.5137       3.5137      35.1372            0           -0            0   -10245.605   -15368.482   -15368.482    0.1503124 -8.1549043e-12 2.5766661e-11 -7.2815495e-12   -87.042219 
      19   -87.042219       3.5137       3.5137      35.1372            0           -0            0   -10245.623   -15368.501   -15368.501   0.13157805 1.244814e-11 1.4797939e-11 -6.2841467e-12   -87.042219 
      20   -87.042219       3.5137       3.5137      35.1372            0           -0            0   -10245.665   -15368.542   -15368.542  0.088777443 4.2094963e-13 2.4640408e-11 -1.9719122e-11   -87.042219 
      21   -87.042219       3.5137       3.5137      35.1372            0           -0            0   -10245.711   -15368.587   -15368.587  0.041335393 5.1267135e-12 6.7947405e-12 1.9193523e-11   -87.042219 
      22   -87.042219       3.5137       3.5137      35.1372            0           -0            0   -10245.753   -15368.628   -15368.628 -0.0041940946 -8.6401851e-12 -4.5016834e-14 4.0644113e-11   -87.042219 
      23   -87.042219       3.5137       3.5137      35.1372            0           -0            0   -10245.754   -15368.629   -15368.629 -0.0048880832 8.4852509e-13 -1.6310744e-11 2.7390616e-11   -87.042219 
      24   -87.042219       3.5137       3.5137      35.1372            0           -0            0   -10245.754   -15368.628   -15368.628 -0.0047250347 -4.5884698e-12 6.8592688e-12 1.6324133e-11   -87.042219 
      25   -87.042219       3.5137       3.5137      35.1372            0           -0            0   -10245.752   -15368.627   -15368.627 -0.0032548303 -9.3681064e-12 -2.5421538e-11 -7.9933285e-12   -87.042219 
      26   -87.042219       3.5137       3.5137      35.1372            0           -0            0   -10245.752   -15368.627   -15368.627 -0.0029668301 -4.7500424e-12 -1.7532511e-11 -7.4293167e-12   -87.042219 
      27   -87.042219       3.5137       3.5137      35.1372            0           -0            0   -10245.752   -15368.626   -15368.626 -0.0026663667 1.0010724e-11 1.6677023e-11 8.7170172e-12   -87.042219 
      28   -87.042219       3.5137       3.5137      35.1372            0           -0            0   -10245.751   -15368.626   -15368.626 -0.0018282258 1.9283973e-11 -1.6872012e-11 2.4067895e-12   -87.042219 
      29   -87.042219       3.5137       3.5137      35.1372            0           -0            0    -10245.75   -15368.625   -15368.625 -0.00072071371 6.7213543e-12 1.6484013e-12 -1.0729029e-11   -87.042219 
      30   -87.042219       3.5137       3.5137      35.1372            0           -0            0   -10245.749   -15368.624   -15368.624 1.0121599e-05 -4.3348865e-12 3.5596303e-12 1.1651289e-12   -87.042219 
      31   -87.042219       3.5137       3.5137      35.1372            0           -0            0   -10245.749   -15368.624   -15368.624 8.9198453e-05 -2.7448725e-11 2.459402e-12 4.4317493e-12   -87.042219 
      32   -87.042219       3.5137       3.5137      35.1372            0           -0            0   -10245.749   -15368.624   -15368.624 0.00011169964 -4.5199842e-12 -1.6246447e-12 -4.1503049e-12   -87.042219 
      33   -87.042219       3.5137       3.5137      35.1372            0           -0            0   -10245.749   -15368.624   -15368.624 0.00010614162 2.1052255e-11 -8.4809791e-12 5.8655965e-12   -87.042219 
      34   -87.042219       3.5137       3.5137      35.1372            0           -0            0   -10245.749   -15368.624   -15368.624 6.0924062e-05 -2.8181789e-12 2.0760415e-11 -2.8742419e-12   -87.042219 
      35   -87.042219       3.5137       3.5137      35.1372            0           -0            0   -10245.749   -15368.624   -15368.624 1.8326105e-05 -6.6539385e-12 3.7261876e-11 -1.2366146e-11   -87.042219 
      36   -87.042219       3.5137       3.5137      35.1372            0           -0            0   -10245.749   -15368.624   -15368.624 -2.081621e-06 -2.3746865e-12 1.8273558e-11 7.5135692e-12   -87.042219 
      37   -87.042219       3.5137       3.5137      35.1372            0           -0            0   -10245.749   -15368.624   -15368.624 -3.5900991e-06 4.7886336e-12 -1.0707281e-12 5.862903e-12   -87.042219 
      38   -87.042219       3.5137       3.5137      35.1372            0           -0            0   -10245.749   -15368.624   -15368.624 -4.0637437e-06 9.8685284e-12 1.2277229e-11 1.5234338e-11   -87.042219 
      39   -87.042219       3.5137       3.5137      35.1372            0           -0            0   -10245.749   -15368.624   -15368.624 -3.2582023e-06 -5.1601742e-12 2.0418605e-11 9.7642138e-12   -87.042219 
      40   -87.042219       3.5137       3.5137      35.1372            0           -0            0   -10245.749   -15368.624   -15368.624 -1.5412051e-06 -9.0982681e-12 1.4509586e-11 1.0664394e-11   -87.042219 
      41   -87.042219       3.5137       3.5137      35.1372            0           -0            0   -10245.749   -15368.624   -15368.624 -1.4202684e-07 2.6431858e-12 5.6771436e-12 -1.6354775e-11   -87.042219 
      42   -87.042219       3.5137       3.5137      35.1372            0           -0            0   -10245.749   -15368.624   -15368.624 9.4554259e-08 1.7628999e-11 -1.102219e-11 -4.5755279e-12   -87.042219 
      43   -87.042219       3.5137       3.5137      35.1372            0           -0            0   -10245.749   -15368.624   -15368.624 1.4038473e-07 2.5870483e-11 -3.2875788e-12 -2.6069111e-11   -87.042219 
      44   -87.042219       3.5137       3.5137      35.1372            0           -0            0   -10245.749   -15368.624   -15368.624 1.3656948e-07 -4.5770764e-12 -6.2739702e-12 -3.1098905e-12   -87.042219 
      45   -87.042219       3.5137       3.5137      35.1372            0           -0            0   -10245.749   -15368.624   -15368.624 9.3255192e-08 -1.4648659e-11 -1.0538151e-11 -2.1824759e-11   -87.042219 
      46   -87.042219       3.5137       3.5137      35.1372            0           -0            0   -10245.749   -15368.624   -15368.624 1.6651419e-08 4.1010617e-12 -3.0450089e-11 -1.2551976e-11   -87.042219 
      47   -87.042219       3.5137       3.5137      35.1372            0           -0            0   -10245.749   -15368.624   -15368.624 -8.868746e-10 -2.5936454e-12 -1.6770131e-12 -2.1302085e-11   -87.042219 
      48   -87.042219       3.5137       3.5137      35.1372            0           -0            0   -10245.749   -15368.624   -15368.624 -5.1776123e-09 -3.2689729e-12 8.967103e-12 -1.7635159e-11   -87.042219 
      49   -87.042219       3.5137       3.5137      35.1372            0           -0            0   -10245.749   -15368.624   -15368.624 -5.1225409e-09 -7.5373008e-13 3.0938138e-11 -3.4634525e-12   -87.042219 
      50   -87.042219       3.5137       3.5137      35.1372            0           -0            0   -10245.749   -15368.624   -15368.624 -4.3933312e-09 1.2253807e-11 1.8681798e-12 -8.6232295e-12   -87.042219 
      51   -87.042219       3.5137       3.5137      35.1372            0           -0            0   -10245.749   -15368.624   -15368.624 -2.1477139e-09 -4.3890631e-12 -6.7176112e-12 -2.1872297e-11   -87.042219 
      52   -87.042219       3.5137       3.5137      35.1372            0           -0            0   -10245.749   -15368.624   -15368.624 -4.070945e-10 1.5182579e-11 -1.5339768e-11 -9.1300333e-12   -87.042219 
      53   -87.042219       3.5137       3.5137      35.1372            0           -0            0   -10245.749   -15368.624   -15368.624 2.6741338e-11 -3.1330966e-12 1.1283576e-11 -3.450789e-12   -87.042219 
      54   -87.042219       3.5137       3.5137      35.1372            0           -0            0   -10245.749   -15368.624   -15368.624 1.1250648e-11 9.3957546e-12 2.6281338e-12 -2.4280807e-11   -87.042219 
      55   -87.042219       3.5137       3.5137      35.1372            0           -0            0   -10245.749   -15368.624   -15368.624 4.2360215e-11 1.6301975e-12 -6.3375271e-12 -1.6848656e-11   -87.042219 
      56   -87.042219       3.5137       3.5137      35.1372            0           -0            0   -10245.749   -15368.624   -15368.624 5.2380205e-11 1.8997166e-13 -3.2690813e-11 3.0890526e-12   -87.042219 
Loop time of 0.0315859 on 1 procs for 56 steps with 20 atoms

95.0% CPU use with 1 MPI tasks x no OpenMP threads

Minimization stats:
  Stopping criterion = energy tolerance
  Energy initial, next-to-last, final = 
         -87.002713155     -87.0422190839     -87.0422190839
  Force two-norm initial, final = 0.665965 9.77026e-15
  Force max component initial, final = 0.260769 3.23252e-15
  Final line search alpha, max atom move = 1 3.23252e-15
  Iterations, force evaluations = 56 112

MPI task timing breakdown:
Section |  min time  |  avg time  |  max time  |%varavg| %total
---------------------------------------------------------------
Pair    | 0.028913   | 0.028913   | 0.028913   |   0.0 | 91.54
Neigh   | 0          | 0          | 0          |   0.0 |  0.00
Comm    | 0.0010333  | 0.0010333  | 0.0010333  |   0.0 |  3.27
Output  | 0.001338   | 0.001338   | 0.001338   |   0.0 |  4.24
Modify  | 0          | 0          | 0          |   0.0 |  0.00
Other   |            | 0.0003018  |            |       |  0.96

Nlocal:    20 ave 20 max 20 min
Histogram: 1 0 0 0 0 0 0 0 0 0
Nghost:    1893 ave 1893 max 1893 min
Histogram: 1 0 0 0 0 0 0 0 0 0
Neighs:    4044 ave 4044 max 4044 min
Histogram: 1 0 0 0 0 0 0 0 0 0

Total # of neighbors = 4044
Ave neighs/atom = 202.2
Neighbor list builds = 0
Dangerous builds = 0
pypospack:output_section:begin
tot_energy = -87.0422190838785
num_atoms = 20
a11 = 3.5137
a22 = 3.5137
a33 = 35.1372
a12 = 0
a13 = -0
a23 = 0
tot_press = -10245.7492868773
pxx = -15368.623930316
pyy = -15368.623930316
pzz = 5.23802051715508e-11
pxy = 1.8997166462636e-13
pxz = -3.26908133840781e-11
pyz = 3.0890526379198e-12
pypospack:output_section:done
pypospack:lammps_sim:done
Total wall time: 0:00:00
