LAMMPS (10 Feb 2015)
Reading data file ...
  triclinic box = (0 0 0) to (4.2565 4.2565 4.2565) with tilt (0 0 0)
  1 by 1 by 1 MPI processor grid
  reading atoms ...
  8 atoms
4 atoms in group Mg
4 atoms in group O
Setting atom values ...
  4 settings made for charge
Setting atom values ...
  4 settings made for charge
PPPM initialization ...
  G vector (1/distance) = 0.352512
  grid = 8 8 8
  stencil order = 5
  estimated absolute RMS force accuracy = 3.81673e-05
  estimated relative force accuracy = 2.65057e-06
  using double precision FFTs
  3d grid and FFT values/proc = 3375 512
Neighbor list info ...
  1 neighbor list requests
  update every 1 steps, delay 0 steps, check yes
  master list distance cutoff = 11
Setting up minimization ...
Memory usage per processor = 4.06549 Mbytes
Step PotEng Lx Ly Lz Xy Xz Yz Press Pxx Pyy Pzz Pxy Pxz Pyz eatoms 
       0   -105.55076       4.2565       4.2565       4.2565            0            0            0    126453.59    126453.59    126453.59    126453.59 4.0363335e-11 4.044677e-11 1.0723156e-10   -105.55076 
      10   -105.69165     4.299065     4.299065     4.299065            0            0            0    68786.015    68786.015    68786.015    68786.015 -1.0242962e-10 -4.708445e-11 -3.569371e-11   -105.69165 
      20   -105.75532      4.34163      4.34163      4.34163            0            0            0    18126.479    18126.479    18126.479    18126.479 7.5197513e-11 1.703257e-11 -3.0007315e-11   -105.75532 
      27   -105.76066    4.3583247    4.3583247    4.3583247            0            0            0    1.3863117    1.3863117    1.3863117    1.3863117 -6.2572681e-11 -1.3142723e-10 -3.2118437e-11   -105.76066 
Loop time of 0.0138879 on 1 procs for 27 steps with 8 atoms

Minimization stats:
  Stopping criterion = linesearch alpha is zero
  Energy initial, next-to-last, final = 
        -105.550764672     -105.760658065     -105.760658065
  Force two-norm initial, final = 18.26 0.000217628
  Force max component initial, final = 18.26 0.000209876
  Final line search alpha, max atom move = 0.25 5.24691e-05
  Iterations, force evaluations = 27 40

Pair  time (%) = 0.00371242 (26.7313)
Kspce time (%) = 0.00223756 (16.1116)
Neigh time (%) = 0 (0)
Comm  time (%) = 0.000416279 (2.99742)
Outpt time (%) = 3.29018e-05 (0.23691)
Other time (%) = 0.00748873 (53.9227)

Nlocal:    8 ave 8 max 8 min
Histogram: 1 0 0 0 0 0 0 0 0 0
Nghost:    2189 ave 2189 max 2189 min
Histogram: 1 0 0 0 0 0 0 0 0 0
Neighs:    2344 ave 2344 max 2344 min
Histogram: 1 0 0 0 0 0 0 0 0 0

Total # of neighbors = 2344
Ave neighs/atom = 293
Neighbor list builds = 0
Dangerous builds = 0
pypospack:output_section:begin
tot_energy = -105.760658064539
num_atoms = 8
xx = 4.35832471527479
yy = 4.35832471527479
zz = 4.35832471527479
xy = 0
xz = 0
yz = 0
tot_press = 1.38631174704167
pxx = 1.38631174709188
pyy = 1.38631174731354
pzz = 1.3863117467196
pxy = -6.25726806975275e-11
pxz = -1.31427228854923e-10
pyz = -3.21184365171528e-11
pypospack:output_section:done
pypospack:lammps_sim:done
PPPM initialization ...
  G vector (1/distance) = 0.351503
  grid = 8 8 8
  stencil order = 5
  estimated absolute RMS force accuracy = 3.99806e-05
  estimated relative force accuracy = 2.7765e-06
  using double precision FFTs
  3d grid and FFT values/proc = 3375 512
Setting up run ...
Memory usage per processor = 3.06549 Mbytes
Step Temp PotEng KinEng TotEng Press Lx Ly Lz Press Pxx Pyy Pzz Pxy Pxz Pyz Volume 
       0          700   -105.76067   0.63337471    -105.1273    8171.1063    4.3583247    4.3583247    4.3583247    8171.1063    12909.942    7772.8141    3830.5626    282.20466    -3898.238   -976.80366    82.786353 
     100    177.86526   -105.20295   0.16093623   -105.04201   -607.85617    4.3854563    4.3854563    4.3854563   -607.85617    21249.936    3190.7592   -26264.264   -5432.0343    6923.0322     3659.516    84.342091 
     200     574.7463   -105.38651   0.52004253   -104.86646   -8530.7212    4.3922285    4.3922285    4.3922285   -8530.7212    14716.718   -19934.471   -20374.411   -3458.0531    3885.2257    538.17141    84.733428 
     300    609.78774   -105.27461   0.55174876   -104.72286    20150.068    4.3724365    4.3724365    4.3724365    20150.068    37723.854    20431.059    2295.2919   -1235.6361    3401.3193    3305.1238    83.593122 
     400    419.47782   -104.98753   0.37955235   -104.60798   -5968.8986    4.4025142    4.4025142    4.4025142   -5968.8986    17255.064   -17927.142   -17234.618   -6164.3295   -1951.9961    5514.8472    85.330105 
     500    825.17773   -105.27426   0.74663815   -104.52762    2712.6586    4.3970519    4.3970519    4.3970519    2712.6586    37962.527   -20796.403   -9028.1476    4291.7543   -14791.249    645.60408    85.012887 
     600    494.66821   -104.93861   0.44758619   -104.49103    25004.789    4.3750942    4.3750942    4.3750942    25004.789    37254.252    22976.954     14783.16   -7001.5489    10548.517    7251.4023    83.745646 
     700     786.5677   -105.19606   0.71170299   -104.48435       -25224    4.4148799    4.4148799    4.4148799       -25224   -256.53435   -45825.999   -29589.468   -5629.3698    4283.2924   -4040.7608     86.05115 
     800    466.60813   -104.90809   0.42219684   -104.48589    38166.001    4.3780476    4.3780476    4.3780476    38166.001    94775.032    17018.228    2704.7427    6532.1831    12544.203    3244.5152    83.915353 
     900    710.86991   -105.14819   0.64321004   -104.50498   -6759.7643    4.3916244    4.3916244    4.3916244   -6759.7643   -6490.4871     -13399.6   -389.20522   -10120.065    23.998213   -3028.8805    84.698468 
    1000      820.224   -105.22999   0.74215591   -104.48783   -12318.908    4.4105563    4.4105563    4.4105563   -12318.908    24897.325   -28825.222   -33028.827    4859.8756    -4602.632   -450.94247    85.798579 
    1100    622.85015   -105.04271    0.5635679   -104.47915     25527.29    4.3700263    4.3700263    4.3700263     25527.29    47114.323    24413.984    5053.5634   -16671.272    688.81121    451.47742    83.454958 
    1200    937.83536   -105.34009   0.84857315   -104.49151   -31668.525    4.4080374    4.4080374    4.4080374   -31668.525   -22467.442   -32023.073   -40515.061    1297.2591    7784.5881    -4327.626    85.651668 
    1300    648.78752   -105.07925   0.58703659   -104.49221    11491.863     4.394365     4.394365     4.394365    11491.863    68143.451   -5011.4955   -28656.367    2250.0853    4933.8831    1773.7793    84.857141 
    1400    649.68676   -105.08225   0.58785023    -104.4944    8345.3637    4.3783866    4.3783866    4.3783866    8345.3637    29556.025     3281.958   -7801.8924   -6018.5121    2117.3394   -2217.3845    83.934848 
    1500    954.44639   -105.35236   0.86360315   -104.48876    -20511.72    4.4126621    4.4126621    4.4126621    -20511.72    10779.064   -26173.302   -46140.921   -235.70893   -4841.2867    2427.2483    85.921534 
    1600    546.76522   -104.98664   0.49472466   -104.49192    10499.169    4.3839683    4.3839683    4.3839683    10499.169    49293.007   -595.81453   -17199.686   -17405.412   -710.21909    1720.8991    84.256265 
    1700    918.64306    -105.3279   0.83120755    -104.4967   -7527.3679    4.3857098    4.3857098    4.3857098   -7527.3679    15710.172   -17863.415   -20428.861    5127.0486    9764.4459    1355.2555    84.356716 
    1800    841.52922   -105.25129   0.76143333   -104.48985   -15351.525    4.4109031    4.4109031    4.4109031   -15351.525    18217.347   -23343.251   -40928.669    265.39202    1553.0976    1830.8614    85.818821 
    1900    653.94331   -105.07808   0.59170165   -104.48638   -4610.2807    4.3887864    4.3887864    4.3887864   -4610.2807     23202.47   -18287.072    -18746.24   -12204.531    2573.4204    938.26163    84.534371 
    2000     956.3698   -105.34854   0.86534349   -104.48319    9959.9977    4.3848049    4.3848049    4.3848049    9959.9977    38255.692    1153.7983   -9529.4971    -2702.582   -6394.3166   -647.44248    84.304515 
    2100    574.46915   -105.01582   0.51979176   -104.49603   -15643.501    4.4080362    4.4080362    4.4080362   -15643.501    2484.6316    -18238.49   -31176.646   -12958.958    2314.4732   -4443.4765    85.651596 
    2200    708.71842   -105.13144   0.64126332   -104.49017    5125.6436    4.3941972    4.3941972    4.3941972    5125.6436    38174.166   -11877.973   -10919.262     11797.04     13410.44   -1768.6546    84.847417 
    2300    603.43732   -105.03257   0.54600277   -104.48656    16006.442    4.3829464    4.3829464    4.3829464    16006.442    30865.107    4990.5272    12163.692   -727.09492   -2366.3323   -4584.3077     84.19736 
    2400    697.80794   -105.12456   0.63139129   -104.49316   -24299.361    4.4055762    4.4055762    4.4055762   -24299.361   -20041.191   -26879.139   -25977.753   -15831.208    9198.5495   -4406.8296    85.508279 
    2500    700.89392   -105.12162   0.63418355   -104.48743    14528.267    4.3895692    4.3895692    4.3895692    14528.267    50146.136    1265.4771   -7826.8118   -4891.2768    -13005.22     1177.659    84.579614 
    2600    516.91695   -104.95853   0.46771732   -104.49081    10641.817     4.385978     4.385978     4.385978    10641.817    31164.664   -13262.426    14023.212   -20952.743    14681.649   -3150.9888    84.372195 
    2700    920.18259   -105.31478   0.83260054   -104.48218   -23640.487    4.4112262    4.4112262    4.4112262   -23640.487   -25631.564   -28011.985   -17277.911    9115.2253    4522.5158     3187.892    85.837684 
    2800    661.76478   -105.08224   0.59877868   -104.48346     8973.668    4.3807832    4.3807832    4.3807832     8973.668    11400.403    -6544.044    22064.645   -3882.1315   -1270.2854   -1356.8509    84.072757 
    2900    668.88386   -105.09947   0.60522018   -104.49425   -196.90055    4.3920193    4.3920193    4.3920193   -196.90055    27244.975   -27020.856   -814.82109    1627.5469   -787.82734   -1452.0877    84.721321 
    3000    763.23975   -105.17348   0.69059536   -104.48288    -9886.107    4.4045346    4.4045346    4.4045346    -9886.107    14865.852   -22114.734   -22409.439   -1457.9089   -3134.6907   -8564.0494    85.447639 
    3100    889.71308   -105.28144   0.80503109   -104.47641   -2555.0028    4.3816289    4.3816289    4.3816289   -2555.0028   -7714.1995    -7766.625    7815.8159    -17743.81    9591.8109   -3677.5773    84.121453 
    3200    703.28772   -105.11957   0.63634951   -104.48322   -6679.1105    4.4043246    4.4043246    4.4043246   -6679.1105    25555.784   -19119.987   -26473.128    8265.2645    6271.1942   -2307.6159    85.435421 
    3300    561.86874   -104.98863   0.50839065   -104.48024    6004.9489    4.3931671    4.3931671    4.3931671    6004.9489    12351.173     15169.09   -9505.4164   -5432.5963   -8216.9631   -795.41597    84.787762 
    3400    704.38744   -105.11469   0.63734456   -104.47735   -239.82596    4.3922509    4.3922509    4.3922509   -239.82596    18813.923   -8476.7782   -11056.623    6642.7715    4319.1728    3922.4274    84.734725 
    3500    803.05695   -105.20633    0.7266228    -104.4797    221.84248    4.3917981    4.3917981    4.3917981    221.84248   -8717.1666    8880.1746    502.51943   -8210.3744   -5398.9621    1229.5722     84.70852 
    3600    466.45461    -104.9135   0.42205793   -104.49144    3837.2729    4.3951761    4.3951761    4.3951761    3837.2729    29186.661   -3084.9689   -14589.873   -13889.893    16065.621    3540.7535    84.904133 
    3700    733.62917   -105.14963   0.66380309   -104.48582   -3635.5603    4.3988396    4.3988396    4.3988396   -3635.5603    34395.733   -27700.539   -17601.875    2460.0322    2403.3709   -4221.7035     85.11662 
    3800    802.22194    -105.2102   0.72586727   -104.48433   -5698.0871    4.3864971    4.3864971    4.3864971   -5698.0871   -12890.797   -245.70956   -3957.7547   -5226.3026    -4558.424   -702.93893    84.402158 
    3900    703.75346   -105.12677   0.63677092      -104.49   -5136.7068    4.3995539    4.3995539    4.3995539   -5136.7068    40617.303   -21560.281   -34467.143    5325.3238    5450.5252   -2273.0238    85.158094 
    4000    783.99386   -105.19922   0.70937412   -104.48985   -2775.0041    4.3903742    4.3903742    4.3903742   -2775.0041    27502.951   -27732.122   -8095.8409   -6199.9414   -1473.8047    -6498.235    84.626158 
    4100    631.47171    -105.0609   0.57136888   -104.48953    16317.884    4.3854269    4.3854269    4.3854269    16317.884     37606.74    11243.953    102.95818   -11915.476    15746.577    3500.3728    84.340395 
    4200    845.21402    -105.2439   0.76476741   -104.47913   -26486.009    4.4124512    4.4124512    4.4124512   -26486.009    -24159.96   -36435.166   -18862.901     1432.053   -1701.4217   -2953.2939    85.909211 
    4300     551.0064   -104.97193   0.49856217   -104.47337    25505.173     4.374714     4.374714     4.374714    25505.173     61849.49    3313.2668    11352.762   -9085.8996   -4838.1504    8283.2514    83.723814 
    4400    507.61751   -104.94445   0.45930299   -104.48514   -1470.3513    4.3981646    4.3981646    4.3981646   -1470.3513    9736.5656    649.03516   -14796.655    14652.337    8356.7247    81.870655    85.077446 
    4500    795.22114   -105.19787    0.7195328   -104.47833   -982.05805     4.392264     4.392264     4.392264   -982.05805    10752.784   -5054.1084   -8644.8499   -5018.9832   -2262.3263    3950.7326    84.735482 
    4600    614.39572   -105.03786   0.55591816   -104.48195   -9433.7964    4.3937434    4.3937434    4.3937434   -9433.7964    -11497.22    11850.822   -28654.992    -9633.597    17192.168   -866.37853    84.821131 
    4700    672.07187   -105.08737   0.60810476   -104.47927   -696.39981    4.3948913    4.3948913    4.3948913   -696.39981    39306.851   -20279.693   -21116.358   -2827.3047    5108.3534   -3455.1244    84.887634 
    4800    781.31986   -105.18793   0.70695463   -104.48098   -12002.771    4.3914315    4.3914315    4.3914315   -12002.771    1743.1228   -15062.521   -22688.914   -6367.8579    4145.5541    774.62053    84.687308 
    4900    838.03398   -105.23913   0.75827076   -104.48086   -17691.114    4.3956292    4.3956292    4.3956292   -17691.114    -4076.558   -14190.523    -34806.26    11160.584    5309.2504   -9273.5615    84.930396 
    5000    624.50714   -105.05105   0.56506719   -104.48599    5297.5335    4.3858825    4.3858825    4.3858825    5297.5335    30859.838   -8337.6501    -6629.588   -12255.152   -8132.2983    2688.5427    84.366686 
    5100    551.64387   -104.99076   0.49913897   -104.49162    12372.979    4.3877113    4.3877113    4.3877113    12372.979     39496.14    10653.748   -13030.951   -13372.072    9624.4162   -2028.6208    84.472262 
    5200    775.29376   -105.18753   0.70150208   -104.48603   -10995.915    4.4037533    4.4037533    4.4037533   -10995.915    15590.196   -16332.967   -32244.974   -3476.5464   -1019.5453    113.97274    85.402177 
    5300    642.52855   -105.06595   0.58137334   -104.48457    17043.184    4.3768113    4.3768113    4.3768113    17043.184    16041.404    23521.548    11566.598   -1792.8221     1171.619    5876.7384    83.844288 
    5400    626.69155   -105.06551   0.56704368   -104.49847   -1195.8937    4.3934073    4.3934073    4.3934073   -1195.8937    47933.564   -27693.511   -23827.734    10651.182   -1119.7555   -4907.0417     84.80167 
    5500    855.51059   -105.25904   0.77408396   -104.48496    -7501.173    4.3980755    4.3980755    4.3980755    -7501.173    13287.865   -28215.833   -7575.5514    1797.6352   -7336.6131    3835.4052    85.072275 
    5600    832.57054   -105.23162   0.75332732    -104.4783    4472.4341     4.374357     4.374357     4.374357    4472.4341    17962.161   -3845.4881   -699.37067   -6691.6196     9809.318   -8289.3563    83.703317 
    5700    642.99347   -105.06788   0.58179401   -104.48608   -16146.428    4.4036489    4.4036489    4.4036489   -16146.428    19042.766   -43315.477   -24166.573    14451.503    3269.2655   -2056.7002    85.396106 
    5800    754.23294   -105.16468   0.68244582   -104.48224    6728.7273    4.3878143    4.3878143    4.3878143    6728.7273    29378.152    2373.2364   -11565.206   -1673.9577    7569.7624   -2998.2095    84.478214 
    5900     584.3062   -105.01516   0.52869253   -104.48646   -10685.764    4.3870802    4.3870802    4.3870802   -10685.764    1409.2428   -21248.587   -12217.948    24428.095   -1505.4939   -3426.2496    84.435818 
    6000    868.62578   -105.26885   0.78595086    -104.4829    1083.9716    4.3909647    4.3909647    4.3909647    1083.9716    10718.093    5700.5211   -13166.699   -1880.0523   -239.90936    2452.4488    84.660304 
    6100    392.87521   -104.84597   0.35548174   -104.49049    3126.0141    4.3939728    4.3939728    4.3939728    3126.0141    39666.148   -11637.018   -18651.087   -6767.6128    6294.8546    -104.9683     84.83442 
    6200    849.84179   -105.25469   0.76895472   -104.48574    1642.9235     4.385989     4.385989     4.385989    1642.9235    21369.604   -17788.205    1347.3711    18044.765    3483.0307    3447.9672    84.372828 
    6300    858.29137   -105.26445   0.77660007   -104.48785   -5621.7566    4.3927535    4.3927535    4.3927535   -5621.7566    10570.626   -12542.215   -14893.681   -4318.1974    6349.4433   -1875.1368    84.763818 
    6400    462.40141   -104.91053   0.41839051   -104.49214    13211.637    4.3845215    4.3845215    4.3845215    13211.637     48026.82   -18615.897    10223.986    14667.392   -4105.4923   -2581.8009    84.288166 
    6500    863.48788    -105.2706   0.78130198    -104.4893   -624.56061    4.3910085    4.3910085    4.3910085   -624.56061     21182.96   -14107.037   -8949.6047   -4630.5212   -3785.6805   -4636.4273    84.662839 
    6600      574.612   -105.00833   0.51992101    -104.4884    16642.308    4.3870688    4.3870688    4.3870688    16642.308    36938.317    4995.4731     7993.135    3957.6376    6763.6299   -56.418733     84.43516 
    6700     758.2357   -105.17125   0.68606759   -104.48518   -11039.645    4.3989781    4.3989781    4.3989781   -11039.645    15113.057   -32630.316   -15601.677    12770.706    2390.7368   -3509.3836    85.124662 
    6800    628.62656   -105.05148   0.56879453   -104.48269    22754.404    4.3793709    4.3793709    4.3793709    22754.404     65190.55    6523.5613   -3450.8997   -1343.4452    7791.0962   -1271.3195     83.99147 
    6900    767.71787   -105.18795   0.69464726    -104.4933    -12417.59    4.3874701    4.3874701    4.3874701    -12417.59   -18086.347   -25620.188    6453.7664    13915.862   -3464.8025    3295.4833    84.458336 
    7000     809.7089   -105.21968   0.73264162   -104.48704    -15440.67      4.39902      4.39902      4.39902    -15440.67   -6507.1454   -26119.982   -13694.881   -7465.1123   -746.11228   -5644.7353    85.127092 
    7100    687.17301   -105.10427   0.62176858    -104.4825    10469.238    4.3793677    4.3793677    4.3793677    10469.238    23950.329   -1423.4902    8880.8768    13696.114    33.625616    2023.0578    83.991285 
    7200     528.4376   -104.96346   0.47814144   -104.48532   -2696.6816    4.3943647    4.3943647    4.3943647   -2696.6816    5109.6471   -23108.549    9908.8573    8011.3283    5942.3154   -5839.9396    84.857121 
    7300    845.40178   -105.24428    0.7649373   -104.47934    2510.4613    4.3874025    4.3874025    4.3874025    2510.4613    8240.2018   -4319.2507    3610.4327   -1758.0213   -5666.1714   -268.12384    84.454432 
    7400    693.53005    -105.1092   0.62752056   -104.48168   -13495.011    4.3956163    4.3956163    4.3956163   -13495.011   -21588.876   -20628.802    1732.6454    11282.534     755.6089    1724.8036    84.929646 
    7500    764.52919   -105.17425   0.69176208   -104.48249    8269.1818    4.3835042    4.3835042    4.3835042    8269.1818     32348.64   -11234.133    3693.0383   -14237.837   -7663.0787   -2189.3602    84.229511 
    7600    668.98627   -105.09435   0.60531284   -104.48904    2799.8061     4.392549     4.392549     4.392549    2799.8061    14009.222   -10873.943      5264.14    16206.286    4000.8646    3820.2565     84.75198 
    7700    774.76133    -105.1879   0.70102034   -104.48688   -5179.9792    4.3910698    4.3910698    4.3910698   -5179.9792     19343.85   -24624.299   -10259.489   -1712.2455    4112.2071   -5279.5063    84.666383 
    7800    688.85056   -105.10702   0.62328646   -104.48374    17115.768    4.3823458    4.3823458    4.3823458    17115.768    18081.164    13093.639      20172.5   -4953.7627   -4930.5012    3914.3974    84.162752 
    7900    663.97174   -105.08651   0.60077558   -104.48574   -2939.8411    4.3990337    4.3990337    4.3990337   -2939.8411    42387.324    -33822.61   -17384.238      8149.39    7506.0998    65.932217    85.127887 
    8000    704.04879   -105.12541   0.63703814   -104.48838    9276.7522    4.3805045    4.3805045    4.3805045    9276.7522    10420.647    4400.4025    13009.207   -8199.7833   -7500.3372    -2863.417    84.056714 
    8100    771.03658   -105.19223   0.69765011   -104.49458    10570.437    4.3825465    4.3825465    4.3825465    10570.437    35759.507   -4662.0609    613.86332    11248.453    5619.9692    6319.0907    84.174314 
    8200    752.73303   -105.17043   0.68108867   -104.48934   -21756.181    4.4051855    4.4051855    4.4051855   -21756.181   -17882.195   -28965.601   -18420.746   -1211.6571    194.18151   -2022.4665    85.485528 
    8300    505.52112   -104.93815   0.45740613   -104.48074    37390.552    4.3713265    4.3713265    4.3713265    37390.552    64718.151    28699.342    18754.164   -4602.2782    6301.9639     6612.305    83.529471 
    8400    808.86294   -105.22217   0.73187618    -104.4903   -22391.059    4.3974937    4.3974937    4.3974937   -22391.059   -26604.129   -29629.859   -10939.189    9987.0853    1144.1196   -2409.6556    85.038517 
    8500    692.09061   -105.11218   0.62621813   -104.48596    2698.3854    4.3869248    4.3869248    4.3869248    2698.3854    5855.0715   -3085.9205    5326.0051    2661.3902   -42.445032    3214.1997    84.426849 
    8600    633.56913   -105.05878   0.57326667   -104.48551    18396.512    4.3799118    4.3799118    4.3799118    18396.512    42763.546    6472.4472     5953.543    -1244.474   -144.65692    1980.5423    84.022593 
    8700    693.44524   -105.11242   0.62744383   -104.48498   -12027.299    4.3989456    4.3989456    4.3989456   -12027.299    15906.878   -33173.413   -18815.361    -897.9299    5451.5621    43.080502    85.122777 
    8800    585.39444   -105.01478   0.52967719    -104.4851    24293.232    4.3793329    4.3793329    4.3793329    24293.232    33766.613    20340.424     18772.66   -13769.872   -3700.0622    6299.3034    83.989282 
    8900    936.31841   -105.33244   0.84720058   -104.48524   -16372.777    4.3917062    4.3917062    4.3917062   -16372.777   -23059.493   -10773.348   -15285.488    13029.006    8990.8416   -2520.0929    84.703206 
    9000    505.91875   -104.94377   0.45776592     -104.486    25433.811    4.3804239    4.3804239    4.3804239    25433.811    52408.964    2393.4467    21499.022   -5304.4299   -5527.5481    8453.4814     84.05207 
    9100    795.16847   -105.20601   0.71948514   -104.48653   -10650.948     4.396108     4.396108     4.396108   -10650.948    -15158.88      -1368.6   -15425.365   -344.52856    -882.2277   -2011.1099    84.958154 
    9200    781.54535    -105.1921   0.70715866   -104.48494    10645.153    4.3796731    4.3796731    4.3796731    10645.153    31079.082   -11967.032    12823.411    287.66566    8303.2047    1880.2859    84.008857 
    9300     705.5472   -105.12864   0.63839393   -104.49025    3514.2336    4.3875271    4.3875271    4.3875271    3514.2336   -10854.356    24384.787   -2987.7301   -5846.5355   -8645.6639     3324.593    84.461627 
    9400    651.96839    -105.0757    0.5899147   -104.48579   -6201.2622    4.3977955    4.3977955    4.3977955   -6201.2622    18761.479   -13280.708   -24084.558    13509.408    5795.3075   -4837.1793    85.056028 
    9500    759.27883   -105.16925   0.68701144   -104.48224     18246.15    4.3705421    4.3705421    4.3705421     18246.15    16384.901    13188.909    25164.639     794.4336    -983.4118    7884.4425    83.484513 
    9600    541.71797   -104.98462    0.4901578   -104.49446   -2650.6853    4.3902651    4.3902651    4.3902651   -2650.6853    14590.906    -4135.037   -18407.925    4544.1683   -11556.499   -171.16544    84.619845 
    9700    801.98573    -105.2101   0.72565354   -104.48445   -13647.371    4.3956504    4.3956504    4.3956504   -13647.371   -18346.984   -16694.588   -5900.5397   -254.73987     15137.06       6791.1    84.931624 
    9800    643.00584   -105.06344    0.5818052   -104.48163    9705.1815    4.3765592    4.3765592    4.3765592    9705.1815     28255.59   -822.35439    1682.3084   -5272.2267    -12369.13    189.18014    83.829796 
    9900     755.4065   -105.17321   0.68350768   -104.48971    -13390.13     4.388183     4.388183     4.388183    -13390.13   -16398.912   -7505.6529   -16265.826    7678.8641     15579.85   -1658.5538    84.499508 
   10000    787.82509   -105.19692    0.7128407   -104.48408   -15046.661    4.3957191    4.3957191    4.3957191   -15046.661   -8932.9921   -30911.352   -5295.6392    3689.0606   -1397.2551    2730.2805     84.93561 
   10100    658.53143   -105.07843   0.59585308   -104.48258   -1707.3259    4.3765012    4.3765012    4.3765012   -1707.3259    3515.8318    169.21937   -8807.0289   -2982.4485   -5937.8448     -7756.49    83.826468 
   10200    755.94613   -105.17035   0.68399594   -104.48636   -7686.8363    4.3897649    4.3897649    4.3897649   -7686.8363    5489.9662    -17523.81   -11026.666    3883.1224     15280.49    2711.9745    84.590927 
   10300    741.45175   -105.15795   0.67088113   -104.48706   -1005.4475    4.3882477    4.3882477    4.3882477   -1005.4475    4652.8185    1590.7546   -9259.9156   -5926.3354   -7669.6349   -3879.9186    84.503247 
   10400    541.09543   -104.97941   0.48959452   -104.48982   -2810.2749    4.3814355    4.3814355    4.3814355   -2810.2749   -7766.1057    9419.0813     -10083.8    7153.2833    13680.691   -1017.5403    84.110316 
   10500    794.21383   -105.20469   0.71862136   -104.48607    5876.8344    4.3826815    4.3826815    4.3826815    5876.8344    10280.638    3999.5092    3350.3561    10355.684    -5933.533    2729.1451    84.182093 
   10600    546.42242   -104.98203   0.49441449   -104.48762   -8016.2011    4.3949489    4.3949489    4.3949489   -8016.2011   -2562.0518   -5505.6417    -15980.91   -4865.6263   -1785.2703   -5389.7206     84.89097 
   10700    852.65227   -105.25446   0.77149769   -104.48297    660.57619    4.3790141    4.3790141    4.3790141    660.57619   -1464.9871   -3903.0528    7349.7685    6940.0587    8393.6971    785.88558    83.970943 
   10800     810.8712   -105.22366    0.7336933   -104.48997   -120.95659    4.3830873    4.3830873    4.3830873   -120.95659    11857.435   -3959.0309   -8261.2738   -4523.1633   -9370.6079   -5842.6813    84.205479 
   10900    616.37907   -105.04782   0.55771273    -104.4901   -2448.3711    4.3900658    4.3900658    4.3900658   -2448.3711    15889.768   -12341.654   -10893.227    5001.2357    508.80641   -2205.2093    84.608326 
   11000    877.35003   -105.27561   0.79384474   -104.48176    624.26122    4.3877236    4.3877236    4.3877236    624.26122    1526.6077    3592.9465   -3246.7705    11040.951   -4165.8723    1958.6447    84.472977 
   11100    529.09922   -104.96337   0.47874009   -104.48463    646.45403    4.3854134    4.3854134    4.3854134    646.45403    -7320.276    18888.204   -9628.5663   -5206.0713   -8560.1972    1063.3082    84.339613 
   11200    735.97252   -105.14999    0.6659234   -104.48407    7750.9425    4.3817138    4.3817138    4.3817138    7750.9425    10643.573     11686.71    922.54414    6290.2155    8142.2626    6014.5319    84.126344 
   11300    528.57493   -104.96458    0.4782657   -104.48631   -1246.4446    4.3948633    4.3948633    4.3948633   -1246.4446    3789.0587    7172.6252   -14701.018   -5620.0567   -8378.4843    2388.7182     84.88601 
   11400    750.83777    -105.1654   0.67937379   -104.48602    1340.0484    4.3760081    4.3760081    4.3760081    1340.0484    3805.5947   -329.60541    544.15601    7155.7424     5763.876    2263.2767    83.798136 
   11500    766.36335   -105.18261   0.69342167   -104.48919   -13352.433    4.3906141    4.3906141    4.3906141   -13352.433   -14392.613   -13872.484   -11792.202    13933.732    -11063.29   -772.82536    84.640027 
   11600    776.35252   -105.18766   0.70246007    -104.4852   -2819.1038    4.3850761    4.3850761    4.3850761   -2819.1038    19134.971   -2095.3272   -25496.955   -4808.4889   -2572.4273     562.6276    84.320155 
   11700     563.2531   -104.99588   0.50964324   -104.48624   -3072.1316    4.3852194    4.3852194    4.3852194   -3072.1316   -8260.6313    3572.4267   -4528.1903    7206.2355     4395.336   -1718.2472    84.328422 
   11800    819.54777    -105.2244   0.74154404   -104.48286   -10343.014    4.3875102    4.3875102    4.3875102   -10343.014   -19445.586    17842.699   -29426.155    632.72245   -10472.294    3096.3031    84.460651 
   11900    516.60558   -104.95609   0.46743558   -104.48866    6888.5327    4.3827099    4.3827099    4.3827099    6888.5327    16350.181    7964.1397   -3648.7227    16174.289    7400.7916    1538.8102    84.183732 
   12000    672.03973   -105.09642   0.60807567   -104.48834    2605.8465     4.386071     4.386071     4.386071    2605.8465    13539.142    -3714.791   -2006.8116    7777.7693   -13555.724    4280.6127    84.377561 
   12100    757.42269   -105.17143   0.68533197    -104.4861   -10428.885    4.3899479    4.3899479    4.3899479   -10428.885   -7775.9872   -8607.4068    -14903.26   -1420.4276    5332.0415    1955.9715    84.601508 
   12200    653.79438   -105.07931   0.59156689   -104.48775    4594.9764    4.3772787    4.3772787    4.3772787    4594.9764    11363.609   -14977.925    17399.245    6998.6423    3732.9349   -27.292675    83.871148 
   12300    791.30181   -105.20307   0.71598651   -104.48709   -3446.5317    4.3909368    4.3909368    4.3909368   -3446.5317    11755.036   -3445.2052   -18649.426    609.93561    1776.8992    1177.4713    84.658696 
   12400    593.30133   -105.02365   0.53683151   -104.48682   -9004.4804    4.3861228    4.3861228    4.3861228   -9004.4804   -11302.823   -10402.976    -5307.642    8857.8999    11527.249   -4742.6906    84.380553 
   12500    782.06777   -105.19177   0.70763135   -104.48414    4269.0939    4.3784827    4.3784827    4.3784827    4269.0939    6712.2618    5794.9498    300.07011    2037.1066    -6446.506    4396.1226    83.940379 
   12600    709.97678    -105.1282   0.64240191    -104.4858    -9551.344    4.3938284    4.3938284    4.3938284    -9551.344    8589.5195   -11426.969   -25816.582   -8316.0221    10434.269   -3442.6681    84.826054 
   12700    588.80172   -105.02378   0.53276017   -104.49102   -9456.0108    4.3794625    4.3794625    4.3794625   -9456.0108    -6996.955   -22013.229    642.15127    11333.555    5384.2486    1820.8145    83.996738 
   12800    839.09846   -105.24888   0.75923392   -104.48965     5814.645    4.3786243    4.3786243    4.3786243     5814.645    24703.091   -2803.3208    -4455.835    846.72711   -126.78528   -6437.9237    83.948523 
   12900    652.56249   -105.08155   0.59045225    -104.4911   -25130.804    4.3979588    4.3979588    4.3979588   -25130.804   -25935.807   -32093.415   -17363.191    5224.8198    4275.9938   -1659.3885      85.0655 
   13000    594.46281   -105.02316   0.53788244   -104.48527     9678.385    4.3754244    4.3754244    4.3754244     9678.385    32508.127   -7415.9592     3942.987    6593.1473   -8228.2486   -6298.9477    83.764604 
   13100    806.21547     -105.216    0.7294807   -104.48652   -7451.4363    4.3835283    4.3835283    4.3835283   -7451.4363   -16791.035    9746.9437   -15310.218   -4582.6867    8695.7636   -9156.6416    84.230899 
   13200    497.27686   -104.93988   0.44994656   -104.48993   -16246.707     4.393522     4.393522     4.393522   -16246.707   -22475.948   -25130.852   -1133.3223    22972.083    2938.3145    1763.3064    84.808312 
   13300    932.36472   -105.32249   0.84362319   -104.47886    9763.6351    4.3744133    4.3744133    4.3744133    9763.6351    29986.185    11182.036   -11877.316   -652.70428    4755.9667   -12732.915    83.706551 
   13400    399.30104   -104.85027   0.36129597   -104.48898    -9787.184    4.3917154    4.3917154    4.3917154    -9787.184   -2929.4319   -25617.373   -814.74744    23413.255    9812.6428     3757.086    84.703737 
   13500    878.97402   -105.28023   0.79531416   -104.48492   -7237.7952    4.3808271    4.3808271    4.3808271   -7237.7952    7992.2141   -20734.789   -8970.8112   -3493.1146   -857.83278   -8076.7579    84.075284 
   13600    741.06591   -105.16008     0.670532   -104.48954    651.87124    4.3837719    4.3837719    4.3837719    651.87124    16141.619   -12560.811   -1625.1949    8690.8066    10198.019   -1292.8578    84.244943 
   13700    583.14611   -105.02145   0.52764286   -104.49381   -11097.821    4.3838569    4.3838569    4.3838569   -11097.821    4678.6758   -24947.918    -13024.22    14371.531    7129.0494   -960.51805    84.249845 
   13800    680.14406   -105.10482   0.61540864   -104.48941   -993.48895    4.3844773    4.3844773    4.3844773   -993.48895    9254.3138   -916.72164   -11318.059   -4842.4794    -1213.598   -6886.9994    84.285621 
   13900    746.49431   -105.16229   0.67544374   -104.48685   -15156.864    4.3867585    4.3867585    4.3867585   -15156.864   -31165.098   -2443.7857   -11861.709     17243.71    5365.5949    4569.1606    84.417247 
   14000    590.80441   -105.02176   0.53457225   -104.48718    7400.2489    4.3794803    4.3794803    4.3794803    7400.2489    39738.537   -6768.7417   -10769.049   -15754.977    621.69497   -6104.9534    83.997764 
   14100    754.28425   -105.16874   0.68249225   -104.48625   -3062.1344    4.3862353    4.3862353    4.3862353   -3062.1344    13673.765   -5407.4099   -17452.758    5294.7958    1349.5163    4020.2988    84.387043 
   14200    639.77042   -105.06384   0.57887772   -104.48496   -10220.648     4.389012     4.389012     4.389012   -10220.648    5918.9069   -33173.666   -3407.1844    7167.3495    6253.0276    -495.4209     84.54741 
   14300    919.12976   -105.31188   0.83164792   -104.48023   -770.03315    4.3766649    4.3766649    4.3766649   -770.03315     17039.02   -3672.1979   -15676.921   -6583.7162    2878.1461    440.87505    83.835872 
   14400    622.62162   -105.04952   0.56336112   -104.48616    5458.9609    4.3854547    4.3854547    4.3854547    5458.9609    31186.574   -14075.135   -734.55608    12510.605    7480.1219    3586.0299    84.342001 
   14500    561.27097   -104.99754   0.50784977   -104.48969   -9379.0221    4.3880181    4.3880181    4.3880181   -9379.0221   -347.27553    -17452.77   -10337.021   -10668.113   -1175.0976   -5001.1562    84.489986 
   14600    935.85824   -105.33295    0.8467842   -104.48616    10132.118    4.3748075    4.3748075    4.3748075    10132.118        24748    11976.717   -6328.3628    8353.5516    5830.0272    6711.1753    83.729182 
   14700    590.92682   -105.02698     0.534683   -104.49229   -5747.7991    4.3910248    4.3910248    4.3910248   -5747.7991    6266.5328   -17482.363   -6027.5674    7061.5132    4253.6907   -7610.8154    84.663782 
   14800    595.36192   -105.02694   0.53869598   -104.48824    8820.6726    4.3810963    4.3810963    4.3810963    8820.6726    58451.291   -8697.1436   -23292.129   -2988.0562    2262.1034    5910.0713    84.090784 
   14900    923.09545   -105.31961   0.83523616   -104.48437   -3485.9771    4.3843037    4.3843037    4.3843037   -3485.9771    871.96352   -1148.7106   -10181.184   -2143.5859    5363.3279   -277.35649    84.275606 
   15000    611.94276   -105.04211   0.55369867   -104.48841    -1653.688    4.3826104    4.3826104    4.3826104    -1653.688    25068.207   -10665.789   -19363.482   -513.46156   -6013.5425   -790.97464       84.178 
   15100     810.2991   -105.21813   0.73317565   -104.48496   -1344.4572    4.3854127    4.3854127    4.3854127   -1344.4572    15038.247    6778.3282   -25849.947   -7930.4368    1870.3694    8057.2556    84.339573 
   15200    583.62897   -105.01487   0.52807975   -104.48679    4837.7103    4.3817649    4.3817649    4.3817649    4837.7103    37754.894   -8870.9833   -14370.779    12935.065     562.6468   -7152.9033    84.129286 
   15300    554.11684   -104.99411   0.50137656   -104.49273    5309.3558    4.3802725    4.3802725    4.3802725    5309.3558    26151.233    6298.8657   -16522.032   -10184.216    618.15484     8772.326    84.043357 
   15400    1075.6615    -105.4604   0.97328114   -104.48712   -11212.061    4.3884351    4.3884351    4.3884351   -11212.061   -1628.0572   -9093.6565   -22914.468    2859.7934   -554.28811   -6028.6651    84.514076 
   15500    394.94776   -104.85195   0.35735703    -104.4946    12878.787    4.3759397    4.3759397    4.3759397    12878.787    51615.272   -4803.4761   -8175.4349   -1456.7237   -3109.6905    9790.2351    83.794206 
   15600    739.83828   -105.16104   0.66942123   -104.49162   -5176.0167    4.3908241    4.3908241    4.3908241   -5176.0167    20277.554   -15658.499   -20147.105   -5209.2214   -839.23471     585.4894    84.652177 
   15700    834.10595   -105.24198   0.75471659   -104.48726   -988.64147    4.3820838    4.3820838    4.3820838   -988.64147    12730.824   -362.79795   -15333.951    1280.4707   -1328.9367    6075.7518    84.147656 
   15800    570.24755    -105.0065   0.51597197   -104.49053   -6611.8768    4.3852236    4.3852236    4.3852236   -6611.8768    10279.342   -18915.545   -11199.428   -9734.2232    3889.9403    8970.4935    84.328664 
   15900    776.33021   -105.18599   0.70243989   -104.48355    3429.7883    4.3851611    4.3851611    4.3851611    3429.7883    22187.244    902.58486   -12800.464   -12896.816    1403.8433   -1169.3735     84.32506 
   16000    477.12088    -104.9205     0.431709   -104.48879    7817.9907    4.3801833    4.3801833    4.3801833    7817.9907    42581.203   -2818.7155   -16308.515   -2252.1605   -2992.7184    15467.098    84.038222 
   16100    935.55914   -105.33121   0.84651357    -104.4847   -17632.648    4.3918885    4.3918885    4.3918885   -17632.648   -23786.959    -23746.55   -5364.4354   -17210.872    3361.8255   -1921.1452    84.713753 
   16200    749.42528   -105.16307   0.67809574   -104.48497    9231.8817    4.3768891    4.3768891    4.3768891    9231.8817    37340.068    6950.3592   -16594.782    10814.823    4031.7819    10950.517    83.848755 
   16300    436.71605   -104.88873   0.39514986   -104.49358    557.80588     4.384014     4.384014     4.384014    557.80588     19891.03   -18840.724    623.11161   -16721.159    1124.6304     3367.081    84.258901 
   16400    877.28622    -105.2793     0.793787   -104.48552   -8502.5393    4.3914949    4.3914949    4.3914949   -8502.5393    10744.656   -17989.641   -18262.632    6768.0384    6922.6386    5984.1093    84.690978 
   16500    721.27914   -105.13878   0.65262852   -104.48616    3197.2184    4.3739731    4.3739731    4.3739731    3197.2184     4779.774    7084.0226   -2272.1414   -9079.0386    -163.0289    2283.7678    83.681283 
   16600    525.68669   -104.97023   0.47565236   -104.49458   -3713.7022     4.388942     4.388942     4.388942   -3713.7022     11662.69   -26591.337    3787.5408    1230.0041    1894.4952   -77.674126    84.543362 
   16700    827.11582   -105.23646   0.74839177   -104.48806    5723.3569    4.3857814    4.3857814    4.3857814    5723.3569    32058.832   -1326.0577   -13562.704    2869.4982    5890.6829     2925.679    84.360852 
   16800    665.46484   -105.09239   0.60212657   -104.49027    4390.0972    4.3760125    4.3760125    4.3760125    4390.0972    19160.544   -17843.418    11853.166   -13695.102   -1240.2179   -6021.0936    83.798389 
   16900    777.62324   -105.19184   0.70360985   -104.48823   -7883.8336    4.3902575    4.3902575    4.3902575   -7883.8336   -7499.6434   -16457.878    306.02068   -2032.8426    12.548454    3100.0138    84.619409 
   17000    672.08875   -105.09495   0.60812003   -104.48683    2806.3732    4.3838712    4.3838712    4.3838712    2806.3732    32386.737   -8903.5773    -15064.04   -5385.2957    2396.6262   -7680.1188    84.250667 
   17100     650.5736   -105.07753   0.58865267   -104.48888    49.799499    4.3800835    4.3800835    4.3800835    49.799499    6220.4272   -21739.498     15668.47   -7827.8868   -1228.7368    36.794828     84.03248 
   17200    869.90178   -105.27173   0.78710542   -104.48463   -1373.7351    4.3847694    4.3847694    4.3847694   -1373.7351    3722.3555    1264.6406   -9108.2013    3179.7216    2006.8321   -2540.4603    84.302466 
   17300    563.54047   -104.99865   0.50990326   -104.48875   -6302.0295    4.3864046    4.3864046    4.3864046   -6302.0295    17421.202   -29800.579   -6526.7117   -17668.991   -862.49084   -2875.3007    84.396818 
   17400    690.21474   -105.11224    0.6245208   -104.48772    9923.0969    4.3801099    4.3801099    4.3801099    9923.0969    19656.338   -6344.4277    16457.381    11492.563    8927.7702    3622.5889    84.033998 
   17500    781.97205     -105.197   0.70754474   -104.48946   -5403.5444    4.3840988    4.3840988    4.3840988   -5403.5444    5101.2006   -9306.9813   -12004.853    -9294.351   -429.43921   -3513.1864    84.263792 
   17600    680.97252    -105.1038   0.61615825   -104.48765    -11325.78     4.390208     4.390208     4.390208    -11325.78    -25760.16   -26190.678    17973.497    3224.9002   -900.72199    2435.8131    84.616543 
   17700    659.89677   -105.08022   0.59708847   -104.48313    6180.7072    4.3815292    4.3815292    4.3815292    6180.7072    19504.261    9319.4159   -10281.556    486.41419    8080.0684    3669.2777    84.115716 
   17800     672.5766   -105.09618   0.60856144   -104.48762   -2214.1362    4.3835829    4.3835829    4.3835829   -2214.1362    7479.4157   -24970.666    10848.842   -9096.8126   -6203.4726   -3052.2675     84.23405 
   17900    761.27784    -105.1751   0.68882019   -104.48628   -12522.534    4.3931939    4.3931939    4.3931939   -12522.534   -8818.1238   -14377.983   -14371.495     13555.12    10789.258    4663.6362    84.789315 
   18000    690.28962   -105.11032   0.62458855   -104.48573    7061.0346    4.3704605    4.3704605    4.3704605    7061.0346    13870.514    3014.4384    4298.1518   -12743.147    294.03822   -4858.1445    83.479839 
   18100     663.6743   -105.09276   0.60050646   -104.49225   -8033.3133    4.3927665    4.3927665    4.3927665   -8033.3133    7818.1529   -33949.829     2031.736    7009.9475   -2658.7113    5943.3491    84.764568 
   18200    716.68104    -105.1356   0.64846806   -104.48713    5396.2348    4.3816085    4.3816085    4.3816085    5396.2348    17250.358    9653.4084   -10715.062   -1290.9078    5594.7935   -4559.3616    84.120278 
   18300    717.73496    -105.1354   0.64942168   -104.48598   -8465.8427    4.3805403    4.3805403    4.3805403   -8465.8427   -13168.629   -22308.386    10079.487    -7204.478    2942.2785   -1042.4736    84.058771 
   18400    780.88605   -105.18768   0.70656211   -104.48112   -10687.529    4.3932215    4.3932215    4.3932215   -10687.529   -9314.7416   -14567.891   -8179.9543    11420.223    11009.967    -56.75456     84.79091 
   18500    524.92009   -104.95874   0.47495873   -104.48378    19118.518    4.3700888    4.3700888    4.3700888    19118.518    47983.559    5533.8497    3838.1465   -14714.648    8755.0025   -8521.5907    83.458541 
   18600    823.10821   -105.23287   0.74476561    -104.4881   -9698.9877    4.3923485    4.3923485    4.3923485   -9698.9877   -9317.1477   -31417.336    11637.521    6196.4492   -7466.3025    1618.3455    84.740373 
   18700    691.27319   -105.11443   0.62547851   -104.48896    14486.933    4.3776928    4.3776928    4.3776928    14486.933    26749.377     11531.79    5179.6333   -6670.5808    9463.4604   -9670.2251    83.894956 
   18800    629.71427   -105.06234   0.56977871   -104.49257    -4042.934    4.3893497    4.3893497    4.3893497    -4042.934   -6205.5295   -26544.589    20621.316   -3408.1456     1888.804    1332.6006    84.566929 
   18900    829.08819   -105.23245   0.75017642   -104.48228    11451.579    4.3840272    4.3840272    4.3840272    11451.579    50582.479   -6596.0391   -9631.7017     2938.712   -4674.7295   -5384.3272    84.259665 
   19000    489.58059   -104.93034    0.4429828   -104.48736    6393.7759    4.3768329    4.3768329    4.3768329    6393.7759   -2800.1451    3524.7359    18456.737   -10011.472    8333.4861   -1480.8796    83.845529 
   19100    998.98691   -105.38458   0.90390435   -104.48068   -19415.983    4.3970312    4.3970312    4.3970312   -19415.983   -15525.747   -28524.414   -14197.789     3309.783   -9914.9365    -2170.455    85.011689 
   19200    609.52039   -105.04122   0.55150686   -104.48972    18087.217    4.3687579    4.3687579    4.3687579    18087.217    44442.012    5580.9739     4238.664   -6704.0632    1481.5483   -2566.2929    83.382314 
   19300    541.22826   -104.99233    0.4897147   -104.50262    6496.6147    4.3866498    4.3866498    4.3866498    6496.6147    16969.108   -11750.395    14271.131   -8565.3868    3877.0665   -337.67409    84.410969 
   19400     894.3319   -105.30054   0.80921029   -104.49133   -20092.749    4.3929503    4.3929503    4.3929503   -20092.749   -2729.1227   -27645.673   -29903.452    5239.3465   -2905.9962   -3847.2142    84.775208 
   19500    521.96667   -104.95533   0.47228641   -104.48304    26780.307     4.357809     4.357809     4.357809    26780.307    21834.345    15045.468    43461.107   -21122.617     7328.274    919.41257    82.756968 
   19600    805.05388   -105.21086   0.72842967   -104.48243   -17600.304    4.3994558    4.3994558    4.3994558   -17600.304     11316.54   -31141.315   -32976.139    2715.1251    382.94618   -2133.5302    85.152398 
   19700    625.62039   -105.05353   0.56607448   -104.48746    5147.0086    4.3723527    4.3723527    4.3723527    5147.0086    18852.265   -8419.4506    5008.2111   -10960.083    4001.7249    53.324815    83.588312 
   19800    720.21232   -105.14065   0.65166324   -104.48898    7015.7294    4.3788037    4.3788037    4.3788037    7015.7294    16719.976   -5972.4881      10299.7   -9898.0968    3857.1789    -1436.763    83.958841 
   19900    749.32327   -105.16362   0.67800344   -104.48562   -8586.9392    4.3909606    4.3909606    4.3909606   -8586.9392    34528.463   -28474.063   -31815.217    9409.7778   -5957.6624   -4052.8502    84.660069 
   20000    626.29998     -105.051   0.56668938   -104.48431    15850.331    4.3695509    4.3695509    4.3695509    15850.331    35812.313   -10686.345    22425.025   -23288.817    6213.1718    2315.6672    83.427729 
   20100    838.08017   -105.24045   0.75831255   -104.48214   -17920.509    4.3925056    4.3925056    4.3925056   -17920.509   -334.16576   -25525.036   -27902.325    6683.7839   -5925.6111   -8670.8439    84.749464 
   20200    524.86467   -104.96304   0.47490858   -104.48813     7614.522    4.3737701    4.3737701    4.3737701     7614.522    50566.189   -22956.017   -4766.6052   -15608.353   -1631.6768    3628.7753    83.669632 
   20300    810.84151   -105.22218   0.73366644   -104.48851   -2831.8849    4.3843245    4.3843245    4.3843245   -2831.8849    20596.596   -25242.235   -3850.0162   -4558.8424    -396.6398   -5270.5274    84.276808 
   20400     735.6364   -105.15555   0.66561927   -104.48993   -17704.377    4.3832787    4.3832787    4.3832787   -17704.377   -2812.1984   -28249.146   -22051.786    -3399.494   -8075.6057   -3235.7395    84.216516 
   20500    562.51513   -104.99954   0.50897551   -104.49056    12463.492    4.3713287    4.3713287    4.3713287    12463.492    42481.886     -22765.5    17674.091   -23555.556    6974.5476    3240.3803    83.529597 
   20600    705.60162   -105.12838   0.63844318   -104.48994    -8650.781    4.3911947    4.3911947    4.3911947    -8650.781    38483.565   -34783.955   -29651.953     4655.741    2502.5968   -10236.851     84.67361 
   20700    721.05512   -105.14149   0.65242583   -104.48906   -7929.3247    4.3746614    4.3746614    4.3746614   -7929.3247    404.91516   -23530.853   -662.03601   -21461.571   -2163.7844    7881.0296    83.720794 
   20800    712.33584   -105.13338   0.64453644   -104.48885   -3053.2294    4.3801055    4.3801055    4.3801055   -3053.2294    10880.667   -19877.992   -162.36289    2714.8888    1696.3927   -9208.1622    84.033745 
   20900    631.89084   -105.06146   0.57174811   -104.48971   -11730.882    4.3839905    4.3839905    4.3839905   -11730.882    24616.013   -32243.173   -27565.487   -1082.9416   -7257.6312     2446.791    84.257545 
   21000     735.2533   -105.15059   0.66527264   -104.48531    12139.198    4.3727048    4.3727048    4.3727048    12139.198    32227.828   -11468.342    15658.108   -13756.037   -1558.4357   -11.358103    83.608506 
   21100    787.76505   -105.19847   0.71278637   -104.48568   -13587.995    4.3891959    4.3891959    4.3891959   -13587.995    13301.308   -27451.068   -26614.227    10581.925   -2321.6449   -4495.0273    84.558036 
   21200    564.25732   -104.99813   0.51055188   -104.48757    13005.992     4.372276     4.372276     4.372276    13005.992    41987.755   -10273.215    7303.4354   -18211.511   -8405.7437    7156.4052    83.583913 
   21300    759.00569   -105.17445   0.68676429   -104.48768    4145.2902    4.3834151    4.3834151    4.3834151    4145.2902    30488.279   -16805.905   -1246.5039    9194.5663   -6307.5813    -7031.395    84.224376 
   21400    697.43329   -105.11727    0.6310523   -104.48622   -7705.5533    4.3843487    4.3843487    4.3843487   -7705.5533    4995.4697   -11271.693   -16840.437   -6611.7691   -9316.3122    10775.403    84.278204 
   21500    667.14239   -105.08873   0.60364445   -104.48509    7500.1601    4.3722308    4.3722308    4.3722308    7500.1601    11870.341   -7048.6381    17678.778   -10259.123    480.04506   -5988.6353    83.581322 
   21600    655.47367   -105.08036   0.59308635   -104.48727   -1752.5163    4.3848866    4.3848866    4.3848866   -1752.5163    24147.141   -13947.633   -15457.057    4649.6997    3339.2571    3952.5301    84.309225 
   21700    747.53566   -105.16259   0.67638597    -104.4862   -4.1477676    4.3807025    4.3807025    4.3807025   -4.1477676    14358.715   -8164.6636   -6206.4948   -12751.104    585.94961    2420.4826    84.068111 
   21800     708.2278   -105.12719    0.6408194   -104.48637    5253.8727    4.3784131    4.3784131    4.3784131    5253.8727    30565.206   -15730.966     927.3773    5625.9278   -1594.0625   -4999.3161    83.936372 
   21900    652.41054   -105.08006   0.59031477   -104.48975    4339.4188     4.376747     4.376747     4.376747    4339.4188     15783.97    2018.6606   -4784.3736   -2429.7449    7804.2712    11915.378    83.840589 
   22000    622.54411   -105.05335   0.56329099   -104.49006    3109.8791    4.3881717    4.3881717    4.3881717    3109.8791    22892.778    -18172.95    4609.8091   -5576.1104   -1326.0215   -7792.8887     84.49886 
   22100    760.61719   -105.17521   0.68822241   -104.48699    2788.4076    4.3759982    4.3759982    4.3759982    2788.4076    18118.637    -8913.534   -839.87976    8643.0888    5059.6063      11220.8    83.797567 
   22200    664.96879    -105.0879   0.60167773   -104.48622    3303.1603    4.3780094    4.3780094    4.3780094    3303.1603   -2882.9794     4122.857    8669.6032    -7999.104   -9546.3635   -729.75845    83.913157 
   22300    774.84729   -105.18386   0.70109811   -104.48276   -13165.635    4.3891583    4.3891583    4.3891583   -13165.635    16085.793   -33677.322   -21905.377    6680.5794   -3237.1189   -1646.1915    84.555867 
   22400    685.57021   -105.10081   0.62031833   -104.48049     16520.22    4.3719107    4.3719107    4.3719107     16520.22    40913.288    5325.5552    3321.8168   -1198.7657   -5071.0058    10147.409    83.562964 
   22500    732.40288   -105.14663   0.66269352   -104.48394   -3058.2893    4.3831128    4.3831128    4.3831128   -3058.2893     14204.43   -15109.905   -8269.3923   -5686.6925   -5141.8882   -7553.7164    84.206953 
   22600    687.88351   -105.10905   0.62241146   -104.48664   -6362.7463     4.380942     4.380942     4.380942   -6362.7463    16924.255   -26138.062   -9874.4322     3185.803   -308.96041    15063.574    84.081902 
   22700    736.77615   -105.15453   0.66665055   -104.48788    12433.427    4.3779497    4.3779497    4.3779497    12433.427    26629.161    800.61202    9870.5065   -6249.1139   -11061.677   -2077.9524    83.909726 
   22800    593.08727   -105.03007   0.53663782   -104.49343   -14426.521    4.3840317    4.3840317    4.3840317   -14426.521    18461.531   -31010.035   -30731.059    3270.0942    2148.9991    7576.6862    84.259923 
   22900    764.73245   -105.17904   0.69194599   -104.48709    5922.6402    4.3794534    4.3794534    4.3794534    5922.6402    20966.253   -11907.767    8709.4346   -1905.5675    1562.3758    4874.6194    83.996217 
   23000    758.26857   -105.17288   0.68609734   -104.48679   -10131.311    4.3852804    4.3852804    4.3852804   -10131.311    5973.9571    -17707.88    -18660.01   -5252.4058    5214.0714    3310.4968     84.33194 
   23100    563.61235   -105.00033    0.5099683   -104.49036   -451.01799    4.3763291    4.3763291    4.3763291   -451.01799    27312.332   -29740.828    1075.4423    7538.7892    2843.0211    12347.204    83.816574 
   23200    933.62357   -105.32907   0.84476222   -104.48431    10247.157    4.3832447    4.3832447    4.3832447    10247.157    25463.769   -6166.0271     11443.73   -4088.9154    2.9452604   -1529.5032    84.214553 
   23300    342.14673    -104.8065   0.30958155   -104.49692   -9747.6563    4.3809616    4.3809616    4.3809616   -9747.6563    30702.286   -36112.516   -23832.738    9116.7835    32.424719    17343.631    84.083029 
   23400    855.97061   -105.26379   0.77450019   -104.48929    9084.4374    4.3759154    4.3759154    4.3759154    9084.4374    14223.747   -8520.7855    21550.351    -283.2926    5904.0323   -6365.6053    83.792808 
   23500    887.68778    -105.2909   0.80319856    -104.4877    -20391.25    4.3885549    4.3885549    4.3885549    -20391.25   -3015.4726   -35274.351   -22883.926    852.45592   -7028.1296    15541.577    84.520993 
   23600    375.97267   -104.82977   0.34018798   -104.48958    9561.4309    4.3742034    4.3742034    4.3742034    9561.4309    30383.258   -22884.708    21185.744      7589.74    108.20108    -3789.426      83.6945 
   23700    942.94239   -105.33486   0.85319409   -104.48166   -1898.2484    4.3857844    4.3857844    4.3857844   -1898.2484    17184.743   -21382.485   -1497.0032   -2296.5313   -10414.716     5851.797    84.361024 
   23800    439.36996   -104.88678   0.39755117   -104.48923    5840.8028    4.3804821    4.3804821    4.3804821    5840.8028     39797.94   -34068.985    11793.454    12273.082   -5501.7853    3928.6783    84.055424 
   23900    844.46893   -105.24965   0.76409323   -104.48556   -1319.3161    4.3827343    4.3827343    4.3827343   -1319.3161    6367.0048   -13796.152    3471.1988    4675.9228    3120.3308    -5588.426    84.185139 
   24000    839.67074   -105.24377   0.75975173   -104.48402     -4215.84    4.3820099    4.3820099    4.3820099     -4215.84      9491.61   -18348.178    -3790.952    2501.4228    5950.7767      10771.1    84.143402 
   24100    430.84665   -104.87845   0.38983911   -104.48861    7738.3759    4.3780464    4.3780464    4.3780464    7738.3759    25347.824   -12895.164    10762.468     3762.395    2960.3849   -12695.662    83.915285 
   24200    933.80887   -105.32954   0.84492989   -104.48461   -7790.6508    4.3851537    4.3851537    4.3851537   -7790.6508     5243.594   -19066.272   -9549.2741   -3518.5609    11583.735     5141.459    84.324635 
   24300    545.69224   -104.98035    0.4937538    -104.4866    15955.657    4.3741083    4.3741083    4.3741083    15955.657    30221.175   -11351.568    28997.363    4655.1449   -7494.8069   -5419.0765    83.689044 
   24400     782.9609   -105.19719   0.70843948   -104.48875   -14543.392    4.3869814    4.3869814    4.3869814   -14543.392   -8157.5691   -20450.512   -15022.094    1801.4581    17264.274   -2971.2573    84.430116 
   24500    799.74715   -105.20765   0.72362803   -104.48402     13784.61    4.3786212    4.3786212    4.3786212     13784.61    20416.813    -5556.892    26493.909   -1220.3353    -2622.768    3986.3279    83.948341 
   24600    631.50008   -105.05988   0.57139454   -104.48848     2070.915    4.3770983    4.3770983    4.3770983     2070.915    29738.503   -19805.924   -3719.8339    2725.2478    4079.5213   -7034.8643    83.860783 
   24700    640.43706   -105.06343   0.57948091   -104.48395   -1244.3419    4.3906666    4.3906666    4.3906666   -1244.3419     2571.181   -5840.8168   -463.38993   -8583.4448   -2602.3823    2519.5273    84.643063 
   24800    777.81656   -105.18351   0.70378477   -104.47972    6777.4459    4.3737018    4.3737018    4.3737018    6777.4459    16058.595   -12541.021    16814.764    4015.9626   -3431.1697    -10588.75    83.665709 
   24900     546.3102   -104.98291   0.49431295    -104.4886   -7526.5968    4.3820722    4.3820722    4.3820722   -7526.5968   -13462.314   -8589.7223    -527.7541   -4602.1447    6880.1286   -1127.6648    84.146989 
   25000    963.71496   -105.35475   0.87198955   -104.48276   -2847.2436    4.3833447    4.3833447    4.3833447   -2847.2436    10205.156   -8243.8473    -10503.04   -17.072047   -459.70338   -252.66421    84.220315 
   25100    467.08255    -104.9126    0.4226261   -104.48998    -3105.694    4.3783672    4.3783672    4.3783672    -3105.694   -651.72762   -14867.733    6202.3788    3086.2198    1524.4079   -4087.3236    83.933735 
   25200     790.3796    -105.2018   0.71515208   -104.48664      4052.62    4.3796477    4.3796477    4.3796477      4052.62    9139.3963   -8348.4108    11366.874   -8872.9403    4169.4855    3363.8256      84.0074 
   25300    761.87431   -105.17384   0.68935989   -104.48448   -7816.9641    4.3886757    4.3886757    4.3886757   -7816.9641   -12198.577   -22344.553    11092.238    6053.5816    -1291.838   -9687.3996    84.527976 
   25400    583.47947   -105.01336   0.52794449   -104.48542    1591.6874    4.3734728    4.3734728    4.3734728    1591.6874    12487.878    3511.0444    -11223.86   -6637.4219    13773.413   -679.90399    83.652569 
   25500    854.01272   -105.25689   0.77272866   -104.48416    5867.7731    4.3822002    4.3822002    4.3822002    5867.7731    6640.2047   -5592.5196    16555.634    4533.1463    1765.8468   -2170.7955    84.154364 
   25600    569.84901   -105.00405   0.51561136   -104.48844   -8044.1369     4.387493     4.387493     4.387493   -8044.1369    4058.5144    -15327.67   -12863.255    4030.0038   -777.53173   -6714.7467    84.459655 
   25700    677.61993   -105.09786   0.61312475   -104.48473    14313.992    4.3685851    4.3685851    4.3685851    14313.992    330.66187    13704.948    28906.368   -184.59202    7370.2779    7203.1229    83.372421 
   25800    738.52821   -105.15573   0.66823584   -104.48749   -1314.7397    4.3848832    4.3848832    4.3848832   -1314.7397   -8895.4027   -5520.9861     10472.17    10138.592   -2182.5582   -6839.2944    84.309028 
   25900      709.257   -105.12821   0.64175064   -104.48646   -5750.1138    4.3850823    4.3850823    4.3850823   -5750.1138    -10593.56   -8190.0666    1533.2858   -6686.2637    13552.822    772.83817    84.320512 
   26000     750.8554   -105.15948   0.67938975   -104.48009    12906.083    4.3749595    4.3749595    4.3749595    12906.083    13210.283    41.483879    25466.483    9302.3738   -5264.8709   -2679.3814    83.737909 
   26100     626.7912   -105.05048   0.56713385   -104.48335    861.92358    4.3818748    4.3818748    4.3818748    861.92358    -1070.279    -10862.85      14518.9    4872.0002    4735.3156   -4765.7583    84.135617 
   26200    747.87918   -105.16195    0.6766968   -104.48526   -6276.2315    4.3851772    4.3851772    4.3851772   -6276.2315   -8921.6027   -10453.851    546.75877     829.3746    9344.1211    7937.7304    84.325989 
   26300    787.56681    -105.1981     0.712607   -104.48549    14505.493    4.3727432    4.3727432    4.3727432    14505.493    10070.414    5949.1254    27496.941    12765.717    2675.1937    -3428.872    83.610711 
   26400    702.65403   -105.12548   0.63577614   -104.48971   -12509.309    4.3886129    4.3886129    4.3886129   -12509.309   -13653.086   -7059.5363   -16815.304   -11937.166    15080.516     378.3004    84.524346 
   26500    581.58319    -105.0137   0.52622869   -104.48747    11191.529    4.3772952    4.3772952    4.3772952    11191.529    14568.295   -851.19855    19857.491    13207.851   -5859.4981    6319.9445    83.872099 
   26600    878.93562   -105.28091   0.79527942   -104.48563    3807.7687    4.3770677    4.3770677    4.3770677    3807.7687    367.48726   -991.10003    12046.919   -3840.7311     9701.547   -2018.5389    83.859021 
   26700    602.35021   -105.03036   0.54501913   -104.48534   -17800.024    4.3901128    4.3901128    4.3901128   -17800.024   -17938.419   -12198.316   -23263.337    4165.5171    6387.1774    15093.253    84.611043 
   26800    818.83375   -105.21908   0.74089798   -104.47818    15584.043     4.366579     4.366579     4.366579    15584.043    7257.5017    14076.846    25417.783    5622.6405    4739.4505    2840.9508    83.257615 
   26900    667.75088   -105.08811   0.60419503   -104.48391   -14926.318    4.3920654    4.3920654    4.3920654   -14926.318   -13795.768   -10457.568   -20525.619   -6308.8986    10494.924    6109.2717    84.723991 
   27000    537.14053   -104.96969   0.48601604   -104.48367    9567.7728    4.3761712    4.3761712    4.3761712    9567.7728     9755.995      3953.65    14993.673    7090.9606   -7992.0329    12769.063    83.807507 
   27100    818.41302   -105.22271    0.7405173   -104.48219   -1725.1322    4.3785252    4.3785252    4.3785252   -1725.1322   -245.49606     2677.573   -7607.4736   -6513.4248    14533.108   -2199.6681     83.94282 
   27200    588.21888   -105.01872    0.5322328   -104.48648   -7289.4836    4.3828505    4.3828505    4.3828505   -7289.4836    53.973672   -10027.298   -11895.126    8350.7776    5040.5992    20704.871    84.191836 
   27300    858.84027   -105.26018   0.77709672   -104.48308    4242.1404    4.3805793    4.3805793    4.3805793    4242.1404   -2130.9164     6881.889    7975.4484    2655.3473     2578.061   -1031.3389    84.061015 
   27400    649.87305   -105.07368   0.58801879   -104.48566   -10132.451    4.3831344    4.3831344    4.3831344   -10132.451   -11317.574     -7951.36   -11128.419   -3083.9673    11968.083    5788.6608    84.208193 
   27500     562.2036     -104.996   0.50869363   -104.48731    18178.715    4.3708637    4.3708637    4.3708637    18178.715    19834.364      16558.3    18143.481    9188.3804   -7241.2907    12790.056    83.502947 
   27600    953.84113   -105.34494    0.8630555   -104.48188   -20167.914    4.3932061    4.3932061    4.3932061   -20167.914   -29160.076   -9846.4429   -21497.225   -4417.7621    14324.745   -6691.3943    84.790021 
   27700    480.37483   -104.91957   0.43465324   -104.48491    15304.307    4.3640173    4.3640173    4.3640173    15304.307    24409.638    14038.893    7464.3889    8658.1473    4171.1609    21513.128    83.111166 
   27800    840.14228   -105.24927   0.76017839   -104.48909   -7096.3408    4.3876451    4.3876451    4.3876451   -7096.3408   -28411.194    5889.9953    1232.1762    7462.3936   -809.77054   -8236.9734    84.468438 
   27900    723.54822   -105.14321   0.65468163   -104.48853   -2600.5797    4.3819031    4.3819031    4.3819031   -2600.5797   -7130.6061    9709.2758   -10380.409   -3094.7635    12440.275    4357.3259    84.137246 
   28000    575.22403   -105.00411   0.52047479   -104.48364    19801.143    4.3635932    4.3635932    4.3635932    19801.143    6387.6368    34254.551    18761.242    14317.238   -9532.5571    10835.895    83.086941 
   28100    931.59219   -105.31963   0.84292419    -104.4767   -23771.536    4.3967631    4.3967631    4.3967631   -23771.536   -30026.723   -6918.4355    -34369.45   -4292.5629    11095.771   -3819.1344    84.996141 
   28200    534.78339   -104.96589   0.48388325   -104.48201     25429.14     4.364031     4.364031     4.364031     25429.14    19182.309     38094.94     19010.17    11975.894   -1093.6929    20412.752     83.11195 
   28300    758.67468   -105.17255   0.68646479   -104.48608   -3576.1065    4.3841034    4.3841034    4.3841034   -3576.1065   -19257.128    15133.542   -6604.7338    6903.4978    2284.1561   -5755.0286    84.264058 
   28400    698.95256   -105.11639   0.63242696   -104.48397    8286.8851    4.3784501    4.3784501    4.3784501    8286.8851   -2271.5845    27155.935   -23.695324   -887.40981    10563.121    8598.5072      83.9385 
   28500    636.77723   -105.06367   0.57616942    -104.4875    3212.2549    4.3749198    4.3749198    4.3749198    3212.2549    2999.4184   -5807.2929    12444.639    7594.0584   -5887.8765    14996.677    83.735627 
   28600     887.9896   -105.28405   0.80347165   -104.48058   -2943.8404    4.3853779    4.3853779    4.3853779   -2943.8404   -21015.257    27092.622   -14908.886   -3664.9044    10486.318    1325.9365    84.337567 
   28700     541.5561   -104.97545   0.49001134   -104.48543    5699.7587    4.3719386    4.3719386    4.3719386    5699.7587     3284.865    6246.5031     7567.908    758.45225   -5528.1942    18129.979    83.564567 
   28800    718.91494   -105.13671   0.65048935   -104.48622   -8303.9178    4.3864437    4.3864437    4.3864437   -8303.9178   -25010.213    8406.4767   -8308.0174    6254.5906    1755.2946   -5070.1948    84.399072 
   28900    881.69453   -105.28209   0.79777574   -104.48431    6502.0933    4.3708744    4.3708744    4.3708744    6502.0933    2362.9064     2706.276    14437.097   -8135.0444    3274.9673    5723.4117    83.503561 
   29000    446.49337   -104.89903   0.40399659   -104.49503   -6586.9422    4.3801479    4.3801479    4.3801479   -6586.9422   -15213.581   -2398.5777   -2148.6685    10977.686    -3257.946    14516.451    84.036183 
   29100    833.54944   -105.23932   0.75421305    -104.4851    2683.0472    4.3848172    4.3848172    4.3848172    2683.0472   -12316.393    28323.746   -7958.2117   -6828.8046    7684.9895   -4085.9311    84.305221 
   29200    622.46502   -105.05164   0.56321944   -104.48842   -29.423316    4.3718068    4.3718068    4.3718068   -29.423316    1476.0552   -9796.7364    8232.4113    2244.8594   -3866.8907    11087.733    83.557008 
   29300     784.4992   -105.19727   0.70983137   -104.48743   -4277.5643    4.3810514    4.3810514    4.3810514   -4277.5643    -18613.84    19107.523   -13326.375    9244.4107   -2660.0318   -2357.8433    84.088195 
   29400    698.59804    -105.1188   0.63210619    -104.4867   -4592.5136    4.3843821    4.3843821    4.3843821   -4592.5136   -3837.6738   -5763.6073   -4176.2597   -5705.6998   -33.593125    2190.4686     84.28013 
   29500    613.82966   -105.04199   0.55540598   -104.48658    6822.2246    4.3727715    4.3727715    4.3727715    6822.2246   -8752.5223    19603.185    9616.0112    6333.4137   -6774.0793    14645.184    83.612336 
   29600    868.76594   -105.26824   0.78607768   -104.48216   -2500.8863    4.3836712    4.3836712    4.3836712   -2500.8863   -8645.8911    3998.4804   -2855.2482   -30.864231    2432.4994   -7281.2873    84.239138 
   29700    376.16451   -104.82831   0.34036156   -104.48795    350.84589    4.3788862    4.3788862    4.3788862    350.84589   -3643.7312   -84.914242    4781.1831   -1700.9565   -1685.3974     9977.996    83.963585 
   29800     971.9124   -105.36256   0.87940677   -104.48315    2533.2021    4.3755165    4.3755165    4.3755165    2533.2021   -12758.044    20766.164   -408.51412    10662.632   -7286.4956   -4631.9263    83.769899 
   29900    582.08437   -105.01407   0.52668217   -104.48739   -6941.4517    4.3847197    4.3847197    4.3847197   -6941.4517   -3219.1028   -4499.4917   -13105.761   -10081.911     1439.349   -2742.2213    84.299597 
   30000    740.21456   -105.15462   0.66976169   -104.48486    1420.7608    4.3749117    4.3749117    4.3749117    1420.7608   -6003.3912    13037.041   -2771.3676    6528.9832   -12455.649    8260.4772    83.735165 
   30100    808.65189    -105.2162   0.73168522   -104.48452   -5481.8915    4.3836622    4.3836622    4.3836622   -5481.8915   -11880.232    5006.6134   -9572.0558   -8281.8383   -827.50605   -18048.065    84.238621 
   30200    566.42717   -104.99979   0.51251521   -104.48727    10571.948    4.3733833    4.3733833    4.3733833    10571.948    9447.5537    7864.8586     14403.43   -1561.2812   -7959.3878    5920.9475    83.647433 
   30300    771.48039   -105.18138   0.69805167   -104.48333    1278.3927    4.3860964    4.3860964    4.3860964    1278.3927   -14967.593    18370.557    432.21399    2484.1774   -1292.0058   -11185.687    84.379029 
   30400    644.23911   -105.07036   0.58292108   -104.48744   -952.75116    4.3738155    4.3738155    4.3738155   -952.75116    9737.4807   -11698.488   -897.24602     -7567.66   -699.41056   -1216.8796    83.672234 
   30500    692.58302   -105.11502   0.62666367   -104.48836    15110.488    4.3769325    4.3769325    4.3769325    15110.488    439.13215    47744.674   -2852.3428    329.57995   -8834.7642     6056.674    83.851252 
   30600    813.88079   -105.22158   0.73641644   -104.48516    -15853.31    4.3872402    4.3872402    4.3872402    -15853.31   -7740.9741   -19677.866   -20141.089   -1681.3675    5409.6181   -11678.272     84.44506 
   30700    528.60312   -104.96239   0.47829121    -104.4841    17306.591    4.3676904    4.3676904    4.3676904    17306.591    6328.7298    34967.137    10623.905   -3098.4642   -13747.934    13476.072    83.321204 
   30800    800.07775    -105.2055   0.72392717   -104.48157   -3030.5089    4.3862708    4.3862708    4.3862708   -3030.5089   -9499.6376   -711.03026     1119.141    3631.9277    8693.4146   -7486.7632    84.389096 
   30900    676.85009   -105.09646   0.61242819   -104.48403   -1794.5225    4.3767038    4.3767038    4.3767038   -1794.5225   -10052.213    8767.8184   -4099.1724   -8073.5189   -5073.1515    3135.7205    83.838106 
   31000    697.04755   -105.11239   0.63070327   -104.48169    5686.7106    4.3764227    4.3764227    4.3764227    5686.7106    1923.7356    19680.967   -4544.5703    188.11331    3777.4936      1487.38    83.821955 
   31100    732.37559   -105.14526   0.66266882   -104.48259   -9314.9053    4.3834704    4.3834704    4.3834704   -9314.9053   -7476.6043   -2692.4677   -17775.644   -3624.1818    5900.4439   -13224.676    84.227565 
   31200    706.22463    -105.1222   0.63900688   -104.48319    8102.3961    4.3753938    4.3753938    4.3753938    8102.3961     1864.594    14031.149    8411.4454    -5533.461   -10264.429     17547.94    83.762851 
   31300    665.03738   -105.08547   0.60173979   -104.48373    6134.7795    4.3784601    4.3784601    4.3784601    6134.7795    7679.6309    15903.255    -5178.548   -652.23447    10524.511   -20832.335    83.939074 
   31400    677.92235   -105.09746   0.61339839   -104.48406   -7786.3701    4.3846115    4.3846115    4.3846115   -7786.3701   -10450.192   -1429.0855   -11479.832   -6909.2845   -6790.1573    13904.368    84.293361 
   31500    807.91683    -105.2122   0.73102012   -104.48118    2023.5904    4.3746045    4.3746045    4.3746045    2023.5904   -2027.3089    16856.919   -8758.8388   -1982.0838    11736.697   -6365.8124    83.717528 
   31600    662.98389   -105.08341   0.59988175   -104.48353    2309.0903    4.3773631    4.3773631    4.3773631    2309.0903    8457.8649    12036.109   -13566.703    -1.074922   -316.86446   -4143.2066    83.876003 
   31700     677.5262   -105.09637   0.61303994   -104.48333   -9931.7796    4.3850805    4.3850805    4.3850805   -9931.7796   -16564.318   -8919.1662   -4311.8542   -4190.0151   -691.79018    14878.489    84.320409 
   31800     646.4534   -105.06695   0.58492462   -104.48203    17255.267    4.3708646    4.3708646    4.3708646    17255.267    20482.192    33466.023    -2182.414    917.74202    4379.8302   -22179.858    83.502996 
   31900    760.44702   -105.17373   0.68806845   -104.48566   -9462.9411    4.3836336    4.3836336    4.3836336   -9462.9411   -7668.1158   -19308.537   -1412.1701   -2599.5702   -3175.0377    19113.464    84.236971 
   32000    685.15495   -105.10466    0.6199426   -104.48471    3547.3929    4.3798688    4.3798688    4.3798688    3547.3929   -5628.7357    29370.768   -13099.854    1219.4308    10672.215   -9105.2418    84.020121 
   32100    717.93031   -105.13214   0.64959843   -104.48254    4424.1153    4.3753835    4.3753835    4.3753835    4424.1153    2728.3235   -5152.7073     15696.73    82.673227   -2863.4266    1548.9093    83.762259 
   32200     696.7936   -105.11449    0.6304735   -104.48401   -2667.7237    4.3814031    4.3814031    4.3814031   -2667.7237   -12452.849    3993.4965    456.18173    -3887.042    2216.7314    13470.457    84.108453 
   32300    787.49845   -105.19326   0.71254515   -104.48072    9262.2397    4.3793169    4.3793169    4.3793169    9262.2397    7397.4229    19485.297    903.99976   -324.18401    1459.3595   -14850.279    83.988364 
   32400    586.83692   -105.01722   0.53098238   -104.48623   -7454.1596    4.3782838    4.3782838    4.3782838   -7454.1596    326.49452   -21513.128   -1175.8456   -10116.152   -4909.1479    27001.727    83.928938 
   32500    780.08864   -105.19023    0.7058406   -104.48439    16631.141    4.3748618    4.3748618    4.3748618    16631.141    6692.4874    34902.141     8298.796    2963.4857    7586.6013   -12501.245      83.7323 
   32600    654.26366   -105.07904   0.59199151   -104.48704   -11517.151    4.3888849    4.3888849    4.3888849   -11517.151   -1633.8686   -34495.421    1577.8364   -6877.5037   -4708.7207    13604.772    84.540062 
   32700    625.92934   -105.05339   0.56635402   -104.48703    12497.675    4.3645431    4.3645431    4.3645431    12497.675    4508.3959    20525.878    12458.751   -5890.0398     458.8448    9723.1564    83.141211 
   32800    858.65205   -105.26423   0.77692642   -104.48731   -1763.7238    4.3876307    4.3876307    4.3876307   -1763.7238   -9733.0354   -7814.6246    12256.488    547.11822    -7369.781   -3809.6226    84.467607 
   32900    538.22141   -104.97959   0.48699405    -104.4926   -21068.258     4.382298     4.382298     4.382298   -21068.258   -13523.123    -36092.94    -13588.71    -15837.11   -2549.4413    27750.207    84.159999 
   33000    831.75682   -105.23203   0.75259105   -104.47943     35860.15    4.3595963    4.3595963    4.3595963     35860.15    24578.118    38827.297    44175.037    3181.3087    1462.8871   -10905.739    82.858836 
   33100    622.87827   -105.04924   0.56359335   -104.48565   -27761.696    4.3952384    4.3952384    4.3952384   -27761.696   -9803.7681   -45102.361    -28378.96   -6186.7615    2129.0863    21871.762    84.907744 
   33200    619.57913   -105.04681   0.56060822    -104.4862    16714.865    4.3657342    4.3657342    4.3657342    16714.865    19429.338    14606.641    16108.615   -4848.3316    1795.5825    4969.8363    83.209301 
   33300    929.67365   -105.32347   0.84118826   -104.48228    2028.1099    4.3832435    4.3832435    4.3832435    2028.1099    9048.3976   -14829.695    11865.627    407.03528   -950.31031    8503.7249    84.214484 
   33400    490.87805   -104.93463   0.44415678   -104.49047   -14313.168    4.3787443    4.3787443    4.3787443   -14313.168   -4865.7453   -28007.977   -10065.783   -10635.016     373.7196    19515.225    83.955425 
   33500    785.24535   -105.19234   0.71050649   -104.48183    24087.559    4.3735795    4.3735795    4.3735795    24087.559    15288.941     17207.92    39765.815    2479.0573   -909.32588   -7637.0348    83.658695 
   33600    767.97208    -105.1822   0.69487728   -104.48732   -21903.902    4.3841869    4.3841869    4.3841869   -21903.902   -11053.422   -37358.857   -17299.428    -4057.892    -571.8564    18725.754    84.268872 
   33700     569.7829   -105.00241   0.51555154   -104.48686    21772.309    4.3682268    4.3682268    4.3682268    21772.309    18458.451    14489.298    32369.177   -3440.7156   -3995.1919    2513.8716    83.351906 
   33800    763.03237   -105.17305   0.69040772   -104.48264    -11657.85    4.3904342    4.3904342    4.3904342    -11657.85   -9051.7586    -29585.85    3664.0582    778.29513   -4163.2049   -1002.2378    84.629626 
   33900    627.37699   -105.05321   0.56766389   -104.48555    12771.384    4.3597415    4.3597415    4.3597415    12771.384    13344.312   -1791.5823    26761.422   -9600.6783   -1641.7297    15938.047    82.867118 
   34000    804.06987   -105.21513   0.72753932   -104.48759    217.25136    4.3882476    4.3882476    4.3882476    217.25136    9094.5758   -10950.391    2507.5689    3358.9532   -7078.8864    -16918.59    84.503242 
   34100    666.14055    -105.0937   0.60273797   -104.49097   -13377.566    4.3781768    4.3781768    4.3781768   -13377.566   -13745.938   -24123.569   -2263.1904   -10581.515    3794.7662    8189.1644    83.922787 
   34200    633.58499   -105.05555   0.57328101   -104.48227    28407.122    4.3578707    4.3578707    4.3578707    28407.122    23511.953    23820.011    37889.403   -1796.7352   -7701.7516    890.03087    82.760484 
   34300    768.24502   -105.17179   0.69512424   -104.47667   -26398.858     4.399423     4.399423     4.399423   -26398.858   -16097.574   -42100.314   -20998.685   -598.62138    2680.1461   -10233.483    85.150495 
   34400    690.69841    -105.1041   0.62495843   -104.47914    17013.047    4.3566715    4.3566715    4.3566715    17013.047    1860.2149    13573.346    35605.581    -10459.11   -2930.2433    15156.761    82.692179 
   34500    652.91825   -105.07775   0.59077415   -104.48698   -5041.6405    4.3795578    4.3795578    4.3795578   -5041.6405    9416.8143   -7516.4216   -17025.314    2031.2392   -3211.8483   -24666.654    84.002223 
   34600    791.11604   -105.19835   0.71581842   -104.48253   -9625.1513    4.3822925    4.3822925    4.3822925   -9625.1513   -12388.701    -18792.74    2305.9863   -12679.898    2781.6967    9483.7061    84.159682 
   34700    639.62164   -105.05778    0.5787431   -104.47903    7578.6865      4.37178      4.37178      4.37178    7578.6865    11684.198    9519.2529    1532.6084   -2497.5496   -10131.625   -8288.6791    83.555473 
   34800    676.93513   -105.09368   0.61250513   -104.48118   -11120.149    4.3796604    4.3796604    4.3796604   -11120.149   -6005.6842   -22417.992   -4936.7697     81.85948    538.32751   -16864.013    84.008131 
   34900    815.61001   -105.22032   0.73798107   -104.48233    4427.0463    4.3724976    4.3724976    4.3724976    4427.0463    425.43777    7463.8279    5391.8733   -12509.497   -10537.555    6270.1436    83.596624 
   35000    532.80439    -104.9702   0.48209261    -104.4881   -12234.251    4.3847492    4.3847492    4.3847492   -12234.251    9272.1211    -14769.07   -31205.805     4661.233   -7255.4211   -28269.592    84.301299 
[...]
   91200    719.54828   -105.14443    0.6510624   -104.49336   -9486.7991    4.3743304    4.3743304    4.3743304   -9486.7991    13259.114   -17570.355   -24149.156    2004.3801    3877.5159     26976.23    83.701793 
   91300    473.52645   -104.92362   0.42845669   -104.49517    7206.1557    4.3652743    4.3652743    4.3652743    7206.1557    -4106.095    31071.486   -5346.9236   -23308.376   -8647.5696    2089.2748    83.183005 
   91400    992.40737   -105.38491   0.89795104   -104.48696   -7757.2066    4.3784987    4.3784987    4.3784987   -7757.2066    3393.7904   -2132.9986   -24532.412    5111.9105    240.91695    5073.8925    83.941296 
   91500    446.82283   -104.89708   0.40429468   -104.49278    7597.9575     4.365754     4.365754     4.365754    7597.9575   -4389.0004     36749.89   -9567.0172    -18944.17   -3554.4538     21608.08    83.210431 
   91600    888.08011   -105.29253   0.80355354   -104.48898   -4866.8023    4.3739982    4.3739982    4.3739982   -4866.8023   -12883.542    6994.1178   -8710.9825   -4124.5632   -8198.6674   -11622.982     83.68272 
   91700    663.05335   -105.08998   0.59994461   -104.49003    3752.9628    4.3714346    4.3714346    4.3714346    3752.9628    4625.1069    26994.919   -20361.137    -527.9504    4044.2091    22318.701     83.53567 
   91800    592.56871   -105.03049   0.53616862   -104.49432   -6572.4089    4.3731426    4.3731426    4.3731426   -6572.4089   -16838.426    1846.8329   -4725.6332   -22789.105   -10004.977   -513.51812    83.633623 
   91900    843.59523   -105.24943   0.76330269   -104.48613    9760.2817     4.370662     4.370662     4.370662    9760.2817    11053.719    29293.548   -11066.421    8785.0038    2268.5043     6228.676    83.491387 
   92000    532.36982   -104.97601   0.48169941   -104.49431   -14411.413    4.3725885    4.3725885    4.3725885   -14411.413   -6398.7226   -20276.078   -16559.437   -18684.967   -4221.1808    19891.122     83.60184 
   92100    726.64874   -105.14856   0.65748705   -104.49107    3197.4309    4.3724574    4.3724574    4.3724574    3197.4309   -9526.9902     21859.05   -2739.7667   -469.27783    -6728.559   -5762.7324    83.594317 
   92200    762.43892   -105.18095   0.68987075   -104.49108   -9994.5252    4.3750628    4.3750628    4.3750628   -9994.5252   -2696.3074   -3928.4075   -23358.861   -2457.2363    2973.9396    24278.606    83.743843 
   92300    561.98361   -105.00239   0.50849458   -104.49389   -10764.438    4.3691256    4.3691256    4.3691256   -10764.438   -23973.034   -7402.7874   -917.49182   -23222.328   -12185.695    26.207293    83.403371 
   92400    843.62241   -105.25195   0.76332729   -104.48862    3437.3267     4.371736     4.371736     4.371736    3437.3267    6444.6997    20903.329   -17036.048    8955.5931    4067.1542    7712.5329    83.552951 
   92500    522.00595   -104.96752   0.47232196    -104.4952   -17451.448    4.3767264    4.3767264    4.3767264   -17451.448   -22397.549   -13609.883   -16346.912   -19381.033   -5370.0768    11105.407    83.839405 
   92600    711.80857   -105.13494   0.64405936   -104.49088     10062.78    4.3679202    4.3679202    4.3679202     10062.78   -5409.5505     39049.65   -3451.7601   -5758.8853   -2758.2404   -4514.8144    83.334356 
   92700     840.2204   -105.24977   0.76024908   -104.48952    -11121.87    4.3755245    4.3755245    4.3755245    -11121.87   -1967.1775    -12426.95   -18971.484   -2782.2381    1244.2959    15030.383    83.770354 
   92800    408.66449   -104.86419   0.36976822   -104.49443    6129.1494    4.3706444    4.3706444    4.3706444    6129.1494   -26365.489     49795.96   -5043.0232   -27301.015   -8404.8931   -123.96162    83.490374 
   92900    990.61965   -105.38517   0.89633348   -104.48884   -2215.2643    4.3737769    4.3737769    4.3737769   -2215.2643   -2444.7494    2453.4307   -6654.4741    14520.196   -43.052643    4764.6237    83.670023 
   93000    502.52126   -104.95096   0.45469179   -104.49627    4530.5818    4.3701822    4.3701822    4.3701822    4530.5818   -12890.716    38175.447   -11692.985   -20881.078   -5013.7053    6422.9474     83.46389 
   93100    754.29401   -105.17464   0.68250107   -104.49214   -8483.9589    4.3779075    4.3779075    4.3779075   -8483.9589    -15536.45   -3413.5255   -6501.9018   -2327.9358   -5540.0597   -2757.2016    83.907301 
   93200    732.21356   -105.15137   0.66252221   -104.48885     13647.51    4.3664773    4.3664773    4.3664773     13647.51    3949.2251    45929.617   -8936.3125    6583.6909   -208.26935     8301.849    83.251795 
   93300    567.21811   -105.00953   0.51323087    -104.4963   -22630.522    4.3792785    4.3792785    4.3792785   -22630.522   -36651.922   -18439.419   -12800.226   -23135.424   -8484.7114    1023.9541    83.986154 
   93400     918.8046     -105.319   0.83135371   -104.48765    11910.425    4.3681062    4.3681062    4.3681062    11910.425    5384.2623    36040.435   -5693.4211    17856.433   -262.98598   -1300.5487    83.345002 
   93500    453.18892   -104.90631   0.41005486   -104.49626   -19627.083    4.3775564    4.3775564    4.3775564   -19627.083   -32585.498   -6726.2701   -19569.481   -26252.239   -7304.7029    8238.1264    83.887111 
   93600    759.06006   -105.18043    0.6868135   -104.49362   -1772.7042    4.3693342    4.3693342    4.3693342   -1772.7042   -4566.1962    4610.8257   -5362.7419   -1641.5311   -5037.7671    -4209.422    83.415313 
   93700    812.61816   -105.22573   0.73527399   -104.49046    716.58849    4.3761309    4.3761309    4.3761309    716.58849   -4188.0848    20092.287   -13754.437    -3099.523   -3175.1493      6744.95     83.80519 
   93800    336.68175   -104.80482   0.30463672   -104.50018   -17287.852    4.3727102    4.3727102    4.3727102   -17287.852   -28813.407   -9417.3808   -13632.767   -23389.792    -11214.32     3052.474    83.608818 
   93900    1020.2931   -105.41185   0.92318265   -104.48867    18359.784     4.369526     4.369526     4.369526    18359.784    10991.043    43720.834    367.47519    2676.1383    2776.8554   -3046.8618    83.426302 
   94000     514.9016   -104.96689   0.46589379     -104.501   -22255.669     4.380737     4.380737     4.380737   -22255.669   -35345.709    -14202.77   -17218.527   -22468.055   -9088.0675    2670.2132    84.070096 
   94100    620.16711    -105.0559   0.56114023   -104.49476    24603.608    4.3598765    4.3598765    4.3598765    24603.608    14551.274    54333.793    4925.7579   -7952.5254   -144.91125   -3769.9218    82.874815 
   94200    938.51295    -105.3374   0.84918624   -104.48821   -15767.361     4.386645     4.386645     4.386645   -15767.361   -14606.263    -8884.471    -23811.35   -551.32771    -1170.742   -2055.5729    84.410693 
   94300    352.85889     -104.816   0.31927414   -104.49673    7972.3035    4.3619446    4.3619446    4.3619446    7972.3035   -11888.078    39227.668   -3422.6785   -26172.414   -8351.4264    2271.9052    82.992802 
   94400     1057.055   -105.44399   0.95644561   -104.48754   -671.63618    4.3776458    4.3776458    4.3776458   -671.63618    6563.8372    7105.3692   -15684.115    7034.6593    5715.1973   -4591.9036    83.892254 
   94500    513.03811   -104.96017   0.46420766   -104.49597   -5550.4717    4.3725829    4.3725829    4.3725829   -5550.4717   -16331.991    13123.656   -13443.081   -21357.749   -8224.2361   -465.97157    83.601514 
   94600    709.18584   -105.13598   0.64168625   -104.49429    7937.0115    4.3679645    4.3679645    4.3679645    7937.0115    4799.4181    25837.002   -6825.3857   -9388.4115    4005.5155    -893.5653    83.336891 
   94700    827.24687   -105.23722   0.74851035   -104.48871   -3844.2984    4.3794132    4.3794132    4.3794132   -3844.2984   -225.35565    7036.5925   -18344.132   -3227.9337    1545.8189    -4617.874    83.993902 
   94800    529.86254   -104.97299   0.47943076   -104.49355    2818.4972    4.3659144    4.3659144    4.3659144    2818.4972   -17892.617    22155.141    4192.9669   -25638.079    -6074.671    3098.6851    83.219602 
   94900    850.46179   -105.25623    0.7695157   -104.48671    -5133.975    4.3800827    4.3800827    4.3800827    -5133.975    7301.8209    6830.1696   -29533.916    12523.402    6902.2241   -9934.0011    84.032432 
   95000    608.08381   -105.04127   0.55020701   -104.49106    3095.2884    4.3670647    4.3670647    4.3670647    3095.2884   -16260.419    19329.369     6216.915    -19902.67   -8199.1581   -2337.0959    83.285398 
   95100    763.52818    -105.1824   0.69085634   -104.49154   -5355.2856    4.3773988    4.3773988    4.3773988   -5355.2856   -11589.369    15363.008   -19839.495   -7807.6679    2213.8363   -1645.7428    83.878053 
   95200    740.78532   -105.16055   0.67027812   -104.49027    7461.4746    4.3699541    4.3699541    4.3699541    7461.4746    3118.0834     21528.64   -2262.2989    3098.4352   -1195.7587   -7397.9104    83.450821 
   95300    540.92631   -104.98563    0.4894415   -104.49619   -7523.1114     4.375828     4.375828     4.375828   -7523.1114   -29430.038    19507.972   -12647.268    -28983.66   -6812.7039    4358.3889    83.787792 
   95400    987.88381   -105.38069   0.89385803   -104.48683     10919.52    4.3707977    4.3707977    4.3707977     10919.52    8396.3191    32271.879   -7909.6363    11308.907    5491.7198   -6877.9268     83.49916 
   95500    436.89474   -104.89278   0.39531154   -104.49747   -15995.983    4.3758441    4.3758441    4.3758441   -15995.983   -35970.035   -7019.4133   -4998.5022   -26664.149   -10827.863   -1193.7476    83.788714 
   95600     853.5122   -105.26456   0.77227577   -104.49228    5427.7896    4.3693864    4.3693864    4.3693864    5427.7896   -1976.4773     24831.32   -6571.4738    -4549.082    59.985603    4719.9679    83.418303 
   95700    690.55244    -105.1198   0.62482636   -104.49498   -5543.1814    4.3767709    4.3767709    4.3767709   -5543.1814   -16233.872    6200.5562   -6596.2285   -1467.4182   -4740.6111   -3896.1834    83.841963 
   95800    472.55858     -104.927   0.42758093   -104.49942   -15087.096    4.3725731    4.3725731    4.3725731   -15087.096   -31898.319   -14853.748    1490.7774   -25108.524   -10529.386    5286.2852    83.600957 
   95900    1025.1811   -105.41454   0.92760538   -104.48694    13987.519    4.3665429    4.3665429    4.3665429    13987.519    7396.0422    32990.786    1575.7295    7914.9825    1684.4686   -3354.2916    83.255552 
   96000    326.74972   -104.79374   0.29565002   -104.49809   -20987.294    4.3820978    4.3820978    4.3820978   -20987.294   -47383.744   -12740.062   -2838.0753    -24736.96   -8688.9348   -4383.4794    84.148466 
   96100     898.3184   -105.29983   0.81281736   -104.48701    12219.983    4.3657491    4.3657491    4.3657491    12219.983   -1639.7055    31490.374    6809.2812    1518.9343   -1673.3288    4915.0226    83.210155 
   96200    714.87348   -105.13742   0.64683255   -104.49059   -7667.8931    4.3758627    4.3758627    4.3758627   -7667.8931   -26147.781    4881.3292   -1737.2276    -15895.12   -1395.5353   -192.36284    83.789783 
   96300    502.80973   -104.94974   0.45495281   -104.49478    2928.5277    4.3695099    4.3695099    4.3695099    2928.5277   -21040.368     28049.13    1776.8212   -17355.248   -7471.2258     4687.537    83.425376 
   96400    948.00088   -105.34508   0.85777112   -104.48731    502.86005    4.3759243    4.3759243    4.3759243    502.86005   -7052.7215    26082.643   -17521.342    1645.0528    3522.1282    5415.1557    83.793322 
   96500    535.40092   -104.97723     0.484442   -104.49278   -2562.0884    4.3738602    4.3738602    4.3738602   -2562.0884   -33464.568    24604.597    1173.7052   -24950.693   -7350.5899   -2962.2044    83.674802 
   96600    853.67799   -105.26019   0.77242578   -104.48777     9442.501    4.3684527    4.3684527    4.3684527     9442.501    4106.9671    37606.035   -13385.499    2118.7411    2068.6001    8964.5901    83.364839 
   96700    630.96868    -105.0607   0.57091372   -104.48978    347.62555    4.3757686    4.3757686    4.3757686    347.62555    -24262.69    33262.179   -7956.6123   -12976.274     1910.581     2113.671    83.784376 
   96800    681.73121   -105.10687   0.61684473   -104.49002    2181.8085    4.3723587    4.3723587    4.3723587    2181.8085   -13542.055    22207.177   -2119.6961     -13114.3   -7195.3093    1214.3312    83.588659 
   96900    775.88648   -105.19026   0.70203839   -104.48822     4401.404    4.3733255    4.3733255    4.3733255     4401.404   -9783.6415    35896.545   -12908.692    6276.9936    13307.746    7601.0344    83.644118 
   97000    613.89977    -105.0483   0.55546941   -104.49284   -2491.6561    4.3723756    4.3723756    4.3723756   -2491.6561   -22990.535    15410.552    105.01485   -21931.611   -11944.253   -5512.3592    83.589625 
   97100    738.51143   -105.15926   0.66822066   -104.49104   -1178.8683    4.3722689    4.3722689    4.3722689   -1178.8683    -10605.56    14904.752   -7835.7968    4840.1107    8925.5773    12129.259    83.583508 
   97200    702.54587   -105.12829   0.63567827   -104.49261   -4575.5692    4.3714759    4.3714759    4.3714759   -4575.5692   -23385.542    19678.966   -10020.132   -10517.639    2631.9622    3959.2319    83.538039 
   97300    638.31161    -105.0688   0.57755776   -104.49124   -7553.7191    4.3788591    4.3788591    4.3788591   -7553.7191    -24723.31    8819.8933   -6757.7407    -18491.15   -8869.3149    536.66965    83.962024 
   97400    778.16467   -105.19243   0.70409975   -104.48833   -431.68585    4.3676601    4.3676601    4.3676601   -431.68585   -7570.8242    19235.111   -12959.345    4870.8171    17657.295     11003.43    83.319472 
   97500    573.66968   -105.01376   0.51906839   -104.49469   -8312.8422    4.3725376    4.3725376    4.3725376   -8312.8422   -27857.411   -4358.3141    7277.1982   -27979.419   -15528.922   -1536.3108    83.598917 
   97600    828.45297    -105.2392   0.74960166   -104.48959   -1902.1066    4.3753681    4.3753681    4.3753681   -1902.1066   -6132.4821    14315.441   -13889.278    7387.6661    12182.027    11717.494    83.761371 
   97700    517.67104   -104.95969   0.46839964   -104.49129   -7879.7884      4.37631      4.37631      4.37631   -7879.7884   -29437.196    9327.0512   -3529.2208   -16739.379   -191.21713    5551.3256     83.81548 
   97800    757.77903   -105.17346   0.68565439    -104.4878   -2185.0082    4.3683826    4.3683826    4.3683826   -2185.0082   -7668.1443    1316.1924   -203.07258   -13192.435   -5815.5964   -2505.7999    83.360823 
   97900    741.33667   -105.15965     0.670777   -104.48888   -1074.2939    4.3746616    4.3746616    4.3746616   -1074.2939   -6458.7515    10842.452   -7606.5823    4154.4719    14905.582    9308.8357    83.720802 
   98000    589.21815   -105.02435   0.53313696   -104.49122   -11280.227    4.3776058    4.3776058    4.3776058   -11280.227   -28580.054   -112.87721   -5147.7491   -25808.076    -11864.98   -3862.3499    83.889952 
   98100     823.2098   -105.23079   0.74485753   -104.48593    13523.923    4.3641998    4.3641998    4.3641998    13523.923    8235.8129    25326.854    7009.1021    8381.0443     6912.561    6893.3016    83.121596 
   98200    583.50342   -105.02007   0.52796615    -104.4921   -15174.335    4.3812814    4.3812814    4.3812814   -15174.335   -29106.008    -10586.26    -5830.738   -19277.298    909.79287    5791.6429    84.101442 
   98300    803.54743   -105.21584    0.7270666   -104.48877     3498.661      4.36978      4.36978      4.36978     3498.661   -10018.007    4881.8881    15632.101   -8632.2607   -7818.8278   -2433.0617     83.44085 
   98400    674.94306   -105.10055   0.61070266   -104.48985    4132.5213    4.3707427    4.3707427    4.3707427    4132.5213    -382.6716    20608.089   -7827.8537    -111.0312    8242.8352    5395.8421    83.496009 
   98500    606.42733   -105.04148   0.54870819   -104.49277   -10842.854    4.3765779    4.3765779    4.3765779   -10842.854   -25791.207   -12193.223    5455.8701   -21133.649    -7803.875    1541.3306     83.83087 
   98600    869.96062   -105.27335   0.78715866   -104.48619    5706.5992     4.372693     4.372693     4.372693    5706.5992    2292.6864    21475.526   -6648.4145    7664.9861   -3176.6063    2804.9984    83.607829 
   98700    601.65972   -105.03584   0.54439436   -104.49145    -8825.549    4.3717032    4.3717032    4.3717032    -8825.549   -11261.786   -10584.927   -4629.9345   -20421.671    2953.1052    10702.412    83.551067 
   98800    686.01597   -105.11332   0.62072166    -104.4926    6261.0305    4.3738808    4.3738808    4.3738808    6261.0305   -17809.659    32811.308    3781.4425    631.93654     -13699.8   -7113.0478    83.675983 
   98900     871.6568   -105.27968   0.78869339   -104.49099   -7290.8252    4.3766159    4.3766159    4.3766159   -7290.8252    3550.0043   -19046.318   -6376.1618   -951.82005    5626.0803    10470.597    83.833056 
   99000    432.23745   -104.88769   0.39109753   -104.49659    5567.5189    4.3665116    4.3665116    4.3665116    5567.5189    -19513.16    22501.231    13714.486   -16477.837   -9288.5082   -591.20087     83.25376 
   99100    927.89695   -105.32814   0.83958066   -104.48856   -1329.9712    4.3787115    4.3787115    4.3787115   -1329.9712   -320.52501   -895.39308   -2773.9954    11765.765   -3037.1234    5104.8072    83.953537 
   99200    572.76369   -105.01125   0.51824863   -104.49301    4908.1675    4.3707286    4.3707286    4.3707286    4908.1675   -6580.7941    22470.212    -1164.915    -21708.76    2591.7481    7525.7942    83.495203 
   99300    686.96775   -105.11329   0.62158285   -104.49171    1334.4809    4.3698163    4.3698163    4.3698163    1334.4809   -5331.7805   -2895.4733    12230.696    6811.8041    -12315.68   -2887.8189    83.442931 
   99400     832.0342   -105.23984   0.75284203     -104.487    3534.2636    4.3792553    4.3792553    4.3792553    3534.2636   -1579.4962    26012.167    -13829.88   -2349.7152    8095.5569    9160.7163    83.984819 
   99500    591.21237   -105.02739   0.53494137   -104.49245     -606.559    4.3690978    4.3690978    4.3690978     -606.559   -7058.4888    991.41034    4247.4014   -15445.703   -11923.016    3094.0464    83.401776 
   99600    767.30028   -105.18471   0.69426942   -104.49044    12329.335    4.3699389    4.3699389    4.3699389    12329.335    5673.2855    28511.373    2803.3456    17775.722     3375.159    4972.9489     83.44995 
   99700    725.50465   -105.14579   0.65645185   -104.48934   -7596.4598    4.3815775    4.3815775    4.3815775   -7596.4598   -7907.1054   -3671.2882   -11210.986   -19332.819   -169.68015    7411.7113    84.118494 
   99800    581.22277   -105.01677   0.52590258   -104.49087    13258.801     4.363751     4.363751     4.363751    13258.801    107.10103     29500.97    10168.331    11920.394   -9110.2822      -2519.3    83.095956 
   99900    841.13476   -105.24941   0.76107641   -104.48834    3430.3241     4.375188     4.375188     4.375188    3430.3241    3401.3391    8840.2874    -1950.654    1798.6757    9931.3715    6459.2267    83.751031 
  100000    664.81469   -105.09253    0.6015383   -104.49099   -5956.6966     4.375832     4.375832     4.375832   -5956.6966   -9315.3987   -1255.8855   -7298.8056    -10352.09   -12493.131    4107.0015    83.788021 
Loop time of 22.7449 on 1 procs for 100000 steps with 8 atoms

Pair  time (%) = 6.95725 (30.5882)
Kspce time (%) = 5.66055 (24.8871)
Neigh time (%) = 0 (0)
Comm  time (%) = 1.16162 (5.10716)
Outpt time (%) = 0.0391536 (0.172142)
Other time (%) = 8.92634 (39.2454)

Nlocal:    8 ave 8 max 8 min
Histogram: 1 0 0 0 0 0 0 0 0 0
Nghost:    2189 ave 2189 max 2189 min
Histogram: 1 0 0 0 0 0 0 0 0 0
Neighs:    2056 ave 2056 max 2056 min
Histogram: 1 0 0 0 0 0 0 0 0 0

Total # of neighbors = 2056
Ave neighs/atom = 257
Neighbor list builds = 0
Dangerous builds = 0
seeds:7843429
