   2   2   0   0
  0.9639684E+01  0.3009788E-09  0.3009788E-09  0.3009788E-09  0.5000000E-15
  1.000000000000000E-004
  CAR 
 automatically generated by pyflamestk   
     43.84026795    -16.47083039  301      3.65799868      1.00000000
    -16.471  0.0000E+00  0.0000E+00
    -16.270  0.0000E+00  0.0000E+00
    -16.069  0.0000E+00  0.0000E+00
    -15.868  0.0000E+00  0.0000E+00
    -15.667  0.0000E+00  0.0000E+00
    -15.466  0.0000E+00  0.0000E+00
    -15.265  0.0000E+00  0.0000E+00
    -15.064  0.0000E+00  0.0000E+00
    -14.863  0.0000E+00  0.0000E+00
    -14.661  0.0000E+00  0.0000E+00
    -14.460  0.0000E+00  0.0000E+00
    -14.259  0.0000E+00  0.0000E+00
    -14.058  0.0000E+00  0.0000E+00
    -13.857  0.4606E-04  0.9261E-05
    -13.656  0.3048E+00  0.6129E-01
    -13.455  0.1571E-01  0.6445E-01
    -13.254  0.9226E+00  0.2499E+00
    -13.053  0.8005E+00  0.4109E+00
    -12.852  0.9690E+00  0.6057E+00
    -12.651  0.2797E+01  0.1168E+01
    -12.450  0.3308E+01  0.1833E+01
    -12.249  0.8299E+00  0.2000E+01
    -12.048  0.0000E+00  0.2000E+01
    -11.847  0.0000E+00  0.2000E+01
    -11.646  0.0000E+00  0.2000E+01
    -11.445  0.0000E+00  0.2000E+01
    -11.244  0.0000E+00  0.2000E+01
    -11.043  0.0000E+00  0.2000E+01
    -10.842  0.0000E+00  0.2000E+01
    -10.641  0.0000E+00  0.2000E+01
    -10.440  0.0000E+00  0.2000E+01
    -10.239  0.0000E+00  0.2000E+01
    -10.038  0.0000E+00  0.2000E+01
     -9.837  0.0000E+00  0.2000E+01
     -9.636  0.0000E+00  0.2000E+01
     -9.435  0.0000E+00  0.2000E+01
     -9.233  0.0000E+00  0.2000E+01
     -9.032  0.0000E+00  0.2000E+01
     -8.831  0.0000E+00  0.2000E+01
     -8.630  0.0000E+00  0.2000E+01
     -8.429  0.0000E+00  0.2000E+01
     -8.228  0.0000E+00  0.2000E+01
     -8.027  0.0000E+00  0.2000E+01
     -7.826  0.0000E+00  0.2000E+01
     -7.625  0.0000E+00  0.2000E+01
     -7.424  0.0000E+00  0.2000E+01
     -7.223  0.0000E+00  0.2000E+01
     -7.022  0.0000E+00  0.2000E+01
     -6.821  0.0000E+00  0.2000E+01
     -6.620  0.0000E+00  0.2000E+01
     -6.419  0.0000E+00  0.2000E+01
     -6.218  0.0000E+00  0.2000E+01
     -6.017  0.0000E+00  0.2000E+01
     -5.816  0.0000E+00  0.2000E+01
     -5.615  0.0000E+00  0.2000E+01
     -5.414  0.0000E+00  0.2000E+01
     -5.213  0.0000E+00  0.2000E+01
     -5.012  0.0000E+00  0.2000E+01
     -4.811  0.0000E+00  0.2000E+01
     -4.610  0.0000E+00  0.2000E+01
     -4.409  0.0000E+00  0.2000E+01
     -4.208  0.0000E+00  0.2000E+01
     -4.007  0.0000E+00  0.2000E+01
     -3.805  0.0000E+00  0.2000E+01
     -3.604  0.0000E+00  0.2000E+01
     -3.403  0.0000E+00  0.2000E+01
     -3.202  0.0000E+00  0.2000E+01
     -3.001  0.0000E+00  0.2000E+01
     -2.800  0.0000E+00  0.2000E+01
     -2.599  0.0000E+00  0.2000E+01
     -2.398  0.0000E+00  0.2000E+01
     -2.197  0.0000E+00  0.2000E+01
     -1.996  0.0000E+00  0.2000E+01
     -1.795  0.0000E+00  0.2000E+01
     -1.594  0.0000E+00  0.2000E+01
     -1.393  0.0000E+00  0.2000E+01
     -1.192  0.0000E+00  0.2000E+01
     -0.991  0.3357E-04  0.2000E+01
     -0.790  0.8925E+00  0.2179E+01
     -0.589  0.2329E+00  0.2226E+01
     -0.388  0.6575E+00  0.2358E+01
     -0.187  0.3003E+01  0.2962E+01
      0.014  0.1905E+01  0.3345E+01
      0.215  0.1203E+01  0.3587E+01
      0.416  0.8111E+00  0.3750E+01
      0.617  0.2370E-05  0.3750E+01
      0.818  0.1065E-04  0.3750E+01
      1.019  0.1712E+01  0.4094E+01
      1.220  0.1994E+01  0.4495E+01
      1.421  0.2421E-01  0.4500E+01
      1.622  0.1679E-01  0.4503E+01
      1.824  0.2779E+01  0.5062E+01
      2.025  0.2499E+00  0.5112E+01
      2.226  0.2868E+01  0.5689E+01
      2.427  0.2090E+01  0.6109E+01
      2.628  0.4449E+01  0.7003E+01
      2.829  0.1029E+01  0.7210E+01
      3.030  0.3027E+01  0.7819E+01
      3.231  0.2866E+00  0.7876E+01
      3.432  0.6145E+00  0.8000E+01
      3.633  0.2034E-03  0.8000E+01
      3.834  0.0000E+00  0.8000E+01
      4.035  0.0000E+00  0.8000E+01
      4.236  0.0000E+00  0.8000E+01
      4.437  0.0000E+00  0.8000E+01
      4.638  0.0000E+00  0.8000E+01
      4.839  0.0000E+00  0.8000E+01
      5.040  0.0000E+00  0.8000E+01
      5.241  0.0000E+00  0.8000E+01
      5.442  0.0000E+00  0.8000E+01
      5.643  0.0000E+00  0.8000E+01
      5.844  0.0000E+00  0.8000E+01
      6.045  0.0000E+00  0.8000E+01
      6.246  0.0000E+00  0.8000E+01
      6.447  0.0000E+00  0.8000E+01
      6.648  0.0000E+00  0.8000E+01
      6.849  0.0000E+00  0.8000E+01
      7.050  0.0000E+00  0.8000E+01
      7.252  0.0000E+00  0.8000E+01
      7.453  0.0000E+00  0.8000E+01
      7.654  0.0000E+00  0.8000E+01
      7.855  0.0000E+00  0.8000E+01
      8.056  0.0000E+00  0.8000E+01
      8.257  0.0000E+00  0.8000E+01
      8.458  0.3041E-08  0.8000E+01
      8.659  0.1642E+00  0.8033E+01
      8.860  0.1467E+00  0.8062E+01
      9.061  0.0000E+00  0.8062E+01
      9.262  0.0000E+00  0.8062E+01
      9.463  0.0000E+00  0.8062E+01
      9.664  0.0000E+00  0.8062E+01
      9.865  0.0000E+00  0.8062E+01
     10.066  0.1081E-07  0.8063E+01
     10.267  0.5034E+00  0.8164E+01
     10.468  0.4293E+00  0.8250E+01
     10.669  0.1690E-10  0.8250E+01
     10.870  0.6877E-01  0.8264E+01
     11.071  0.4903E+00  0.8362E+01
     11.272  0.6845E+00  0.8500E+01
     11.473  0.1941E-06  0.8500E+01
     11.674  0.1911E+00  0.8538E+01
     11.875  0.7415E+00  0.8687E+01
     12.076  0.1576E-03  0.8688E+01
     12.277  0.9159E+00  0.8872E+01
     12.478  0.2132E-01  0.8876E+01
     12.680  0.1857E+01  0.9249E+01
     12.881  0.7383E+00  0.9398E+01
     13.082  0.7502E+00  0.9548E+01
     13.283  0.3806E+00  0.9625E+01
     13.484  0.4056E+00  0.9707E+01
     13.685  0.5458E+00  0.9816E+01
     13.886  0.2050E+01  0.1023E+02
     14.087  0.7296E+00  0.1037E+02
     14.288  0.4270E-06  0.1038E+02
     14.489  0.0000E+00  0.1038E+02
     14.690  0.3426E-02  0.1038E+02
     14.891  0.3689E+01  0.1112E+02
     15.092  0.3826E-01  0.1113E+02
     15.293  0.1307E+01  0.1139E+02
     15.494  0.1843E+01  0.1176E+02
     15.695  0.2754E+01  0.1231E+02
     15.896  0.2786E-02  0.1231E+02
     16.097  0.9453E+00  0.1250E+02
     16.298  0.9200E+00  0.1269E+02
     16.499  0.6633E-05  0.1269E+02
     16.700  0.3674E-11  0.1269E+02
     16.901  0.1960E+00  0.1273E+02
     17.102  0.1687E+01  0.1307E+02
     17.303  0.1026E+01  0.1327E+02
     17.504  0.1999E+00  0.1331E+02
     17.705  0.1685E-07  0.1331E+02
     17.906  0.3433E+00  0.1338E+02
     18.108  0.5894E+00  0.1350E+02
     18.309  0.4119E-07  0.1350E+02
     18.510  0.3593E-03  0.1350E+02
     18.711  0.9229E+00  0.1369E+02
     18.912  0.9411E-02  0.1369E+02
     19.113  0.1494E-08  0.1369E+02
     19.314  0.2702E+00  0.1374E+02
     19.515  0.1831E+01  0.1411E+02
     19.716  0.2251E+01  0.1456E+02
     19.917  0.1049E+01  0.1477E+02
     20.118  0.1119E+01  0.1500E+02
     20.319  0.1952E+01  0.1539E+02
     20.520  0.1147E+01  0.1562E+02
     20.721  0.2637E-01  0.1563E+02
     20.922  0.9250E+00  0.1581E+02
     21.123  0.8238E+00  0.1598E+02
     21.324  0.1013E+01  0.1618E+02
     21.525  0.1214E+01  0.1643E+02
     21.726  0.6805E+00  0.1656E+02
     21.927  0.1649E-07  0.1656E+02
     22.128  0.5306E+00  0.1667E+02
     22.329  0.4020E+00  0.1675E+02
     22.530  0.7821E+00  0.1691E+02
     22.731  0.1565E+01  0.1722E+02
     22.932  0.4779E+00  0.1732E+02
     23.133  0.1838E+01  0.1769E+02
     23.334  0.4343E-03  0.1769E+02
     23.536  0.3045E+00  0.1775E+02
     23.737  0.1036E+01  0.1796E+02
     23.938  0.2136E+00  0.1800E+02
     24.139  0.2973E+00  0.1806E+02
     24.340  0.4354E+00  0.1815E+02
     24.541  0.1123E+01  0.1837E+02
     24.742  0.9276E-02  0.1838E+02
     24.943  0.9971E+00  0.1858E+02
     25.144  0.2465E+00  0.1863E+02
     25.345  0.4988E+00  0.1873E+02
     25.546  0.1735E+01  0.1907E+02
     25.747  0.5641E+00  0.1919E+02
     25.948  0.1758E+00  0.1922E+02
     26.149  0.1689E+01  0.1956E+02
     26.350  0.2482E-01  0.1957E+02
     26.551  0.2768E+01  0.2012E+02
     26.752  0.5652E-02  0.2013E+02
     26.953  0.9141E+00  0.2031E+02
     27.154  0.8988E+00  0.2049E+02
     27.355  0.3608E+00  0.2056E+02
     27.556  0.2372E-02  0.2056E+02
     27.757  0.0000E+00  0.2056E+02
     27.958  0.0000E+00  0.2056E+02
     28.159  0.0000E+00  0.2056E+02
     28.360  0.0000E+00  0.2056E+02
     28.561  0.9339E-05  0.2056E+02
     28.762  0.5833E+00  0.2068E+02
     28.964  0.2795E+01  0.2124E+02
     29.165  0.9595E+00  0.2143E+02
     29.366  0.1236E+00  0.2146E+02
     29.567  0.8233E+00  0.2162E+02
     29.768  0.3210E-05  0.2163E+02
     29.969  0.1087E+01  0.2184E+02
     30.170  0.2331E+01  0.2231E+02
     30.371  0.1343E+01  0.2258E+02
     30.572  0.8353E+00  0.2275E+02
     30.773  0.4184E-05  0.2275E+02
     30.974  0.8326E-01  0.2277E+02
     31.175  0.1777E+01  0.2312E+02
     31.376  0.3745E-01  0.2313E+02
     31.577  0.1852E+01  0.2350E+02
     31.778  0.2776E+01  0.2406E+02
     31.979  0.9015E+00  0.2424E+02
     32.180  0.1299E+01  0.2450E+02
     32.381  0.4015E+01  0.2531E+02
     32.582  0.6419E+00  0.2544E+02
     32.783  0.2781E+01  0.2600E+02
     32.984  0.8923E+00  0.2618E+02
     33.185  0.3010E+00  0.2624E+02
     33.386  0.2229E+01  0.2669E+02
     33.587  0.2693E-03  0.2669E+02
     33.788  0.0000E+00  0.2669E+02
     33.989  0.0000E+00  0.2669E+02
     34.190  0.0000E+00  0.2669E+02
     34.392  0.0000E+00  0.2669E+02
     34.593  0.6738E-11  0.2669E+02
     34.794  0.1369E+00  0.2672E+02
     34.995  0.2656E+01  0.2725E+02
     35.196  0.4861E-02  0.2725E+02
     35.397  0.5800E+00  0.2737E+02
     35.598  0.2816E+01  0.2793E+02
     35.799  0.5189E+00  0.2804E+02
     36.000  0.7481E+00  0.2819E+02
     36.201  0.4412E-04  0.2819E+02
     36.402  0.1778E+01  0.2854E+02
     36.603  0.1020E+01  0.2875E+02
     36.804  0.7367E-01  0.2876E+02
     37.005  0.5484E+00  0.2887E+02
     37.206  0.6188E+00  0.2900E+02
     37.407  0.1247E+01  0.2925E+02
     37.608  0.9275E+00  0.2944E+02
     37.809  0.5747E+00  0.2955E+02
     38.010  0.1295E+01  0.2981E+02
     38.211  0.8029E+00  0.2997E+02
     38.412  0.1299E+00  0.3000E+02
     38.613  0.2485E-13  0.3000E+02
     38.814  0.6017E-01  0.3001E+02
     39.015  0.3541E+01  0.3072E+02
     39.216  0.4407E+00  0.3081E+02
     39.417  0.0000E+00  0.3081E+02
     39.618  0.0000E+00  0.3081E+02
     39.820  0.0000E+00  0.3081E+02
     40.021  0.2332E-02  0.3081E+02
     40.222  0.9285E+00  0.3100E+02
     40.423  0.1859E-02  0.3100E+02
     40.624  0.1208E-15  0.3100E+02
     40.825  0.2791E-02  0.3100E+02
     41.026  0.1565E+01  0.3132E+02
     41.227  0.3406E+01  0.3200E+02
     41.428  0.4143E-03  0.3200E+02
     41.629  0.0000E+00  0.3200E+02
     41.830  0.0000E+00  0.3200E+02
     42.031  0.0000E+00  0.3200E+02
     42.232  0.0000E+00  0.3200E+02
     42.433  0.0000E+00  0.3200E+02
     42.634  0.0000E+00  0.3200E+02
     42.835  0.0000E+00  0.3200E+02
     43.036  0.0000E+00  0.3200E+02
     43.237  0.0000E+00  0.3200E+02
     43.438  0.0000E+00  0.3200E+02
     43.639  0.0000E+00  0.3200E+02
     43.840  0.0000E+00  0.3200E+02
