# ['Ni']

107 atoms
1 atom types

    0.0000    10.5381 xlo xhi
    0.0000    10.5381 ylo yhi
    0.0000    10.5381 zlo zhi

    0.0000    -0.0000    -0.0000 xy xz yz

Atoms

1 1     1.7563     1.7563     0.0000
2 1     1.7563     0.0000     1.7563
3 1     0.0000     1.7563     1.7563
4 1     0.0000     0.0000     3.5127
5 1     1.7563     1.7563     3.5127
6 1     1.7563     0.0000     5.2690
7 1     0.0000     1.7563     5.2690
8 1     0.0000     0.0000     7.0254
9 1     1.7563     1.7563     7.0254
10 1     1.7563     0.0000     8.7817
11 1     0.0000     1.7563     8.7817
12 1     0.0000     3.5127     0.0000
13 1     1.7563     5.2690     0.0000
14 1     1.7563     3.5127     1.7563
15 1     0.0000     5.2690     1.7563
16 1     0.0000     3.5127     3.5127
17 1     1.7563     5.2690     3.5127
18 1     1.7563     3.5127     5.2690
19 1     0.0000     5.2690     5.2690
20 1     0.0000     3.5127     7.0254
21 1     1.7563     5.2690     7.0254
22 1     1.7563     3.5127     8.7817
23 1     0.0000     5.2690     8.7817
24 1     0.0000     7.0254     0.0000
25 1     1.7563     8.7817     0.0000
26 1     1.7563     7.0254     1.7563
27 1     0.0000     8.7817     1.7563
28 1     0.0000     7.0254     3.5127
29 1     1.7563     8.7817     3.5127
30 1     1.7563     7.0254     5.2690
31 1     0.0000     8.7817     5.2690
32 1     0.0000     7.0254     7.0254
33 1     1.7563     8.7817     7.0254
34 1     1.7563     7.0254     8.7817
35 1     0.0000     8.7817     8.7817
36 1     3.5127     0.0000     0.0000
37 1     5.2690     1.7563     0.0000
38 1     5.2690     0.0000     1.7563
39 1     3.5127     1.7563     1.7563
40 1     3.5127     0.0000     3.5127
41 1     5.2690     1.7563     3.5127
42 1     5.2690     0.0000     5.2690
43 1     3.5127     1.7563     5.2690
44 1     3.5127     0.0000     7.0254
45 1     5.2690     1.7563     7.0254
46 1     5.2690     0.0000     8.7817
47 1     3.5127     1.7563     8.7817
48 1     3.5127     3.5127     0.0000
49 1     5.2690     5.2690     0.0000
50 1     5.2690     3.5127     1.7563
51 1     3.5127     5.2690     1.7563
52 1     3.5127     3.5127     3.5127
53 1     5.2690     5.2690     3.5127
54 1     5.2690     3.5127     5.2690
55 1     3.5127     5.2690     5.2690
56 1     3.5127     3.5127     7.0254
57 1     5.2690     5.2690     7.0254
58 1     5.2690     3.5127     8.7817
59 1     3.5127     5.2690     8.7817
60 1     3.5127     7.0254     0.0000
61 1     5.2690     8.7817     0.0000
62 1     5.2690     7.0254     1.7563
63 1     3.5127     8.7817     1.7563
64 1     3.5127     7.0254     3.5127
65 1     5.2690     8.7817     3.5127
66 1     5.2690     7.0254     5.2690
67 1     3.5127     8.7817     5.2690
68 1     3.5127     7.0254     7.0254
69 1     5.2690     8.7817     7.0254
70 1     5.2690     7.0254     8.7817
71 1     3.5127     8.7817     8.7817
72 1     7.0254     0.0000     0.0000
73 1     8.7817     1.7563     0.0000
74 1     8.7817     0.0000     1.7563
75 1     7.0254     1.7563     1.7563
76 1     7.0254     0.0000     3.5127
77 1     8.7817     1.7563     3.5127
78 1     8.7817     0.0000     5.2690
79 1     7.0254     1.7563     5.2690
80 1     7.0254     0.0000     7.0254
81 1     8.7817     1.7563     7.0254
82 1     8.7817     0.0000     8.7817
83 1     7.0254     1.7563     8.7817
84 1     7.0254     3.5127     0.0000
85 1     8.7817     5.2690     0.0000
86 1     8.7817     3.5127     1.7563
87 1     7.0254     5.2690     1.7563
88 1     7.0254     3.5127     3.5127
89 1     8.7817     5.2690     3.5127
90 1     8.7817     3.5127     5.2690
91 1     7.0254     5.2690     5.2690
92 1     7.0254     3.5127     7.0254
93 1     8.7817     5.2690     7.0254
94 1     8.7817     3.5127     8.7817
95 1     7.0254     5.2690     8.7817
96 1     7.0254     7.0254     0.0000
97 1     8.7817     8.7817     0.0000
98 1     8.7817     7.0254     1.7563
99 1     7.0254     8.7817     1.7563
100 1     7.0254     7.0254     3.5127
101 1     8.7817     8.7817     3.5127
102 1     8.7817     7.0254     5.2690
103 1     7.0254     8.7817     5.2690
104 1     7.0254     7.0254     7.0254
105 1     8.7817     8.7817     7.0254
106 1     8.7817     7.0254     8.7817
107 1     7.0254     8.7817     8.7817
