LAMMPS (11 Aug 2017)
Reading data file ...
  triclinic box = (0 0 0) to (3.4851 2.4947 2.4947) with tilt (0 0 0)
  1 by 1 by 1 MPI processor grid
  reading atoms ...
  2 atoms
2 atoms in group Ni
Neighbor list info ...
  update every 1 steps, delay 0 steps, check yes
  max neighbors/atom: 2000, page size: 100000
  master list distance cutoff = 5.64464
  ghost atom cutoff = 5.64464
  binsize = 2.82232, bins = 2 1 1
  1 neighbor lists, perpetual/occasional/extra = 1 0 0
  (1) pair eam/alloy, perpetual
      attributes: half, newton on
      pair build: half/bin/newton/tri
      stencil: half/bin/3d/newton/tri
      bin: standard
Setting up cg style minimization ...
  Unit style    : metal
  Current step  : 0
WARNING: Energy due to 3 extra global DOFs will be included in minimizer energies
Per MPI rank memory allocation (min/avg/max) = 4.229 | 4.229 | 4.229 Mbytes
Step PotEng Xhi Xlo Yhi Ylo Zhi Xy Xz Yz Press Pxx Pyy Pzz Pxy Pxz Pyz c_eatoms 
       0   -17.960474       3.4851            0       2.4947            0       2.4947            0            0            0   -621854.05   -618348.84   -623606.66   -623606.66 -0.0041844961 -0.0041844962 0.0018939756   -17.960474 
      10   -18.205541    3.4678361  0.017263904    2.4822265    0.0124735    2.4822265            0            0            0   -599526.33   -595404.07   -601587.46   -601587.46 -0.0046086381 -0.0046086381 0.0020843992   -18.205541 
      20   -18.435239    3.4506093  0.034490725     2.469753     0.024947     2.469753            0            0            0   -569065.88    -564284.4   -571456.63   -571456.63 -0.0050160701 -0.0050160703 0.0022727783   -18.435239 
      30    -18.64665    3.4334288  0.051671152    2.4572795    0.0374205    2.4572795            0            0            0   -529177.66   -523697.48   -531917.75   -531917.75 -0.0054231449 -0.0054231449 0.0024721374    -18.64665 
      40    -18.83654    3.4163089  0.068791101     2.444806     0.049894     2.444806            0            0            0   -478389.73   -472177.91   -481495.64   -481495.64 -0.0057727313 -0.0057727316 0.0026600659    -18.83654 
      50   -19.001321    3.3992723  0.085827667    2.4323325    0.0623675    2.4323325            0            0            0   -415040.96   -408078.17   -418522.36   -418522.36 -0.006044521 -0.0060445213 0.0028338807   -19.001321 
      60   -19.137039    3.3823605   0.10273951     2.419859     0.074841     2.419859            0            0            0   -337285.11   -329580.17   -341137.58   -341137.58 -0.0061422081 -0.0061422081  0.002960346   -19.137039 
      70   -19.239609    3.3656372   0.11946285    2.4073855    0.0873145    2.4073855            0            0            0   -245313.89   -237818.61   -249061.53   -249061.53 -0.0059658912 -0.0059658912 0.0030135179   -19.239609 
      80   -19.305695    3.3492714   0.13582862     2.394912     0.099788     2.394912            0            0            0   -138353.78   -130302.36   -142379.49   -142379.49 -0.0051809596 -0.0051809601 0.0028601717   -19.305695 
      90    -19.33114    3.3348381   0.15026186    2.3824385    0.1122615    2.3824385            0            0            0   -15096.582   -7653.7999   -18817.973   -18817.973 -0.0024792964 -0.0024792969 0.0018948731    -19.33114 
     100   -19.331724    3.3416166   0.14348344    2.3780608   0.11663922    2.3780608            0            0            0 -0.00087674863 -0.022130544 0.0097501484 0.0097501499 2.2879953e-09 1.7673166e-09 8.7006356e-10   -19.331724 
     105   -19.331724    3.3416165   0.14348346    2.3780608   0.11663921    2.3780608            0            0            0 3.3190106e-06 4.1564499e-06 2.900573e-06 2.9000088e-06 4.6629969e-10 -5.7097921e-11 1.6313692e-11   -19.331724 
Loop time of 0.00144196 on 1 procs for 105 steps with 2 atoms

100.0% CPU use with 1 MPI tasks x no OpenMP threads

Minimization stats:
  Stopping criterion = energy tolerance
  Energy initial, next-to-last, final = 
        -17.9604740109     -19.3317238024     -19.3317238024
  Force two-norm initial, final = 14.5812 7.21108e-11
  Force max component initial, final = 8.44213 4.62371e-11
  Final line search alpha, max atom move = 1 4.62371e-11
  Iterations, force evaluations = 105 115

MPI task timing breakdown:
Section |  min time  |  avg time  |  max time  |%varavg| %total
---------------------------------------------------------------
Pair    | 0.00063801 | 0.00063801 | 0.00063801 |   0.0 | 44.25
Neigh   | 0          | 0          | 0          |   0.0 |  0.00
Comm    | 0.00017834 | 0.00017834 | 0.00017834 |   0.0 | 12.37
Output  | 0.00010848 | 0.00010848 | 0.00010848 |   0.0 |  7.52
Modify  | 0          | 0          | 0          |   0.0 |  0.00
Other   |            | 0.0005171  |            |       | 35.86

Nlocal:    2 ave 2 max 2 min
Histogram: 1 0 0 0 0 0 0 0 0 0
Nghost:    267 ave 267 max 267 min
Histogram: 1 0 0 0 0 0 0 0 0 0
Neighs:    78 ave 78 max 78 min
Histogram: 1 0 0 0 0 0 0 0 0 0

Total # of neighbors = 78
Ave neighs/atom = 39
Neighbor list builds = 0
Dangerous builds = 0
pypospack:output_section:begin
tot_energy = -19.3317238024487
num_atoms = 2
a11 = 3.19813307296259
a22 = 2.26142158303079
a33 = 2.26142158303079
a12 = 0
a13 = 0
a23 = 0
tot_press = 3.31901060309825e-06
pxx = 4.1564499481824e-06
pyy = 2.90057302147483e-06
pzz = 2.90000883963751e-06
pxy = 4.66299687226074e-10
pxz = -5.70979208848254e-11
pyz = 1.63136916813787e-11
pypospack:output_section:done
pypospack:lammps_sim:done
Total wall time: 0:00:00
