# ['Ni']

10 atoms
1 atom types

    0.0000     3.2188 xlo xhi
    0.0000     2.3041 ylo yhi
    0.0000    23.0413 zlo zhi

    0.0000     0.0000     0.0000 xy xz yz

Atoms

1 1     0.0000     0.0000     0.0000
2 1     1.6094     1.1521     1.1521
3 1     0.0000     0.0000     2.3041
4 1     1.6094     1.1521     3.4562
5 1     0.0000     0.0000     4.6083
6 1     1.6094     1.1521     5.7603
7 1     0.0000     0.0000     6.9124
8 1     1.6094     1.1521     8.0645
9 1     0.0000     0.0000     9.2165
10 1     1.6094     1.1521    10.3686
