# ['Ni']

18 atoms
1 atom types

    0.0000     2.5320 xlo xhi
    0.0000     4.3855 ylo yhi
    0.0000    37.2061 zlo zhi

    0.0000     0.0000    -0.0004 xy xz yz

Atoms

1 1     0.0000     0.0000     0.0000
2 1     1.2660     0.7309     2.0670
3 1     0.0000     1.4618     4.1340
4 1     1.2660     2.1928     0.0000
5 1     0.0000     2.9237     2.0670
6 1     1.2660     3.6546     4.1340
7 1     0.0000     0.0000     6.2010
8 1     1.2660     0.7309     8.2680
9 1     0.0000     1.4618    10.3350
10 1     1.2660     2.1928     6.2010
11 1     0.0000     2.9237     8.2680
12 1     1.2660     3.6546    10.3350
13 1     0.0000     0.0000    12.4020
14 1     1.2660     0.7309    14.4690
15 1     0.0000     1.4618    16.5360
16 1     1.2660     2.1928    12.4020
17 1     0.0000     2.9237    14.4690
18 1     1.2660     3.6546    16.5360
