# ['Ni']

28 atoms
1 atom types

    0.0000     2.4847 xlo xhi
    0.0000     4.3037 ylo yhi
    0.0000    28.4029 zlo zhi

    0.0000     0.0000     0.0000 xy xz yz

Atoms

1 1     0.0000     0.0000     0.0000
2 1     1.2424     2.1518     0.0000
3 1     1.2424     0.7173     2.0288
4 1     0.0000     2.8691     2.0288
5 1     0.0000     1.4346     4.0576
6 1     1.2424     3.5864     4.0576
7 1     0.0000     0.0000     6.0863
8 1     1.2424     2.1518     6.0863
9 1     1.2424     0.7173     8.1151
10 1     0.0000     2.8691     8.1151
11 1     0.0000     1.4346    10.1439
12 1     1.2424     3.5864    10.1439
13 1     0.0000     0.0000    12.1727
14 1     1.2424     2.1518    12.1727
15 1     0.0000     1.4346    14.2015
16 1     1.2424     3.5864    14.2015
17 1     0.0000     0.0000    16.2303
18 1     1.2424     2.1518    16.2303
19 1     1.2424     0.7173    18.2590
20 1     0.0000     2.8691    18.2590
21 1     0.0000     1.4346    20.2878
22 1     1.2424     3.5864    20.2878
23 1     0.0000     0.0000    22.3166
24 1     1.2424     2.1518    22.3166
25 1     1.2424     0.7173    24.3454
26 1     0.0000     2.8691    24.3454
27 1     0.0000     1.4346    26.3741
28 1     1.2424     3.5864    26.3741
