LAMMPS (11 Aug 2017)
# ---- initialize simulations
clear
units metal
dimension 3
boundary p p p
atom_style atomic
atom_modify map array
# ---- create atoms
read_data /home/sullberg/repos/pypospack/examples/Ni__eam__born_exp_rose/01_preconditioning_3.5NN/rank_34/Ni_fcc_111_unit.lmps_min_all/lammps.structure
  triclinic box = (0 0 0) to (2.4819 4.2987 6.0783) with tilt (0 0 0)
  1 by 1 by 1 MPI processor grid
  reading atoms ...
  6 atoms
# ---- define interatomic potential
include potential.mod
mass 1 58.6934

group Ni type 1
6 atoms in group Ni

pair_style eam/alloy
pair_coeff * * /home/sullberg/repos/pypospack/examples/Ni__eam__born_exp_rose/01_preconditioning_3.5NN/rank_34/Ni_fcc_111_unit.lmps_min_all/Ni.eam.alloy Ni

neighbor 1.0 bin
neigh_modify every 1 delay 0 check yes
# ---- define settings
compute eng all pe/atom
compute eatoms all reduce sum c_eng
# ---- run minimization
reset_timestep 0
fix 1 all box/relax aniso 0.0 vmax 0.001
thermo 10
thermo_style custom step pe xhi xlo yhi ylo zhi xy xz yz press pxx pyy pzz pxy pxz pyz c_eatoms
min_style cg
minimize 1e-25 1e-25 5000 10000
Neighbor list info ...
  update every 1 steps, delay 0 steps, check yes
  max neighbors/atom: 2000, page size: 100000
  master list distance cutoff = 11
  ghost atom cutoff = 11
  binsize = 5.5, bins = 1 1 2
  1 neighbor lists, perpetual/occasional/extra = 1 0 0
  (1) pair eam/alloy, perpetual
      attributes: half, newton on
      pair build: half/bin/newton/tri
      stencil: half/bin/3d/newton/tri
      bin: standard
Per MPI rank memory allocation (min/avg/max) = 4.298 | 4.298 | 4.298 Mbytes
Step PotEng Xhi Xlo Yhi Ylo Zhi Xy Xz Yz Press Pxx Pyy Pzz Pxy Pxz Pyz c_eatoms 
       0   -26.868547       2.4819            0       4.2987            0       6.0783            0            0            0    54843.766    54905.823    54893.103    54732.371 0.0012102857 0.00045330604    3.4328924   -26.868547 
      10   -26.898687    2.4933893 -0.011489259    4.3185793 -0.019879299    6.1060185            0            0            0   0.79746845    108.74568    89.481034    -195.8343 0.0015175816 0.00061525428    5.2029923   -26.898687 
      20   -26.901783    2.5000962 -0.018196207    4.3285813 -0.029881282     6.075627            0            0            0    88.140206    5190.3816    4659.9648   -9585.9257  0.039826485  0.025187562    154.95199   -26.901783 
      30   -26.910723     2.506712 -0.024812036    4.3389914 -0.040291358    6.0452355            0            0            0    340.81448    10137.475    9298.2852   -18413.316  0.053407219   0.03740958    264.82086   -26.910723 
      40   -26.925353    2.5133549 -0.031454888    4.3496196  -0.05091964     6.014844            0            0            0    755.72473    15002.485     13923.66   -26658.971  0.063672487  0.048480206    367.48377   -26.925353 
      50   -26.945503    2.5200497 -0.038149723    4.3604419 -0.061741938    5.9844525            0            0            0    1331.5707    19783.841    18510.274   -34299.403  0.072459845  0.059602564    467.95926   -26.945503 
      60   -26.970987    2.5268102 -0.044910184    4.3714519 -0.072751914     5.954061            0            0            0     2053.454    24462.541    23027.786   -41329.965  0.080327235  0.070867003    568.28646   -26.970987 
      70   -27.001593    2.5336417 -0.051741689    4.3826422 -0.083942206    5.9236695            0            0            0     2911.446    29022.077    27452.965   -47740.703  0.087669863  0.082706624    669.48362   -27.001593 
      80   -27.037097    2.5405507 -0.058650665    4.3940129 -0.095312877     5.893278            0            0            0    3893.0089    33443.057    31761.011   -53525.041  0.094629442  0.095192877    772.00902   -27.037097 
      90   -27.077251    2.5475418  -0.06564178     4.405564  -0.10686401    5.8628865            0            0            0    5002.7785    37721.345    35945.879   -58658.889   0.10187555   0.10851758    876.43921   -27.077251 
     100   -27.121813    2.5546292 -0.072729208    4.4173143  -0.11861428     5.832495            0            0            0    6237.9955    41848.272    39995.417   -63129.702   0.10888195   0.12286517    983.01065   -27.121813 
     110   -27.170504    2.5618162 -0.079916156    4.4292646  -0.13056461    5.8021035            0            0            0    7549.9361    45770.025    43853.571   -66973.788   0.11604323   0.13796064    1091.8062   -27.170504 
     120   -27.223032    2.5691085 -0.087208493    4.4414212  -0.14272123     5.771712            0            0            0    8957.3221    49498.148    47529.437   -70155.618   0.12380279   0.15458239    1202.9101   -27.223032 
     130   -27.279106    2.5765179  -0.09461792    4.4538008  -0.15510079    5.7413205            0            0            0    10426.874    52993.801    50983.299    -72696.48   0.13166745    0.1721707    1316.3206   -27.279106 
     140   -27.338391    2.5840467  -0.10214669    4.4664045  -0.16770452     5.710929            0            0            0     11948.44    56243.826    54200.585    -74599.09   0.14005613    0.1908552    1432.1722   -27.338391 
     150   -27.400597    2.5917157  -0.10981569    4.4792657  -0.18056566    5.6805375            0            0            0    13593.178    59311.999    57243.655   -75776.119   0.14924237    0.2117371     1550.294   -27.400597 
     160   -27.465374    2.5995312  -0.11763118    4.4923926   -0.1936926     5.650146            0            0            0    15132.021    61973.916    59886.475   -76464.326   0.15891964   0.23386018     1670.946   -27.465374 
     170   -27.532335    2.6074935  -0.12559351    4.5057837  -0.20708369    5.6197545            0            0            0    16683.637    64341.899    62240.396   -76531.384   0.16953916   0.25786653    1793.9532   -27.532335 
     180   -27.601101    2.6156105   -0.1337105      4.51945  -0.22075004     5.589363            0            0            0    18215.936    66383.589    64271.917   -76007.698   0.18094593   0.28346183    1919.3448   -27.601101 
     190   -27.671318    2.6239006  -0.14200065    4.5334211   -0.2347211    5.5589715            0            0            0    19702.411    68071.773    65952.794   -74917.334   0.19399797   0.31199627    2047.1589   -27.671318 
     200   -27.742576    2.6323717  -0.15047169    4.5477076  -0.24900763      5.52858            0            0            0     21101.55    69367.538    67241.762   -73304.651   0.20822845   0.34287397    2177.5124   -27.742576 
     210   -27.814491    2.6410423  -0.15914234    4.5623389  -0.26363887    5.4981885            0            0            0    22390.093    70247.694    68116.776   -71194.192   0.22428931   0.37685975    2310.5656   -27.814491 
     220   -27.886631    2.6499223  -0.16802228    4.5773287  -0.27862869     5.467797            0            0            0    23569.349    70716.037    68579.061   -68587.052   0.24225788   0.41413008    2446.2259   -27.886631 
     230   -27.958583    2.6590321  -0.17713212    4.5927088  -0.29400882    5.4374055            0            0            0    24562.316    70699.474    68555.727   -65568.252   0.26278874   0.45558082    2585.3262   -27.958583 
     240    -28.02988    2.6683827  -0.18648266     4.608494  -0.30979396     5.407014            0            0            0    25355.153    70185.054     68032.37   -62151.965   0.28627153   0.50179691    2727.9931    -28.02988 
     250   -28.100102    2.6780041  -0.19610405    4.6247308  -0.32603078    5.3766225            0            0            0    25978.438    69208.726      67043.5   -58316.911   0.31335244   0.55379454    2874.7361   -28.100102 
     260   -28.168764    2.6879141  -0.20601409    4.6414435  -0.34274352     5.346231            0            0            0    26264.652    67615.368     65432.04   -54253.451   0.34492152   0.61238876    3026.8066   -28.168764 
     270   -28.235314    2.6981188  -0.21621878    4.6586343  -0.35993428    5.3158395            0            0            0    26247.787    65447.987    63239.295   -49943.921   0.38224988   0.68012043    3185.4702   -28.235314 
     280    -28.29923    2.7086385  -0.22673846    4.6763274  -0.37762742     5.285448            0            0            0    25902.457    62690.166    60447.949   -45430.745   0.42712546   0.75970234    3352.6146    -28.29923 
     290   -28.359972    2.7194951   -0.2375951    4.6945461  -0.39584606    5.2550565            0            0            0    25197.362    59322.723    57035.627   -40766.264    0.4817219    0.8534718    3531.0505   -28.359972 
     300   -28.416972    2.7307125  -0.24881252    4.7133105  -0.41461052     5.224665            0            0            0    24107.903    55334.782    52988.032   -35999.105   0.54928323   0.96682011    3725.0195   -28.416972 
     310   -28.469647    2.7423181  -0.26041811    4.7326372  -0.43393717    5.1942735            0            0            0    22608.748    50718.089    48290.887   -31182.732   0.63628392    1.1091086    3940.6369   -28.469647 
     320   -28.517381    2.7543411  -0.27244111    4.7525293  -0.45382933     5.163882            0            0            0    20677.526    45467.699    42934.296   -26369.417   0.75139115    1.2932893    4188.7698   -28.517381 
     330   -28.559235     2.766721  -0.28482101    4.7728143  -0.47411433    5.1337262            0            0            0    18322.241    39639.868     36963.95   -21637.093   0.90950339    1.5411517    4483.8047   -28.559235 
     340   -28.593798    2.7791305  -0.29723051    4.7928455  -0.49414547    5.1046406            0            0            0    15609.736    33437.504    30571.132   -17179.426    1.1337066    1.8859077    4843.1297   -28.593798 
     350   -28.621061      2.79154  -0.30964001    4.8123915  -0.51369149    5.0767308            0            0            0    12676.763    27061.902    23929.605   -12961.216     1.473789    2.4007145    5308.1014   -28.621061 
     360   -28.641191    2.8039495  -0.32204951     4.831093  -0.53239298    5.0502561            0            0            0    9514.2359    20591.009    17069.979   -9118.2809    2.0453687    3.2537725    5961.1665   -28.641191 
     370   -28.654553     2.816359  -0.33445901    4.8481085  -0.54940849    5.0255463            0            0            0     6279.025    14322.999    10171.622   -5657.5456    3.1786632    4.9243385    6998.0246   -28.654553 
     380   -28.661889    2.8287685  -0.34686851    4.8610768  -0.56237684    5.0039963            0            0            0    3230.1984    8904.5695    3547.4053   -2761.3797    6.1279743    9.2237223    8968.1265   -28.661889 
     390   -28.665534     2.841178  -0.35927801    4.8633112  -0.56461124    4.9895258            0            0            0    1095.5976    6109.1423   -1963.0093   -859.34021    17.074245    25.038774    13437.384   -28.665534 
     400   -28.670404    2.8535875  -0.37168751    4.8502884  -0.55158845    4.9847004            0            0            0    396.85434    7149.9725   -5763.3242   -196.08531    53.912051    78.076949    21493.814   -28.670404 
     410    -28.67899     2.865997  -0.38409701    4.8310616  -0.53236159    4.9839202            0            0            0    342.10794    9814.7571   -8778.2438   -10.189499    129.87979    187.59475    31043.223    -28.67899 
     420   -28.691283    2.8784065  -0.39650651    4.8106504  -0.51195038    4.9841041            0            0            0     464.6797    12858.911   -11548.572    83.699896    248.19994    358.70287    40903.741   -28.691283 
     430   -28.707057     2.890816  -0.40891601    4.7900671  -0.49136709    4.9846175            0            0            0    672.20539    16038.759   -14179.128    156.98454    409.67532    593.03086    50826.073   -28.707057 
     440   -28.726073    2.9032255  -0.42132551    4.7695614  -0.47086142    4.9852918            0            0            0    945.82786    19308.958    -16694.31    222.83618    613.70799    890.08767    60739.576   -28.726073 
     450    -28.74808     2.915635  -0.43373501    4.7492344  -0.45053441    4.9860589            0            0            0    1284.1473    22666.637   -19097.352    283.15772    858.43917    1247.4288    70607.637    -28.74808 
     460   -28.772823    2.9280445  -0.44614451    4.7291453   -0.4304453    4.9868732            0            0            0    1686.0687    26114.504   -21390.764    334.46595    1140.9433    1660.9571    80403.971   -28.772823 
     470   -28.800062     2.940454  -0.45855401    4.7093309  -0.41063089    4.9876933            0            0            0    2145.5355     29653.36   -23584.074    367.32062    1457.7821    2125.3675    90109.272   -28.800062 
     480   -28.829578    2.9528635  -0.47096351      4.68981  -0.39111004    4.9884737            0            0            0    2663.0839     33291.85   -25682.326    379.72764    1805.1034    2635.1279    99710.873   -28.829578 
     490   -28.861169     2.965273  -0.48337301    4.6706056   -0.3719056    4.9891889            0            0            0    3253.1986    37051.543   -27673.837    381.88965    2178.3817    3183.0264    109193.08   -28.861169 
     500   -28.894645    2.9776825  -0.49578251    4.6517503  -0.35305035    4.9898326            0            0            0    3914.8737    40936.355   -29559.422     367.6878    2572.7379    3761.6749    118536.32   -28.894645 
     510    -28.92985     2.990092  -0.50819201    4.6332558  -0.33455585     4.990375            0            0            0    4630.9506    44934.236   -31359.922    318.53723    2984.0602    4364.1979    127733.65    -28.92985 
     520   -28.966656    3.0025015  -0.52060151     4.615126  -0.31642602    4.9907883            0            0            0    5414.0077    49063.008   -33067.984    246.99928    3407.7484    4983.2968    136779.02   -28.966656 
     530   -29.004954     3.014911  -0.53301101    4.5973679   -0.2986679    4.9910581            0            0            0    6257.6662    53320.145   -34693.086    145.93986    3839.4167    5612.0501    145666.85   -29.004954 
     540   -29.044641    3.0273205  -0.54542051    4.5799978  -0.28129782    4.9911912            0            0            0     7211.828    57754.605   -36182.615     63.49446    4274.5317    6243.9891     154378.8   -29.044641 
     550   -29.085624      3.03973  -0.55783001    4.5630345  -0.26433446    4.9911985            0            0            0    8197.0051    62287.426   -37616.135   -80.275576    4709.3485    6872.5884    162911.18   -29.085624 
     560   -29.127871    3.0521395  -0.57023951    4.5464474  -0.24774736    4.9910276            0            0            0    9233.3668    66944.353   -38984.326   -259.92687    5140.8034     7492.705    171277.95   -29.127871 
     570   -29.171336     3.064549  -0.58264901    4.5302363  -0.23153627    4.9906809            0            0            0    10335.673    71739.168   -40272.531    -459.6184    5565.7885    8099.3659    179474.44   -29.171336 
     580   -29.215989    3.0769585  -0.59505851    4.5143914  -0.21569145    4.9901494            0            0            0    11489.608    76659.477   -41499.113   -691.54136    5981.7395    8688.4738    187506.58   -29.215989 
     590   -29.261795     3.089368  -0.60746801    4.4989162  -0.20021617     4.989448            0            0            0    12735.756    81741.506   -42620.269   -913.96934    6385.5928     9255.665    195362.43   -29.261795 
     600   -29.308733    3.1017775  -0.61987751    4.4838062  -0.18510622    4.9885801            0            0            0    14019.433    86931.437   -43693.688   -1179.4501    6775.5397    9798.0911    203050.62   -29.308733 
     610   -29.356793     3.114187  -0.63228701    4.4690488  -0.17034883    4.9875397            0            0            0    15366.524     92254.23   -44696.078   -1458.5781    7149.7426    10312.945    210572.78   -29.356793 
     620   -29.405956    3.1265965  -0.64469651    4.4546438  -0.15594385    4.9863425            0            0            0    16788.501    97716.174   -45612.249   -1738.4218    7506.3975    10797.766    217922.83   -29.405956 
     630   -29.456223     3.139006  -0.65710601    4.4405765   -0.1418765    4.9849801            0            0            0    18236.288    103270.85   -46497.172   -2064.8177    7844.6571    11251.424    225117.95   -29.456223 
     640    -29.50758    3.1514155  -0.66951551    4.4268446  -0.12814456    4.9834681            0            0            0    19780.307     108980.8   -47276.138   -2363.7371    8162.9354    11671.695    232141.86    -29.50758 
     650   -29.560012     3.163825  -0.68192501    4.4134475  -0.11474754     4.981824            0            0            0    21401.947    114822.65   -47965.699   -2651.1065    8460.2025    12057.829    238992.72   -29.560012 
     660   -29.613507    3.1762345  -0.69433451    4.4003824   -0.1016824    4.9800606            0            0            0     22983.01    120681.65   -48688.984   -3043.6406    8736.6436    12410.155    245692.58   -29.613507 
     670   -29.668117     3.188644  -0.70674401    4.3876008 -0.088900776    4.9781189            0            0            0    24643.998    126683.54   -49337.754   -3413.7904    8991.9003    12728.374    252254.43   -29.668117 
     680   -29.723819    3.2010535  -0.71915351    4.3751118 -0.076411754    4.9760376            0            0            0    26338.492     132775.9   -49953.277   -3807.1487    9225.5178    13012.314    258674.69   -29.723819 
     690   -29.780615     3.213463  -0.73156301    4.3629055 -0.064205476     4.973822            0            0            0     28101.39    138988.85   -50499.228   -4185.4494    9437.3397    13261.898    264949.53   -29.780615 
     700   -29.838501    3.2258725  -0.74397251     4.350975  -0.05227497    4.9714814            0            0            0    29909.984    145297.54   -50998.768   -4568.8239     9627.269    13477.787    271084.99   -29.838501 
     710    -29.89748     3.238282  -0.75638201    4.3393103 -0.040610263    4.9690197            0            0            0     31767.54     151702.7   -51449.282   -4950.8002    9795.3137    13660.622     277084.2    -29.89748 
     720    -29.95749    3.2506915  -0.76879151     4.327939 -0.029238956    4.9665045            0            0            0    33726.081    158229.68   -51777.012   -5274.4203    9940.8657    13809.837    282901.56    -29.95749 
     730    -30.01861     3.263101  -0.78120101    4.3168014  -0.01810141    4.9638501            0            0            0     35634.67    164766.41   -52170.512   -5691.8915    10066.495    13929.198    288627.04    -30.01861 
     740   -30.080808    3.2755105  -0.79361051    4.3059093 -0.0072092514    4.9610989            0            0            0    37570.735    171369.53   -52536.498   -6120.8257    10171.565    14018.417    294225.16   -30.080808 
     750   -30.144102      3.28792  -0.80602001    4.2952434 0.0034566303    4.9582375            0            0            0    39565.883    178071.24   -52847.169   -6526.4227     10256.42    14078.552    299702.08   -30.144102 
     760   -30.208476    3.3003295  -0.81842951    4.2848031  0.013896921    4.9552845            0            0            0      41595.5    184842.76   -53125.063   -6931.1942    10321.744    14110.841    305058.94   -30.208476 
     770   -30.273908     3.312739  -0.83083901    4.2745931  0.024106885    4.9522671            0            0            0    43792.332    191790.24   -53219.535   -7193.7114    10366.686    14114.675    310250.22   -30.273908 
     780   -30.340376    3.3251485  -0.84324851    4.2646134  0.034086634    4.9492009            0            0            0    45834.203    198619.58   -53472.287   -7644.6832    10394.776    14095.125    315353.25   -30.340376 
     790   -30.407933     3.337558  -0.85565801    4.2548249  0.043875103    4.9460339            0            0            0    47925.736     205531.6    -53682.91   -8071.4836    10405.399    14051.758    320353.54   -30.407933 
     800   -30.476566    3.3499675  -0.86806751    4.2452278  0.053472214    4.9427847            0            0            0    50065.788    212517.76   -53847.744   -8472.6562     10399.08    13985.674    325245.44   -30.476566 
     810   -30.546264     3.362377  -0.88047701    4.2358185  0.062881457    4.9394641            0            0            0    52230.925    219552.53   -53989.693   -8870.0617    10376.767    13898.405    330033.45   -30.546264 
     820   -30.616958    3.3747865  -0.89288651    4.2266234  0.072076613    4.9361356            0            0            0    54580.621    226745.82   -53913.843   -9090.1194    10337.253    13788.877    334636.84   -30.616958 
     830   -30.688703     3.387196  -0.90529601    4.2176032  0.081096832    4.9327405            0            0            0    56748.026    233802.54   -54039.914   -9518.5439    10285.254    13663.443    339198.57   -30.688703 
     840   -30.761499    3.3996055  -0.91770551    4.2087485  0.089951456     4.929278            0            0            0    58960.238     240919.3    -54122.74   -9915.8455    10219.385    13520.744     343661.8   -30.761499 
     850   -30.835333     3.412015  -0.93011501     4.200059  0.098640983    4.9257623            0            0            0    61259.847    248125.11   -54111.514   -10234.059    10139.973    13361.423    348009.26   -30.835333 
     860   -30.910143    3.4244245  -0.94252451    4.1915546   0.10714542    4.9222437            0            0            0     63662.43    255406.78   -53969.888   -10449.605    10047.312    13186.234    352205.49   -30.910143 
     870   -30.985972     3.436834  -0.95493401    4.1832046   0.11549543     4.918677            0            0            0    65905.184    262561.24   -54002.957   -10842.735    9944.9782    12999.837       356361   -30.985972 
     880   -31.062822    3.4492435  -0.96734351    4.1749989   0.12370111    4.9150572            0            0            0    68180.221    269753.58   -54003.758   -11209.157    9832.0046    12801.219    360427.96   -31.062822 
     890    -31.14066     3.461653  -0.97975301    4.1669452    0.1317548    4.9114119            0            0            0     70665.82    277116.96   -53765.304   -11354.191    9707.3482    12589.292    364337.79    -31.14066 
     900   -31.219431    3.4740625  -0.99216251    4.1590586   0.13964137    4.9077794            0            0            0    72943.607    284280.26   -53732.366   -11717.076    9575.4022    12369.623    368190.91   -31.219431 
     910   -31.299204     3.486472    -1.004572    4.1512983   0.14740166    4.9040947            0            0            0    75246.785    291470.74   -53675.357    -12055.03    9435.2018    12141.275     371967.4   -31.299204 
     920   -31.379952    3.4988815   -1.0169815    4.1436678   0.15503218    4.9003763            0            0            0    77685.521    298767.41    -53464.62   -12246.224    9286.3709    11903.934    375623.75   -31.379952 
     930   -31.461598     3.511291    -1.029391    4.1361936   0.16250638    4.8966842            0            0            0     80075.91    305983.69   -53277.868   -12478.093    9130.9448    11660.236    379175.87   -31.461598 
     940     -31.5442    3.5237005   -1.0418005    4.1288387   0.16986131    4.8929575            0            0            0    82369.686    313113.48    -53195.32   -12809.105    8970.3036    11411.939    382685.69     -31.5442 
     950   -31.627744      3.53611     -1.05421    4.1216013   0.17709872    4.8892039            0            0            0    84847.282    320377.67   -52901.317   -12934.508    8802.5847    11156.955     386063.2   -31.627744 
     960   -31.712148    3.5485195   -1.0666195    4.1145086    0.1841914    4.8854837            0            0            0    87232.334    327516.58   -52676.725   -13142.854    8630.5911    10898.785    389353.32   -31.712148 
     970   -31.797475     3.560929    -1.079029    4.1075233   0.19117669    4.8817336            0            0            0    89527.938    334568.96   -52546.528   -13438.618    8455.2052    10638.482    392604.48   -31.797475 
     980   -31.883693    3.5733385   -1.0914385    4.1006503   0.19804972    4.8779729            0            0            0    92019.431    341748.04    -52182.52   -13507.226    8274.5738    10373.851    395713.92   -31.883693 
     990   -31.970735     3.585748    -1.103848      4.09391   0.20479001    4.8742477            0            0            0    94344.707    348737.34   -51969.045   -13734.178    8092.1512    10109.075    398765.05   -31.970735 
    1000   -32.058663    3.5981575   -1.1162575    4.0872654   0.21143461    4.8704948            0            0            0    96658.375    355696.17   -51761.416   -13959.631    7907.3366    9843.4907    401758.24   -32.058663 
    1010   -32.147412     3.610567    -1.128667    4.0807358   0.21796417    4.8667599            0            0            0    99209.152    362784.37   -51256.279   -13900.636    7718.4706    9575.1615    404579.23   -32.147412 
    1020   -32.236972    3.6229765   -1.1410765    4.0743155   0.22438449    4.8630374            0            0            0     101405.4    369547.59   -51124.169   -14207.215    7530.8627    9310.3197    407428.75   -32.236972 
    1030   -32.327366     3.635386    -1.153486    4.0679857   0.23071432    4.8592991            0            0            0    103778.67    376411.52   -50777.257   -14298.254    7340.8054    9044.6345    410155.54   -32.327366 
    1040   -32.418496    3.6477955   -1.1658955    4.0617779   0.23692205    4.8556123            0            0            0    106140.87     383184.6   -50395.017   -14366.976    7150.0404    8780.1786    412771.24   -32.418496 
    1050   -32.510436     3.660205    -1.178305    4.0556517   0.24304834    4.8519041            0            0            0    108388.07     389837.6   -50131.677     -14541.7    6959.9258    8518.5253    415369.84   -32.510436 
    1060   -32.603106    3.6726145   -1.1907145     4.049631   0.24906901    4.8482283            0            0            0    110849.59    396574.75   -49582.906   -14443.073    6768.3553    8257.2776     417799.4   -32.603106 
    1070   -32.696508     3.685024    -1.203124    4.0437047   0.25499533    4.8445675            0            0            0    112928.82    402964.02   -49439.051   -14738.507    6580.0211    8001.7708    420277.57   -32.696508 
    1080   -32.790638    3.6974335   -1.2155335    4.0378653   0.26083465    4.8409145            0            0            0     115397.4    409577.72   -48819.149   -14566.361    6389.7967    7745.9986    422548.77   -32.790638 
    1090   -32.885436     3.709843    -1.227943    4.0321274   0.26657256    4.8373012            0            0            0    117518.93    415851.11   -48551.345   -14742.981    6203.0305    7496.1638    424841.03   -32.885436 
    1100   -32.980954    3.7222525   -1.2403525    4.0264601   0.27223993    4.8336733            0            0            0    119811.29    422200.07   -48067.879   -14698.324    6016.5601    7248.5947     427021.8   -32.980954 
    1110   -33.077076     3.734662    -1.252762    4.0209007   0.27779925    4.8301084            0            0            0    121959.25    428334.86   -47689.543   -14767.557    5832.5736    7005.8135    429138.24   -33.077076 
    1120   -33.173872    3.7470715   -1.2651715    4.0154098   0.28329018    4.8265338            0            0            0    124139.01    434436.69   -47251.753    -14767.92    5650.2728     6766.833    431190.18   -33.173872 
    1130   -33.271242     3.759481    -1.277581    4.0100196    0.2886804    4.8230172            0            0            0    126296.84    440411.71   -46778.637   -14742.565    5470.1794    6532.1403    433141.92   -33.271242 
    1140   -33.369245    3.7718905   -1.2899905    4.0046946    0.2940054    4.8194928            0            0            0    128361.28    446260.11   -46388.428   -14787.844    5293.0886    6302.5766    435074.34   -33.369245 
    1150   -33.467784       3.7843      -1.3024    3.9994646    0.2992354    4.8160237            0            0            0    130517.33    452057.98    -45830.09     -14675.9    5118.0068    6076.9502    436870.97   -33.467784 
    1160   -33.566905    3.7967095   -1.3148095    3.9943001    0.3043999    4.8125551            0            0            0    132475.55    457648.37    -45471.57   -14750.142    4946.7778    5857.3225    438681.27   -33.566905 
    1170   -33.666527     3.809119    -1.327219    3.9892246   0.30947543    4.8091376            0            0            0    134600.28    463237.16   -44857.026   -14579.285    4777.3665    5641.2805    440334.36   -33.666527 
    1180   -33.766678    3.8215285   -1.3396285    3.9842149   0.31448511    4.8057285            0            0            0    136437.07    468550.14   -44543.492   -14695.439    4612.5101    5431.8562    442029.99   -33.766678 
    1190    -33.86728     3.833938    -1.352038    3.9792933   0.31940672    4.8023757            0            0            0    138502.34    473892.66   -43895.471   -14490.163     4449.461    5225.9204    443543.28    -33.86728 
    1200   -33.968379    3.8463475   -1.3644475    3.9744296   0.32427042    4.7990223            0            0            0    140308.21    478985.89   -43520.155   -14541.098    4290.9735    5026.5094    445099.45   -33.968379 
    1210   -34.069873     3.858757    -1.376857    3.9696556   0.32904439    4.7957348            0            0            0    142286.34    484056.36   -42867.863   -14329.471    4134.8638    4831.2031    446486.62   -34.069873 
    1220   -34.171826    3.8711665   -1.3892665    3.9649333   0.33376671    4.7924404            0            0            0    144075.95    488929.33   -42407.888   -14293.586    3983.0775    4642.0586    447899.05   -34.171826 
    1230   -34.274117     3.883576    -1.401676    3.9603035   0.33839649     4.789223            0            0            0    145878.46    493660.81   -41851.064   -14174.359    3834.6166    4457.9084    449192.53   -34.274117 
    1240   -34.376827    3.8959855   -1.4140855     3.955719     0.342981    4.7859918            0            0            0    147725.67    498349.81   -41213.001   -13959.802    3689.4351    4278.6543     450434.4   -34.376827 
    1250   -34.479829     3.908395    -1.426495    3.9512252   0.34747477     4.782839            0            0            0    149289.68    502704.48   -40829.225   -14006.216    3548.9605     4105.879    451666.64   -34.479829 
    1260    -34.58319    3.9208045   -1.4389045    3.9467796   0.35192045    4.7796832            0            0            0    151145.56    507159.78   -40060.751   -13662.339    3410.8007    3936.6146     452748.5    -34.58319 
    1270   -34.686815     3.933214    -1.451314    3.9424137   0.35628632     4.776589            0            0            0    152541.37    511185.84   -39769.013   -13792.728    3278.1832    3774.4719    453903.27   -34.686815 
    1280   -34.790729    3.9456235   -1.4637235     3.938104   0.36059597    4.7735127            0            0            0    154325.83    515347.57   -38960.967    -13409.12    3147.3905     3615.458    454854.99   -34.790729 
    1290   -34.894884     3.958033    -1.476133    3.9338609   0.36483912    4.7704758            0            0            0    155595.01    519069.92   -38711.272   -13573.617    3022.0684    3463.6569    455922.09   -34.894884 
    1300   -34.999251    3.9704425   -1.4885425     3.929685   0.36901503     4.767483            0            0            0    157272.04    522908.63   -37902.843   -13189.672    2898.6079    3314.9994    456756.76   -34.999251 
    1310   -35.103841     3.982852    -1.500952    3.9255603   0.37313975    4.7645034            0            0            0    158540.71    526400.32    -37541.54   -13236.631    2780.2424    3172.8315    457692.71   -35.103841 
    1320   -35.208569    3.9952615   -1.5133615    3.9215128   0.37718717    4.7615914            0            0            0    160009.75    529855.68   -36855.145   -12971.291    2664.6331     3034.528    458454.38   -35.208569 
    1330   -35.313484     4.007671    -1.525771    3.9175087   0.38119126     4.758681            0            0            0    161381.81    533161.01   -36245.947   -12769.643    2552.8517    2901.1485    459212.67   -35.313484 
    1340   -35.418492    4.0200805   -1.5381805    3.9135795   0.38512045    4.7558367            0            0            0    162567.21    536202.46   -35782.584   -12718.262    2445.1138    2773.0273    459945.23   -35.418492 
    1350   -35.523628      4.03249     -1.55059     3.909697   0.38900299    4.7530045            0            0            0    163996.94    539279.97   -34972.738   -12316.423    2339.9025    2648.5632    460537.52   -35.523628 
    1360   -35.628829    4.0448995   -1.5629995    3.9058785    0.3928215    4.7502196            0            0            0    164958.98    541952.48   -34665.217   -12410.305    2239.5263    2530.1075    461229.52   -35.628829 
    1370   -35.734084     4.057309    -1.575409    3.9021179    0.3965821    4.7474724            0            0            0    166264.74    544688.66   -33871.219   -12023.235    2141.3308    2414.7036    461721.87   -35.734084 
    1380   -35.839388    4.0697185   -1.5878185     3.898405   0.40029497    4.7447432            0            0            0     167196.3    547105.39   -33485.707   -12030.795    2047.5316    2304.6684    462306.63   -35.839388 
    1390   -35.944666     4.082128    -1.600228    3.8947645   0.40393546    4.7420832            0            0            0    168245.15    549425.24   -32870.482   -11819.311    1956.5431    2198.2771       462751   -35.944666 
    1400    -36.04996    4.0945375   -1.6126375     3.891163   0.40753697    4.7394271            0            0            0    169378.58    551693.32   -32107.545   -11450.026    1868.4108    2095.4763    463126.62    -36.04996 
    1410   -36.155198     4.106947    -1.625047    3.8876253   0.41107473    4.7368249            0            0            0    170096.59    553590.26   -31783.875   -11516.609    1784.4087    1997.6864    463581.65   -36.155198 
    1420   -36.260382    4.1193565   -1.6374565    3.8841375   0.41456246    4.7342517            0            0            0    171195.84    555568.66   -30927.789   -11053.335     1702.387    1902.4185    463832.56   -36.260382 
    1430   -36.365492     4.131766    -1.649866    3.8806979   0.41800213    4.7317034            0            0            0    171740.49    557136.57   -30705.638   -11209.472    1624.6679    1812.4043    464244.88   -36.365492 
    1440   -36.470476    4.1441755   -1.6622755    3.8773211   0.42137886    4.7292121            0            0            0     172586.2    558712.13   -30030.902   -10922.623    1548.9906    1725.1426    464459.68   -36.470476 
    1450   -36.575348     4.156585    -1.674685    3.8739879   0.42471212    4.7267395            0            0            0    173403.84    560161.01   -29338.865    -10610.63    1476.1866    1641.5125    464639.54   -36.575348 
    1460   -36.680058    4.1689945   -1.6870945    3.8707123   0.42798773    4.7243147            0            0            0    173936.53     561324.1   -28932.803   -10581.716    1406.7102    1561.9159     464858.9   -36.680058 
    1470   -36.784619     4.181404    -1.699504     3.867475   0.43122497    4.7219012            0            0            0    174790.92    562546.46    -28075.98    -10097.72    1339.2723    1484.6733    464915.34   -36.784619 
    1480   -36.888972    4.1938135   -1.7119135    3.8642979   0.43440209    4.7195423            0            0            0    175002.51    563301.58   -27952.851   -10341.199    1275.7906    1412.0429    465146.59   -36.888972 
    1490   -36.993108     4.206223    -1.724323    3.8611721   0.43752795    4.7172225            0            0            0    175766.41    564199.33   -27068.953    -9831.155    1213.6572     1341.188    465100.61   -36.993108 
    1500   -37.097034    4.2186325   -1.7367325    3.8580809   0.44061913    4.7149082            0            0            0    176240.96     564859.8   -26508.227   -9628.6897    1154.5003    1273.8684    465137.56   -37.097034 
    1510   -37.200676     4.231042    -1.749142    3.8550568   0.44364325    4.7126656            0            0            0    176476.95    565243.19    -26164.18   -9648.1603    1098.1119    1209.7421    465178.58   -37.200676 
    1520   -37.304072    4.2434515   -1.7615515    3.8520635    0.4466365    4.7104239            0            0            0    176991.72    565671.51    -25428.78   -9267.5805    1043.4237    1147.6729    465085.68   -37.304072 
    1530   -37.407167     4.255861    -1.773961    3.8491231    0.4495769     4.708227            0            0            0    177173.82    565809.48   -25049.305    -9238.729    991.50338     1088.892    465059.96   -37.407167 
    1540   -37.509944    4.2682705   -1.7863705    3.8462335   0.45246645    4.7060723            0            0            0    177563.46    565914.37   -24340.692    -8883.283    941.30649    1032.3846    464891.64   -37.509944 
    1550   -37.612412      4.28068     -1.79878    3.8433766   0.45532344    4.7039237            0            0            0    177671.45    565798.84   -23951.883   -8832.6082     893.6746    978.91919    464807.55   -37.612412 
    1560   -37.714503    4.2930895   -1.8111895    3.8405837   0.45811629    4.7018455            0            0            0    177775.91    565525.52    -23485.41   -8712.3931    848.14339    927.96605     464639.9   -37.714503 
    1570    -37.81626     4.305499    -1.823599    3.8378146   0.46088535    4.6997577            0            0            0    178019.71     565242.3   -22811.946   -8371.2159    804.34886    879.05666    464405.46    -37.81626 
    1580   -37.917616    4.3179085   -1.8360085    3.8351023    0.4635977    4.6977267            0            0            0    177932.26    564671.93   -22491.776   -8383.3583    762.90984    832.86785    464231.23   -37.917616 
    1590   -38.018579     4.330318    -1.848418    3.8324284   0.46627157    4.6957175            0            0            0    178167.86    564140.37    -21707.56   -7929.2424    722.73493    788.28472    463889.83   -38.018579 
    1600   -38.119126    4.3427275   -1.8608275    3.8297978   0.46890223    4.6937389            0            0            0     177970.4    563310.62   -21428.195   -7971.2213    684.95609     746.3295     463674.6   -38.119126 
    1610   -38.219228     4.355137    -1.873237    3.8272179   0.47148207     4.691808            0            0            0    177944.51    562427.96   -20863.292   -7731.1533    648.58797    705.92886    463330.25   -38.219228 
    1620   -38.318909    4.3675465   -1.8856465     3.824661   0.47403901     4.689869            0            0            0     177819.3     561436.1   -20400.815   -7577.3926    614.06602     667.5474    463015.89   -38.318909 
    1630   -38.418103     4.379956    -1.898056    3.8221634   0.47653658     4.687996            0            0            0    177627.91    560273.36    -19949.06   -7440.5759    581.18026    631.03849    462651.69   -38.418103 
    1640   -38.516831    4.3923655   -1.9104655    3.8196966   0.47900338    4.6861321            0            0            0    177555.32    559076.92   -19306.631   -7104.3258     549.6412    596.03434    462215.92   -38.516831 
    1650   -38.615059     4.404775    -1.922875    3.8172758   0.48142423    4.6843077            0            0            0     177081.8    557605.45   -19130.807   -7229.2449    519.93375    563.09585    461889.88   -38.615059 
    1660   -38.712787    4.4171845   -1.9352845    3.8148896   0.48381043    4.6825026            0            0            0    176994.72    556200.37   -18409.704   -6806.5157    491.12146    531.44663    461377.17   -38.712787 
    1670   -38.809995     4.429594    -1.947694     3.812543   0.48615704    4.6807258            0            0            0    176576.36    554565.95   -18074.501   -6762.3624    463.94187    501.80605    460958.07   -38.809995 
    1680   -38.906656    4.4420035   -1.9601035    3.8102464    0.4884536    4.6789994            0            0            0    176287.86    552863.94   -17508.819   -6491.5323    437.94255    473.51228    460427.89   -38.906656 
    1690   -39.002795     4.454413    -1.972513    3.8079681   0.49073193    4.6772596            0            0            0    175840.87    551050.09   -17133.828   -6393.6527    413.41454    446.63741    459960.98   -39.002795 
    1700   -39.098354    4.4668225   -1.9849225    3.8057458   0.49295422    4.6755838            0            0            0    175330.31    549083.63   -16774.928    -6317.768    390.05088    420.99683    459450.09   -39.098354 
    1710   -39.193365     4.479232    -1.997332    3.8035435   0.49515652    4.6739003            0            0            0    174987.47    547126.96   -16175.651   -5988.9026    367.60767    396.44509    458867.09   -39.193365 
    1720   -39.287772    4.4916415   -2.0097415    3.8013967   0.49730329    4.6722799            0            0            0    174262.91     544903.8   -16014.361   -6100.7064    346.55338    373.42916    458370.55   -39.287772 
    1730   -39.381605     4.504051    -2.022151    3.7992709   0.49942913    4.6706553            0            0            0    173977.44     542787.9   -15252.556   -5603.0099    326.16129    351.17346    457689.94   -39.381605 
    1740   -39.474822    4.5164605   -2.0345605    3.7971925   0.50150747     4.669078            0            0            0    173075.27    540343.79   -15253.616   -5864.3763     307.3055     330.5488    457206.54   -39.474822 
    1750   -39.567434      4.52887     -2.04697    3.7951413   0.50355875    4.6675107            0            0            0    172754.49    538043.71   -14456.391   -5323.8437    288.90482    310.51024    456469.71   -39.567434 
    1760   -39.659425    4.5412795   -2.0593795    3.7931236   0.50557642    4.6659641            0            0            0    171837.73    535459.09   -14416.274     -5529.62    271.85842    291.96737    455947.28   -39.659425 
    1770   -39.750777     4.553689    -2.071789    3.7911478    0.5075522    4.6644584            0            0            0    171364.48    532936.96   -13740.117   -5103.4086    255.34058    274.04042    455200.33   -39.750777 
    1780   -39.841499    4.5660985   -2.0841985    3.7891948   0.50950525     4.662953            0            0            0    170477.12     530222.8   -13596.487   -5194.9529    239.94776    257.34105    454613.79   -39.841499 
    1790   -39.931558     4.578508    -2.096608    3.7872893    0.5114107    4.6615007            0            0            0    169847.67       527496   -13056.679   -4896.2997    225.14963    241.39088    453868.24   -39.931558 
    1800   -40.020975    4.5909175   -2.1090175    3.7854001   0.51329988    4.6600372            0            0            0    168962.42    524649.34   -12848.847   -4913.2423    211.27486    226.46444     453230.3   -40.020975 
    1810   -40.109709     4.603327    -2.121427    3.7835626   0.51513737    4.6586358            0            0            0    168202.84    521739.21    -12416.97   -4713.7129     198.0569    212.17484    452480.19   -40.109709 
    1820   -40.197796    4.6157365   -2.1338365    3.7817306   0.51696944    4.6572033            0            0            0    167285.91    518767.28   -12200.644   -4708.9129    185.63356    198.74371    451816.66   -40.197796 
    1830    -40.28517     4.628146    -2.146246    3.7799674   0.51873257    4.6558684            0            0            0     166456.4    515687.51   -11790.567   -4527.7538    173.84011    185.98303    451026.17    -40.28517 
    1840   -40.371888    4.6405555   -2.1586555    3.7782002   0.52049982    4.6544837            0            0            0    165525.18    512586.91   -11535.414   -4475.9536    162.70843    174.00799    450316.96   -40.371888 
    1850   -40.457895     4.652965    -2.171065    3.7764876   0.52221239    4.6531697            0            0            0    164698.14    509413.48   -11082.508   -4236.5582    152.10767    162.61622    449499.09   -40.457895 
    1860   -40.543218    4.6653745   -2.1834745    3.7747882   0.52391175    4.6518419            0            0            0    163740.26    506178.43   -10802.681   -4154.9554    142.13639    151.90062    448743.47   -40.543218 
    1870   -40.627825     4.677784    -2.195884    3.7731346   0.52556542     4.650567            0            0            0     162801.1    502864.99   -10453.295   -4008.3912     132.6924    141.76315    447930.77   -40.627825 
    1880   -40.711743    4.6901935   -2.2082935    3.7714863   0.52721372    4.6492645            0            0            0    161781.07    499523.34   -10220.205   -3959.9191    123.80297    132.22909    447173.26   -40.711743 
    1890   -40.794923     4.702603    -2.220703    3.7699003   0.52879972    4.6480494            0            0            0    160759.76    496068.79   -9925.3662   -3864.1347    115.39386    123.23131    446337.91   -40.794923 
    1900   -40.877413    4.7150125   -2.2331125    3.7683077   0.53039232    4.6467833            0            0            0    159665.13    492614.74   -9753.1142   -3866.2235    107.48525    114.77521    445575.88   -40.877413 
    1910   -40.959163     4.727422    -2.245522     3.766771   0.53192903    4.6455944            0            0            0    158806.74    489129.68   -9204.4615    -3504.984    99.915205    106.69295    444648.71   -40.959163 
    1920     -41.0402    4.7398315   -2.2579315    3.7652433   0.53345674    4.6443855            0            0            0    157611.69    485543.79   -9119.0843   -3589.6339    92.906413    99.218189    443876.59     -41.0402 
    1930   -41.120503     4.752241    -2.270341    3.7637533   0.53494666    4.6432183            0            0            0       156645    481960.69   -8690.8068   -3334.8876    86.203023    92.083625    442974.33   -41.120503 
    1940   -41.200078    4.7646505   -2.2827505    3.7622861   0.53641388    4.6420603            0            0            0    155338.02    478255.28   -8716.2628   -3524.9712    80.009025    85.491873    442204.59   -41.200078 
    1950   -41.278918      4.77706     -2.29516    3.7608482   0.53785183    4.6409284            0            0            0    154459.42    474623.26   -8135.5839    -3109.414    74.017735    79.127194    441236.56   -41.278918 
    1960   -41.357019    4.7894695   -2.3075695    3.7594396   0.53926038    4.6398192            0            0            0    153163.08    470841.06   -8109.1665   -3242.6479    68.517564    73.283045    440422.12   -41.357019 
    1970   -41.434396     4.801879    -2.319979    3.7580363   0.54066366     4.638689            0            0            0    152148.13    467137.03   -7706.1691   -2986.4641    63.248548    67.693163    439511.37   -41.434396 
    1980   -41.511014    4.8142885   -2.3323885     3.756691   0.54200898    4.6376412            0            0            0    150836.78    463267.58   -7659.0866    -3098.152    58.380609    62.527624    438654.25   -41.511014 
    1990   -41.586912     4.826698    -2.344798     3.755335   0.54336497    4.6365406            0            0            0    149771.62    459496.66   -7302.7788   -2879.0112    53.735192    57.602817    437742.96   -41.586912 
    2000   -41.662053    4.8391075   -2.3572075    3.7540308   0.54466917    4.6355125            0            0            0    148605.28    455624.46   -7042.2676   -2766.3511     49.40062    53.004118    436814.48   -41.662053 
    2010   -41.736466     4.851517    -2.369617    3.7527242   0.54597584    4.6344475            0            0            0       147266    451733.14   -7041.1488   -2893.9977    45.380979    48.740581       435992   -41.736466 
    2020   -41.810118    4.8639265   -2.3820265    3.7514751   0.54722492    4.6334694            0            0            0    146293.91    447847.68   -6483.6546   -2482.3014    41.502853    44.633177    434947.28   -41.810118 
    2030   -41.883034     4.876336    -2.394436    3.7502287   0.54847129    4.6324625            0            0            0    144855.33    443868.06   -6588.1059   -2713.9572    37.985296    40.904808    434123.43   -41.883034 
    2040   -41.955214    4.8887455   -2.4068455    3.7489964   0.54970355    4.6314573            0            0            0    143750.43    439962.36   -6231.7088   -2479.3514    34.605299    37.327601    433164.35   -41.955214 
    2050   -42.026635     4.901155    -2.419255    3.7478134   0.55088659    4.6305207            0            0            0    142465.83    435952.09   -6087.8087   -2466.7992    31.477556    34.017325     432226.4   -42.026635 
    2060   -42.097334    4.9135645   -2.4316645    3.7466137   0.55208627    4.6295227            0            0            0    141271.35    432013.59   -5856.3166   -2343.2263    28.533964    30.903935    431307.79   -42.097334 
    2070   -42.167269     4.925974    -2.444074    3.7454796   0.55322041    4.6286284            0            0            0    140016.74    427973.42   -5654.3042   -2268.8977    25.786863    27.999223    430332.59   -42.167269 
    2080   -42.236474    4.9383835   -2.4564835    3.7443391   0.55436089    4.6276917            0            0            0    138681.61    423951.57   -5591.8977   -2314.8508    23.239318    25.305672    429431.21   -42.236474 
    2090   -42.304943     4.950793    -2.468893    3.7432151   0.55548492    4.6267637            0            0            0    137550.45    419969.87   -5245.4008   -2073.1269    20.818744    22.748836    428443.88   -42.304943 
    2100   -42.372657    4.9632025   -2.4813025    3.7421459    0.5565541    4.6259168            0            0            0    136169.65     415870.3   -5208.0222   -2153.3426    18.603001    20.407297    427498.69   -42.372657 
    2110   -42.439654     4.975612    -2.493712    3.7410494   0.55765057    4.6249897            0            0            0     134949.5    411875.56   -4995.7279   -2031.3228    16.513158    18.200257    426559.25   -42.439654 
    2120     -42.5059    4.9880215   -2.5061215     3.740012   0.55868802    4.6241564            0            0            0    133684.86    407801.48   -4801.5624   -1945.3285    14.568338    16.146713    425567.66     -42.5059 
    2130   -42.571418     5.000431    -2.518531    3.7389776   0.55972241    4.6233019            0            0            0    132318.85    403730.41   -4767.4607   -2006.4096    12.777536    14.255251    424642.07   -42.571418 
    2140   -42.636214    5.0128405   -2.5309405    3.7379411    0.5607589    4.6224219            0            0            0    131125.06    399723.56   -4513.0641   -1835.3205    11.086581    12.470473    423673.25   -42.636214 
    2150   -42.700261      5.02525     -2.54335    3.7369763   0.56172371    4.6216604            0            0            0    129860.82    395618.27   -4303.1955   -1732.6298    9.5195556     10.81651    422643.93   -42.700261 
    2160   -42.763599    5.0376595   -2.5557595    3.7359808   0.56271916    4.6208108            0            0            0    128435.62    391560.21     -4373.48   -1879.8879     8.096479    9.3130903    421760.61   -42.763599 
    2170   -42.826207     5.050069    -2.568169    3.7350246   0.56367538    4.6200207            0            0            0    127288.82    387522.71   -4030.9395   -1625.2986     6.733902    7.8754318    420721.01   -42.826207 
    2180   -42.888089    5.0624785   -2.5805785    3.7340946   0.56460543    4.6192573            0            0            0    125937.16    383437.49   -3972.1023    -1653.898    5.5000363     6.572267    419752.86   -42.888089 
    2190   -42.949265     5.074888    -2.592988    3.7331533   0.56554667    4.6184495            0            0            0    124544.86    379392.37   -4002.9577   -1754.8455    4.3684764     5.376457    418845.88   -42.949265 
    2200   -43.009721    5.0872975   -2.6053975    3.7322459   0.56645406    4.6176924            0            0            0    123494.43    375387.83   -3536.6849   -1367.8601    3.2775618    4.2254104    417764.16   -43.009721 
    2210   -43.069454     5.099707    -2.617807    3.7313861   0.56731391    4.6170026            0            0            0    122003.68    371267.23   -3668.4003   -1587.7868    2.3222816    3.2150276    416820.12   -43.069454 
    2220   -43.128499    5.1121165   -2.6302165     3.730483   0.56821704    4.6162066            0            0            0    120763.11    367286.98   -3510.8099   -1486.8236    1.4211594    2.2623992     415865.2   -43.128499 
    2230   -43.186828     5.124526    -2.642626    3.7296369   0.56906308    4.6155072            0            0            0     119530.4    363255.86   -3305.9418   -1358.7313   0.58716078    1.3806517    414839.65   -43.186828 
    2240   -43.244455    5.1369355   -2.6550355    3.7288064   0.56989361    4.6148152            0            0            0    118200.42    359220.44   -3247.1187   -1372.0647  -0.16694594   0.58238163    413857.36   -43.244455 
    2250   -43.301394     5.149345    -2.667445    3.7279638    0.5707362    4.6140796            0            0            0    116828.56     355228.3   -3280.8284   -1461.7966  -0.84925833  -0.14087486    412936.53   -43.301394 
    2260   -43.357639    5.1617545   -2.6798545    3.7271518   0.57154817    4.6133911            0            0            0    115752.72    351273.48   -2884.8502   -1130.4533   -1.5038117  -0.83369436    411864.66   -43.357639 
    2270   -43.413183     5.174164    -2.692264    3.7263902   0.57230983    4.6127776            0            0            0     114339.1    347229.56   -2945.2004   -1267.0592   -2.0718644   -1.4368508    410883.74   -43.413183 
    2280    -43.46806    5.1865735   -2.7046735    3.7255804    0.5731196    4.6120493            0            0            0    113024.51    343302.97   -2932.3424   -1297.1007   -2.5894695   -1.9871747    409960.97    -43.46806 
    2290   -43.522249     5.198983    -2.717083    3.7248206   0.57387944    4.6114081            0            0            0    111863.92     339364.5   -2673.2206   -1099.5115   -3.0760496   -2.5041835    408916.28   -43.522249 
    2300    -43.57576    5.2113925   -2.7294925    3.7240818   0.57461817    4.6107872            0            0            0     110542.6     335408.9     -2647.07   -1134.0202   -3.5025437   -2.9587471    407932.46    -43.57576 
    2310   -43.628604     5.223802    -2.741902    3.7233401   0.57535989    4.6101422            0            0            0    109235.63    331495.28   -2625.6922   -1162.7061   -3.8852985   -3.3675576    406971.23   -43.628604 
    2320   -43.680787    5.2362115   -2.7543115    3.7225962   0.57610383    4.6094798            0            0            0    108028.68    327633.08   -2483.7348   -1063.3123   -4.2341296   -3.7406344    405992.39   -43.680787 
    2330   -43.732297     5.248621    -2.766721    3.7219137    0.5767863    4.6089235            0            0            0    106856.13    323731.27   -2259.4265   -903.45738   -4.5529641    -4.081899    404927.41   -43.732297 
    2340   -43.783151    5.2610305   -2.7791305    3.7212317   0.57746832    4.6083434            0            0            0    105423.28    319830.54   -2432.3669    -1128.334   -4.8156631   -4.3652512     403999.1   -43.783151 
    2350   -43.833367      5.27344     -2.79154    3.7205086   0.57819144    4.6076715            0            0            0    104271.28    316056.61   -2259.7653   -983.02024   -5.0605672   -4.6291424    403034.57   -43.833367 
    2360   -43.882924    5.2858495   -2.8039495    3.7198594   0.57884063    4.6071348            0            0            0    103102.52    312221.63   -2066.8282      -847.23    -5.275598   -4.8717719       401985   -43.882924 
    2370   -43.931838     5.298259    -2.816359    3.7192141   0.57948589    4.6065834            0            0            0    101779.85    308399.92   -2116.1309   -944.24255   -5.4513413   -5.0728608    401020.61   -43.931838 
    2380   -43.980121    5.3106685   -2.8287685    3.7185554   0.58014462    4.6059917            0            0            0     100552.5    304644.24   -2062.0341   -924.71664   -5.6086209   -5.2488891    400057.73   -43.980121 
    2390   -44.027775     5.323078    -2.841178    3.7179066   0.58079335    4.6054098            0            0            0    99358.336    300915.41   -1971.6849   -868.71485   -5.7491888   -5.3943768    399085.21   -44.027775 
    2400   -44.074797    5.3354875   -2.8535875    3.7172966   0.58140344    4.6048917            0            0            0    98231.923    297185.41   -1773.0402   -716.59664   -5.8739083   -5.5227415    398046.97   -44.074797 
    2410   -44.121192     5.347897    -2.865997    3.7167149   0.58198515    4.6044083            0            0            0    96949.954    293441.77   -1799.5586   -792.35342     -5.96691   -5.6206748    397057.63   -44.121192 
    2420   -44.166982    5.3603065   -2.8784065    3.7160874    0.5826126    4.6038195            0            0            0    95659.159    289788.28   -1898.8673   -911.94008   -6.0308546   -5.6931522    396161.93   -44.166982 
    2430   -44.212161     5.372716    -2.890816    3.7154873    0.5832127    4.6032827            0            0            0    94646.042    286170.89   -1593.6716   -639.09722   -6.0956942   -5.7557082    395123.33   -44.212161 
    2440   -44.256725    5.3851255   -2.9032255    3.7149483   0.58375169    4.6028477            0            0            0    93426.895    282498.26   -1560.3101   -657.26601   -6.1385916   -5.7916783    394105.75   -44.256725 
    2450   -44.300693     5.397535    -2.915635    3.7143842   0.58431575    4.6023426            0            0            0    92147.989    278887.69   -1658.5053    -785.2133   -6.1598211   -5.8072456    393175.02   -44.300693 
    2460   -44.344072    5.4099445   -2.9280445    3.7138043   0.58489573    4.6018002            0            0            0    91031.454     275349.2   -1554.2699   -700.56403   -6.1722539   -5.8144511    392215.81   -44.344072 
    2470   -44.386859     5.422354    -2.940454    3.7132592   0.58544075    4.6013193            0            0            0    89903.752    271806.23   -1458.2955   -636.67409   -6.1737871   -5.8083444    391228.14   -44.386859 
    2480   -44.429061    5.4347635   -2.9528635    3.7127331   0.58596688    4.6008616            0            0            0    88764.137    268279.62   -1387.4035   -599.80364   -6.1637278   -5.7893857    390239.13   -44.429061 
    2490   -44.470684     5.447173    -2.965273    3.7122248   0.58647524    4.6004233            0            0            0    87610.236    264771.53   -1346.8842   -593.94101    -6.142894   -5.7585476     389252.3   -44.470684 
    2500   -44.511737    5.4595825   -2.9776825    3.7117004    0.5869996    4.5999399            0            0            0    86392.503    261311.46   -1433.1048   -700.84747   -6.1075709   -5.7139723    388336.37   -44.511737 
    2510    -44.55223     5.471992    -2.990092    3.7111586   0.58754138    4.5994208            0            0            0    85361.706    257923.83   -1279.4071   -559.30441   -6.0682252   -5.6659437    387380.54    -44.55223 
    2520   -44.592153    5.4844015   -3.0025015    3.7106952   0.58800481     4.599047            0            0            0    84327.585    254492.27   -1093.0081   -416.50737   -6.0264098    -5.610995    386332.34   -44.592153 
    2530   -44.631515     5.496811    -3.014911    3.7102551   0.58844489    4.5986923            0            0            0    83148.271    251065.69   -1128.0408   -492.83342   -5.9728886   -5.5433848    385339.84   -44.631515 
    2540   -44.670333    5.5092205   -3.0273205    3.7097671   0.58893285    4.5982267            0            0            0    81910.698     247720.9   -1306.2162   -682.59216   -5.9062279   -5.4653013    384462.14   -44.670333 
    2550   -44.708616      5.52163     -3.03973    3.7092453    0.5894547    4.5977015            0            0            0    80935.582    244467.72   -1142.4235   -518.55144   -5.8390378   -5.3880091    383530.89   -44.708616 
    2560   -44.746352    5.5340395   -3.0521395    3.7087992   0.58990081    4.5973231            0            0            0    79913.204    241169.75   -1010.6275   -419.50899   -5.7705271   -5.3051519    382527.43   -44.746352 
    2570   -44.783554     5.546449    -3.064549    3.7083687   0.59033125    4.5969557            0            0            0    78813.664    237889.62   -1004.6498   -443.97684   -5.6952721   -5.2149565    381557.88   -44.783554 
    2580   -44.820229    5.5588585   -3.0769585    3.7079295   0.59077049     4.596557            0            0            0    77733.423    234658.59   -999.57032    -458.7488   -5.6149642   -5.1202943    380612.78   -44.820229 
    2590   -44.856383     5.571268    -3.089368    3.7074917   0.59120826    4.5961533            0            0            0    76676.766    231464.91   -979.28808   -455.32412      -5.5312   -5.0220784    379672.71   -44.856383 
    2600   -44.892023    5.5836775   -3.1017775    3.7070518   0.59164823    4.5957395            0            0            0    75622.073    228309.06   -976.86185   -465.97968   -5.4436922   -4.9201788    378750.95   -44.892023 
    2610   -44.927153     5.596087    -3.114187     3.706621   0.59207903    4.5953404            0            0            0    74637.111    225186.09   -885.02192   -389.73906   -5.3553651   -4.8169037    377801.57   -44.927153 
    2620   -44.961774    5.6084965   -3.1265965    3.7062294   0.59247058    4.5950076            0            0            0    73649.772    222064.82   -791.40443   -324.09489   -5.2666699   -4.7113956    376817.27   -44.961774 
    2630   -44.995894     5.620906    -3.139006    3.7058567   0.59284334    4.5946923            0            0            0    72604.182    218961.81    -794.6633   -354.59874   -5.1751172   -4.6024241    375854.32   -44.995894 
    2640   -45.029521    5.6333155   -3.1514155    3.7054617   0.59323831    4.5943201            0            0            0     71539.14    215914.66   -863.00745   -434.22855    -5.079482   -4.4906766    374949.47   -45.029521 
    2650   -45.062667     5.645725    -3.163825    3.7050286   0.59367142    4.5938764            0            0            0    70564.202    212940.69   -840.40545   -407.67767   -4.9818359   -4.3785963    374069.62   -45.062667 
    2660   -45.095327    5.6581345   -3.1762345    3.7046441   0.59405589    4.5935325            0            0            0    69659.893    209963.35   -698.53923   -285.12836   -4.8874751   -4.2672425     373104.2   -45.095327 
    2670   -45.127506     5.670544    -3.188644    3.7043046   0.59439541    4.5932586            0            0            0    68683.993    206981.23   -656.01535    -273.2321   -4.7930367   -4.1539939    372129.55   -45.127506 
    2680   -45.159212    5.6829535   -3.2010535    3.7039631   0.59473689    4.5929603            0            0            0    67685.035    204040.01    -673.6964   -311.20722   -4.6995514    -4.048134     371190.2   -45.159212 
    2690   -45.190454     5.695363    -3.213463     3.703597   0.59510299    4.5926049            0            0            0    66683.144    201154.73   -731.13822   -374.16367   -4.6053301    -3.945883    370302.04   -45.190454 
    2700   -45.221239    5.7077725   -3.2258725    3.7032144   0.59548556    4.5922221            0            0            0    65771.818    198321.62    -681.2662   -324.90158   -4.5114047   -3.8441833    369407.54   -45.221239 
    2710   -45.251567     5.720182    -3.238282    3.7028618   0.59583815    4.5918986            0            0            0     64872.88    195498.33   -611.12123   -268.56787   -4.4196339   -3.7438737    368479.72   -45.251567 
    2720   -45.281445    5.7325915   -3.2506915    3.7025308   0.59616921    4.5916062            0            0            0    63947.357    192692.25   -587.36112   -262.81237   -4.3286604   -3.6439271    367552.01   -45.281445 
    2730   -45.310878     5.745001    -3.263101    3.7022056   0.59649443    4.5913134            0            0            0    63032.655    189919.94    -565.7007   -256.27317     -4.23816   -3.5443991    366629.87   -45.310878 
    2740   -45.339872    5.7574105   -3.2755105    3.7018868   0.59681323    4.5910233            0            0            0    62130.666    187179.19   -541.60111   -245.59276   -4.1484001   -3.4455316    365710.51   -45.339872 
    2750   -45.368431      5.76982     -3.28792    3.7015769   0.59712306    4.5907417            0            0            0    61231.439    184467.85   -528.21019   -245.32036   -4.0595525   -3.3474421    364794.52   -45.368431 
    2760   -45.396563    5.7822295   -3.3003295    3.7012612   0.59743882    4.5904413            0            0            0    60330.829    181795.59   -539.30422   -263.79722   -3.9708547    -3.249684    363902.22   -45.396563 
    2770   -45.424275     5.794639    -3.312739    3.7009287    0.5977713    4.5901082            0            0            0    59442.413     179168.4   -558.19573   -282.96057   -3.8821864   -3.1522973    363038.44   -45.424275 
    2780    -45.45157    5.8070485   -3.3251485    3.7006043   0.59809573     4.589796            0            0            0    58622.022    176570.67    -486.9284   -217.67644   -3.7964352   -3.0569346     362144.5    -45.45157 
    2790   -45.478451     5.819458    -3.337558    3.7003173   0.59838274    4.5895492            0            0            0    57791.006    173979.53   -428.74408   -177.76462   -3.6970932   -2.9658682    361221.64   -45.478451 
    2800   -45.504923    5.8318675   -3.3499675    3.7000557   0.59864434    4.5893335            0            0            0    56945.636     171406.3   -399.83967   -169.54799   -3.5995337   -2.8763159    360292.02   -45.504923 
    2810   -45.530992     5.844277    -3.362377    3.6997952   0.59890478    4.5891023            0            0            0    56089.869    168867.81   -407.59029   -190.61462   -3.5027193   -2.7875789    359384.89   -45.530992 
    2820   -45.556664    5.8566865   -3.3747865    3.6995186   0.59918141    4.5888322            0            0            0    55236.131    166373.72    -439.4943   -225.83032   -3.4065183   -2.6994291    358512.51   -45.556664 
    2830   -45.581948     5.869096    -3.387196    3.6992054   0.59949457    4.5884972            0            0            0    54400.994    163934.56   -477.17153   -254.40567   -3.3108288    -2.611638    357687.47   -45.581948 
    2840   -45.606846    5.8815055   -3.3996055    3.6989038   0.59979625    4.5881997            0            0            0    53647.945    161520.14   -398.40013   -177.90106   -3.2180413   -2.5265556    356817.19   -45.606846 
    2850   -45.631361     5.893915    -3.412015    3.6986444    0.6000556     4.587978            0            0            0    52873.585    159109.14   -346.03737   -142.35164    -3.127714   -2.4439509    355916.21   -45.631361 
    2860   -45.655497    5.9063245   -3.4244245    3.6984092   0.60029078     4.587784            0            0            0    52084.975    156717.03   -323.74574    -138.3555   -3.0390791   -2.3631425    355010.29   -45.655497 
    2870   -45.679261     5.918734    -3.436834    3.6981766   0.60052339    4.5875777            0            0            0    51295.383    154357.76   -322.61829   -148.99663   -2.9516648   -2.2836239    354120.22   -45.679261 
    2880   -45.702657    5.9311435   -3.4492435    3.6979376   0.60076241    4.5873504            0            0            0    50513.831    152035.17   -330.94984   -162.72862   -2.8655046   -2.2053505    353249.49   -45.702657 
    2890   -45.725692     5.943553    -3.461653    3.6976838   0.60101623     4.587094            0            0            0    49738.223    149751.92   -353.11489   -184.13695   -2.7805531   -2.1282099    352405.74   -45.725692 
    2900    -45.74837    5.9559625   -3.4740625    3.6974218   0.60127817    4.5868291            0            0            0    49003.951    147503.89   -330.97877   -161.05953   -2.6974238   -2.0527605    351562.02    -45.74837 
    2910   -45.770696     5.968372    -3.486472    3.6971741   0.60152591    4.5865936            0            0            0     48276.12    145276.74   -306.33928   -142.03666    -2.616366   -1.9793209    350707.61   -45.770696 
    2920   -45.792674    5.9807815   -3.4988815    3.6969405   0.60175948    4.5863798            0            0            0    47553.267    143072.03   -283.88344   -128.34446   -2.5362538   -1.9098679    349846.55   -45.792674 
    2930   -45.814309     5.993191    -3.511291    3.6967158    0.6019842    4.5861738            0            0            0    46829.969    140893.16   -275.25465   -128.00279   -2.4514746   -1.8559727    348989.16   -45.814309 
    2940   -45.835604    6.0056005   -3.5237005    3.6964953    0.6022047    4.5859687            0            0            0    46119.834    138744.18   -262.54651    -122.1352   -2.3584885   -1.8046602    348134.65   -45.835604 
    2950   -45.856566      6.01801     -3.53611    3.6962812   0.60241878    4.5857695            0            0            0    45418.446    136622.12   -250.28194   -116.50216   -2.2690232   -1.7578678    347281.59   -45.856566 
    2960   -45.877198    6.0304195   -3.5485195    3.6960734   0.60262661    4.5855759            0            0            0    44725.765    134527.15   -238.63654   -111.21462   -2.1891463   -1.7145037    346430.16   -45.877198 
    2970   -45.897505     6.042829    -3.560929    3.6958736   0.60282641    4.5853913            0            0            0    44041.337    132457.94   -227.32987   -106.60039   -2.1109506   -1.6728989    345578.39   -45.897505 
    2980   -45.917491    6.0552385   -3.5733385    3.6956734    0.6030266    4.5851997            0            0            0     43359.21    130418.05   -228.60412   -111.81188   -2.0343219    -1.632543     344738.7   -45.917491 
    2990   -45.937162     6.067648    -3.585748    3.6954665   0.60323349    4.5849942            0            0            0    42685.479    128409.76   -234.63997   -118.68659   -1.9592861   -1.5932319    343913.89   -45.937162 
    3000   -45.956522    6.0800575   -3.5981575    3.6952479   0.60345214    4.5847698            0            0            0    42018.818    126434.26   -247.94427   -129.86682   -1.8858431    -1.554803    343108.36   -45.956522 
    3010   -45.975577     6.092467    -3.610567    3.6950201   0.60367992    4.5845368            0            0            0    41383.783    124489.99     -229.312   -109.33229   -1.8141647   -1.5176184    342306.13   -45.975577 
    3020   -45.994328    6.1048765   -3.6229765    3.6948166   0.60388338    4.5843513            0            0            0    40757.906    122560.55   -199.51653   -87.312268   -1.7442885   -1.4831335    341480.19   -45.994328 
    3030   -46.012781     6.117286    -3.635386    3.6946343   0.60406568    4.5841939            0            0            0    40132.482    120650.92   -177.52763   -75.943735   -1.6759855   -1.4507937    340643.85   -46.012781 
    3040   -46.030939    6.1296955   -3.6477955    3.6944681   0.60423193    4.5840516            0            0            0    39511.386    118762.91   -160.05924   -68.692758   -1.6091775   -1.4202362    339802.56   -46.030939 
    3050   -46.048805     6.142105    -3.660205    3.6943131   0.60438695    4.5839163            0            0            0      38892.4    116898.36     -152.087   -69.075684   -1.5438116   -1.3911922    338962.58   -46.048805 
    3060   -46.066386    6.1545145   -3.6726145    3.6941583   0.60454168    4.5837714            0            0            0    38278.451    115061.51   -152.44561    -73.71593   -1.4798575   -1.3632037    338133.59   -46.066386 
    3070   -46.083684     6.166924    -3.685024    3.6939982   0.60470179    4.5836132            0            0            0    37672.104    113253.58   -157.51344    -79.75815   -1.4173398   -1.3361351    337318.17   -46.083684 
    3080   -46.100704    6.1793335   -3.6974335    3.6938268   0.60487319    4.5834362            0            0            0    37072.252     111475.8   -169.44825   -89.595893   -1.3563386   -1.3100538    336521.13   -46.100704 
    3090   -46.117452     6.191743    -3.709843    3.6936336   0.60506637    4.5832271            0            0            0    36477.375    109731.49   -192.79974   -106.56585   -1.2914353   -1.2675507    335752.51   -46.117452 
    3100   -46.133932    6.2041525   -3.7222525     3.693428   0.60527196    4.5830115            0            0            0    35920.599    108016.31   -172.33548    -82.17395   -1.2278471   -1.2251701    334983.86   -46.133932 
    3110   -46.150146     6.216562    -3.734662    3.6932491   0.60545087    4.5828491            0            0            0    35367.463    106313.68    -147.2498   -64.036944   -1.1655436   -1.1844698    334190.62   -46.150146 
    3120   -46.166098    6.2289715   -3.7470715    3.6930913   0.60560873    4.5827133            0            0            0    34814.621    104628.34   -129.25092   -55.223471   -1.1044612   -1.1452532    333387.15   -46.166098 
    3130   -46.181793     6.241381    -3.759481    3.6929487    0.6057513    4.5825908            0            0            0    34265.073    102963.17   -116.82973   -51.115762   -1.0446064   -1.1074013    332579.75   -46.181793 
    3140   -46.197234    6.2537905   -3.7718905    3.6928139   0.60588614    4.5824697            0            0            0    33719.193    101321.09   -111.75962   -51.751639  -0.98600928   -1.0707869    331775.97   -46.197234 
    3150   -46.212427       6.2662      -3.7843    3.6926805   0.60601949    4.5823437            0            0            0    33179.752    99703.311   -110.49173   -53.561545  -0.92870718   -1.0353253    330979.39   -46.212427 
    3160   -46.227377    6.2786095   -3.7967095    3.6925439   0.60615614    4.5822087            0            0            0    32646.547    98110.695   -113.59585   -57.456913  -0.87814271   -1.0002134    330193.48   -46.227377 
    3170   -46.242095     6.291019    -3.809119    3.6923991   0.60630089    4.5820606            0            0            0     32121.96    96544.141   -117.79344   -60.468093  -0.84342829  -0.96415892    329420.56   -46.242095 
    3180    -46.25659    6.3034285   -3.8215285    3.6922492   0.60645079    4.5819081            0            0            0    31609.583     95001.85   -115.65339   -57.448454  -0.80978596  -0.92920176    328654.45    -46.25659 
    3190    -46.27088     6.315838    -3.833938    3.6921038   0.60659621    4.5817667            0            0            0    31106.233    93480.195   -108.97821   -52.516616  -0.77726458  -0.89540299    327886.78    -46.27088 
    3200   -46.284994    6.3282475   -3.8463475    3.6919639   0.60673615    4.5816331            0            0            0    30609.767    91979.204   -101.84493   -48.059629  -0.74581336  -0.86273969    327119.44   -46.284994 
    3210   -46.298982     6.340657    -3.858757    3.6918304   0.60686965    4.5815072            0            0            0    30118.505    90498.542   -96.823975   -46.204349   -0.7153881  -0.83119915    326353.08   -46.298982 
    3220   -46.312935    6.3530665   -3.8711665    3.6916985   0.60700153    4.5813799            0            0            0    29637.874    89039.906   -87.476858   -38.807486  -0.68590739   -0.8007548    325591.37   -46.312935 
    3230   -46.327029     6.365476    -3.883576    3.6915913   0.60710869    4.5812919            0            0            0    29158.349    87595.166   -80.520806    -39.59817  -0.65743149  -0.77167398    324814.74   -46.327029 
    3240   -46.341587    6.3778855   -3.8959855    3.6914587   0.60724134    4.5811503            0            0            0    28702.474    86181.978   -59.465118   -15.089005   -0.6293776  -0.74374908    324070.52   -46.341587 
    3250   -46.357233     6.390295    -3.908395    3.6913425   0.60735748    4.5810365            0            0            0     28218.13    84783.971   -86.478076   -43.103833  -0.60160989  -0.71767521    323337.51   -46.357233 
    3260   -46.375186    6.4027045   -3.9208045    3.6912731   0.60742694    4.5810108            0            0            0     27785.11    83393.613   -32.160415   -6.1236098  -0.56884892  -0.69832533    322555.43   -46.375186 
    3270   -46.397839     6.415114    -3.933214    3.6912074   0.60749256    4.5809567            0            0            0    27340.364    82027.867   -14.173932    7.3975762  -0.52648706  -0.68120748    321826.85   -46.397839 
    3280   -46.429953    6.4275235   -3.9456235    3.6912093   0.60749071    4.5810072            0            0            0    26879.386     80665.86   -15.153479   -12.549843  -0.48102105  -0.67118437    321109.09   -46.429953 
    3290   -46.481113     6.439933    -3.958033     3.691337   0.60736302    4.5812277            0            0            0    26488.905    79299.749    100.26189    66.704331  -0.43735497  -0.66675084    320379.79   -46.481113 
    3300   -46.570929    6.4523425   -3.9704425    3.6916946    0.6070054    4.5817571            0            0            0    26163.545    77909.612    340.84029    240.18273  -0.39047513  -0.67233494     319669.9   -46.570929 
    3310   -46.740253     6.464752    -3.982852     3.692533   0.60616703    4.5829326            0            0            0    25939.994    76447.541    803.07733    569.36189  -0.32133954   -0.7220287    318986.08   -46.740253 
    3320   -47.077094    6.4771615   -3.9952615    3.6944108   0.60428923    4.5855328            0            0            0    25847.893    74804.328    1632.5714    1106.7808  -0.14082353  -0.87262039    318285.31   -47.077094 
    3330   -47.780327     6.489571    -4.007671    3.6985312    0.6001688    4.5911459            0            0            0    26315.913    72772.627    3666.5523    2508.5606   0.23355107   -1.1746685    317187.91   -47.780327 
    3340   -49.335803    6.5019805   -4.0200805    3.7079717   0.59072827    4.6038976            0            0            0    27870.397    69816.412    8236.0072    5558.7733    1.1082094   -1.6176531    313964.37   -49.335803 
    3350   -52.464678    6.5130701   -4.0311701    3.7276395   0.57106051    4.6301375            0            0            0    31771.607    65335.886     17978.09    12000.844    3.1377984   -2.2520409    302797.87   -52.464678 
    3360   -55.713863    6.5192575   -4.0373575     3.749133   0.54956701    4.6584375            0            0            0    35962.054    61263.168    28036.131    18586.864    5.0790534   -2.4724324    286178.29   -55.713863 
    3370   -58.789434    6.5233316   -4.0414316    3.7706265   0.52807351    4.6864974            0            0            0    39755.546    57616.222    37109.286    24541.128     7.209279   -2.4849709    267265.23   -58.789434 
    3380   -61.677995     6.526386    -4.044486      3.79212   0.50658001    4.7144187            0            0            0    43023.182    54268.613    45023.366    29777.567     9.110466   -2.1843575    247499.19   -61.677995 
[...]
    4270   -96.391973    6.8927028   -4.4108028    5.4496519   -1.1509519     6.615617            0            0            0    948.49884    1300.9028    874.93455    669.65912    1.0765218      -31.185    156.28565   -96.391973 
    4280    -96.39661    6.8991889   -4.4172889    5.4711454   -1.1724454    6.6453037            0            0            0    900.44956    1236.2613    824.70163    640.38571    1.0818479   -30.347703    136.21479    -96.39661 
    4290    -96.40037    6.9048271   -4.4229271    5.4893911   -1.1906911    6.6706911            0            0            0    850.35407    1183.4984    768.84049    598.72331    1.0217281   -29.567075    137.43716    -96.40037 
    4300   -96.403726    6.9103175   -4.4284175    5.5069308   -1.2082308    6.6954033            0            0            0    754.62952    1134.3873    655.70763    473.79365    1.1388627    -29.02408    212.04257   -96.403726 
    4310   -96.406827    6.9153573   -4.4334573    5.5226876   -1.2239876    6.7176929            0            0            0    778.24596    1092.0253    692.65223    550.06032   0.93172927   -28.175731    120.89049   -96.406827 
    4320   -96.409839    6.9208254   -4.4389254    5.5395669   -1.2408669     6.741828            0            0            0    704.23135    1047.8934    608.09555    456.70513    1.0943043   -27.709272    172.02637   -96.409839 
    4330    -96.41265    6.9260059   -4.4441059    5.5553256   -1.2566256    6.7645431            0            0            0    662.51623    1008.1243     561.6743    417.75014   0.99889493   -27.011259    182.72408    -96.41265 
    4340   -96.415314    6.9309909   -4.4490909     5.570264    -1.271564    6.7862202            0            0            0    685.55075     971.7281     597.1213    487.80285   0.75601947   -26.197227    102.65681   -96.415314 
    4350   -96.417768    6.9360494   -4.4541494    5.5853214   -1.2866214    6.8083424            0            0            0    614.54236    935.89941    514.61492    393.11276   0.83638509   -25.754298    162.20264   -96.417768 
    4360   -96.420744    6.9423458   -4.4604458    5.6035753   -1.3048753    6.8351824            0            0            0    648.28363    894.28017    565.14949    485.42123   0.56650423   -24.790996    60.619683   -96.420744 
    4370   -96.423055     6.947343    -4.465443     5.618069    -1.319369    6.8568707            0            0            0    573.66984    862.10899     477.7331    381.16741   0.66165992    -24.38806    131.23065   -96.423055 
    4380   -96.425119    6.9521084   -4.4702084    5.6316552   -1.3329552    6.8772751            0            0            0    592.17683    833.03459     506.9036    436.59229   0.49650687   -23.695179    68.665237   -96.425119 
    4390   -96.427105    6.9568044   -4.4749044    5.6449707   -1.3462707    6.8974831            0            0            0    521.16301    805.19186    422.71685    335.58033   0.54929035   -23.268157    140.15591   -96.427105 
    4400   -96.429017    6.9615363   -4.4796363    5.6582048   -1.3595048    6.9176575            0            0            0    529.35841    778.45303     438.0378    371.58441   0.37142481   -22.581892       96.407   -96.429017 
    4410   -96.430675    6.9657063   -4.4838063    5.6697787   -1.3710787    6.9354398            0            0            0    533.61652    755.68077    449.64453    395.52428   0.39355074   -22.184161    62.947177   -96.430675 
    4420   -96.432878    6.9715572   -4.4896572    5.6859949   -1.3872949    6.9606337            0            0            0    475.25458    724.62471    383.45793     317.6811   0.49147237   -21.698972    112.74294   -96.432878 
    4430   -96.434663    6.9763119   -4.4944119    5.6989985   -1.4002985    6.9809586            0            0            0    486.68838    700.65933    403.27329    356.13251   0.38800973    -21.10355    68.300961   -96.434663 
    4440   -96.436583    6.9817293   -4.4998293    5.7137688   -1.4150688    7.0042687            0            0            0    474.23919    674.28685    393.11584     355.3149   0.29730373   -20.457772    56.935568   -96.436583 
    4450   -96.438248    6.9865662   -4.5046662    5.7268795   -1.4281795    7.0251552            0            0            0    435.28417    651.47343    350.27921    304.09986   0.40940324   -20.113164    88.298833   -96.438248 
    4460   -96.440178     6.992426    -4.510526    5.7425042   -1.4438042    7.0501234            0            0            0    465.85987    625.21559    394.45996    377.90405   0.23174186   -19.338663     13.15338   -96.440178 
    4470   -96.441874    6.9975848   -4.5156848    5.7563724   -1.4576724    7.0726454            0            0            0    380.50133    602.46012    292.36989    246.67398   0.35966328   -18.984279    113.33387   -96.441874 
    4480   -96.443345    7.0022663   -4.5203663    5.7687113   -1.4700113    7.0927158            0            0            0    419.30405    582.93342    345.80683     329.1719   0.23437349   -18.386744    33.629278   -96.443345 
    4490   -96.444873    7.0072966   -4.5253966    5.7820024   -1.4833024    7.1145794            0            0            0    375.72612    562.38054    296.92918    267.86863   0.37798145   -18.079553    74.347229   -96.444873 
    4500   -96.446445    7.0127819   -4.5308819    5.7961846   -1.4974846    7.1379431            0            0            0    430.13333    541.24309    370.93478    378.22211   0.29455963   -17.477544   -30.363941   -96.446445 
    4510   -96.448014    7.0180412   -4.5361412    5.8100921   -1.5113921    7.1613244            0            0            0    335.08779     520.9517    255.30519    229.00649   0.30648879   -17.009786    87.370331   -96.448014 
    4520   -96.449607    7.0238123   -4.5419123     5.824914    -1.526214       7.1862            0            0            0    353.01708    500.20445    283.80327    275.04352   0.31914792   -16.525957    37.112252   -96.449607 
    4530   -96.451046    7.0292206   -4.5473206    5.8387669   -1.5400669    7.2096762            0            0            0    328.08862    481.40197    257.21762    245.64626   0.32391695   -16.066229    52.699076   -96.451046 
    4540   -96.452552     7.035331    -4.553431    5.8542086   -1.5555086    7.2359878            0            0            0    346.59208    461.23744    286.89366    291.64513    0.4192928   -15.660687    2.3003449   -96.452552 
    4550   -96.454051    7.0412067   -4.5593067    5.8693274   -1.5706274    7.2622018            0            0            0    260.25224    442.05543    182.29191    156.40939   0.35588644   -15.076544    108.77202   -96.454051 
    4560   -96.455312    7.0464054   -4.5645054    5.8822803   -1.5835803    7.2845991            0            0            0    287.68721    426.30164    221.43826    215.32175   0.38036123   -14.680747    50.421033   -96.455312 
    4570    -96.45659    7.0517842   -4.5698842    5.8958379   -1.5971379    7.3083533            0            0            0    278.82704     410.2919    214.54336    211.64586   0.35638229   -14.227239    45.678555    -96.45659 
    4580   -96.457588    7.0562409   -4.5743409    5.9069568   -1.6082568    7.3279354            0            0            0    270.97371     397.4933    207.18674    208.24108   0.22226446   -13.731512    43.092157   -96.457588 
    4590   -96.458877    7.0622624   -4.5803624    5.9219148   -1.6232148    7.3544717            0            0            0     227.1504    380.57044    158.29174    142.58901    0.3879897   -13.498108    87.916085   -96.458877 
    4600   -96.459985    7.0674998   -4.5855998     5.934584    -1.635884    7.3769424            0            0            0    297.49265     366.9083    249.17712    276.39252   0.23626992   -12.961108   -31.530511   -96.459985 
    4610   -96.460972    7.0725995   -4.5906995    5.9469793   -1.6482793    7.3991616            0            0            0    291.30575    353.94751    244.91902    275.05073   0.20706234   -12.590319   -36.899989   -96.460972 
    4620   -96.462105    7.0778365   -4.5959365    5.9599219   -1.6612219    7.4226507            0            0            0    238.47674    340.87794    182.67947    191.87283   0.19921808   -12.236389    26.788296   -96.462105 
    4630   -96.463153     7.083393    -4.601493    5.9733552   -1.6746552    7.4470644            0            0            0    226.67127     327.8419    172.17405    179.99784   0.24694444   -11.945536    29.875513   -96.463153 
    4640   -96.463992    7.0880031   -4.6061031    5.9843816   -1.6856816    7.4671771            0            0            0    256.41055    317.54493    211.66714    240.01959   0.16944761   -11.572035   -25.132406   -96.463992 
    4650   -96.464815    7.0925188   -4.6106188    5.9952525   -1.6965525    7.4871706            0            0            0    254.85315    307.67974    212.21482    244.66489   0.10937327   -11.228407    -33.34692   -96.464815 
    4660   -96.465643    7.0969887   -4.6150887    6.0062185   -1.7075185    7.5075804            0            0            0    185.24106    297.98075    128.94648    128.79595   0.12928572   -10.981274    59.111845   -96.465643 
    4670   -96.466672    7.1028726   -4.6209726    6.0202588   -1.7215588    7.5336295            0            0            0      217.273     286.0901    171.58594    194.14297  0.037365278   -10.532073  -0.74854496   -96.466672 
    4680   -96.467502    7.1076933   -4.6257933    6.0318514   -1.7331514     7.555318            0            0            0    188.34628    276.59233    139.41925    149.02725    0.1466985   -10.394484    31.728211   -96.467502 
    4690   -96.468242    7.1121314   -4.6302314    6.0424263   -1.7437263    7.5751611            0            0            0    198.39835    268.21579     153.7243    173.25495  0.044754133   -10.026499    8.1723325   -96.468242 
    4700   -96.468985    7.1166661   -4.6347661    6.0534417   -1.7547417    7.5960628            0            0            0    165.36728    259.71954    116.04427    120.33803   0.10373468   -9.8510264     47.85631   -96.468985 
    4710   -96.469559    7.1202826   -4.6383826    6.0620534   -1.7633534    7.6123731            0            0            0    171.55982     253.2864    125.65274    135.74033   0.10843695   -9.6677239     31.91668   -96.469559 
    4720   -96.470371    7.1253816   -4.6434816    6.0741621   -1.7754621    7.6353761            0            0            0    182.83629    244.49867    141.69836    162.31185    0.0280372   -9.3068665    6.0972334   -96.470371 
    4730   -96.471082    7.1300115   -4.6481115    6.0853154   -1.7866154    7.6567563            0            0            0    182.31971     236.6609    143.40612     166.8921  0.023364575   -9.0662042   -1.4102257   -96.471082 
    4740   -96.471679    7.1339148   -4.6520148    6.0948101   -1.7961101      7.67509            0            0            0    149.07146    230.16399    104.58265    112.46775 -0.018586644   -8.8162184     40.79914   -96.471679 
    4750   -96.472466    7.1393323   -4.6574323    6.1076719   -1.8089719    7.6998447            0            0            0    191.18947    221.68459    157.83703    194.04677  -0.14444012   -8.4015196   -30.105424   -96.472466 
    4760   -96.473133    7.1439161   -4.6620161    6.1188507   -1.8201507    7.7216403            0            0            0    138.64538    214.51237    97.195599    104.22817  0.073139134   -8.4497546    39.440482   -96.473133 
    4770   -96.473923    7.1492343   -4.6673343     6.131624    -1.832924    7.7465135            0            0            0    153.60109    206.63278    116.92783    137.24266  -0.10204463   -7.9854699    9.2261332   -96.473923 
    4780   -96.474515    7.1537063   -4.6718063    6.1424159   -1.8437159    7.7676616            0            0            0    129.27294    200.17674    90.125925    97.516152   0.04610455   -7.9664257    37.990596   -96.474515 
    4790   -96.475266    7.1590011   -4.6771011    6.1551646   -1.8564646    7.7927162            0            0            0    132.87105    192.81617    96.375816    109.42118 -0.034812021   -7.6309071    24.901582   -96.475266 
    4800   -96.475936    7.1639198   -4.6820198    6.1670367   -1.8683367    7.8161603            0            0            0    133.58346    186.19648    98.978746    115.57516  -0.10115504   -7.3347384    16.810371   -96.475936 
    4810   -96.476493     7.168394    -4.686494     6.177752    -1.879052    7.8373549            0            0            0     163.9068    180.42465    136.70743    174.58831  -0.20958913   -7.0124667   -33.887581   -96.476493 
    4820   -96.477141    7.1734526   -4.6915526    6.1900195   -1.8913195    7.8617813            0            0            0    117.33326    173.99486     83.41337    94.591547 -0.042703573   -7.0091194    27.460636   -96.477141 
    4830   -96.477694    7.1776284   -4.6957284    6.2001227   -1.9014227    7.8819456            0            0            0    125.40508    168.88697    94.187854    113.14043  -0.16280408    -6.689237    10.161968   -96.477694 
    4840   -96.478219    7.1819263   -4.7000263     6.210528    -1.911828    7.9027899            0            0            0    125.63816    163.77342    95.872264     117.2688  -0.20206595    -6.469056    4.2815965   -96.478219 
    4850   -96.478717    7.1862017   -4.7043017     6.220827    -1.922127    7.9234485            0            0            0    113.77094    158.85757    83.509155    98.946084  -0.11182429   -6.4167412    16.251801   -96.478717 
    4860   -96.479236    7.1905195   -4.7086195    6.2313241   -1.9326241    7.9446113            0            0            0    102.52667    153.99292    71.606002    81.981079  -0.11604434    -6.245734    27.415072   -96.479236 
    4870   -96.479685    7.1943853   -4.7124853     6.240676    -1.941976    7.9634919            0            0            0    99.207466    149.78684    68.764496    79.071061  -0.17907215   -6.0218627    27.703058   -96.479685 
    4880   -96.480165    7.1987532   -4.7168532    6.2512463   -1.9525463    7.9848849            0            0            0    92.944286    145.16647    62.927365    70.739024  -0.11836877   -5.9391064     31.73829   -96.480165 
    4890    -96.48066    7.2030942   -4.7211942    6.2617159   -1.9630159    8.0061078            0            0            0    105.25661    140.73129    78.453693    96.584858  -0.24853289   -5.6203344    8.8636789    -96.48066 
    4900   -96.481132     7.207515    -4.725615    6.2723937   -1.9736937    8.0278218            0            0            0      90.8557    136.33751    63.048979    73.180613  -0.14841939   -5.5924558    25.018724   -96.481132 
    4910   -96.481574    7.2116545   -4.7297545    6.2824012   -1.9837012    8.0482224            0            0            0    109.00288    132.35026    85.167948    109.49042  -0.31231546   -5.2442541   -5.8943167   -96.481574 
    4920   -96.481991    7.2157585   -4.7338585    6.2922325   -1.9935325    8.0682773            0            0            0    117.83346    128.54192    96.662889    128.29558  -0.27882406   -5.1512986   -23.068629   -96.481991 
    4930   -96.482302    7.2189391   -4.7370391    6.2999521   -2.0012521    8.0841182            0            0            0    109.18395    125.62114    87.436415     114.4943  -0.23523418   -5.1016085   -13.677874   -96.482302 
    4940    -96.48266     7.222269    -4.740369    6.3080489   -2.0093489     8.100776            0            0            0    93.561017    122.62186    69.926863    88.134327  -0.29275605   -4.9192701    5.8618589    -96.48266 
    4950   -96.483105    7.2267969   -4.7448969    6.3188976   -2.0201976    8.1230553            0            0            0      102.172     118.7245    81.000679    106.79083  -0.33357138   -4.7257589   -11.075344   -96.483105 
    4960   -96.483406    7.2298361   -4.7479361    6.3263371   -2.0276371    8.1384639            0            0            0    93.357894    116.11801    71.543245    92.412429  -0.29563821   -4.6786244   -1.1260777   -96.483406 
    4970   -96.483754    7.2336529   -4.7517529    6.3354872   -2.0367872    8.1573522            0            0            0    96.835325    112.98941    76.401747    101.11482  -0.33350353   -4.5150275   -9.7082467   -96.483754 
    4980   -96.484034    7.2366447   -4.7547447    6.3426873   -2.0439873    8.1722594            0            0            0    95.715225    110.58594    75.786844     100.7729  -0.32229053    -4.440176    -10.78217   -96.484034 
    4990   -96.484371    7.2403106   -4.7584106    6.3514836   -2.0527836    8.1904974            0            0            0    92.566575    107.71565    72.952725    97.031345  -0.31180633   -4.3463102   -9.4282663   -96.484371 
    5000   -96.484709    7.2440412   -4.7621412    6.3605821   -2.0618821    8.2094737            0            0            0    75.410406    104.82124    53.988718    67.421255  -0.29154672   -4.2632142    12.333067   -96.484709 
Loop time of 1.31014 on 1 procs for 5000 steps with 6 atoms

38.4% CPU use with 1 MPI tasks x no OpenMP threads

Minimization stats:
  Stopping criterion = max iterations
  Energy initial, next-to-last, final = 
        -26.8685470802     -96.4847010177     -96.4847087523
  Force two-norm initial, final = 3.84487 0.0601486
  Force max component initial, final = 2.22235 0.025865
  Final line search alpha, max atom move = 0.0104615 0.000270587
  Iterations, force evaluations = 5000 5346

MPI task timing breakdown:
Section |  min time  |  avg time  |  max time  |%varavg| %total
---------------------------------------------------------------
Pair    | 1.0053     | 1.0053     | 1.0053     |   0.0 | 76.73
Neigh   | 0.002135   | 0.002135   | 0.002135   |   0.0 |  0.16
Comm    | 0.085515   | 0.085515   | 0.085515   |   0.0 |  6.53
Output  | 0.019229   | 0.019229   | 0.019229   |   0.0 |  1.47
Modify  | 0          | 0          | 0          |   0.0 |  0.00
Other   |            | 0.198      |            |       | 15.11

Nlocal:    6 ave 6 max 6 min
Histogram: 1 0 0 0 0 0 0 0 0 0
Nghost:    170 ave 170 max 170 min
Histogram: 1 0 0 0 0 0 0 0 0 0
Neighs:    86 ave 86 max 86 min
Histogram: 1 0 0 0 0 0 0 0 0 0

Total # of neighbors = 86
Ave neighs/atom = 14.3333
Neighbor list builds = 41
Dangerous builds = 0
# ---- define output variables ----
variable natoms equal "count(all)"
variable tot_energy equal "c_eatoms"
variable a11 equal "xhi-xlo"
variable a22 equal "yhi-ylo"
variable a33 equal "zhi-zlo"
variable tilt_xy equal "xy"
variable tilt_xz equal "xz"
variable tilt_yz equal "yz"
variable tot_press equal "press"
variable press_xx equal "pxx"
variable press_yy equal "pyy"
variable press_zz equal "pzz"
variable press_xy equal "pxy"
variable press_xz equal "pxz"
variable press_yz equal "pyz"

# ---- output ----
print "pypospack:output_section:begin"
pypospack:output_section:begin
print "tot_energy = ${tot_energy}"
tot_energy = -96.4847087523093
print "num_atoms = ${natoms}"
num_atoms = 6
print "a11 = ${a11}"
a11 = 12.0061823072575
print "a22 = ${a22}"
a22 = 8.42246422233344
print "a33 = ${a33}"
a33 = 10.3406474906621
print "a12 = ${tilt_xy}"
a12 = 0
print "a13 = ${tilt_xz}"
a13 = 0
print "a23 = ${tilt_yz}"
a23 = 0
print "tot_press = ${tot_press}"
tot_press = 75.4104056324894
print "pxx = ${press_xx}"
pxx = 104.821244589807
print "pyy = ${press_yy}"
pyy = 53.9887175479434
print "pzz = ${press_zz}"
pzz = 67.4212547597175
print "pxy = ${press_xy}"
pxy = -0.291546721752871
print "pxz = ${press_xz}"
pxz = -4.26321423240829
print "pyz = ${press_yz}"
pyz = 12.3330671332178
print "pypospack:output_section:done"
pypospack:output_section:done
print "pypospack:lammps_sim:done"
pypospack:lammps_sim:done
Total wall time: 0:00:01
