 vasp.5.4.1 24Jun15 (build Jun 05 2017 10:38:15) complex                        
  
 executed on           IFC91_ompi date 2017.08.29  21:12:05
 running on   16 total cores
 distrk:  each k-point on   16 cores,    1 groups
 distr:  one band on NCORES_PER_BAND=   1 cores,   16 groups


--------------------------------------------------------------------------------------------------------


 INCAR:
 POTCAR:    PAW_PBE O_h 06Feb2004                 
 POTCAR:    PAW_PBE Mg 13Apr2007                  

 ----------------------------------------------------------------------------- 
|                                                                             |
|           W    W    AA    RRRRR   N    N  II  N    N   GGGG   !!!           |
|           W    W   A  A   R    R  NN   N  II  NN   N  G    G  !!!           |
|           W    W  A    A  R    R  N N  N  II  N N  N  G       !!!           |
|           W WW W  AAAAAA  RRRRR   N  N N  II  N  N N  G  GGG   !            |
|           WW  WW  A    A  R   R   N   NN  II  N   NN  G    G                |
|           W    W  A    A  R    R  N    N  II  N    N   GGGG   !!!           |
|                                                                             |
|      For optimal performance we recommend to set                            |
|        NCORE= 4 - approx SQRT( number of cores)                             |
|      NCORE specifies how many cores store one orbital (NPAR=cpu/NCORE).     |
|      This setting can  greatly improve the performance of VASP for DFT.     |
|      The default, NPAR=number of cores might be grossly inefficient         |
|      on modern multi-core architectures or massively parallel machines.     |
|      Do your own testing !!!!                                               |
|      Unfortunately you need to use the default for GW and RPA calculations. |
|      (for HF NCORE is supported but not extensively tested yet)             |
|                                                                             |
 ----------------------------------------------------------------------------- 

 POTCAR:    PAW_PBE O_h 06Feb2004                 
   VRHFIN =O: s2p4                                                              
   LEXCH  = PE                                                                  
   EATOM  =   432.3788 eV,   31.7789 Ry                                         
                                                                                
   TITEL  = PAW_PBE O_h 06Feb2004                                               
   LULTRA =        F    use ultrasoft PP ?                                      
   IUNSCR =        1    unscreen: 0-lin 1-nonlin 2-no                           
   RPACOR =     .800    partial core radius                                     
   POMASS =   16.000; ZVAL   =    6.000    mass and valenz                      
   RCORE  =    1.100    outmost cutoff radius                                   
   RWIGS  =    1.400; RWIGS  =     .741    wigner-seitz radius (au A)           
   ENMAX  =  700.000; ENMIN  =  500.000 eV                                      
   ICORE  =        2    local potential                                         
   LCOR   =        T    correct aug charges                                     
   LPAW   =        T    paw PP                                                  
   EAUG   =  888.804                                                            
   DEXC   =     .000                                                            
   RMAX   =    1.666    core radius for proj-oper                               
   RAUG   =    1.300    factor for augmentation sphere                          
   RDEP   =    1.125    radius for radial grids                                 
   QCUT   =   -7.501; QGAM   =   15.002    optimization parameters              
                                                                                
   Description                                                                  
     l     E      TYP  RCUT    TYP  RCUT                                        
     0   .000     23  1.100                                                     
     0   .000     23  1.100                                                     
     1   .000     23  1.100                                                     
     1   .000     23  1.100                                                     
     2   .000      7  1.100                                                     
  local pseudopotential read in
  partial core-charges read in
  atomic valenz-charges read in
  non local Contribution for L=           0  read in
    real space projection operators read in
  non local Contribution for L=           0  read in
    real space projection operators read in
  non local Contribution for L=           1  read in
    real space projection operators read in
  non local Contribution for L=           1  read in
    real space projection operators read in
    PAW grid and wavefunctions read in
 
   number of l-projection  operators is LMAX  =           4
   number of lm-projection operators is LMMAX =           8
 
 POTCAR:    PAW_PBE Mg 13Apr2007                  
   VRHFIN =Mg: s2p0                                                             
   LEXCH  = PE                                                                  
   EATOM  =    23.0369 eV,    1.6932 Ry                                         
                                                                                
   TITEL  = PAW_PBE Mg 13Apr2007                                                
   LULTRA =        F    use ultrasoft PP ?                                      
   IUNSCR =        1    unscreen: 0-lin 1-nonlin 2-no                           
   RPACOR =    1.500    partial core radius                                     
   POMASS =   24.305; ZVAL   =    2.000    mass and valenz                      
   RCORE  =    2.000    outmost cutoff radius                                   
   RWIGS  =    2.880; RWIGS  =    1.524    wigner-seitz radius (au A)           
   ENMAX  =  126.143; ENMIN  =   94.607 eV                                      
   RCLOC  =    1.506    cutoff for local pot                                    
   LCOR   =        T    correct aug charges                                     
   LPAW   =        T    paw PP                                                  
   EAUG   =  454.734                                                            
   DEXC   =     .000                                                            
   RMAX   =    4.105    core radius for proj-oper                               
   RAUG   =    1.300    factor for augmentation sphere                          
   RDEP   =    2.025    radius for radial grids                                 
   QCUT   =   -3.045; QGAM   =    6.090    optimization parameters              
                                                                                
   Description                                                                  
     l     E      TYP  RCUT    TYP  RCUT                                        
     0   .000     23  2.000                                                     
     0  2.000     23  2.000                                                     
     1   .100     23  2.000                                                     
     1  2.000     23  2.000                                                     
     2   .000     23  2.000                                                     
  local pseudopotential read in
  partial core-charges read in
  atomic valenz-charges read in
  non local Contribution for L=           0  read in
    real space projection operators read in
  non local Contribution for L=           0  read in
    real space projection operators read in
  non local Contribution for L=           1  read in
    real space projection operators read in
  non local Contribution for L=           1  read in
    real space projection operators read in
  non local Contribution for L=           2  read in
    real space projection operators read in
    PAW grid and wavefunctions read in
 
   number of l-projection  operators is LMAX  =           5
   number of lm-projection operators is LMMAX =          13
 
  PAW_PBE O_h 06Feb2004                 :
 energy of atom  1       EATOM= -432.3788
 kinetic energy error for atom=    0.0500 (will be added to EATOM!!)
  PAW_PBE Mg 13Apr2007                  :
 energy of atom  2       EATOM=  -23.0369
 kinetic energy error for atom=    0.0000 (will be added to EATOM!!)
 
 
 POSCAR: Mg1 O1                                  
  positions in direct lattice
  No initial velocities read in
 exchange correlation table for  LEXCH =        8
   RHO(1)=    0.500       N(1)  =     2000
   RHO(2)=  100.500       N(2)  =     4000
 


--------------------------------------------------------------------------------------------------------


 ion  position               nearest neighbor table
   1  0.500  0.500  0.500-   2 2.13   2 2.13   2 2.13   2 2.13   2 2.13   2 2.13
   2  0.000  0.000  0.000-   1 2.13   1 2.13   1 2.13   1 2.13   1 2.13   1 2.13
 
  LATTYP: Found a face centered cubic cell.
 ALAT       =     4.2564834762
  
  Lattice vectors:
  
 A1 = (   3.0097880000,   0.0000000000,   0.0000000000)
 A2 = (   1.5048940000,   2.6065530000,   0.0000000000)
 A3 = (   1.5048940000,   0.8688510000,   2.4574820000)


Analysis of symmetry for initial positions (statically):
=====================================================================
 Subroutine PRICEL returns:
 Original cell was already a primitive cell.
 

 Routine SETGRP: Setting up the symmetry group for a 
 face centered cubic supercell.


 Subroutine GETGRP returns: Found 48 space group operations
 (whereof 48 operations were pure point group operations)
 out of a pool of 48 trial point group operations.


The static configuration has the point symmetry O_h .


Analysis of symmetry for dynamics (positions and initial velocities):
=====================================================================
 Subroutine PRICEL returns:
 Original cell was already a primitive cell.
 

 Routine SETGRP: Setting up the symmetry group for a 
 face centered cubic supercell.


 Subroutine GETGRP returns: Found 48 space group operations
 (whereof 48 operations were pure point group operations)
 out of a pool of 48 trial point group operations.


The dynamic configuration has the point symmetry O_h .


 Subroutine INISYM returns: Found 48 space group operations
 (whereof 48 operations are pure point group operations),
 and found     1 'primitive' translations

 
 
 KPOINTS: Automatic Mesh                          

Automatic generation of k-mesh.
Space group operators:
 irot       det(A)        alpha          n_x          n_y          n_z        tau_x        tau_y        tau_z
    1     1.000000     0.000000     1.000000     0.000000     0.000000     0.000000     0.000000     0.000000
    2    -1.000000     0.000000     1.000000     0.000000     0.000000     0.000000     0.000000     0.000000
    3     1.000000   120.000000    -0.816497    -0.471404    -0.333333     0.000000     0.000000     0.000000
    4    -1.000000   120.000000    -0.816497    -0.471404    -0.333333     0.000000     0.000000     0.000000
    5     1.000000   120.000000     0.816497     0.471405     0.333333     0.000000     0.000000     0.000000
    6    -1.000000   120.000000     0.816497     0.471405     0.333333     0.000000     0.000000     0.000000
    7     1.000000    90.000000    -0.707107    -0.408248     0.577350     0.000000     0.000000     0.000000
    8    -1.000000    90.000000    -0.707107    -0.408248     0.577350     0.000000     0.000000     0.000000
    9     1.000000   180.000000     1.000000    -0.000000     0.000000     0.000000     0.000000     0.000000
   10    -1.000000   180.000000     1.000000    -0.000000     0.000000     0.000000     0.000000     0.000000
   11     1.000000    90.000000     0.707107    -0.408248     0.577350     0.000000     0.000000     0.000000
   12    -1.000000    90.000000     0.707107    -0.408248     0.577350     0.000000     0.000000     0.000000
   13     1.000000   180.000000     0.707107     0.408248    -0.577350     0.000000     0.000000     0.000000
   14    -1.000000   180.000000     0.707107     0.408248    -0.577350     0.000000     0.000000     0.000000
   15     1.000000   120.000000     0.816497    -0.471405    -0.333333     0.000000     0.000000     0.000000
   16    -1.000000   120.000000     0.816497    -0.471405    -0.333333     0.000000     0.000000     0.000000
   17     1.000000   120.000000     0.000000    -0.942809     0.333333     0.000000     0.000000     0.000000
   18    -1.000000   120.000000     0.000000    -0.942809     0.333333     0.000000     0.000000     0.000000
   19     1.000000    90.000000     0.707107     0.408248    -0.577350     0.000000     0.000000     0.000000
   20    -1.000000    90.000000     0.707107     0.408248    -0.577350     0.000000     0.000000     0.000000
   21     1.000000    90.000000    -0.000000    -0.816497    -0.577350     0.000000     0.000000     0.000000
   22    -1.000000    90.000000    -0.000000    -0.816497    -0.577350     0.000000     0.000000     0.000000
   23     1.000000   180.000000     0.500000     0.866025    -0.000000     0.000000     0.000000     0.000000
   24    -1.000000   180.000000     0.500000     0.866025    -0.000000     0.000000     0.000000     0.000000
   25     1.000000   120.000000     0.000000     0.942809    -0.333333     0.000000     0.000000     0.000000
   26    -1.000000   120.000000     0.000000     0.942809    -0.333333     0.000000     0.000000     0.000000
   27     1.000000   120.000000     0.000000     0.000000    -1.000000     0.000000     0.000000     0.000000
   28    -1.000000   120.000000     0.000000     0.000000    -1.000000     0.000000     0.000000     0.000000
   29     1.000000   180.000000     0.000000    -0.816497    -0.577350     0.000000     0.000000     0.000000
   30    -1.000000   180.000000     0.000000    -0.816497    -0.577350     0.000000     0.000000     0.000000
   31     1.000000    90.000000    -0.707107     0.408248    -0.577350     0.000000     0.000000     0.000000
   32    -1.000000    90.000000    -0.707107     0.408248    -0.577350     0.000000     0.000000     0.000000
   33     1.000000   180.000000     0.500000     0.288675     0.816497     0.000000     0.000000     0.000000
   34    -1.000000   180.000000     0.500000     0.288675     0.816497     0.000000     0.000000     0.000000
   35     1.000000    90.000000    -0.000000     0.816497     0.577350     0.000000     0.000000     0.000000
   36    -1.000000    90.000000    -0.000000     0.816497     0.577350     0.000000     0.000000     0.000000
   37     1.000000   120.000000    -0.816497     0.471404     0.333333     0.000000     0.000000     0.000000
   38    -1.000000   120.000000    -0.816497     0.471404     0.333333     0.000000     0.000000     0.000000
   39     1.000000   180.000000    -0.707107     0.408248    -0.577350     0.000000     0.000000     0.000000
   40    -1.000000   180.000000    -0.707107     0.408248    -0.577350     0.000000     0.000000     0.000000
   41     1.000000   120.000000     0.000000     0.000000     1.000000     0.000000     0.000000     0.000000
   42    -1.000000   120.000000     0.000000     0.000000     1.000000     0.000000     0.000000     0.000000
   43     1.000000   180.000000     0.000000    -0.577350     0.816497     0.000000     0.000000     0.000000
   44    -1.000000   180.000000     0.000000    -0.577350     0.816497     0.000000     0.000000     0.000000
   45     1.000000   180.000000    -0.500000     0.866025    -0.000000     0.000000     0.000000     0.000000
   46    -1.000000   180.000000    -0.500000     0.866025    -0.000000     0.000000     0.000000     0.000000
   47     1.000000   180.000000    -0.500000     0.288675     0.816497     0.000000     0.000000     0.000000
   48    -1.000000   180.000000    -0.500000     0.288675     0.816497     0.000000     0.000000     0.000000
 
 Subroutine IBZKPT returns following result:
 ===========================================
 
 Found    110 irreducible k-points:
 
 Following reciprocal coordinates:
            Coordinates               Weight
  0.050000  0.050000  0.050000     96.000000
  0.150000  0.050000  0.050000    288.000000
  0.250000  0.050000  0.050000    288.000000
  0.350000  0.050000  0.050000    288.000000
  0.450000  0.050000  0.050000    288.000000
 -0.450000  0.050000  0.050000    288.000000
 -0.350000  0.050000  0.050000    288.000000
 -0.250000  0.050000  0.050000    288.000000
 -0.150000  0.050000  0.050000    288.000000
 -0.050000  0.050000  0.050000    288.000000
  0.150000  0.150000  0.050000    288.000000
  0.250000  0.150000  0.050000    576.000000
  0.350000  0.150000  0.050000    576.000000
  0.450000  0.150000  0.050000    576.000000
 -0.450000  0.150000  0.050000    576.000000
 -0.350000  0.150000  0.050000    576.000000
 -0.250000  0.150000  0.050000    576.000000
 -0.150000  0.150000  0.050000    576.000000
 -0.050000  0.150000  0.050000    576.000000
  0.250000  0.250000  0.050000    288.000000
  0.350000  0.250000  0.050000    576.000000
  0.450000  0.250000  0.050000    576.000000
 -0.450000  0.250000  0.050000    576.000000
 -0.350000  0.250000  0.050000    576.000000
 -0.250000  0.250000  0.050000    576.000000
 -0.150000  0.250000  0.050000    576.000000
 -0.050000  0.250000  0.050000    576.000000
  0.350000  0.350000  0.050000    288.000000
  0.450000  0.350000  0.050000    576.000000
 -0.450000  0.350000  0.050000    576.000000
 -0.350000  0.350000  0.050000    576.000000
 -0.250000  0.350000  0.050000    576.000000
 -0.150000  0.350000  0.050000    576.000000
 -0.050000  0.350000  0.050000    576.000000
  0.450000  0.450000  0.050000    288.000000
 -0.450000  0.450000  0.050000    576.000000
 -0.350000  0.450000  0.050000    576.000000
 -0.250000  0.450000  0.050000    576.000000
 -0.150000  0.450000  0.050000    576.000000
 -0.050000  0.450000  0.050000    576.000000
 -0.450000 -0.450000  0.050000    288.000000
 -0.350000 -0.450000  0.050000    576.000000
 -0.250000 -0.450000  0.050000    576.000000
 -0.150000 -0.450000  0.050000    576.000000
 -0.350000 -0.350000  0.050000    288.000000
 -0.250000 -0.350000  0.050000    576.000000
 -0.150000 -0.350000  0.050000    576.000000
 -0.250000 -0.250000  0.050000    288.000000
 -0.150000 -0.250000  0.050000    576.000000
 -0.150000 -0.150000  0.050000    288.000000
  0.150000  0.150000  0.150000     96.000000
  0.250000  0.150000  0.150000    288.000000
  0.350000  0.150000  0.150000    288.000000
  0.450000  0.150000  0.150000    288.000000
 -0.450000  0.150000  0.150000    288.000000
 -0.350000  0.150000  0.150000    288.000000
 -0.250000  0.150000  0.150000    288.000000
 -0.150000  0.150000  0.150000    288.000000
  0.250000  0.250000  0.150000    288.000000
  0.350000  0.250000  0.150000    576.000000
  0.450000  0.250000  0.150000    576.000000
 -0.450000  0.250000  0.150000    576.000000
 -0.350000  0.250000  0.150000    576.000000
 -0.250000  0.250000  0.150000    576.000000
 -0.150000  0.250000  0.150000    576.000000
  0.350000  0.350000  0.150000    288.000000
  0.450000  0.350000  0.150000    576.000000
 -0.450000  0.350000  0.150000    576.000000
 -0.350000  0.350000  0.150000    576.000000
 -0.250000  0.350000  0.150000    576.000000
 -0.150000  0.350000  0.150000    576.000000
  0.450000  0.450000  0.150000    288.000000
 -0.450000  0.450000  0.150000    576.000000
 -0.350000  0.450000  0.150000    576.000000
 -0.250000  0.450000  0.150000    576.000000
 -0.150000  0.450000  0.150000    576.000000
 -0.450000 -0.450000  0.150000    288.000000
 -0.350000 -0.450000  0.150000    576.000000
 -0.250000 -0.450000  0.150000    576.000000
 -0.350000 -0.350000  0.150000    288.000000
 -0.250000 -0.350000  0.150000    576.000000
 -0.250000 -0.250000  0.150000    288.000000
  0.250000  0.250000  0.250000     96.000000
  0.350000  0.250000  0.250000    288.000000
  0.450000  0.250000  0.250000    288.000000
 -0.450000  0.250000  0.250000    288.000000
 -0.350000  0.250000  0.250000    288.000000
 -0.250000  0.250000  0.250000    288.000000
  0.350000  0.350000  0.250000    288.000000
  0.450000  0.350000  0.250000    576.000000
 -0.450000  0.350000  0.250000    576.000000
 -0.350000  0.350000  0.250000    576.000000
 -0.250000  0.350000  0.250000    576.000000
  0.450000  0.450000  0.250000    288.000000
 -0.450000  0.450000  0.250000    576.000000
 -0.350000  0.450000  0.250000    576.000000
 -0.250000  0.450000  0.250000    576.000000
 -0.450000 -0.450000  0.250000    288.000000
 -0.350000 -0.450000  0.250000    576.000000
 -0.350000 -0.350000  0.250000    288.000000
  0.350000  0.350000  0.350000     96.000000
  0.450000  0.350000  0.350000    288.000000
 -0.450000  0.350000  0.350000    288.000000
 -0.350000  0.350000  0.350000    288.000000
  0.450000  0.450000  0.350000    288.000000
 -0.450000  0.450000  0.350000    576.000000
 -0.350000  0.450000  0.350000    576.000000
 -0.450000 -0.450000  0.350000    288.000000
  0.450000  0.450000  0.450000     96.000000
 -0.450000  0.450000  0.450000    288.000000
 
 Following cartesian coordinates:
            Coordinates               Weight
  0.016612  0.009591  0.006782     96.000000
  0.049837 -0.009591 -0.006782    288.000000
  0.083062 -0.028774 -0.020346    288.000000
  0.116287 -0.047956 -0.033910    288.000000
  0.149512 -0.067138 -0.047474    288.000000
 -0.149512  0.105503  0.074602    288.000000
 -0.116287  0.086321  0.061038    288.000000
 -0.083062  0.067138  0.047474    288.000000
 -0.049837  0.047956  0.033910    288.000000
 -0.016612  0.028774  0.020346    288.000000
  0.049837  0.028774 -0.020346    288.000000
  0.083062  0.009591 -0.033910    576.000000
  0.116287 -0.009591 -0.047474    576.000000
  0.149512 -0.028774 -0.061038    576.000000
 -0.149512  0.143868  0.061038    576.000000
 -0.116287  0.124686  0.047474    576.000000
 -0.083062  0.105503  0.033910    576.000000
 -0.049837  0.086321  0.020346    576.000000
 -0.016612  0.067138  0.006782    576.000000
  0.083062  0.047956 -0.047474    288.000000
  0.116287  0.028774 -0.061038    576.000000
  0.149512  0.009591 -0.074602    576.000000
 -0.149512  0.182233  0.047474    576.000000
 -0.116287  0.163051  0.033910    576.000000
 -0.083062  0.143868  0.020346    576.000000
 -0.049837  0.124686  0.006782    576.000000
 -0.016612  0.105503 -0.006782    576.000000
  0.116287  0.067138 -0.074602    288.000000
  0.149512  0.047956 -0.088166    576.000000
 -0.149512  0.220598  0.033910    576.000000
 -0.116287  0.201415  0.020346    576.000000
 -0.083062  0.182233  0.006782    576.000000
 -0.049837  0.163051 -0.006782    576.000000
 -0.016612  0.143868 -0.020346    576.000000
  0.149512  0.086321 -0.101730    288.000000
 -0.149512  0.258963  0.020346    576.000000
 -0.116287  0.239780  0.006782    576.000000
 -0.083062  0.220598 -0.006782    576.000000
 -0.049837  0.201415 -0.020346    576.000000
 -0.016612  0.182233 -0.033910    576.000000
 -0.149512 -0.086321  0.142422    288.000000
 -0.116287 -0.105503  0.128858    576.000000
 -0.083062 -0.124686  0.115294    576.000000
 -0.049837 -0.143868  0.101730    576.000000
 -0.116287 -0.067138  0.115294    288.000000
 -0.083062 -0.086321  0.101730    576.000000
 -0.049837 -0.105503  0.088166    576.000000
 -0.083062 -0.047956  0.088166    288.000000
 -0.049837 -0.067138  0.074602    576.000000
 -0.049837 -0.028774  0.061038    288.000000
  0.049837  0.028774  0.020346     96.000000
  0.083062  0.009591  0.006782    288.000000
  0.116287 -0.009591 -0.006782    288.000000
  0.149512 -0.028774 -0.020346    288.000000
 -0.149512  0.143868  0.101730    288.000000
 -0.116287  0.124686  0.088166    288.000000
 -0.083062  0.105503  0.074602    288.000000
 -0.049837  0.086321  0.061038    288.000000
  0.083062  0.047956 -0.006782    288.000000
  0.116287  0.028774 -0.020346    576.000000
  0.149512  0.009591 -0.033910    576.000000
 -0.149512  0.182233  0.088166    576.000000
 -0.116287  0.163051  0.074602    576.000000
 -0.083062  0.143868  0.061038    576.000000
 -0.049837  0.124686  0.047474    576.000000
  0.116287  0.067138 -0.033910    288.000000
  0.149512  0.047956 -0.047474    576.000000
 -0.149512  0.220598  0.074602    576.000000
 -0.116287  0.201415  0.061038    576.000000
 -0.083062  0.182233  0.047474    576.000000
 -0.049837  0.163051  0.033910    576.000000
  0.149512  0.086321 -0.061038    288.000000
 -0.149512  0.258963  0.061038    576.000000
 -0.116287  0.239780  0.047474    576.000000
 -0.083062  0.220598  0.033910    576.000000
 -0.049837  0.201415  0.020346    576.000000
 -0.149512 -0.086321  0.183114    288.000000
 -0.116287 -0.105503  0.169550    576.000000
 -0.083062 -0.124686  0.155986    576.000000
 -0.116287 -0.067138  0.155986    288.000000
 -0.083062 -0.086321  0.142422    576.000000
 -0.083062 -0.047956  0.128858    288.000000
  0.083062  0.047956  0.033910     96.000000
  0.116287  0.028774  0.020346    288.000000
  0.149512  0.009591  0.006782    288.000000
 -0.149512  0.182233  0.128858    288.000000
 -0.116287  0.163051  0.115294    288.000000
 -0.083062  0.143868  0.101730    288.000000
  0.116287  0.067138  0.006782    288.000000
  0.149512  0.047956 -0.006782    576.000000
 -0.149512  0.220598  0.115294    576.000000
 -0.116287  0.201415  0.101730    576.000000
 -0.083062  0.182233  0.088166    576.000000
  0.149512  0.086321 -0.020346    288.000000
 -0.149512  0.258963  0.101730    576.000000
 -0.116287  0.239780  0.088166    576.000000
 -0.083062  0.220598  0.074602    576.000000
 -0.149512 -0.086321  0.223806    288.000000
 -0.116287 -0.105503  0.210242    576.000000
 -0.116287 -0.067138  0.196678    288.000000
  0.116287  0.067138  0.047474     96.000000
  0.149512  0.047956  0.033910    288.000000
 -0.149512  0.220598  0.155986    288.000000
 -0.116287  0.201415  0.142422    288.000000
  0.149512  0.086321  0.020346    288.000000
 -0.149512  0.258963  0.142422    576.000000
 -0.116287  0.239780  0.128858    576.000000
 -0.149512 -0.086321  0.264498    288.000000
  0.149512  0.086321  0.061038     96.000000
 -0.149512  0.258963  0.183114    288.000000
 


--------------------------------------------------------------------------------------------------------




 Dimension of arrays:
   k-points           NKPTS =    110   k-points in BZ     NKDIM =    110   number of bands    NBANDS=     16
   number of dos      NEDOS =    301   number of ions     NIONS =      2
   non local maximal  LDIM  =      5   non local SUM 2l+1 LMDIM =     13
   total plane-waves  NPLWV =  21952
   max r-space proj   IRMAX =      1   max aug-charges    IRDMAX=  17825
   dimension x,y,z NGX =    28 NGY =   28 NGZ =   28
   dimension x,y,z NGXF=    40 NGYF=   40 NGZF=   40
   support grid    NGXF=    40 NGYF=   40 NGZF=   40
   ions per type =               1   1
 NGX,Y,Z   is equivalent  to a cutoff of  15.47, 15.47, 15.47 a.u.
 NGXF,Y,Z  is equivalent  to a cutoff of  22.09, 22.09, 22.09 a.u.


 I would recommend the setting:
   dimension x,y,z NGX =    28 NGY =   28 NGZ =   28
 SYSTEM =  automatically generated by pyflamestk   
 POSCAR =  Mg1 O1                                  

 Startparameter for this run:
   NWRITE =      2    write-flag & timer
   PREC   = high      normal or accurate (medium, high low for compatibility)
   ISTART =      0    job   : 0-new  1-cont  2-samecut
   ICHARG =      0    charge: 1-file 2-atom 10-const
   ISPIN  =      1    spin polarized calculation?
   LNONCOLLINEAR =      F non collinear calculations
   LSORBIT =      F    spin-orbit coupling
   INIWAV =      1    electr: 0-lowe 1-rand  2-diag
   LASPH  =      F    aspherical Exc in radial PAW
   METAGGA=      F    non-selfconsistent MetaGGA calc.

 Electronic Relaxation 1
   ENCUT  =  800.0 eV  58.80 Ry    7.67 a.u.   6.94  6.94  6.94*2*pi/ulx,y,z
   ENINI  =  800.0     initial cutoff
   ENAUG  =  888.8 eV  augmentation charge cutoff
   NELM   =     40;   NELMIN=  2; NELMDL= -5     # of ELM steps 
   EDIFF  = 0.1E-05   stopping-criterion for ELM
   LREAL  =      F    real-space projection
   NLSPLINE    = F    spline interpolate recip. space projectors
   LCOMPAT=      F    compatible to vasp.4.4
   GGA_COMPAT  = T    GGA compatible to vasp.4.4-vasp.4.6
   LMAXPAW     = -100 max onsite density
   LMAXMIX     =    2 max onsite mixed and CHGCAR
   VOSKOWN=      0    Vosko Wilk Nusair interpolation
   ROPT   =    0.00000   0.00000
 Ionic relaxation
   EDIFFG = 0.1E-04   stopping-criterion for IOM
   NSW    =      0    number of steps for IOM
   NBLOCK =      1;   KBLOCK =      1    inner block; outer block 
   IBRION =     -1    ionic relax: 0-MD 1-quasi-New 2-CG
   NFREE  =      0    steps in history (QN), initial steepest desc. (CG)
   ISIF   =      2    stress and relaxation
   IWAVPR =     10    prediction:  0-non 1-charg 2-wave 3-comb
   ISYM   =      2    0-nonsym 1-usesym 2-fastsym
   LCORR  =      T    Harris-Foulkes like correction to forces

   POTIM  = 0.5000    time-step for ionic-motion
   TEIN   =    0.0    initial temperature
   TEBEG  =    0.0;   TEEND  =   0.0 temperature during run
   SMASS  =  -3.00    Nose mass-parameter (am)
   estimated Nose-frequenzy (Omega)   =  0.10E-29 period in steps =****** mass=  -0.207E-27a.u.
   SCALEE = 1.0000    scale energy and forces
   NPACO  =    256;   APACO  = 16.0  distance and # of slots for P.C.
   PSTRESS=    0.0 pullay stress

  Mass of Ions in am
   POMASS =  16.00 24.30
  Ionic Valenz
   ZVAL   =   6.00  2.00
  Atomic Wigner-Seitz radii
   RWIGS  =  -1.00 -1.00
  virtual crystal weights 
   VCA    =   1.00  1.00
   NELECT =       8.0000    total number of electrons
   NUPDOWN=      -1.0000    fix difference up-down

 DOS related values:
   EMIN   =  10.00;   EMAX   =-10.00  energy-range for DOS
   EFERMI =   0.00
   ISMEAR =     0;   SIGMA  =   0.05  broadening in eV -4-tet -1-fermi 0-gaus

 Electronic relaxation 2 (details)
   IALGO  =     38    algorithm
   LDIAG  =      T    sub-space diagonalisation (order eigenvalues)
   LSUBROT=      F    optimize rotation matrix (better conditioning)
   TURBO    =      0    0=normal 1=particle mesh
   IRESTART =      0    0=no restart 2=restart with 2 vectors
   NREBOOT  =      0    no. of reboots
   NMIN     =      0    reboot dimension
   EREF     =   0.00    reference energy to select bands
   IMIX   =      4    mixing-type and parameters
     AMIX     =   0.40;   BMIX     =  1.00
     AMIX_MAG =   1.60;   BMIX_MAG =  1.00
     AMIN     =   0.10
     WC   =   100.;   INIMIX=   1;  MIXPRE=   1;  MAXMIX= -45

 Intra band minimization:
   WEIMIN = 0.0000     energy-eigenvalue tresh-hold
   EBREAK =  0.16E-07  absolut break condition
   DEPER  =   0.30     relativ break condition  

   TIME   =   0.40     timestep for ELM

  volume/ion in A,a.u.               =       9.64        65.05
  Fermi-wavevector in a.u.,A,eV,Ry     =   1.221070  2.307488 20.286449  1.491012
  Thomas-Fermi vector in A             =   2.356265
 
 Write flags
   LWAVE  =      F    write WAVECAR
   LCHARG =      F    write CHGCAR
   LVTOT  =      F    write LOCPOT, total local potential
   LVHAR  =      F    write LOCPOT, Hartree potential only
   LELF   =      F    write electronic localiz. function (ELF)
   LORBIT =      0    0 simple, 1 ext, 2 COOP (PROOUT)


 Dipole corrections
   LMONO  =      F    monopole corrections only (constant potential shift)
   LDIPOL =      F    correct potential (dipole corrections)
   IDIPOL =      0    1-x, 2-y, 3-z, 4-all directions 
   EPSILON=  1.0000000 bulk dielectric constant

 Exchange correlation treatment:
   GGA     =    --    GGA type
   LEXCH   =     8    internal setting for exchange type
   VOSKOWN=      0    Vosko Wilk Nusair interpolation
   LHFCALC =     F    Hartree Fock is set to
   LHFONE  =     F    Hartree Fock one center treatment
   AEXX    =    0.0000 exact exchange contribution

 Linear response parameters
   LEPSILON=     F    determine dielectric tensor
   LRPA    =     F    only Hartree local field effects (RPA)
   LNABLA  =     F    use nabla operator in PAW spheres
   LVEL    =     F    velocity operator in full k-point grid
   LINTERFAST=   F  fast interpolation
   KINTER  =     0    interpolate to denser k-point grid
   CSHIFT  =0.1000    complex shift for real part using Kramers Kronig
   OMEGAMAX=  -1.0    maximum frequency
   DEG_THRESHOLD= 0.2000000E-02 threshold for treating states as degnerate
   RTIME   =    0.100 relaxation time in fs

 Orbital magnetization related:
   ORBITALMAG=     F  switch on orbital magnetization
   LCHIMAG   =     F  perturbation theory with respect to B field
   DQ        =  0.001000  dq finite difference perturbation B field



--------------------------------------------------------------------------------------------------------


 Static calculation
 charge density and potential will be updated during run
 non-spin polarized calculation
 Variant of blocked Davidson
 Davidson routine will perform the subspace rotation
 perform sub-space diagonalisation
    after iterative eigenvector-optimisation
 modified Broyden-mixing scheme, WC =      100.0
 initial mixing is a Kerker type mixing with AMIX =  0.4000 and BMIX =      1.0000
 Hartree-type preconditioning will be used
 using additional bands           12
 reciprocal scheme for non local part
 use partial core corrections
 calculate Harris-corrections to forces 
   (improved forces if not selfconsistent)
 use gradient corrections 
 use of overlap-Matrix (Vanderbilt PP)
 Gauss-broadening in eV      SIGMA  =   0.05


--------------------------------------------------------------------------------------------------------


  energy-cutoff  :      800.00
  volume of cell :       19.28
      direct lattice vectors                 reciprocal lattice vectors
     3.009788000  0.000000000  0.000000000     0.332249315 -0.191824221 -0.135640193
     1.504894000  2.606553000  0.000000000     0.000000000  0.383648443 -0.135640193
     1.504894000  0.868851000  2.457482000     0.000000000  0.000000000  0.406920580

  length of vectors
     3.009788000  3.009788114  3.009788330     0.406920632  0.406920619  0.406920580


 
 k-points in units of 2pi/SCALE and weight: Automatic Mesh                          
   0.01661247  0.00959121  0.00678201       0.002
   0.04983740 -0.00959121 -0.00678201       0.006
   0.08306233 -0.02877363 -0.02034603       0.006
   0.11628726 -0.04795606 -0.03391005       0.006
   0.14951219 -0.06713848 -0.04747407       0.006
  -0.14951219  0.10550332  0.07460211       0.006
  -0.11628726  0.08632090  0.06103809       0.006
  -0.08306233  0.06713848  0.04747407       0.006
  -0.04983740  0.04795606  0.03391005       0.006
  -0.01661247  0.02877363  0.02034603       0.006
   0.04983740  0.02877363 -0.02034603       0.006
   0.08306233  0.00959121 -0.03391005       0.012
   0.11628726 -0.00959121 -0.04747407       0.012
   0.14951219 -0.02877363 -0.06103809       0.012
  -0.14951219  0.14386817  0.06103809       0.012
  -0.11628726  0.12468574  0.04747407       0.012
  -0.08306233  0.10550332  0.03391005       0.012
  -0.04983740  0.08632090  0.02034603       0.012
  -0.01661247  0.06713848  0.00678201       0.012
   0.08306233  0.04795606 -0.04747407       0.006
   0.11628726  0.02877363 -0.06103809       0.012
   0.14951219  0.00959121 -0.07460211       0.012
  -0.14951219  0.18223301  0.04747407       0.012
  -0.11628726  0.16305059  0.03391005       0.012
  -0.08306233  0.14386817  0.02034603       0.012
  -0.04983740  0.12468574  0.00678201       0.012
  -0.01661247  0.10550332 -0.00678201       0.012
   0.11628726  0.06713848 -0.07460211       0.006
   0.14951219  0.04795606 -0.08816613       0.012
  -0.14951219  0.22059785  0.03391005       0.012
  -0.11628726  0.20141543  0.02034603       0.012
  -0.08306233  0.18223301  0.00678201       0.012
  -0.04983740  0.16305059 -0.00678201       0.012
  -0.01661247  0.14386817 -0.02034603       0.012
   0.14951219  0.08632090 -0.10173014       0.006
  -0.14951219  0.25896270  0.02034603       0.012
  -0.11628726  0.23978028  0.00678201       0.012
  -0.08306233  0.22059785 -0.00678201       0.012
  -0.04983740  0.20141543 -0.02034603       0.012
  -0.01661247  0.18223301 -0.03391005       0.012
  -0.14951219 -0.08632090  0.14242220       0.006
  -0.11628726 -0.10550332  0.12885818       0.012
  -0.08306233 -0.12468574  0.11529416       0.012
  -0.04983740 -0.14386817  0.10173014       0.012
  -0.11628726 -0.06713848  0.11529416       0.006
  -0.08306233 -0.08632090  0.10173014       0.012
  -0.04983740 -0.10550332  0.08816613       0.012
  -0.08306233 -0.04795606  0.08816613       0.006
  -0.04983740 -0.06713848  0.07460211       0.012
  -0.04983740 -0.02877363  0.06103809       0.006
   0.04983740  0.02877363  0.02034603       0.002
   0.08306233  0.00959121  0.00678201       0.006
   0.11628726 -0.00959121 -0.00678201       0.006
   0.14951219 -0.02877363 -0.02034603       0.006
  -0.14951219  0.14386817  0.10173014       0.006
  -0.11628726  0.12468574  0.08816613       0.006
  -0.08306233  0.10550332  0.07460211       0.006
  -0.04983740  0.08632090  0.06103809       0.006
   0.08306233  0.04795606 -0.00678201       0.006
   0.11628726  0.02877363 -0.02034603       0.012
   0.14951219  0.00959121 -0.03391005       0.012
  -0.14951219  0.18223301  0.08816613       0.012
  -0.11628726  0.16305059  0.07460211       0.012
  -0.08306233  0.14386817  0.06103809       0.012
  -0.04983740  0.12468574  0.04747407       0.012
   0.11628726  0.06713848 -0.03391005       0.006
   0.14951219  0.04795606 -0.04747407       0.012
  -0.14951219  0.22059785  0.07460211       0.012
  -0.11628726  0.20141543  0.06103809       0.012
  -0.08306233  0.18223301  0.04747407       0.012
  -0.04983740  0.16305059  0.03391005       0.012
   0.14951219  0.08632090 -0.06103809       0.006
  -0.14951219  0.25896270  0.06103809       0.012
  -0.11628726  0.23978028  0.04747407       0.012
  -0.08306233  0.22059785  0.03391005       0.012
  -0.04983740  0.20141543  0.02034603       0.012
  -0.14951219 -0.08632090  0.18311426       0.006
  -0.11628726 -0.10550332  0.16955024       0.012
  -0.08306233 -0.12468574  0.15598622       0.012
  -0.11628726 -0.06713848  0.15598622       0.006
  -0.08306233 -0.08632090  0.14242220       0.012
  -0.08306233 -0.04795606  0.12885818       0.006
   0.08306233  0.04795606  0.03391005       0.002
   0.11628726  0.02877363  0.02034603       0.006
   0.14951219  0.00959121  0.00678201       0.006
  -0.14951219  0.18223301  0.12885818       0.006
  -0.11628726  0.16305059  0.11529416       0.006
  -0.08306233  0.14386817  0.10173014       0.006
   0.11628726  0.06713848  0.00678201       0.006
   0.14951219  0.04795606 -0.00678201       0.012
  -0.14951219  0.22059785  0.11529416       0.012
  -0.11628726  0.20141543  0.10173014       0.012
  -0.08306233  0.18223301  0.08816613       0.012
   0.14951219  0.08632090 -0.02034603       0.006
  -0.14951219  0.25896270  0.10173014       0.012
  -0.11628726  0.23978028  0.08816613       0.012
  -0.08306233  0.22059785  0.07460211       0.012
  -0.14951219 -0.08632090  0.22380632       0.006
  -0.11628726 -0.10550332  0.21024230       0.012
  -0.11628726 -0.06713848  0.19667828       0.006
   0.11628726  0.06713848  0.04747407       0.002
   0.14951219  0.04795606  0.03391005       0.006
  -0.14951219  0.22059785  0.15598622       0.006
  -0.11628726  0.20141543  0.14242220       0.006
   0.14951219  0.08632090  0.02034603       0.006
  -0.14951219  0.25896270  0.14242220       0.012
  -0.11628726  0.23978028  0.12885818       0.012
  -0.14951219 -0.08632090  0.26449838       0.006
   0.14951219  0.08632090  0.06103809       0.002
  -0.14951219  0.25896270  0.18311426       0.006
 
 k-points in reciprocal lattice and weights: Automatic Mesh                          
   0.05000000  0.05000000  0.05000000       0.002
   0.15000000  0.05000000  0.05000000       0.006
   0.25000000  0.05000000  0.05000000       0.006
   0.35000000  0.05000000  0.05000000       0.006
   0.45000000  0.05000000  0.05000000       0.006
  -0.45000000  0.05000000  0.05000000       0.006
  -0.35000000  0.05000000  0.05000000       0.006
  -0.25000000  0.05000000  0.05000000       0.006
  -0.15000000  0.05000000  0.05000000       0.006
  -0.05000000  0.05000000  0.05000000       0.006
   0.15000000  0.15000000  0.05000000       0.006
   0.25000000  0.15000000  0.05000000       0.012
   0.35000000  0.15000000  0.05000000       0.012
   0.45000000  0.15000000  0.05000000       0.012
  -0.45000000  0.15000000  0.05000000       0.012
  -0.35000000  0.15000000  0.05000000       0.012
  -0.25000000  0.15000000  0.05000000       0.012
  -0.15000000  0.15000000  0.05000000       0.012
  -0.05000000  0.15000000  0.05000000       0.012
   0.25000000  0.25000000  0.05000000       0.006
   0.35000000  0.25000000  0.05000000       0.012
   0.45000000  0.25000000  0.05000000       0.012
  -0.45000000  0.25000000  0.05000000       0.012
  -0.35000000  0.25000000  0.05000000       0.012
  -0.25000000  0.25000000  0.05000000       0.012
  -0.15000000  0.25000000  0.05000000       0.012
  -0.05000000  0.25000000  0.05000000       0.012
   0.35000000  0.35000000  0.05000000       0.006
   0.45000000  0.35000000  0.05000000       0.012
  -0.45000000  0.35000000  0.05000000       0.012
  -0.35000000  0.35000000  0.05000000       0.012
  -0.25000000  0.35000000  0.05000000       0.012
  -0.15000000  0.35000000  0.05000000       0.012
  -0.05000000  0.35000000  0.05000000       0.012
   0.45000000  0.45000000  0.05000000       0.006
  -0.45000000  0.45000000  0.05000000       0.012
  -0.35000000  0.45000000  0.05000000       0.012
  -0.25000000  0.45000000  0.05000000       0.012
  -0.15000000  0.45000000  0.05000000       0.012
  -0.05000000  0.45000000  0.05000000       0.012
  -0.45000000 -0.45000000  0.05000000       0.006
  -0.35000000 -0.45000000  0.05000000       0.012
  -0.25000000 -0.45000000  0.05000000       0.012
  -0.15000000 -0.45000000  0.05000000       0.012
  -0.35000000 -0.35000000  0.05000000       0.006
  -0.25000000 -0.35000000  0.05000000       0.012
  -0.15000000 -0.35000000  0.05000000       0.012
  -0.25000000 -0.25000000  0.05000000       0.006
  -0.15000000 -0.25000000  0.05000000       0.012
  -0.15000000 -0.15000000  0.05000000       0.006
   0.15000000  0.15000000  0.15000000       0.002
   0.25000000  0.15000000  0.15000000       0.006
   0.35000000  0.15000000  0.15000000       0.006
   0.45000000  0.15000000  0.15000000       0.006
  -0.45000000  0.15000000  0.15000000       0.006
  -0.35000000  0.15000000  0.15000000       0.006
  -0.25000000  0.15000000  0.15000000       0.006
  -0.15000000  0.15000000  0.15000000       0.006
   0.25000000  0.25000000  0.15000000       0.006
   0.35000000  0.25000000  0.15000000       0.012
   0.45000000  0.25000000  0.15000000       0.012
  -0.45000000  0.25000000  0.15000000       0.012
  -0.35000000  0.25000000  0.15000000       0.012
  -0.25000000  0.25000000  0.15000000       0.012
  -0.15000000  0.25000000  0.15000000       0.012
   0.35000000  0.35000000  0.15000000       0.006
   0.45000000  0.35000000  0.15000000       0.012
  -0.45000000  0.35000000  0.15000000       0.012
  -0.35000000  0.35000000  0.15000000       0.012
  -0.25000000  0.35000000  0.15000000       0.012
  -0.15000000  0.35000000  0.15000000       0.012
   0.45000000  0.45000000  0.15000000       0.006
  -0.45000000  0.45000000  0.15000000       0.012
  -0.35000000  0.45000000  0.15000000       0.012
  -0.25000000  0.45000000  0.15000000       0.012
  -0.15000000  0.45000000  0.15000000       0.012
  -0.45000000 -0.45000000  0.15000000       0.006
  -0.35000000 -0.45000000  0.15000000       0.012
  -0.25000000 -0.45000000  0.15000000       0.012
  -0.35000000 -0.35000000  0.15000000       0.006
  -0.25000000 -0.35000000  0.15000000       0.012
  -0.25000000 -0.25000000  0.15000000       0.006
   0.25000000  0.25000000  0.25000000       0.002
   0.35000000  0.25000000  0.25000000       0.006
   0.45000000  0.25000000  0.25000000       0.006
  -0.45000000  0.25000000  0.25000000       0.006
  -0.35000000  0.25000000  0.25000000       0.006
  -0.25000000  0.25000000  0.25000000       0.006
   0.35000000  0.35000000  0.25000000       0.006
   0.45000000  0.35000000  0.25000000       0.012
  -0.45000000  0.35000000  0.25000000       0.012
  -0.35000000  0.35000000  0.25000000       0.012
  -0.25000000  0.35000000  0.25000000       0.012
   0.45000000  0.45000000  0.25000000       0.006
  -0.45000000  0.45000000  0.25000000       0.012
  -0.35000000  0.45000000  0.25000000       0.012
  -0.25000000  0.45000000  0.25000000       0.012
  -0.45000000 -0.45000000  0.25000000       0.006
  -0.35000000 -0.45000000  0.25000000       0.012
  -0.35000000 -0.35000000  0.25000000       0.006
   0.35000000  0.35000000  0.35000000       0.002
   0.45000000  0.35000000  0.35000000       0.006
  -0.45000000  0.35000000  0.35000000       0.006
  -0.35000000  0.35000000  0.35000000       0.006
   0.45000000  0.45000000  0.35000000       0.006
  -0.45000000  0.45000000  0.35000000       0.012
  -0.35000000  0.45000000  0.35000000       0.012
  -0.45000000 -0.45000000  0.35000000       0.006
   0.45000000  0.45000000  0.45000000       0.002
  -0.45000000  0.45000000  0.45000000       0.006
 
 position of ions in fractional coordinates (direct lattice) 
   0.50000000  0.50000000  0.50000000
   0.00000000  0.00000000  0.00000000
 
 position of ions in cartesian coordinates  (Angst):
   3.00978800  1.73770200  1.22874100
   0.00000000  0.00000000  0.00000000
 


--------------------------------------------------------------------------------------------------------


 k-point  1 :   0.0500 0.0500 0.0500  plane waves:     956
 k-point  2 :   0.1500 0.0500 0.0500  plane waves:     969
 k-point  3 :   0.2500 0.0500 0.0500  plane waves:     974
 k-point  4 :   0.3500 0.0500 0.0500  plane waves:     983
 k-point  5 :   0.4500 0.0500 0.0500  plane waves:     995
 k-point  6 :  -0.4500 0.0500 0.0500  plane waves:     991
 k-point  7 :  -0.3500 0.0500 0.0500  plane waves:     992
 k-point  8 :  -0.2500 0.0500 0.0500  plane waves:     976
 k-point  9 :  -0.1500 0.0500 0.0500  plane waves:     978
 k-point 10 :  -0.0500 0.0500 0.0500  plane waves:     965
 k-point 11 :   0.1500 0.1500 0.0500  plane waves:     973
 k-point 12 :   0.2500 0.1500 0.0500  plane waves:     976
 k-point 13 :   0.3500 0.1500 0.0500  plane waves:     983
 k-point 14 :   0.4500 0.1500 0.0500  plane waves:     994
 k-point 15 :  -0.4500 0.1500 0.0500  plane waves:     991
 k-point 16 :  -0.3500 0.1500 0.0500  plane waves:     992
 k-point 17 :  -0.2500 0.1500 0.0500  plane waves:     985
 k-point 18 :  -0.1500 0.1500 0.0500  plane waves:     981
 k-point 19 :  -0.0500 0.1500 0.0500  plane waves:     977
 k-point 20 :   0.2500 0.2500 0.0500  plane waves:     988
 k-point 21 :   0.3500 0.2500 0.0500  plane waves:     993
 k-point 22 :   0.4500 0.2500 0.0500  plane waves:     995
 k-point 23 :  -0.4500 0.2500 0.0500  plane waves:     993
 k-point 24 :  -0.3500 0.2500 0.0500  plane waves:     988
 k-point 25 :  -0.2500 0.2500 0.0500  plane waves:     994
 k-point 26 :  -0.1500 0.2500 0.0500  plane waves:     988
 k-point 27 :  -0.0500 0.2500 0.0500  plane waves:     981
 k-point 28 :   0.3500 0.3500 0.0500  plane waves:    1008
 k-point 29 :   0.4500 0.3500 0.0500  plane waves:     997
 k-point 30 :  -0.4500 0.3500 0.0500  plane waves:     997
 k-point 31 :  -0.3500 0.3500 0.0500  plane waves:     989
 k-point 32 :  -0.2500 0.3500 0.0500  plane waves:     992
 k-point 33 :  -0.1500 0.3500 0.0500  plane waves:     993
 k-point 34 :  -0.0500 0.3500 0.0500  plane waves:     987
 k-point 35 :   0.4500 0.4500 0.0500  plane waves:     997
 k-point 36 :  -0.4500 0.4500 0.0500  plane waves:     991
 k-point 37 :  -0.3500 0.4500 0.0500  plane waves:     995
 k-point 38 :  -0.2500 0.4500 0.0500  plane waves:     989
 k-point 39 :  -0.1500 0.4500 0.0500  plane waves:     988
 k-point 40 :  -0.0500 0.4500 0.0500  plane waves:     992
 k-point 41 :  -0.4500-0.4500 0.0500  plane waves:     986
 k-point 42 :  -0.3500-0.4500 0.0500  plane waves:     990
 k-point 43 :  -0.2500-0.4500 0.0500  plane waves:     998
 k-point 44 :  -0.1500-0.4500 0.0500  plane waves:     993
 k-point 45 :  -0.3500-0.3500 0.0500  plane waves:     996
 k-point 46 :  -0.2500-0.3500 0.0500  plane waves:    1002
 k-point 47 :  -0.1500-0.3500 0.0500  plane waves:     990
 k-point 48 :  -0.2500-0.2500 0.0500  plane waves:     994
 k-point 49 :  -0.1500-0.2500 0.0500  plane waves:     985
 k-point 50 :  -0.1500-0.1500 0.0500  plane waves:     976
 k-point 51 :   0.1500 0.1500 0.1500  plane waves:     974
 k-point 52 :   0.2500 0.1500 0.1500  plane waves:     976
 k-point 53 :   0.3500 0.1500 0.1500  plane waves:     982
 k-point 54 :   0.4500 0.1500 0.1500  plane waves:     991
 k-point 55 :  -0.4500 0.1500 0.1500  plane waves:     990
 k-point 56 :  -0.3500 0.1500 0.1500  plane waves:     994
 k-point 57 :  -0.2500 0.1500 0.1500  plane waves:     996
 k-point 58 :  -0.1500 0.1500 0.1500  plane waves:     990
 k-point 59 :   0.2500 0.2500 0.1500  plane waves:     981
 k-point 60 :   0.3500 0.2500 0.1500  plane waves:     985
 k-point 61 :   0.4500 0.2500 0.1500  plane waves:     995
 k-point 62 :  -0.4500 0.2500 0.1500  plane waves:     992
 k-point 63 :  -0.3500 0.2500 0.1500  plane waves:     987
 k-point 64 :  -0.2500 0.2500 0.1500  plane waves:     996
 k-point 65 :  -0.1500 0.2500 0.1500  plane waves:     989
 k-point 66 :   0.3500 0.3500 0.1500  plane waves:     995
 k-point 67 :   0.4500 0.3500 0.1500  plane waves:     997
 k-point 68 :  -0.4500 0.3500 0.1500  plane waves:     993
 k-point 69 :  -0.3500 0.3500 0.1500  plane waves:     995
 k-point 70 :  -0.2500 0.3500 0.1500  plane waves:     997
 k-point 71 :  -0.1500 0.3500 0.1500  plane waves:     997
 k-point 72 :   0.4500 0.4500 0.1500  plane waves:     993
 k-point 73 :  -0.4500 0.4500 0.1500  plane waves:     992
 k-point 74 :  -0.3500 0.4500 0.1500  plane waves:     997
 k-point 75 :  -0.2500 0.4500 0.1500  plane waves:     996
 k-point 76 :  -0.1500 0.4500 0.1500  plane waves:     990
 k-point 77 :  -0.4500-0.4500 0.1500  plane waves:     987
 k-point 78 :  -0.3500-0.4500 0.1500  plane waves:     989
 k-point 79 :  -0.2500-0.4500 0.1500  plane waves:     993
 k-point 80 :  -0.3500-0.3500 0.1500  plane waves:     991
 k-point 81 :  -0.2500-0.3500 0.1500  plane waves:    1000
 k-point 82 :  -0.2500-0.2500 0.1500  plane waves:     993
 k-point 83 :   0.2500 0.2500 0.2500  plane waves:     983
 k-point 84 :   0.3500 0.2500 0.2500  plane waves:     979
 k-point 85 :   0.4500 0.2500 0.2500  plane waves:     989
 k-point 86 :  -0.4500 0.2500 0.2500  plane waves:     993
 k-point 87 :  -0.3500 0.2500 0.2500  plane waves:     983
 k-point 88 :  -0.2500 0.2500 0.2500  plane waves:     998
 k-point 89 :   0.3500 0.3500 0.2500  plane waves:     990
 k-point 90 :   0.4500 0.3500 0.2500  plane waves:     994
 k-point 91 :  -0.4500 0.3500 0.2500  plane waves:     996
 k-point 92 :  -0.3500 0.3500 0.2500  plane waves:     994
 k-point 93 :  -0.2500 0.3500 0.2500  plane waves:     995
 k-point 94 :   0.4500 0.4500 0.2500  plane waves:     997
 k-point 95 :  -0.4500 0.4500 0.2500  plane waves:     992
 k-point 96 :  -0.3500 0.4500 0.2500  plane waves:     995
 k-point 97 :  -0.2500 0.4500 0.2500  plane waves:     995
 k-point 98 :  -0.4500-0.4500 0.2500  plane waves:     991
 k-point 99 :  -0.3500-0.4500 0.2500  plane waves:     994
 k-point ** :  -0.3500-0.3500 0.2500  plane waves:     993
 k-point ** :   0.3500 0.3500 0.3500  plane waves:     990
 k-point ** :   0.4500 0.3500 0.3500  plane waves:     993
 k-point ** :  -0.4500 0.3500 0.3500  plane waves:     992
 k-point ** :  -0.3500 0.3500 0.3500  plane waves:     987
 k-point ** :   0.4500 0.4500 0.3500  plane waves:     993
 k-point ** :  -0.4500 0.4500 0.3500  plane waves:     987
 k-point ** :  -0.3500 0.4500 0.3500  plane waves:     991
 k-point ** :  -0.4500-0.4500 0.3500  plane waves:     989
 k-point ** :   0.4500 0.4500 0.4500  plane waves:     987
 k-point ** :  -0.4500 0.4500 0.4500  plane waves:     994

 maximum and minimum number of plane-waves per node :      1008      956

 maximum number of plane-waves:      1008
 maximum index in each direction: 
   IXMAX=    7   IYMAX=    7   IZMAX=    6
   IXMIN=   -7   IYMIN=   -7   IZMIN=   -7

 WARNING: aliasing errors must be expected set NGX to  30 to avoid them
 WARNING: aliasing errors must be expected set NGY to  30 to avoid them
 NGZ is ok and might be reduce to  28
 aliasing errors are usually negligible using standard VASP settings
 and one can safely disregard these warnings

 serial   3D FFT for wavefunctions
 parallel 3D FFT for charge:
    minimum data exchange during FFTs selected (reduces bandwidth)


 total amount of memory used by VASP on root node    56377. kBytes
========================================================================

   base      :      30000. kBytes
   nonl-proj :      23095. kBytes
   fftplans  :        267. kBytes
   grid      :       1169. kBytes
   one-center:         16. kBytes
   wavefun   :       1830. kBytes
 
     INWAV:  cpu time    0.0010: real time    0.0002
 Broyden mixing: mesh for mixing (old mesh)
   NGX = 13   NGY = 13   NGZ = 13
  (NGX  = 40   NGY  = 40   NGZ  = 40)
  gives a total of   2197 points

 charge density for first step will be calculated from the start-wavefunctions


--------------------------------------------------------------------------------------------------------


 Maximum index for augmentation-charges         1435 (set IRDMAX)


--------------------------------------------------------------------------------------------------------


 initial charge from wavefunction
 First call to EWALD:  gamma=   0.661
 Maximum number of real-space cells 3x 3x 3
 Maximum number of reciprocal cells 3x 3x 3

 FEWALD executed in parallel
    FEWALD:  cpu time    0.0010: real time    0.0015


----------------------------------------- Iteration    1(   1)  ---------------------------------------


    POTLOK:  cpu time    0.0050: real time    0.0055
    SETDIJ:  cpu time    0.0030: real time    0.0028
     EDDAV:  cpu time    0.7029: real time    0.7038
       DOS:  cpu time    0.0010: real time    0.0004
    --------------------------------------------
      LOOP:  cpu time    0.7149: real time    0.7188

 eigenvalue-minimisations  :  4416
 total energy-change (2. order) :-0.2601477E+03  (-0.1037995E+04)
 number of electron       7.9999999 magnetization 
 augmentation part       -0.9800186 magnetization 

 Free energy of the ion-electron system (eV)
  ---------------------------------------------------
  alpha Z        PSCENC =        15.79325893
  Ewald energy   TEWEN  =      -354.45312954
  -Hartree energ DENC   =       -32.19628750
  -exchange      EXHF   =         0.00000000
  -V(xc)+E(xc)   XCENC  =       -29.90916406
  PAW double counting   =    144456.46172440  -144402.63066687
  entropy T*S    EENTRO =        -0.00000000
  eigenvalues    EBANDS =      -368.57907837
  atomic energy  EATOM  =       455.36566902
  Solvation  Ediel_sol  =         0.00000000
  ---------------------------------------------------
  free energy    TOTEN  =      -260.14767399 eV

  energy without entropy =     -260.14767399  energy(sigma->0) =     -260.14767399


--------------------------------------------------------------------------------------------------------




----------------------------------------- Iteration    1(   2)  ---------------------------------------


     EDDAV:  cpu time    0.7529: real time    0.7545
       DOS:  cpu time    0.0010: real time    0.0004
    --------------------------------------------
      LOOP:  cpu time    0.7539: real time    0.7572

 eigenvalue-minimisations  :  4656
 total energy-change (2. order) :-0.4735218E+02  (-0.4735218E+02)
 number of electron       7.9999999 magnetization 
 augmentation part       -0.9800186 magnetization 

 Free energy of the ion-electron system (eV)
  ---------------------------------------------------
  alpha Z        PSCENC =        15.79325893
  Ewald energy   TEWEN  =      -354.45312954
  -Hartree energ DENC   =       -32.19628750
  -exchange      EXHF   =         0.00000000
  -V(xc)+E(xc)   XCENC  =       -29.90916406
  PAW double counting   =    144456.46172440  -144402.63066687
  entropy T*S    EENTRO =        -0.00000000
  eigenvalues    EBANDS =      -415.93126043
  atomic energy  EATOM  =       455.36566902
  Solvation  Ediel_sol  =         0.00000000
  ---------------------------------------------------
  free energy    TOTEN  =      -307.49985605 eV

  energy without entropy =     -307.49985605  energy(sigma->0) =     -307.49985605


--------------------------------------------------------------------------------------------------------




----------------------------------------- Iteration    1(   3)  ---------------------------------------


     EDDAV:  cpu time    0.7299: real time    0.7324
       DOS:  cpu time    0.0000: real time    0.0004
    --------------------------------------------
      LOOP:  cpu time    0.7299: real time    0.7362

 eigenvalue-minimisations  :  4400
 total energy-change (2. order) :-0.3307266E+00  (-0.3307266E+00)
 number of electron       7.9999999 magnetization 
 augmentation part       -0.9800186 magnetization 

 Free energy of the ion-electron system (eV)
  ---------------------------------------------------
  alpha Z        PSCENC =        15.79325893
  Ewald energy   TEWEN  =      -354.45312954
  -Hartree energ DENC   =       -32.19628750
  -exchange      EXHF   =         0.00000000
  -V(xc)+E(xc)   XCENC  =       -29.90916406
  PAW double counting   =    144456.46172440  -144402.63066687
  entropy T*S    EENTRO =        -0.00000000
  eigenvalues    EBANDS =      -416.26198701
  atomic energy  EATOM  =       455.36566902
  Solvation  Ediel_sol  =         0.00000000
  ---------------------------------------------------
  free energy    TOTEN  =      -307.83058263 eV

  energy without entropy =     -307.83058263  energy(sigma->0) =     -307.83058263


--------------------------------------------------------------------------------------------------------




----------------------------------------- Iteration    1(   4)  ---------------------------------------


     EDDAV:  cpu time    1.1648: real time    1.1662
       DOS:  cpu time    0.0010: real time    0.0004
    --------------------------------------------
      LOOP:  cpu time    1.1668: real time    1.1705

 eigenvalue-minimisations  :  5968
 total energy-change (2. order) :-0.1059539E-02  (-0.1059539E-02)
 number of electron       7.9999999 magnetization 
 augmentation part       -0.9800186 magnetization 

 Free energy of the ion-electron system (eV)
  ---------------------------------------------------
  alpha Z        PSCENC =        15.79325893
  Ewald energy   TEWEN  =      -354.45312954
  -Hartree energ DENC   =       -32.19628750
  -exchange      EXHF   =         0.00000000
  -V(xc)+E(xc)   XCENC  =       -29.90916406
  PAW double counting   =    144456.46172440  -144402.63066687
  entropy T*S    EENTRO =        -0.00000000
  eigenvalues    EBANDS =      -416.26304655
  atomic energy  EATOM  =       455.36566902
  Solvation  Ediel_sol  =         0.00000000
  ---------------------------------------------------
  free energy    TOTEN  =      -307.83164217 eV

  energy without entropy =     -307.83164217  energy(sigma->0) =     -307.83164217


--------------------------------------------------------------------------------------------------------




----------------------------------------- Iteration    1(   5)  ---------------------------------------


     EDDAV:  cpu time    0.7559: real time    0.7569
       DOS:  cpu time    0.0010: real time    0.0004
    CHARGE:  cpu time    0.0380: real time    0.0383
    MIXING:  cpu time    0.0000: real time    0.0003
    --------------------------------------------
      LOOP:  cpu time    0.7949: real time    0.7999

 eigenvalue-minimisations  :  4480
 total energy-change (2. order) :-0.2467893E-06  (-0.2467892E-06)
 number of electron       7.9999985 magnetization 
 augmentation part        0.5788142 magnetization 

 Broyden mixing:
  rms(total) = 0.93714E+01    rms(broyden)= 0.93433E+01
  rms(prec ) = 0.28929E+02
  weight for this iteration     100.00

 Free energy of the ion-electron system (eV)
  ---------------------------------------------------
  alpha Z        PSCENC =        15.79325893
  Ewald energy   TEWEN  =      -354.45312954
  -Hartree energ DENC   =       -32.19628750
  -exchange      EXHF   =         0.00000000
  -V(xc)+E(xc)   XCENC  =       -29.90916406
  PAW double counting   =    144456.46172440  -144402.63066687
  entropy T*S    EENTRO =        -0.00000000
  eigenvalues    EBANDS =      -416.26304680
  atomic energy  EATOM  =       455.36566902
  Solvation  Ediel_sol  =         0.00000000
  ---------------------------------------------------
  free energy    TOTEN  =      -307.83164241 eV

  energy without entropy =     -307.83164241  energy(sigma->0) =     -307.83164241


--------------------------------------------------------------------------------------------------------




----------------------------------------- Iteration    1(   6)  ---------------------------------------


    POTLOK:  cpu time    0.0040: real time    0.0043
    SETDIJ:  cpu time    0.0030: real time    0.0026
     EDDAV:  cpu time    0.5579: real time    0.5589
       DOS:  cpu time    0.0000: real time    0.0004
    CHARGE:  cpu time    0.0390: real time    0.0387
    MIXING:  cpu time    0.0000: real time    0.0004
    --------------------------------------------
      LOOP:  cpu time    0.6049: real time    0.6089

 eigenvalue-minimisations  :  3536
 total energy-change (2. order) : 0.2399687E+03  (-0.2758995E+02)
 number of electron       7.9999994 magnetization 
 augmentation part        0.2530283 magnetization 

 Broyden mixing:
  rms(total) = 0.40069E+01    rms(broyden)= 0.40034E+01
  rms(prec ) = 0.13454E+02
  weight for this iteration     100.00

 eigenvalues of (default mixing * dielectric matrix)
  average eigenvalue GAMMA=   1.4815
  1.4815

 Free energy of the ion-electron system (eV)
  ---------------------------------------------------
  alpha Z        PSCENC =        15.79325893
  Ewald energy   TEWEN  =      -354.45312954
  -Hartree energ DENC   =       -67.66602529
  -exchange      EXHF   =         0.00000000
  -V(xc)+E(xc)   XCENC  =       -26.11604734
  PAW double counting   =    365744.50397374  -365694.62927064
  entropy T*S    EENTRO =        -0.00000000
  eigenvalues    EBANDS =      -140.66139427
  atomic energy  EATOM  =       455.36566902
  Solvation  Ediel_sol  =         0.00000000
  ---------------------------------------------------
  free energy    TOTEN  =       -67.86296538 eV

  energy without entropy =      -67.86296538  energy(sigma->0) =      -67.86296538


--------------------------------------------------------------------------------------------------------




----------------------------------------- Iteration    1(   7)  ---------------------------------------


    POTLOK:  cpu time    0.0040: real time    0.0043
    SETDIJ:  cpu time    0.0030: real time    0.0026
     EDDAV:  cpu time    0.8629: real time    0.8634
       DOS:  cpu time    0.0000: real time    0.0004
    CHARGE:  cpu time    0.0380: real time    0.0386
    MIXING:  cpu time    0.0010: real time    0.0003
    --------------------------------------------
      LOOP:  cpu time    0.9099: real time    0.9135

 eigenvalue-minimisations  :  5168
 total energy-change (2. order) : 0.4480442E+02  (-0.3933528E+02)
 number of electron       8.0000001 magnetization 
 augmentation part       -0.0159930 magnetization 

 Broyden mixing:
  rms(total) = 0.26302E+01    rms(broyden)= 0.26244E+01
  rms(prec ) = 0.70609E+01
  weight for this iteration     100.00

 eigenvalues of (default mixing * dielectric matrix)
  average eigenvalue GAMMA=   1.3248
  1.3248  1.3248

 Free energy of the ion-electron system (eV)
  ---------------------------------------------------
  alpha Z        PSCENC =        15.79325893
  Ewald energy   TEWEN  =      -354.45312954
  -Hartree energ DENC   =      -179.88083288
  -exchange      EXHF   =         0.00000000
  -V(xc)+E(xc)   XCENC  =       -18.71995367
  PAW double counting   =     52590.25833039   -52542.00326286
  entropy T*S    EENTRO =        -0.00000000
  eigenvalues    EBANDS =        10.58137871
  atomic energy  EATOM  =       455.36566902
  Solvation  Ediel_sol  =         0.00000000
  ---------------------------------------------------
  free energy    TOTEN  =       -23.05854189 eV

  energy without entropy =      -23.05854189  energy(sigma->0) =      -23.05854189


--------------------------------------------------------------------------------------------------------




----------------------------------------- Iteration    1(   8)  ---------------------------------------


    POTLOK:  cpu time    0.0050: real time    0.0044
    SETDIJ:  cpu time    0.0020: real time    0.0026
     EDDAV:  cpu time    0.5859: real time    0.5868
       DOS:  cpu time    0.0010: real time    0.0005
    CHARGE:  cpu time    0.0380: real time    0.0383
    MIXING:  cpu time    0.0010: real time    0.0003
    --------------------------------------------
      LOOP:  cpu time    0.6329: real time    0.6367

 eigenvalue-minimisations  :  3664
 total energy-change (2. order) : 0.1822220E+01  (-0.1841589E+02)
 number of electron       7.9999996 magnetization 
 augmentation part        0.1489561 magnetization 

 Broyden mixing:
  rms(total) = 0.16803E+01    rms(broyden)= 0.16794E+01
  rms(prec ) = 0.60246E+01
  weight for this iteration     100.00

 eigenvalues of (default mixing * dielectric matrix)
  average eigenvalue GAMMA=   1.5670
  2.6021  1.3374  0.7614

 Free energy of the ion-electron system (eV)
  ---------------------------------------------------
  alpha Z        PSCENC =        15.79325893
  Ewald energy   TEWEN  =      -354.45312954
  -Hartree energ DENC   =      -100.93778794
  -exchange      EXHF   =         0.00000000
  -V(xc)+E(xc)   XCENC  =       -24.01913464
  PAW double counting   =     63653.04251212   -63602.97761381
  entropy T*S    EENTRO =        -0.00000000
  eigenvalues    EBANDS =       -63.05009639
  atomic energy  EATOM  =       455.36566902
  Solvation  Ediel_sol  =         0.00000000
  ---------------------------------------------------
  free energy    TOTEN  =       -21.23632226 eV

  energy without entropy =      -21.23632226  energy(sigma->0) =      -21.23632226


--------------------------------------------------------------------------------------------------------




----------------------------------------- Iteration    1(   9)  ---------------------------------------


    POTLOK:  cpu time    0.0040: real time    0.0044
    SETDIJ:  cpu time    0.0030: real time    0.0026
     EDDAV:  cpu time    0.6079: real time    0.6152
       DOS:  cpu time    0.0010: real time    0.0004
    CHARGE:  cpu time    0.0380: real time    0.0386
    MIXING:  cpu time    0.0010: real time    0.0004
    --------------------------------------------
      LOOP:  cpu time    0.6549: real time    0.6655

 eigenvalue-minimisations  :  3760
 total energy-change (2. order) : 0.9272793E+01  (-0.3173465E+01)
 number of electron       7.9999998 magnetization 
 augmentation part        0.0784520 magnetization 

 Broyden mixing:
  rms(total) = 0.24886E+00    rms(broyden)= 0.24773E+00
  rms(prec ) = 0.69217E+00
  weight for this iteration     100.00

 eigenvalues of (default mixing * dielectric matrix)
  average eigenvalue GAMMA=   1.5160
  2.5814  1.3649  1.3649  0.7526

 Free energy of the ion-electron system (eV)
  ---------------------------------------------------
  alpha Z        PSCENC =        15.79325893
  Ewald energy   TEWEN  =      -354.45312954
  -Hartree energ DENC   =      -138.08179599
  -exchange      EXHF   =         0.00000000
  -V(xc)+E(xc)   XCENC  =       -20.94715886
  PAW double counting   =      1154.47759410    -1103.96579986
  entropy T*S    EENTRO =        -0.00000000
  eigenvalues    EBANDS =       -20.15216732
  atomic energy  EATOM  =       455.36566902
  Solvation  Ediel_sol  =         0.00000000
  ---------------------------------------------------
  free energy    TOTEN  =       -11.96352951 eV

  energy without entropy =      -11.96352951  energy(sigma->0) =      -11.96352951


--------------------------------------------------------------------------------------------------------




----------------------------------------- Iteration    1(  10)  ---------------------------------------


    POTLOK:  cpu time    0.0040: real time    0.0043
    SETDIJ:  cpu time    0.0030: real time    0.0025
     EDDAV:  cpu time    0.7159: real time    0.7162
       DOS:  cpu time    0.0000: real time    0.0004
    CHARGE:  cpu time    0.0380: real time    0.0385
    MIXING:  cpu time    0.0010: real time    0.0004
    --------------------------------------------
      LOOP:  cpu time    0.7619: real time    0.7658

 eigenvalue-minimisations  :  4336
 total energy-change (2. order) :-0.1467366E-01  (-0.2193957E+00)
 number of electron       7.9999999 magnetization 
 augmentation part        0.0587438 magnetization 

 Broyden mixing:
  rms(total) = 0.19117E+00    rms(broyden)= 0.19049E+00
  rms(prec ) = 0.59924E+00
  weight for this iteration     100.00

 eigenvalues of (default mixing * dielectric matrix)
  average eigenvalue GAMMA=   1.6452
  2.7134  2.5553  1.2173  0.9219  0.8180

 Free energy of the ion-electron system (eV)
  ---------------------------------------------------
  alpha Z        PSCENC =        15.79325893
  Ewald energy   TEWEN  =      -354.45312954
  -Hartree energ DENC   =      -145.34863600
  -exchange      EXHF   =         0.00000000
  -V(xc)+E(xc)   XCENC  =       -20.47638518
  PAW double counting   =       900.40369365     -850.07029124
  entropy T*S    EENTRO =        -0.00000000
  eigenvalues    EBANDS =       -13.19238281
  atomic energy  EATOM  =       455.36566902
  Solvation  Ediel_sol  =         0.00000000
  ---------------------------------------------------
  free energy    TOTEN  =       -11.97820317 eV

  energy without entropy =      -11.97820317  energy(sigma->0) =      -11.97820317


--------------------------------------------------------------------------------------------------------




----------------------------------------- Iteration    1(  11)  ---------------------------------------


    POTLOK:  cpu time    0.0050: real time    0.0044
    SETDIJ:  cpu time    0.0020: real time    0.0026
     EDDAV:  cpu time    0.6559: real time    0.6557
       DOS:  cpu time    0.0000: real time    0.0004
    CHARGE:  cpu time    0.0390: real time    0.0385
    MIXING:  cpu time    0.0000: real time    0.0004
    --------------------------------------------
      LOOP:  cpu time    0.7019: real time    0.7061

 eigenvalue-minimisations  :  4016
 total energy-change (2. order) : 0.5759062E-01  (-0.6996028E-01)
 number of electron       7.9999999 magnetization 
 augmentation part        0.0697110 magnetization 

 Broyden mixing:
  rms(total) = 0.42249E-01    rms(broyden)= 0.42140E-01
  rms(prec ) = 0.15292E+00
  weight for this iteration     100.00

 eigenvalues of (default mixing * dielectric matrix)
  average eigenvalue GAMMA=   1.5792
  2.8881  2.5373  1.3187  0.8289  0.9509  0.9509

 Free energy of the ion-electron system (eV)
  ---------------------------------------------------
  alpha Z        PSCENC =        15.79325893
  Ewald energy   TEWEN  =      -354.45312954
  -Hartree energ DENC   =      -140.70752645
  -exchange      EXHF   =         0.00000000
  -V(xc)+E(xc)   XCENC  =       -20.75694473
  PAW double counting   =       727.25641377     -676.84575952
  entropy T*S    EENTRO =        -0.00000000
  eigenvalues    EBANDS =       -17.57259403
  atomic energy  EATOM  =       455.36566902
  Solvation  Ediel_sol  =         0.00000000
  ---------------------------------------------------
  free energy    TOTEN  =       -11.92061256 eV

  energy without entropy =      -11.92061256  energy(sigma->0) =      -11.92061256


--------------------------------------------------------------------------------------------------------




----------------------------------------- Iteration    1(  12)  ---------------------------------------


    POTLOK:  cpu time    0.0050: real time    0.0046
    SETDIJ:  cpu time    0.0030: real time    0.0026
     EDDAV:  cpu time    0.7519: real time    0.7526
       DOS:  cpu time    0.0000: real time    0.0004
    CHARGE:  cpu time    0.0380: real time    0.0385
    MIXING:  cpu time    0.0010: real time    0.0004
    --------------------------------------------
      LOOP:  cpu time    0.7989: real time    0.8027

 eigenvalue-minimisations  :  4464
 total energy-change (2. order) : 0.4013486E-02  (-0.2996095E-02)
 number of electron       7.9999999 magnetization 
 augmentation part        0.0677166 magnetization 

 Broyden mixing:
  rms(total) = 0.47106E-02    rms(broyden)= 0.46939E-02
  rms(prec ) = 0.16412E-01
  weight for this iteration     100.00

 eigenvalues of (default mixing * dielectric matrix)
  average eigenvalue GAMMA=   1.5120
  2.8664  2.5373  1.4120  1.0734  1.0734  0.8109  0.8109

 Free energy of the ion-electron system (eV)
  ---------------------------------------------------
  alpha Z        PSCENC =        15.79325893
  Ewald energy   TEWEN  =      -354.45312954
  -Hartree energ DENC   =      -141.68011841
  -exchange      EXHF   =         0.00000000
  -V(xc)+E(xc)   XCENC  =       -20.68331716
  PAW double counting   =       658.91348405     -608.51671864
  entropy T*S    EENTRO =        -0.00000000
  eigenvalues    EBANDS =       -16.65572733
  atomic energy  EATOM  =       455.36566902
  Solvation  Ediel_sol  =         0.00000000
  ---------------------------------------------------
  free energy    TOTEN  =       -11.91659907 eV

  energy without entropy =      -11.91659907  energy(sigma->0) =      -11.91659907


--------------------------------------------------------------------------------------------------------




----------------------------------------- Iteration    1(  13)  ---------------------------------------


    POTLOK:  cpu time    0.0050: real time    0.0044
    SETDIJ:  cpu time    0.0020: real time    0.0026
     EDDAV:  cpu time    0.7129: real time    0.7134
       DOS:  cpu time    0.0010: real time    0.0004
    CHARGE:  cpu time    0.0390: real time    0.0394
    MIXING:  cpu time    0.0010: real time    0.0004
    --------------------------------------------
      LOOP:  cpu time    0.7609: real time    0.7648

 eigenvalue-minimisations  :  4272
 total energy-change (2. order) :-0.4054755E-04  (-0.1544926E-03)
 number of electron       7.9999999 magnetization 
 augmentation part        0.0671787 magnetization 

 Broyden mixing:
  rms(total) = 0.53350E-02    rms(broyden)= 0.53222E-02
  rms(prec ) = 0.15214E-01
  weight for this iteration     100.00

 eigenvalues of (default mixing * dielectric matrix)
  average eigenvalue GAMMA=   1.6780
  3.2584  2.6790  2.5235  1.2926  1.0067  0.8632  0.9002  0.9002

 Free energy of the ion-electron system (eV)
  ---------------------------------------------------
  alpha Z        PSCENC =        15.79325893
  Ewald energy   TEWEN  =      -354.45312954
  -Hartree energ DENC   =      -141.85986829
  -exchange      EXHF   =         0.00000000
  -V(xc)+E(xc)   XCENC  =       -20.67253149
  PAW double counting   =       675.37991660     -624.98701776
  entropy T*S    EENTRO =        -0.00000000
  eigenvalues    EBANDS =       -16.48293709
  atomic energy  EATOM  =       455.36566902
  Solvation  Ediel_sol  =         0.00000000
  ---------------------------------------------------
  free energy    TOTEN  =       -11.91663962 eV

  energy without entropy =      -11.91663962  energy(sigma->0) =      -11.91663962


--------------------------------------------------------------------------------------------------------




----------------------------------------- Iteration    1(  14)  ---------------------------------------


    POTLOK:  cpu time    0.0040: real time    0.0044
    SETDIJ:  cpu time    0.0030: real time    0.0026
     EDDAV:  cpu time    0.7659: real time    0.7671
       DOS:  cpu time    0.0010: real time    0.0004
    CHARGE:  cpu time    0.0380: real time    0.0387
    MIXING:  cpu time    0.0010: real time    0.0005
    --------------------------------------------
      LOOP:  cpu time    0.8129: real time    0.8176

 eigenvalue-minimisations  :  4528
 total energy-change (2. order) : 0.3839708E-04  (-0.4161105E-04)
 number of electron       7.9999999 magnetization 
 augmentation part        0.0674730 magnetization 

 Broyden mixing:
  rms(total) = 0.12399E-02    rms(broyden)= 0.12367E-02
  rms(prec ) = 0.34548E-02
  weight for this iteration     100.00

 eigenvalues of (default mixing * dielectric matrix)
  average eigenvalue GAMMA=   1.5812
  2.9541  2.6832  2.5222  1.2208  1.2208  0.9009  0.9009  0.8693  0.9586

 Free energy of the ion-electron system (eV)
  ---------------------------------------------------
  alpha Z        PSCENC =        15.79325893
  Ewald energy   TEWEN  =      -354.45312954
  -Hartree energ DENC   =      -141.76823689
  -exchange      EXHF   =         0.00000000
  -V(xc)+E(xc)   XCENC  =       -20.67819618
  PAW double counting   =       690.54213891     -640.14675482
  entropy T*S    EENTRO =        -0.00000000
  eigenvalues    EBANDS =       -16.57135066
  atomic energy  EATOM  =       455.36566902
  Solvation  Ediel_sol  =         0.00000000
  ---------------------------------------------------
  free energy    TOTEN  =       -11.91660122 eV

  energy without entropy =      -11.91660122  energy(sigma->0) =      -11.91660122


--------------------------------------------------------------------------------------------------------




----------------------------------------- Iteration    1(  15)  ---------------------------------------


    POTLOK:  cpu time    0.0050: real time    0.0043
    SETDIJ:  cpu time    0.0020: real time    0.0026
     EDDAV:  cpu time    0.7149: real time    0.7154
       DOS:  cpu time    0.0000: real time    0.0004
    CHARGE:  cpu time    0.0390: real time    0.0384
    MIXING:  cpu time    0.0000: real time    0.0005
    --------------------------------------------
      LOOP:  cpu time    0.7609: real time    0.7657

 eigenvalue-minimisations  :  4272
 total energy-change (2. order) : 0.1699199E-05  (-0.2433646E-05)
 number of electron       7.9999999 magnetization 
 augmentation part        0.0674098 magnetization 

 Broyden mixing:
  rms(total) = 0.27643E-03    rms(broyden)= 0.27595E-03
  rms(prec ) = 0.10244E-02
  weight for this iteration     100.00

 eigenvalues of (default mixing * dielectric matrix)
  average eigenvalue GAMMA=   1.6969
  3.2880  2.8226  2.5136  2.4573  1.2827  1.0130  0.8505  0.9558  0.8929  0.8929

 Free energy of the ion-electron system (eV)
  ---------------------------------------------------
  alpha Z        PSCENC =        15.79325893
  Ewald energy   TEWEN  =      -354.45312954
  -Hartree energ DENC   =      -141.79251829
  -exchange      EXHF   =         0.00000000
  -V(xc)+E(xc)   XCENC  =       -20.67687295
  PAW double counting   =       689.15355677     -638.75874843
  entropy T*S    EENTRO =        -0.00000000
  eigenvalues    EBANDS =       -16.54781504
  atomic energy  EATOM  =       455.36566902
  Solvation  Ediel_sol  =         0.00000000
  ---------------------------------------------------
[...]
      5      11.9741      0.00000
      6      14.9242      0.00000
      7      17.6390      0.00000
      8      20.1341      0.00000
      9      22.4684      0.00000
     10      25.2794      0.00000
     11      27.6078      0.00000
     12      31.8831      0.00000
     13      32.3347      0.00000
     14      34.2547      0.00000
     15      35.3033      0.00000
     16      39.6044      0.00000

 k-point    91 :      -0.4500    0.3500    0.2500
  band No.  band energies     occupation 
      1     -12.4783      2.00000
      2      -0.1229      2.00000
      3       1.2125      2.00000
      4       2.4735      2.00000
      5      13.1521      0.00000
      6      14.8094      0.00000
      7      16.3966      0.00000
      8      20.0722      0.00000
      9      23.4866      0.00000
     10      24.3307      0.00000
     11      29.7699      0.00000
     12      31.4437      0.00000
     13      32.0026      0.00000
     14      35.1149      0.00000
     15      36.6889      0.00000
     16      41.2826      0.00000

 k-point    92 :      -0.3500    0.3500    0.2500
  band No.  band energies     occupation 
      1     -12.3366      2.00000
      2       0.0791      2.00000
      3       0.6640      2.00000
      4       2.2517      2.00000
      5      13.7197      0.00000
      6      15.0774      0.00000
      7      15.6193      0.00000
      8      19.7611      0.00000
      9      23.1957      0.00000
     10      25.2162      0.00000
     11      30.6027      0.00000
     12      31.1222      0.00000
     13      31.8849      0.00000
     14      36.5553      0.00000
     15      37.6026      0.00000
     16      41.4268      0.00000

 k-point    93 :      -0.2500    0.3500    0.2500
  band No.  band energies     occupation 
      1     -12.3302      2.00000
      2      -0.1334      2.00000
      3       1.0540      2.00000
      4       2.1291      2.00000
      5      13.5218      0.00000
      6      14.7223      0.00000
      7      15.7098      0.00000
      8      19.8690      0.00000
      9      22.6080      0.00000
     10      26.7564      0.00000
     11      30.2147      0.00000
     12      31.2058      0.00000
     13      32.2207      0.00000
     14      36.0409      0.00000
     15      38.5047      0.00000
     16      41.0671      0.00000

 k-point    94 :       0.4500    0.4500    0.2500
  band No.  band energies     occupation 
      1     -12.5671      2.00000
      2      -0.3635      2.00000
      3       1.9423      2.00000
      4       2.4843      2.00000
      5      12.3143      0.00000
      6      14.7437      0.00000
      7      17.0572      0.00000
      8      20.3150      0.00000
      9      22.0312      0.00000
     10      26.7832      0.00000
     11      28.3587      0.00000
     12      31.1156      0.00000
     13      33.2521      0.00000
     14      34.0220      0.00000
     15      35.3491      0.00000
     16      40.4136      0.00000

 k-point    95 :      -0.4500    0.4500    0.2500
  band No.  band energies     occupation 
      1     -12.4177      2.00000
      2      -0.2650      2.00000
      3       1.3919      2.00000
      4       2.2732      2.00000
      5      13.1610      0.00000
      6      14.6634      0.00000
      7      16.1831      0.00000
      8      20.0511      0.00000
      9      22.5439      0.00000
     10      26.3272      0.00000
     11      30.4026      0.00000
     12      30.8497      0.00000
     13      32.1506      0.00000
     14      35.2194      0.00000
     15      36.8339      0.00000
     16      41.4098      0.00000

 k-point    96 :      -0.3500    0.4500    0.2500
  band No.  band energies     occupation 
      1     -12.3015      2.00000
      2       0.1183      2.00000
      3       0.8047      2.00000
      4       1.9183      2.00000
      5      14.2926      0.00000
      6      14.7021      0.00000
      7      15.4431      0.00000
      8      19.0704      0.00000
      9      24.0349      0.00000
     10      25.1380      0.00000
     11      29.9021      0.00000
     12      31.6889      0.00000
     13      33.0754      0.00000
     14      36.5128      0.00000
     15      38.3387      0.00000
     16      41.8489      0.00000

 k-point    97 :      -0.2500    0.4500    0.2500
  band No.  band energies     occupation 
      1     -12.2646      2.00000
      2       0.2838      2.00000
      3       0.6813      2.00000
      4       1.7240      2.00000
      5      14.4541      0.00000
      6      14.9401      0.00000
      7      15.1777      0.00000
      8      18.6810      0.00000
      9      24.1631      0.00000
     10      25.5201      0.00000
     11      29.3112      0.00000
     12      31.6659      0.00000
     13      34.1008      0.00000
     14      37.0850      0.00000
     15      39.7917      0.00000
     16      40.5730      0.00000

 k-point    98 :      -0.4500   -0.4500    0.2500
  band No.  band energies     occupation 
      1     -12.3436      2.00000
      2      -0.2212      2.00000
      3       1.0913      2.00000
      4       2.2982      2.00000
      5      13.1541      0.00000
      6      14.6971      0.00000
      7      15.8428      0.00000
      8      20.8707      0.00000
      9      21.4420      0.00000
     10      27.8716      0.00000
     11      30.0248      0.00000
     12      31.0124      0.00000
     13      31.4886      0.00000
     14      36.0575      0.00000
     15      38.5572      0.00000
     16      40.6112      0.00000

 k-point    99 :      -0.3500   -0.4500    0.2500
  band No.  band energies     occupation 
      1     -12.2853      2.00000
      2       0.0288      2.00000
      3       0.7886      2.00000
      4       2.0540      2.00000
      5      13.6542      0.00000
      6      14.8380      0.00000
      7      15.4812      0.00000
      8      19.7042      0.00000
      9      22.6687      0.00000
     10      27.0595      0.00000
     11      29.7310      0.00000
     12      31.3267      0.00000
     13      32.5304      0.00000
     14      37.3578      0.00000
     15      39.5560      0.00000
     16      40.4804      0.00000

 k-point   100 :      -0.3500   -0.3500    0.2500
  band No.  band energies     occupation 
      1     -12.2959      2.00000
      2      -0.0590      2.00000
      3       0.7825      2.00000
      4       2.2583      2.00000
      5      13.2765      0.00000
      6      14.7623      0.00000
      7      15.6248      0.00000
      8      21.0252      0.00000
      9      21.2409      0.00000
     10      28.0857      0.00000
     11      30.0273      0.00000
     12      31.0757      0.00000
     13      31.3132      0.00000
     14      37.6430      0.00000
     15      39.5292      0.00000
     16      40.0565      0.00000

 k-point   101 :       0.3500    0.3500    0.3500
  band No.  band energies     occupation 
      1     -12.8336      2.00000
      2      -0.3824      2.00000
      3       2.8553      2.00000
      4       2.8553      2.00000
      5      10.8459      0.00000
      6      15.4082      0.00000
      7      19.5897      0.00000
      8      19.5897      0.00000
      9      24.1193      0.00000
     10      24.1193      0.00000
     11      24.1959      0.00000
     12      32.0144      0.00000
     13      32.9212      0.00000
     14      32.9212      0.00000
     15      37.4058      0.00000
     16      37.4058      0.00000

 k-point   102 :       0.4500    0.3500    0.3500
  band No.  band energies     occupation 
      1     -12.6850      2.00000
      2      -0.5657      2.00000
      3       2.4066      2.00000
      4       2.8077      2.00000
      5      11.4000      0.00000
      6      15.3308      0.00000
      7      18.5041      0.00000
      8      19.7651      0.00000
      9      23.8236      0.00000
     10      24.7091      0.00000
     11      25.4953      0.00000
     12      32.3942      0.00000
     13      32.8464      0.00000
     14      33.6558      0.00000
     15      35.1150      0.00000
     16      38.8628      0.00000

 k-point   103 :      -0.4500    0.3500    0.3500
  band No.  band energies     occupation 
      1     -12.5017      2.00000
      2      -0.4299      2.00000
      3       1.5254      2.00000
      4       2.6412      2.00000
      5      12.5247      0.00000
      6      15.2109      0.00000
      7      16.8864      0.00000
      8      20.1938      0.00000
      9      23.6242      0.00000
     10      24.3710      0.00000
     11      27.8697      0.00000
     12      32.1823      0.00000
     13      32.4476      0.00000
     14      34.6217      0.00000
     15      35.7230      0.00000
     16      40.2990      0.00000

 k-point   104 :      -0.3500    0.3500    0.3500
  band No.  band energies     occupation 
      1     -12.3516      2.00000
      2       0.0393      2.00000
      3       0.6166      2.00000
      4       2.4318      2.00000
      5      13.3965      0.00000
      6      15.2410      0.00000
      7      15.6730      0.00000
      8      20.6324      0.00000
      9      22.0095      0.00000
     10      25.8946      0.00000
     11      29.9745      0.00000
     12      31.1205      0.00000
     13      31.7948      0.00000
     14      36.4029      0.00000
     15      37.6788      0.00000
     16      41.0353      0.00000

 k-point   105 :       0.4500    0.4500    0.3500
  band No.  band energies     occupation 
      1     -12.6047      2.00000
      2      -0.7744      2.00000
      3       2.4825      2.00000
      4       2.6695      2.00000
      5      11.4524      0.00000
      6      15.3750      0.00000
      7      18.4084      0.00000
      8      19.6553      0.00000
      9      23.6627      0.00000
     10      25.4492      0.00000
     11      25.7498      0.00000
     12      32.0903      0.00000
     13      32.8612      0.00000
     14      34.1366      0.00000
     15      34.6920      0.00000
     16      38.0541      0.00000

 k-point   106 :      -0.4500    0.4500    0.3500
  band No.  band energies     occupation 
      1     -12.4819      2.00000
      2      -0.6672      2.00000
      3       1.8612      2.00000
      4       2.5515      2.00000
      5      12.2552      0.00000
      6      15.2917      0.00000
      7      17.1799      0.00000
      8      19.8814      0.00000
      9      23.5875      0.00000
     10      25.1316      0.00000
     11      27.6289      0.00000
     12      32.1354      0.00000
     13      32.6075      0.00000
     14      33.8212      0.00000
     15      36.0515      0.00000
     16      38.7122      0.00000

 k-point   107 :      -0.3500    0.4500    0.3500
  band No.  band energies     occupation 
      1     -12.3605      2.00000
      2      -0.2472      2.00000
      3       1.0680      2.00000
      4       2.3062      2.00000
      5      13.3391      0.00000
      6      15.1437      0.00000
      7      15.9585      0.00000
      8      19.8517      0.00000
      9      23.1649      0.00000
     10      25.2943      0.00000
     11      30.1673      0.00000
     12      31.0742      0.00000
     13      32.1035      0.00000
     14      35.3020      0.00000
     15      38.0899      0.00000
     16      39.7475      0.00000

 k-point   108 :      -0.4500   -0.4500    0.3500
  band No.  band energies     occupation 
      1     -12.4284      2.00000
      2      -0.6088      2.00000
      3       1.6081      2.00000
      4       2.5097      2.00000
      5      12.5280      0.00000
      6      15.2645      0.00000
      7      16.7271      0.00000
      8      20.1609      0.00000
      9      22.7227      0.00000
     10      26.2331      0.00000
     11      28.0023      0.00000
     12      31.8312      0.00000
     13      32.3279      0.00000
     14      34.0277      0.00000
     15      37.5828      0.00000
     16      38.0743      0.00000

 k-point   109 :       0.4500    0.4500    0.4500
  band No.  band energies     occupation 
      1     -12.5853      2.00000
      2      -1.0387      2.00000
      3       2.7500      2.00000
      4       2.7500      2.00000
      5      11.0406      0.00000
      6      15.5646      0.00000
      7      19.3764      0.00000
      8      19.3764      0.00000
      9      23.8260      0.00000
     10      25.2636      0.00000
     11      25.2637      0.00000
     12      31.4459      0.00000
     13      33.6698      0.00000
     14      33.6698      0.00000
     15      35.6275      0.00000
     16      35.6275      0.00000

 k-point   110 :      -0.4500    0.4500    0.4500
  band No.  band energies     occupation 
      1     -12.5189      2.00000
      2      -0.9807      2.00000
      3       2.3714      2.00000
      4       2.6858      2.00000
      5      11.5142      0.00000
      6      15.5193      0.00000
      7      18.2903      0.00000
      8      19.5812      0.00000
      9      24.5003      0.00000
     10      25.3923      0.00000
     11      25.4042      0.00000
     12      32.3103      0.00000
     13      33.0487      0.00000
     14      33.2044      0.00000
     15      35.7823      0.00000
     16      36.6390      0.00000


--------------------------------------------------------------------------------------------------------


 soft charge-density along one line, spin component           1
         0         1         2         3         4         5         6         7         8         9
 total charge-density along one line
 
 pseudopotential strength for first ion, spin component:           1
 25.191  -0.005  -0.000  -0.000  -0.000   0.000   0.000   0.000
 -0.005   0.001  -0.000  -0.000  -0.000  -0.000  -0.000  -0.000
 -0.000  -0.000  -8.636   0.000   0.000   0.013   0.000   0.000
 -0.000  -0.000   0.000  -8.636   0.000   0.000   0.013   0.000
 -0.000  -0.000   0.000   0.000  -8.636   0.000   0.000   0.013
  0.000  -0.000   0.013   0.000   0.000   0.018   0.000   0.000
  0.000  -0.000   0.000   0.013   0.000   0.000   0.018   0.000
  0.000  -0.000   0.000   0.000   0.013   0.000   0.000   0.018
 total augmentation occupancy for first ion, spin component:           1
  1.788   2.136   0.000   0.000   0.000   0.000   0.000   0.000
  2.136   4.088   0.000   0.000   0.000   0.000   0.000   0.000
  0.000   0.000   1.496   0.000  -0.000  -1.129  -0.000   0.000
  0.000   0.000   0.000   1.496  -0.000  -0.000  -1.129   0.000
  0.000   0.000  -0.000  -0.000   1.496   0.000   0.000  -1.129
  0.000   0.000  -1.129  -0.000   0.000   0.910   0.000   0.000
  0.000   0.000  -0.000  -1.129   0.000   0.000   0.910  -0.000
  0.000   0.000   0.000   0.000  -1.129   0.000  -0.000   0.910


------------------------ aborting loop because EDIFF is reached ----------------------------------------


    CHARGE:  cpu time    0.0380: real time    0.0381
    FORLOC:  cpu time    0.0010: real time    0.0002
    FORNL :  cpu time    0.0230: real time    0.0234
    STRESS:  cpu time    0.4269: real time    0.4287
    FORCOR:  cpu time    0.0040: real time    0.0035
    FORHAR:  cpu time    0.0010: real time    0.0008
    MIXING:  cpu time    0.0000: real time    0.0006
    OFIELD:  cpu time    0.0000: real time    0.0000

  FORCE on cell =-STRESS in cart. coord.  units (eV):
  Direction    XX          YY          ZZ          XY          YZ          ZX
  --------------------------------------------------------------------------------------
  Alpha Z    15.79326    15.79326    15.79326
  Ewald    -118.15107  -118.15107  -118.15107    -0.00000    -0.00000     0.00000
  Hartree    47.25918    47.25919    47.25919     0.00000     0.00000     0.00000
  E(xc)     -36.93566   -36.93566   -36.93566    -0.00000    -0.00000    -0.00000
  Local     -89.25909   -89.25910   -89.25912    -0.00000     0.00000    -0.00000
  n-local    -9.22656    -9.70048   -10.64891     0.45221     0.09966    -1.37505
  augment     0.80347     0.80347     0.80347    -0.00000    -0.00000    -0.00000
  Kinetic   185.75707   189.22295   194.62679    -0.12618    -0.17432     4.60743
  Fock        0.00000     0.00000     0.00000     0.00000     0.00000     0.00000
  -------------------------------------------------------------------------------------
  Total      -0.47962    -0.47962    -0.47962    -0.00000    -0.00000     0.00000
  in kB     -39.85835   -39.85836   -39.85837    -0.00000    -0.00000     0.00000
  external pressure =      -39.86 kB  Pullay stress =        0.00 kB


 VOLUME and BASIS-vectors are now :
 -----------------------------------------------------------------------------
  energy-cutoff  :      800.00
  volume of cell :       19.28
      direct lattice vectors                 reciprocal lattice vectors
     3.009788000  0.000000000  0.000000000     0.332249315 -0.191824221 -0.135640193
     1.504894000  2.606553000  0.000000000     0.000000000  0.383648443 -0.135640193
     1.504894000  0.868851000  2.457482000     0.000000000  0.000000000  0.406920580

  length of vectors
     3.009788000  3.009788114  3.009788330     0.406920632  0.406920619  0.406920580


 FORCES acting on ions
    electron-ion (+dipol)            ewald-force                    non-local-force                 convergence-correction
 -----------------------------------------------------------------------------------------------
   0.752E-12 0.783E-12 0.377E-12   0.522E-15 -.592E-15 -.130E-15   0.473E-24 0.205E-24 -.683E-25   -.278E-14 0.111E-14 -.160E-14
   -.865E-15 -.144E-14 -.770E-15   -.124E-14 0.371E-15 0.144E-15   0.941E-25 0.843E-25 -.198E-25   0.176E-17 0.117E-16 -.524E-16
 -----------------------------------------------------------------------------------------------
   0.751E-12 0.782E-12 0.376E-12   -.716E-15 -.221E-15 0.145E-16   0.568E-24 0.289E-24 -.882E-25   -.278E-14 0.112E-14 -.165E-14
 
 
 POSITION                                       TOTAL-FORCE (eV/Angst)
 -----------------------------------------------------------------------------------
      3.00979      1.73770      1.22874        -0.000000      0.000000     -0.000000
      0.00000      0.00000      0.00000         0.000000     -0.000000      0.000000
 -----------------------------------------------------------------------------------
    total drift:                                0.000000      0.000000      0.000000


--------------------------------------------------------------------------------------------------------



  FREE ENERGIE OF THE ION-ELECTRON SYSTEM (eV)
  ---------------------------------------------------
  free  energy   TOTEN  =       -11.91659955 eV

  energy  without entropy=      -11.91659955  energy(sigma->0) =      -11.91659955
 


--------------------------------------------------------------------------------------------------------


    POTLOK:  cpu time    0.0070: real time    0.0072


--------------------------------------------------------------------------------------------------------


     LOOP+:  cpu time   12.4801: real time   12.6162
    4ORBIT:  cpu time    0.0000: real time    0.0000

 total amount of memory used by VASP on root node    56377. kBytes
========================================================================

   base      :      30000. kBytes
   nonl-proj :      23095. kBytes
   fftplans  :        267. kBytes
   grid      :       1169. kBytes
   one-center:         16. kBytes
   wavefun   :       1830. kBytes
 
  
  
 General timing and accounting informations for this job:
 ========================================================
  
                  Total CPU time used (sec):       13.904
                            User time (sec):       12.717
                          System time (sec):        1.187
                         Elapsed time (sec):       14.349
  
                   Maximum memory used (kb):       86384.
                   Average memory used (kb):           0.
  
                          Minor page faults:        38333
                          Major page faults:            5
                 Voluntary context switches:         1371
