   2   2   0   0
  0.9563318E+01  0.3001819E-09  0.3001820E-09  0.3001819E-09  0.5000000E-15
  1.000000000000000E-004
  CAR 
 automatically generated by pyflamestk   
     44.07505343    -16.32951799  301      3.62915915      1.00000000
    -16.330  0.0000E+00  0.0000E+00
    -16.128  0.0000E+00  0.0000E+00
    -15.927  0.0000E+00  0.0000E+00
    -15.725  0.0000E+00  0.0000E+00
    -15.524  0.0000E+00  0.0000E+00
    -15.323  0.0000E+00  0.0000E+00
    -15.121  0.0000E+00  0.0000E+00
    -14.920  0.0000E+00  0.0000E+00
    -14.719  0.0000E+00  0.0000E+00
    -14.517  0.0000E+00  0.0000E+00
    -14.316  0.0000E+00  0.0000E+00
    -14.115  0.0000E+00  0.0000E+00
    -13.913  0.0000E+00  0.0000E+00
    -13.712  0.4501E-04  0.9062E-05
    -13.511  0.3044E+00  0.6130E-01
    -13.309  0.1030E-01  0.6338E-01
    -13.108  0.9260E+00  0.2498E+00
    -12.907  0.6578E+00  0.3823E+00
    -12.705  0.7848E+00  0.5403E+00
    -12.504  0.2461E+01  0.1036E+01
    -12.303  0.2842E+01  0.1608E+01
    -12.101  0.1947E+01  0.2000E+01
    -11.900  0.1168E-05  0.2000E+01
    -11.699  0.0000E+00  0.2000E+01
    -11.497  0.0000E+00  0.2000E+01
    -11.296  0.0000E+00  0.2000E+01
    -11.094  0.0000E+00  0.2000E+01
    -10.893  0.0000E+00  0.2000E+01
    -10.692  0.0000E+00  0.2000E+01
    -10.490  0.0000E+00  0.2000E+01
    -10.289  0.0000E+00  0.2000E+01
    -10.088  0.0000E+00  0.2000E+01
     -9.886  0.0000E+00  0.2000E+01
     -9.685  0.0000E+00  0.2000E+01
     -9.484  0.0000E+00  0.2000E+01
     -9.282  0.0000E+00  0.2000E+01
     -9.081  0.0000E+00  0.2000E+01
     -8.880  0.0000E+00  0.2000E+01
     -8.678  0.0000E+00  0.2000E+01
     -8.477  0.0000E+00  0.2000E+01
     -8.276  0.0000E+00  0.2000E+01
     -8.074  0.0000E+00  0.2000E+01
     -7.873  0.0000E+00  0.2000E+01
     -7.672  0.0000E+00  0.2000E+01
     -7.470  0.0000E+00  0.2000E+01
     -7.269  0.0000E+00  0.2000E+01
     -7.067  0.0000E+00  0.2000E+01
     -6.866  0.0000E+00  0.2000E+01
     -6.665  0.0000E+00  0.2000E+01
     -6.463  0.0000E+00  0.2000E+01
     -6.262  0.0000E+00  0.2000E+01
     -6.061  0.0000E+00  0.2000E+01
     -5.859  0.0000E+00  0.2000E+01
     -5.658  0.0000E+00  0.2000E+01
     -5.457  0.0000E+00  0.2000E+01
     -5.255  0.0000E+00  0.2000E+01
     -5.054  0.0000E+00  0.2000E+01
     -4.853  0.0000E+00  0.2000E+01
     -4.651  0.0000E+00  0.2000E+01
     -4.450  0.0000E+00  0.2000E+01
     -4.249  0.0000E+00  0.2000E+01
     -4.047  0.0000E+00  0.2000E+01
     -3.846  0.0000E+00  0.2000E+01
     -3.645  0.0000E+00  0.2000E+01
     -3.443  0.0000E+00  0.2000E+01
     -3.242  0.0000E+00  0.2000E+01
     -3.041  0.0000E+00  0.2000E+01
     -2.839  0.0000E+00  0.2000E+01
     -2.638  0.0000E+00  0.2000E+01
     -2.436  0.0000E+00  0.2000E+01
     -2.235  0.0000E+00  0.2000E+01
     -2.034  0.0000E+00  0.2000E+01
     -1.832  0.0000E+00  0.2000E+01
     -1.631  0.0000E+00  0.2000E+01
     -1.430  0.0000E+00  0.2000E+01
     -1.228  0.0000E+00  0.2000E+01
     -1.027  0.3054E-07  0.2000E+01
     -0.826  0.5726E+00  0.2115E+01
     -0.624  0.3734E+00  0.2190E+01
     -0.423  0.3673E+00  0.2264E+01
     -0.222  0.2291E+01  0.2726E+01
     -0.020  0.2026E+01  0.3134E+01
      0.181  0.2106E+01  0.3558E+01
      0.382  0.9470E+00  0.3749E+01
      0.584  0.7329E-02  0.3750E+01
      0.785  0.3722E-08  0.3750E+01
      0.986  0.7920E+00  0.3909E+01
      1.188  0.2474E+01  0.4408E+01
      1.389  0.4586E+00  0.4500E+01
      1.591  0.5105E-04  0.4500E+01
      1.792  0.2630E+01  0.5030E+01
      1.993  0.1813E+00  0.5066E+01
      2.195  0.2372E+01  0.5544E+01
      2.396  0.2317E+01  0.6010E+01
      2.597  0.4336E+01  0.6883E+01
      2.799  0.1520E+01  0.7189E+01
      3.000  0.2652E+01  0.7723E+01
      3.201  0.7533E+00  0.7875E+01
      3.403  0.6170E+00  0.7999E+01
      3.604  0.3348E-02  0.8000E+01
      3.805  0.0000E+00  0.8000E+01
      4.007  0.0000E+00  0.8000E+01
      4.208  0.0000E+00  0.8000E+01
      4.409  0.0000E+00  0.8000E+01
      4.611  0.0000E+00  0.8000E+01
      4.812  0.0000E+00  0.8000E+01
      5.013  0.0000E+00  0.8000E+01
      5.215  0.0000E+00  0.8000E+01
      5.416  0.0000E+00  0.8000E+01
      5.617  0.0000E+00  0.8000E+01
      5.819  0.0000E+00  0.8000E+01
      6.020  0.0000E+00  0.8000E+01
      6.222  0.0000E+00  0.8000E+01
      6.423  0.0000E+00  0.8000E+01
      6.624  0.0000E+00  0.8000E+01
      6.826  0.0000E+00  0.8000E+01
      7.027  0.0000E+00  0.8000E+01
      7.228  0.0000E+00  0.8000E+01
      7.430  0.0000E+00  0.8000E+01
      7.631  0.0000E+00  0.8000E+01
      7.832  0.0000E+00  0.8000E+01
      8.034  0.0000E+00  0.8000E+01
      8.235  0.0000E+00  0.8000E+01
      8.436  0.0000E+00  0.8000E+01
      8.638  0.9849E-08  0.8000E+01
      8.839  0.1902E+00  0.8038E+01
      9.040  0.1202E+00  0.8062E+01
      9.242  0.0000E+00  0.8062E+01
      9.443  0.0000E+00  0.8062E+01
      9.644  0.0000E+00  0.8062E+01
      9.846  0.0000E+00  0.8062E+01
     10.047  0.0000E+00  0.8062E+01
     10.248  0.5310E-06  0.8063E+01
     10.450  0.7417E+00  0.8212E+01
     10.651  0.1895E+00  0.8250E+01
     10.853  0.7460E-08  0.8250E+01
     11.054  0.1842E+00  0.8287E+01
     11.255  0.6621E+00  0.8420E+01
     11.457  0.3953E+00  0.8500E+01
     11.658  0.2201E-06  0.8500E+01
     11.859  0.6935E+00  0.8640E+01
     12.061  0.2377E+00  0.8687E+01
     12.262  0.4446E-02  0.8688E+01
     12.463  0.9259E+00  0.8875E+01
     12.665  0.1746E+00  0.8910E+01
     12.866  0.1703E+01  0.9253E+01
     13.067  0.9172E+00  0.9438E+01
     13.269  0.9184E+00  0.9622E+01
     13.470  0.1276E-01  0.9625E+01
     13.671  0.8487E+00  0.9796E+01
     13.873  0.1098E+01  0.1002E+02
     14.074  0.1764E+01  0.1037E+02
     14.275  0.1384E-01  0.1038E+02
     14.477  0.0000E+00  0.1038E+02
     14.678  0.1339E-09  0.1038E+02
     14.880  0.7659E+00  0.1053E+02
     15.081  0.2959E+01  0.1112E+02
     15.282  0.2644E-01  0.1113E+02
     15.484  0.1846E+01  0.1150E+02
     15.685  0.2773E+01  0.1206E+02
     15.886  0.1252E+01  0.1231E+02
     16.088  0.3059E-01  0.1232E+02
     16.289  0.1541E+01  0.1263E+02
     16.490  0.2910E+00  0.1269E+02
     16.692  0.0000E+00  0.1269E+02
     16.893  0.1258E-06  0.1269E+02
     17.094  0.1237E+01  0.1294E+02
     17.296  0.9655E+00  0.1313E+02
     17.497  0.8993E+00  0.1331E+02
     17.698  0.2741E-02  0.1331E+02
     17.900  0.7264E-05  0.1331E+02
     18.101  0.8525E+00  0.1348E+02
     18.302  0.7875E-01  0.1350E+02
     18.504  0.9822E-13  0.1350E+02
     18.705  0.4639E-01  0.1351E+02
     18.906  0.8848E+00  0.1369E+02
     19.108  0.2402E-04  0.1369E+02
     19.309  0.2282E-03  0.1369E+02
     19.511  0.7025E+00  0.1383E+02
     19.712  0.2383E+01  0.1431E+02
     19.913  0.1786E+01  0.1467E+02
     20.115  0.1013E+01  0.1487E+02
     20.316  0.1644E+01  0.1520E+02
     20.517  0.1180E+01  0.1544E+02
     20.719  0.9148E+00  0.1562E+02
     20.920  0.2839E+00  0.1568E+02
     21.121  0.6518E+00  0.1581E+02
     21.323  0.9439E+00  0.1600E+02
     21.524  0.9143E+00  0.1619E+02
     21.725  0.1818E+01  0.1655E+02
     21.927  0.4467E-01  0.1656E+02
     22.128  0.2382E-03  0.1656E+02
     22.329  0.9187E+00  0.1675E+02
     22.531  0.1234E-01  0.1675E+02
     22.732  0.9003E+00  0.1693E+02
     22.933  0.1882E+01  0.1731E+02
     23.135  0.4898E+00  0.1741E+02
     23.336  0.1384E+01  0.1769E+02
     23.537  0.2092E-04  0.1769E+02
     23.739  0.5937E+00  0.1781E+02
     23.940  0.9483E+00  0.1800E+02
     24.142  0.1017E-01  0.1800E+02
     24.343  0.3082E+00  0.1806E+02
     24.544  0.9431E+00  0.1825E+02
     24.746  0.6109E+00  0.1837E+02
     24.947  0.6602E-02  0.1838E+02
     25.148  0.1230E+01  0.1862E+02
     25.350  0.5052E-02  0.1863E+02
     25.551  0.1529E+01  0.1893E+02
     25.752  0.1217E+01  0.1918E+02
     25.954  0.4794E-01  0.1919E+02
     26.155  0.9091E+00  0.1937E+02
     26.356  0.9534E+00  0.1956E+02
     26.558  0.2241E+00  0.1961E+02
     26.759  0.2570E+01  0.2012E+02
     26.960  0.2382E-02  0.2013E+02
     27.162  0.9402E+00  0.2031E+02
     27.363  0.9210E+00  0.2050E+02
     27.564  0.3090E+00  0.2056E+02
     27.766  0.3380E-03  0.2056E+02
     27.967  0.0000E+00  0.2056E+02
     28.169  0.0000E+00  0.2056E+02
     28.370  0.0000E+00  0.2056E+02
     28.571  0.0000E+00  0.2056E+02
     28.773  0.4020E-03  0.2056E+02
     28.974  0.6380E+00  0.2069E+02
     29.175  0.2713E+01  0.2124E+02
     29.377  0.9924E+00  0.2144E+02
     29.578  0.6607E+00  0.2157E+02
     29.779  0.2724E+00  0.2162E+02
     29.981  0.3612E-06  0.2163E+02
     30.182  0.1855E+01  0.2200E+02
     30.383  0.1778E+01  0.2236E+02
     30.585  0.1213E+01  0.2260E+02
     30.786  0.7411E+00  0.2275E+02
     30.987  0.5264E-06  0.2275E+02
     31.189  0.4086E+00  0.2283E+02
     31.390  0.1454E+01  0.2312E+02
     31.591  0.7974E+00  0.2329E+02
     31.793  0.1420E+01  0.2357E+02
     31.994  0.2440E+01  0.2406E+02
     32.195  0.1273E+01  0.2432E+02
     32.397  0.1261E+01  0.2457E+02
     32.598  0.4234E+01  0.2543E+02
     32.800  0.1654E+00  0.2546E+02
     33.001  0.2696E+01  0.2600E+02
     33.202  0.9239E+00  0.2619E+02
     33.404  0.7401E+00  0.2634E+02
     33.605  0.1744E+01  0.2669E+02
     33.806  0.5881E-06  0.2669E+02
     34.008  0.0000E+00  0.2669E+02
     34.209  0.0000E+00  0.2669E+02
     34.410  0.0000E+00  0.2669E+02
     34.612  0.0000E+00  0.2669E+02
     34.813  0.1662E-08  0.2669E+02
     35.014  0.4169E+00  0.2677E+02
     35.216  0.2376E+01  0.2725E+02
     35.417  0.3953E-03  0.2725E+02
     35.618  0.8140E+00  0.2741E+02
     35.820  0.2769E+01  0.2797E+02
     36.021  0.7006E+00  0.2811E+02
     36.222  0.3721E+00  0.2819E+02
     36.424  0.1049E-02  0.2819E+02
     36.625  0.1929E+01  0.2858E+02
     36.827  0.8638E+00  0.2875E+02
     37.028  0.2145E+00  0.2879E+02
     37.229  0.4063E+00  0.2888E+02
     37.431  0.7754E+00  0.2903E+02
     37.632  0.1092E+01  0.2925E+02
     37.833  0.9254E+00  0.2944E+02
     38.035  0.7968E+00  0.2960E+02
     38.236  0.1066E+01  0.2981E+02
     38.437  0.8612E+00  0.2999E+02
     38.639  0.7003E-01  0.3000E+02
     38.840  0.9502E-11  0.3000E+02
     39.041  0.1958E+00  0.3004E+02
     39.243  0.3796E+01  0.3080E+02
     39.444  0.4309E-01  0.3081E+02
     39.645  0.0000E+00  0.3081E+02
     39.847  0.0000E+00  0.3081E+02
     40.048  0.2068E-15  0.3081E+02
     40.249  0.6956E-02  0.3081E+02
     40.451  0.9237E+00  0.3100E+02
     40.652  0.5166E-03  0.3100E+02
     40.853  0.1473E-08  0.3100E+02
     41.055  0.1497E+00  0.3103E+02
     41.256  0.1556E+01  0.3134E+02
     41.458  0.3260E+01  0.3200E+02
     41.659  0.3028E-03  0.3200E+02
     41.860  0.0000E+00  0.3200E+02
     42.062  0.0000E+00  0.3200E+02
     42.263  0.0000E+00  0.3200E+02
     42.464  0.0000E+00  0.3200E+02
     42.666  0.0000E+00  0.3200E+02
     42.867  0.0000E+00  0.3200E+02
     43.068  0.0000E+00  0.3200E+02
     43.270  0.0000E+00  0.3200E+02
     43.471  0.0000E+00  0.3200E+02
     43.672  0.0000E+00  0.3200E+02
     43.874  0.0000E+00  0.3200E+02
     44.075  0.0000E+00  0.3200E+02
