    2    2    1    1
  0.9563318E+01  0.3001819E-09  0.3001820E-09  0.3001819E-09  0.5000000E-15
  1.000000000000000E-004
  CAR 
 automatically generated by pyflamestk   
      8     10     16
 
  0.1250000E+00  0.1250000E+00  0.1250000E+00  0.3125000E-01
    1      -13.583856   1.000000
    2        2.466934   1.000000
    3        3.312501   1.000000
    4        3.312502   1.000000
    5        8.828934   0.000000
    6       17.413158   0.000000
    7       19.428543   0.000000
    8       19.428546   0.000000
    9       23.678573   0.000000
   10       23.678577   0.000000
   11       25.020488   0.000000
   12       27.456110   0.000000
   13       28.886301   0.000000
   14       28.886304   0.000000
   15       39.154021   0.000000
   16       41.056401   0.000000
 
  0.3750000E+00  0.1250000E+00  0.1250000E+00  0.9375000E-01
    1      -12.925684   1.000000
    2        0.297035   1.000000
    3        2.455067   1.000000
    4        3.015686   1.000000
    5       11.248507   0.000000
    6       15.353803   0.000000
    7       18.763352   0.000000
    8       20.430260   0.000000
    9       22.250904   0.000000
   10       24.482825   0.000000
   11       26.601902   0.000000
   12       31.262542   0.000000
   13       32.536452   0.000000
   14       33.411400   0.000000
   15       35.780652   0.000000
   16       39.076993   0.000000
 
 -0.3750000E+00  0.1250000E+00  0.1250000E+00  0.9375000E-01
    1      -12.485323   1.000000
    2       -0.836008   1.000000
    3        2.303941   1.000000
    4        2.678827   1.000000
    5       11.836022   0.000000
    6       15.568156   0.000000
    7       18.052475   0.000000
    8       19.868453   0.000000
    9       23.858852   0.000000
   10       26.110001   0.000000
   11       26.205286   0.000000
   12       32.486271   0.000000
   13       33.086863   0.000000
   14       33.429606   0.000000
   15       36.012116   0.000000
   16       37.721841   0.000000
 
 -0.1250000E+00  0.1250000E+00  0.1250000E+00  0.9375000E-01
    1      -13.217383   1.000000
    2        1.186588   1.000000
    3        2.944820   1.000000
    4        2.949503   1.000000
    5       10.420522   0.000000
    6       15.593015   0.000000
    7       19.556903   0.000000
    8       20.037757   0.000000
    9       21.213336   0.000000
   10       25.058101   0.000000
   11       27.059545   0.000000
   12       30.156619   0.000000
   13       30.442603   0.000000
   14       31.195855   0.000000
   15       37.418158   0.000000
   16       39.182402   0.000000
 
  0.3750000E+00  0.3750000E+00  0.1250000E+00  0.9375000E-01
    1      -12.688038   1.000000
    2        0.111966   1.000000
    3        2.255254   1.000000
    4        2.488323   1.000000
    5       12.353613   0.000000
    6       13.997267   0.000000
    7       17.307943   0.000000
    8       20.938030   0.000000
    9       21.395824   0.000000
   10       27.239353   0.000000
   11       30.345995   0.000000
   12       30.613935   0.000000
   13       32.528226   0.000000
   14       35.021723   0.000000
   15       36.673188   0.000000
   16       38.089568   0.000000
 
 -0.3750000E+00  0.3750000E+00  0.1250000E+00  0.1875000E+00
    1      -12.272560   1.000000
    2       -0.007294   1.000000
    3        0.993153   1.000000
    4        2.076255   1.000000
    5       13.868751   0.000000
    6       14.908733   0.000000
    7       15.700429   0.000000
    8       19.710201   0.000000
    9       23.157860   0.000000
   10       26.610592   0.000000
   11       30.171728   0.000000
   12       31.597853   0.000000
   13       32.865263   0.000000
   14       36.538952   0.000000
   15       39.109635   0.000000
   16       41.329391   0.000000
 
 -0.1250000E+00  0.3750000E+00  0.1250000E+00  0.1875000E+00
    1      -12.531053   1.000000
    2       -0.210728   1.000000
    3        1.736677   1.000000
    4        2.576347   1.000000
    5       12.711373   0.000000
    6       14.908395   0.000000
    7       17.079381   0.000000
    8       20.275240   0.000000
    9       22.844295   0.000000
   10       25.518500   0.000000
   11       29.054127   0.000000
   12       31.845809   0.000000
   13       32.427719   0.000000
   14       35.091053   0.000000
   15       35.735814   0.000000
   16       41.236728   0.000000
 
 -0.3750000E+00 -0.3750000E+00  0.1250000E+00  0.9375000E-01
    1      -12.309238   1.000000
    2       -0.372573   1.000000
    3        1.736047   1.000000
    4        2.192479   1.000000
    5       12.942667   0.000000
    6       13.623707   0.000000
    7       16.152674   0.000000
    8       21.648461   0.000000
    9       21.660441   0.000000
   10       29.122951   0.000000
   11       29.558652   0.000000
   12       32.141919   0.000000
   13       32.857845   0.000000
   14       38.005488   0.000000
   15       38.386449   0.000000
   16       41.316985   0.000000
 
  0.3750000E+00  0.3750000E+00  0.3750000E+00  0.3125000E-01
    1      -12.724259   1.000000
    2       -0.565358   1.000000
    3        2.874484   1.000000
    4        2.874485   1.000000
    5       11.045520   0.000000
    6       15.573567   0.000000
    7       19.663785   0.000000
    8       19.663787   0.000000
    9       24.254936   0.000000
   10       24.594457   0.000000
   11       24.594460   0.000000
   12       32.108104   0.000000
   13       33.430126   0.000000
   14       33.430129   0.000000
   15       37.041902   0.000000
   16       37.041908   0.000000
 
 -0.3750000E+00  0.3750000E+00  0.3750000E+00  0.9375000E-01
    1      -12.356766   1.000000
    2       -0.248894   1.000000
    3        1.099524   1.000000
    4        2.546944   1.000000
    5       13.190733   0.000000
    6       15.369158   0.000000
    7       16.271668   0.000000
    8       20.586883   0.000000
    9       22.667910   0.000000
   10       25.694679   0.000000
   11       29.274739   0.000000
   12       31.817001   0.000000
   13       32.240620   0.000000
   14       35.578043   0.000000
   15       37.460865   0.000000
   16       40.335480   0.000000
