LAMMPS (11 Aug 2017)
# ---- initialize simulations
clear
units metal
dimension 3
boundary p p p
atom_style atomic
atom_modify map array
# ---- create atoms
read_data /home/sullberg/repos/pypospack/examples/Ni__eam__born_exp_rose/01_preconditioning_3.5NN/rank_59/Ni_fcc_110_s.lmps_min_pos/lammps.structure
  triclinic box = (0 0 0) to (3.5165 2.5173 25.1729) with tilt (0 0 0)
  1 by 1 by 1 MPI processor grid
  reading atoms ...
  10 atoms
# ---- define interatomic potential
include potential.mod
mass 1 58.6934

group Ni type 1
10 atoms in group Ni

pair_style eam/alloy
pair_coeff * * /home/sullberg/repos/pypospack/examples/Ni__eam__born_exp_rose/01_preconditioning_3.5NN/rank_59/Ni_fcc_110_s.lmps_min_pos/Ni.eam.alloy Ni

neighbor 1.0 bin
neigh_modify every 1 delay 0 check yes
# ---- define settings
compute eng all pe/atom
compute eatoms all reduce sum c_eng

# ---- run minimization
reset_timestep 0
thermo 1
thermo_style custom step pe lx ly lz xy xz yz press pxx pyy pzz pxy pxz pyz c_eatoms
min_style cg
minimize 1e-20 1e-20 1000 100000
Neighbor list info ...
  update every 1 steps, delay 0 steps, check yes
  max neighbors/atom: 2000, page size: 100000
  master list distance cutoff = 11
  ghost atom cutoff = 11
  binsize = 5.5, bins = 1 1 5
  1 neighbor lists, perpetual/occasional/extra = 1 0 0
  (1) pair eam/alloy, perpetual
      attributes: half, newton on
      pair build: half/bin/newton/tri
      stencil: half/bin/3d/newton/tri
      bin: standard
Per MPI rank memory allocation (min/avg/max) = 4.341 | 4.341 | 4.341 Mbytes
Step PotEng Lx Ly Lz Xy Xz Yz Press Pxx Pyy Pzz Pxy Pxz Pyz c_eatoms 
       0   -42.375829       3.5165       2.5173      25.1729            0            0            0   -45587.179   -50308.222   -50617.555   -35835.761 -0.00074536206    -0.631654   0.33018865   -42.375829 
       1   -42.484651       3.5165       2.5173      25.1729            0            0            0   -36263.298    -40759.74   -42452.006   -25578.147 9.1047459e-05  -0.45502658   0.31710721   -42.484651 
       2   -42.512898       3.5165       2.5173      25.1729            0            0            0   -26423.618   -30482.218   -34300.472   -14488.163 0.00010827644    -0.656806 -0.0025045949   -42.512898 
       3   -42.535441       3.5165       2.5173      25.1729            0            0            0   -18275.455   -22504.487   -28228.173   -4093.7034 -0.00056230193    2.7510059  -0.18247002   -42.535441 
       4   -42.538671       3.5165       2.5173      25.1729            0            0            0   -16026.173   -20645.253   -26702.672    -730.5942 0.00011251098   -1.8629724 -0.027126768   -42.538671 
       5   -42.539029       3.5165       2.5173      25.1729            0            0            0   -15965.942   -20648.463   -26707.133   -542.23123 -5.6481551e-06   0.54189819  0.022246194   -42.539029 
       6   -42.539047       3.5165       2.5173      25.1729            0            0            0   -15851.644    -20567.03   -26639.661   -348.24127 -3.233913e-06   -0.7839941  0.046481806   -42.539047 
       7   -42.539055       3.5165       2.5173      25.1729            0            0            0   -15744.171   -20469.019   -26565.602   -197.89265 3.8115338e-06    1.2675859  0.058418531   -42.539055 
       8   -42.539059       3.5165       2.5173      25.1729            0            0            0   -15586.528    -20311.19    -26441.26   -7.1344622 2.9142486e-06   -1.4674236  0.054073436   -42.539059 
       9   -42.539059       3.5165       2.5173      25.1729            0            0            0   -15573.429   -20296.937   -26430.136    6.7860016 -9.362322e-07  0.063318094  0.049967308   -42.539059 
      10   -42.539059       3.5165       2.5173      25.1729            0            0            0   -15573.081   -20296.153   -26429.547    6.4563126 -3.5981829e-07  -0.17890088  0.046868873   -42.539059 
      11   -42.539059       3.5165       2.5173      25.1729            0            0            0   -15573.622   -20296.394   -26429.723     5.251823 -3.4115131e-07  -0.11013569  0.042663312   -42.539059 
      12   -42.539059       3.5165       2.5173      25.1729            0            0            0   -15576.689   -20299.307    -26432.04    1.2790175 -2.2630857e-07 -0.097200609  0.037579943   -42.539059 
      13   -42.539059       3.5165       2.5173      25.1729            0            0            0   -15577.792   -20300.459   -26432.917 0.00061798603 -1.8878251e-07   -0.0848058   0.03588813   -42.539059 
      14   -42.539059       3.5165       2.5173      25.1729            0            0            0    -15577.89   -20300.561   -26432.998   -0.1105508 -1.8771636e-07 -0.079093689  0.036002215   -42.539059 
      15   -42.539059       3.5165       2.5173      25.1729            0            0            0   -15577.873   -20300.549   -26432.987 -0.083060382 -1.8413688e-07 -0.080299088  0.035991324   -42.539059 
      16   -42.539059       3.5165       2.5173      25.1729            0            0            0   -15577.848   -20300.529   -26432.971 -0.043137294 -1.7276828e-07 -0.073035031  0.035527481   -42.539059 
      17   -42.539059       3.5165       2.5173      25.1729            0            0            0   -15577.804   -20300.487   -26432.939  0.014628235 -1.3717169e-07 -0.063890529  0.033824406   -42.539059 
      18   -42.539059       3.5165       2.5173      25.1729            0            0            0   -15577.763   -20300.444   -26432.905  0.060108195 -1.0383245e-07 -0.050949126  0.031766347   -42.539059 
      19   -42.539059       3.5165       2.5173      25.1729            0            0            0   -15577.764   -20300.442   -26432.904  0.054289082 -6.362666e-08 -0.032253137  0.028598788   -42.539059 
      20   -42.539059       3.5165       2.5173      25.1729            0            0            0    -15577.78    -20300.46   -26432.918  0.038189341 -1.778461e-08 -0.0027278969   0.02411234   -42.539059 
      21   -42.539059       3.5165       2.5173      25.1729            0            0            0   -15577.804   -20300.485   -26432.937 0.0098627464 -2.8530842e-09 0.0042913068  0.023430535   -42.539059 
      22   -42.539059       3.5165       2.5173      25.1729            0            0            0   -15577.819   -20300.499   -26432.948 -0.010079214 1.3629746e-08 0.0082125972   0.02283019   -42.539059 
      23   -42.539059       3.5165       2.5173      25.1729            0            0            0    -15577.82   -20300.499   -26432.948 -0.013425225 1.6662378e-08 0.0095814223  0.022152696   -42.539059 
      24   -42.539059       3.5165       2.5173      25.1729            0            0            0   -15577.819   -20300.497   -26432.946 -0.012817648 1.7628446e-08 0.0094619604  0.020928875   -42.539059 
      25   -42.539059       3.5165       2.5173      25.1729            0            0            0   -15577.811    -20300.49   -26432.941 -0.0018622009 1.5784359e-08    0.0121723  0.017850035   -42.539059 
      26   -42.539059       3.5165       2.5173      25.1729            0            0            0   -15577.804   -20300.485   -26432.937 0.0082703965 1.360249e-08  0.013987243  0.014906806   -42.539059 
      27   -42.539059       3.5165       2.5173      25.1729            0            0            0   -15577.798   -20300.478   -26432.932  0.015784649 1.2408546e-08  0.013880729  0.014253711   -42.539059 
      28   -42.539059       3.5165       2.5173      25.1729            0            0            0   -15577.805   -20300.484   -26432.936 0.0057040326 8.1978766e-09  0.011520894  0.012308656   -42.539059 
      29   -42.539059       3.5165       2.5173      25.1729            0            0            0   -15577.818   -20300.496   -26432.946 -0.011502177 1.2517261e-09 0.0042827134 0.0051725188   -42.539059 
      30   -42.539059       3.5165       2.5173      25.1729            0            0            0   -15577.818   -20300.497   -26432.947 -0.010965413 1.1682626e-09 0.0046671554 0.0048221335   -42.539059 
      31   -42.539059       3.5165       2.5173      25.1729            0            0            0   -15577.815   -20300.494   -26432.944 -0.0062172993 1.1288364e-09 0.0041512805  0.004370971   -42.539059 
      32   -42.539059       3.5165       2.5173      25.1729            0            0            0   -15577.813   -20300.493   -26432.943 -0.0034002268 9.8282483e-10 0.0039909057 0.0040272952   -42.539059 
      33   -42.539059       3.5165       2.5173      25.1729            0            0            0    -15577.81    -20300.49   -26432.941 0.00011618689 8.0639317e-10 0.0031433681 0.0037330105   -42.539059 
      34   -42.539059       3.5165       2.5173      25.1729            0            0            0   -15577.806   -20300.485   -26432.937 0.0053724341 5.8667394e-10 0.0025301408 0.0035808671   -42.539059 
      35   -42.539059       3.5165       2.5173      25.1729            0            0            0   -15577.808   -20300.488   -26432.939 0.0030144179 3.8599611e-10 0.0016794885 0.0032820638   -42.539059 
      36   -42.539059       3.5165       2.5173      25.1729            0            0            0    -15577.81   -20300.489   -26432.941 0.00068261355 1.8263834e-10 0.00093458122   0.00279745   -42.539059 
      37   -42.539059       3.5165       2.5173      25.1729            0            0            0   -15577.811    -20300.49   -26432.941 -0.0012892798 1.0112008e-10 0.00046139694 0.0025562333   -42.539059 
      38   -42.539059       3.5165       2.5173      25.1729            0            0            0   -15577.812   -20300.492   -26432.943 -0.0029306955 -9.8309918e-11 -0.00047483873   0.00239791   -42.539059 
      39   -42.539059       3.5165       2.5173      25.1729            0            0            0   -15577.811    -20300.49   -26432.942 -0.0010494856 -1.268358e-10 -0.00098883036 0.0020513749   -42.539059 
      40   -42.539059       3.5165       2.5173      25.1729            0            0            0   -15577.809   -20300.489    -26432.94  0.001123181 -1.9205913e-10 -0.0015214287  0.001615846   -42.539059 
      41   -42.539059       3.5165       2.5173      25.1729            0            0            0   -15577.809   -20300.488    -26432.94 0.0017171152 -1.6801135e-10 -0.0018891541 0.0014466343   -42.539059 
      42   -42.539059       3.5165       2.5173      25.1729            0            0            0   -15577.809   -20300.489    -26432.94 0.0011774139 -1.4047169e-10 -0.0017321163 0.0012389743   -42.539059 
      43   -42.539059       3.5165       2.5173      25.1729            0            0            0    -15577.81    -20300.49   -26432.941 -5.0255116e-05 -4.6313148e-11 -0.0012392813 0.00097947135   -42.539059 
      44   -42.539059       3.5165       2.5173      25.1729            0            0            0   -15577.811    -20300.49   -26432.941 -0.0011563385 -5.9385088e-11 -0.0011253043 0.00070829545   -42.539059 
      45   -42.539059       3.5165       2.5173      25.1729            0            0            0   -15577.811    -20300.49   -26432.942 -0.0011465673 7.9489338e-13 -0.00083052703 0.00042020459   -42.539059 
      46   -42.539059       3.5165       2.5173      25.1729            0            0            0   -15577.811    -20300.49   -26432.941 -0.0010467977 -2.6729148e-11 -0.00043649302 0.00020524028   -42.539059 
      47   -42.539059       3.5165       2.5173      25.1729            0            0            0   -15577.811    -20300.49   -26432.941 -0.00083883041 5.2019109e-12 -0.00038114948 0.0001227892   -42.539059 
      48   -42.539059       3.5165       2.5173      25.1729            0            0            0    -15577.81    -20300.49   -26432.941 -0.00030552226 6.0397524e-12 -0.00032532174 8.4773194e-05   -42.539059 
      49   -42.539059       3.5165       2.5173      25.1729            0            0            0    -15577.81   -20300.489   -26432.941 8.1618842e-05 -3.1837148e-13 -0.00021309035  7.18441e-05   -42.539059 
      50   -42.539059       3.5165       2.5173      25.1729            0            0            0    -15577.81   -20300.489   -26432.941 0.00011929196 -6.3553224e-12 -0.00018149397 6.9358537e-05   -42.539059 
      51   -42.539059       3.5165       2.5173      25.1729            0            0            0    -15577.81   -20300.489   -26432.941 9.877517e-05 2.9264354e-11 -0.00017143916 6.5736631e-05   -42.539059 
      52   -42.539059       3.5165       2.5173      25.1729            0            0            0    -15577.81   -20300.489   -26432.941 2.0655349e-05 -1.5979452e-11 -0.00012381088 5.3412289e-05   -42.539059 
      53   -42.539059       3.5165       2.5173      25.1729            0            0            0    -15577.81    -20300.49   -26432.941 -5.6310078e-05 -1.1975971e-11 -8.5615347e-05 4.4915912e-05   -42.539059 
      54   -42.539059       3.5165       2.5173      25.1729            0            0            0    -15577.81    -20300.49   -26432.941 -7.5107977e-05 9.1423701e-12 -5.835483e-05 4.2210529e-05   -42.539059 
      55   -42.539059       3.5165       2.5173      25.1729            0            0            0    -15577.81    -20300.49   -26432.941 -4.0486421e-05 -8.6047512e-12 -2.864484e-05 4.1228748e-05   -42.539059 
      56   -42.539059       3.5165       2.5173      25.1729            0            0            0    -15577.81    -20300.49   -26432.941 -2.7606787e-05 -1.5070355e-11 -1.9755908e-05 4.1057093e-05   -42.539059 
      57   -42.539059       3.5165       2.5173      25.1729            0            0            0    -15577.81    -20300.49   -26432.941 -1.2578893e-05 1.9462805e-11 -7.1934224e-06 4.0092646e-05   -42.539059 
      58   -42.539059       3.5165       2.5173      25.1729            0            0            0    -15577.81   -20300.489   -26432.941 2.4326254e-05 2.5941831e-12 6.4946718e-06 3.7552316e-05   -42.539059 
      59   -42.539059       3.5165       2.5173      25.1729            0            0            0    -15577.81   -20300.489   -26432.941 3.6236529e-05 -8.1718352e-12 7.3682957e-06 3.5566154e-05   -42.539059 
      60   -42.539059       3.5165       2.5173      25.1729            0            0            0    -15577.81   -20300.489   -26432.941 2.0624919e-05 9.0974244e-12 8.6376012e-06 3.5224789e-05   -42.539059 
      61   -42.539059       3.5165       2.5173      25.1729            0            0            0    -15577.81   -20300.489   -26432.941 -5.1661735e-06 -1.2805043e-11 6.3490053e-06 3.4306778e-05   -42.539059 
      62   -42.539059       3.5165       2.5173      25.1729            0            0            0    -15577.81    -20300.49   -26432.941 -1.9271391e-05 1.7025992e-11 6.0044481e-06 3.3490331e-05   -42.539059 
      63   -42.539059       3.5165       2.5173      25.1729            0            0            0    -15577.81    -20300.49   -26432.941 -3.8079869e-05 1.8923432e-11 2.1093481e-06 3.1309621e-05   -42.539059 
      64   -42.539059       3.5165       2.5173      25.1729            0            0            0    -15577.81    -20300.49   -26432.941 -5.7411864e-05 -4.1507905e-12 -4.3324215e-06 2.642726e-05   -42.539059 
Loop time of 0.0171261 on 1 procs for 64 steps with 10 atoms

97.7% CPU use with 1 MPI tasks x no OpenMP threads

Minimization stats:
  Stopping criterion = energy tolerance
  Energy initial, next-to-last, final = 
        -42.3758285443     -42.5390593689     -42.5390593689
  Force two-norm initial, final = 1.09366 1.3923e-09
  Force max component initial, final = 0.71945 5.1853e-10
  Final line search alpha, max atom move = 1 5.1853e-10
  Iterations, force evaluations = 64 125

MPI task timing breakdown:
Section |  min time  |  avg time  |  max time  |%varavg| %total
---------------------------------------------------------------
Pair    | 0.015193   | 0.015193   | 0.015193   |   0.0 | 88.71
Neigh   | 0          | 0          | 0          |   0.0 |  0.00
Comm    | 0.00081635 | 0.00081635 | 0.00081635 |   0.0 |  4.77
Output  | 0.00084162 | 0.00084162 | 0.00084162 |   0.0 |  4.91
Modify  | 0          | 0          | 0          |   0.0 |  0.00
Other   |            | 0.0002754  |            |       |  1.61

Nlocal:    10 ave 10 max 10 min
Histogram: 1 0 0 0 0 0 0 0 0 0
Nghost:    1357 ave 1357 max 1357 min
Histogram: 1 0 0 0 0 0 0 0 0 0
Neighs:    1766 ave 1766 max 1766 min
Histogram: 1 0 0 0 0 0 0 0 0 0

Total # of neighbors = 1766
Ave neighs/atom = 176.6
Neighbor list builds = 0
Dangerous builds = 0

# ---- define output variables ----
variable natoms equal "count(all)"
variable tot_energy equal "c_eatoms"
variable a11 equal "xhi-xlo"
variable a22 equal "yhi-ylo"
variable a33 equal "zhi-zlo"
variable tilt_xy equal "xy"
variable tilt_xz equal "xz"
variable tilt_yz equal "yz"
variable tot_press equal "press"
variable press_xx equal "pxx"
variable press_yy equal "pyy"
variable press_zz equal "pzz"
variable press_xy equal "pxy"
variable press_xz equal "pxz"
variable press_yz equal "pyz"

# ---- output ----
print "pypospack:output_section:begin"
pypospack:output_section:begin
print "tot_energy = ${tot_energy}"
tot_energy = -42.5390593689421
print "num_atoms = ${natoms}"
num_atoms = 10
print "a11 = ${a11}"
a11 = 3.5165
print "a22 = ${a22}"
a22 = 2.5173
print "a33 = ${a33}"
a33 = 25.1729
print "a12 = ${tilt_xy}"
a12 = 0
print "a13 = ${tilt_xz}"
a13 = 0
print "a23 = ${tilt_yz}"
a23 = 0
print "tot_press = ${tot_press}"
tot_press = -15577.8101530887
print "pxx = ${press_xx}"
pxx = -20300.4895355291
print "pyy = ${press_yy}"
pyy = -26432.9408663253
print "pzz = ${press_zz}"
pzz = -5.74118639877333e-05
print "pxy = ${press_xy}"
pxy = -4.15079045492657e-12
print "pxz = ${press_xz}"
pxz = -4.3324214592065e-06
print "pyz = ${press_yz}"
pyz = 2.64272596200894e-05
print "pypospack:output_section:done"
pypospack:output_section:done
print "pypospack:lammps_sim:done"
pypospack:lammps_sim:done
Total wall time: 0:00:00
