LAMMPS (11 Aug 2017)
Reading data file ...
  triclinic box = (0 0 0) to (3.4118 3.4118 34.1176) with tilt (0 -0 0)
  1 by 1 by 1 MPI processor grid
  reading atoms ...
  20 atoms
20 atoms in group Ni
Neighbor list info ...
  update every 1 steps, delay 0 steps, check yes
  max neighbors/atom: 2000, page size: 100000
  master list distance cutoff = 5.64464
  ghost atom cutoff = 5.64464
  binsize = 2.82232, bins = 2 2 13
  1 neighbor lists, perpetual/occasional/extra = 1 0 0
  (1) pair eam/alloy, perpetual
      attributes: half, newton on
      pair build: half/bin/newton/tri
      stencil: half/bin/3d/newton/tri
      bin: standard
Setting up cg style minimization ...
  Unit style    : metal
  Current step  : 0
Per MPI rank memory allocation (min/avg/max) = 4.207 | 4.207 | 4.207 Mbytes
Step PotEng Lx Ly Lz Xy Xz Yz Press Pxx Pyy Pzz Pxy Pxz Pyz c_eatoms 
       0   -69.273093       3.4118       3.4118      34.1176            0           -0            0   -6297.9659   -8854.8014   -8854.8014   -1184.2947 -5.5986716e-14 4.5629174e-12 5.8646085e-12   -69.273093 
       1   -69.273332       3.4118       3.4118      34.1176            0           -0            0   -6187.4528   -8753.1872   -8753.1872   -1055.9839 1.0637476e-12 4.7308775e-12 4.9688211e-12   -69.273332 
       2   -69.273466       3.4118       3.4118      34.1176            0           -0            0   -5905.5883   -8513.1055   -8513.1055   -690.55391 -3.9190702e-13 3.3032163e-12 2.1274952e-12   -69.273466 
       3   -69.273493       3.4118       3.4118      34.1176            0           -0            0   -5824.0181   -8441.9563   -8441.9563   -588.14179 1.3716746e-12 2.0715085e-12 4.3109772e-12   -69.273493 
       4   -69.273503       3.4118       3.4118      34.1176            0           -0            0   -5787.2066   -8408.2344   -8408.2344   -545.15097 6.718406e-13 4.0590369e-12 2.5893856e-12   -69.273503 
       5   -69.273555       3.4118       3.4118      34.1176            0           -0            0   -5387.6633   -8060.5438   -8060.5438   -41.902465 6.6344259e-12 -8.9578746e-12 -7.2362831e-12   -69.273555 
       6   -69.273555       3.4118       3.4118      34.1176            0           -0            0   -5388.0013   -8060.4243   -8060.4243   -43.155436 -6.1025521e-12 4.4789373e-13 3.0792694e-13   -69.273555 
       7   -69.273555       3.4118       3.4118      34.1176            0           -0            0   -5385.5123    -8058.236    -8058.236   -40.064863 -2.7433491e-12 1.5956214e-12 5.7526351e-12   -69.273555 
       8   -69.273556       3.4118       3.4118      34.1176            0           -0            0   -5378.9332   -8052.5821   -8052.5821   -31.635357 -1.6572068e-11 -1.3156878e-12 1.9945268e-11   -69.273556 
       9   -69.273556       3.4118       3.4118      34.1176            0           -0            0   -5368.9347   -8043.7912   -8043.7912   -19.221837 -2.1274952e-12 4.8988377e-12 -7.4882233e-12   -69.273556 
      10   -69.273556       3.4118       3.4118      34.1176            0           -0            0   -5361.9547   -8037.7364   -8037.7364   -10.391182 1.867157e-11 2.6117803e-11 2.9910903e-11   -69.273556 
      11   -69.273556       3.4118       3.4118      34.1176            0           -0            0   -5358.6105   -8034.8213   -8034.8213   -6.1889281 -9.0138613e-12 -1.2597011e-12 -2.4494188e-12   -69.273556 
      12   -69.273556       3.4118       3.4118      34.1176            0           -0            0   -5357.3297   -8033.6759   -8033.6759   -4.6371487            0 2.2394687e-12 -5.4447082e-12   -69.273556 
      13   -69.273556       3.4118       3.4118      34.1176            0           -0            0   -5356.6321    -8033.077    -8033.077   -3.7422198 -2.8021352e-11 -2.659369e-12 8.2300473e-12   -69.273556 
      14   -69.273556       3.4118       3.4118      34.1176            0           -0            0   -5356.0218   -8032.5526   -8032.5526   -2.9600963 -8.677941e-13 1.091741e-12 4.842851e-12   -69.273556 
      15   -69.273556       3.4118       3.4118      34.1176            0           -0            0   -5355.5474   -8032.1335   -8032.1335   -2.3751226 -1.5956214e-11 -1.7635816e-12 8.3140274e-12   -69.273556 
      16   -69.273556       3.4118       3.4118      34.1176            0           -0            0   -5354.9946   -8031.6495   -8031.6495    -1.684863 2.9197073e-11 2.5781883e-11 -1.0133596e-11   -69.273556 
      17   -69.273556       3.4118       3.4118      34.1176            0           -0            0   -5354.5971   -8031.3026   -8031.3026   -1.1861054 -4.1990037e-13 -9.2658016e-12 2.7993358e-13   -69.273556 
      18   -69.273556       3.4118       3.4118      34.1176            0           -0            0   -5354.2821   -8031.0302   -8031.0302  -0.78595658 -3.2752229e-12 -7.4742266e-12 6.4804624e-12   -69.273556 
      19   -69.273556       3.4118       3.4118      34.1176            0           -0            0    -5354.039   -8030.8193   -8030.8193  -0.47837022 -9.7416887e-12 -6.2985056e-12 2.0099231e-11   -69.273556 
      20   -69.273556       3.4118       3.4118      34.1176            0           -0            0   -5353.9171   -8030.7089   -8030.7089  -0.33334558 -2.4074288e-12 -8.3700141e-12 -2.3094521e-12   -69.273556 
      21   -69.273556       3.4118       3.4118      34.1176            0           -0            0   -5353.8336   -8030.6367   -8030.6367  -0.22737547 -9.7976754e-13 -3.5271631e-12 1.4052666e-11   -69.273556 
      22   -69.273556       3.4118       3.4118      34.1176            0           -0            0   -5353.7928   -8030.6027   -8030.6027  -0.17286267 3.0792694e-12 -8.6499477e-12 7.3622532e-12   -69.273556 
      23   -69.273556       3.4118       3.4118      34.1176            0           -0            0   -5353.7857   -8030.5961   -8030.5961  -0.16500267 -8.5379743e-12 1.0077609e-11 -9.9376422e-12   -69.273556 
      24   -69.273556       3.4118       3.4118      34.1176            0           -0            0   -5353.7798   -8030.5903   -8030.5903   -0.1589108 -7.0823196e-12 4.7028842e-12 -4.8708443e-12   -69.273556 
      25   -69.273556       3.4118       3.4118      34.1176            0           -0            0   -5353.7584    -8030.572    -8030.572  -0.13116996 -4.0870303e-12 -1.175721e-12 1.4640526e-11   -69.273556 
      26   -69.273556       3.4118       3.4118      34.1176            0           -0            0   -5353.7055    -8030.526    -8030.526 -0.064592626 -8.5379743e-12 -6.1305455e-12 1.3660759e-11   -69.273556 
      27   -69.273556       3.4118       3.4118      34.1176            0           -0            0   -5353.6757   -8030.4998   -8030.4998 -0.027429816 -9.6017219e-12 -1.892351e-11 8.677941e-13   -69.273556 
      28   -69.273556       3.4118       3.4118      34.1176            0           -0            0   -5353.6683   -8030.4933   -8030.4933 -0.018203537 1.1981157e-11 2.7993358e-12 1.6935982e-11   -69.273556 
      29   -69.273556       3.4118       3.4118      34.1176            0           -0            0   -5353.6665   -8030.4917   -8030.4917 -0.015974815 8.4539942e-12 -1.7075949e-12 1.1099367e-11   -69.273556 
      30   -69.273556       3.4118       3.4118      34.1176            0           -0            0   -5353.6648   -8030.4902   -8030.4902 -0.013795303 -8.9298813e-12 -2.7993358e-14 1.2666995e-11   -69.273556 
      31   -69.273556       3.4118       3.4118      34.1176            0           -0            0    -5353.663   -8030.4887   -8030.4887  -0.01150501 -7.3062665e-12 5.3187381e-12 -1.4934457e-11   -69.273556 
      32   -69.273556       3.4118       3.4118      34.1176            0           -0            0   -5353.6605   -8030.4865   -8030.4865 -0.0083901223 -1.3212865e-11 -8.3980075e-14 8.9998647e-12   -69.273556 
      33   -69.273556       3.4118       3.4118      34.1176            0           -0            0   -5353.6577   -8030.4841   -8030.4841 -0.0049829239 -8.9018879e-12 -2.7097571e-11 -1.0623479e-11   -69.273556 
      34   -69.273556       3.4118       3.4118      34.1176            0           -0            0   -5353.6562   -8030.4828   -8030.4828 -0.0031212717 -2.5389976e-11 -2.2646627e-11 -2.5222016e-11   -69.273556 
      35   -69.273556       3.4118       3.4118      34.1176            0           -0            0    -5353.655   -8030.4817   -8030.4817 -0.0015487017 1.2904938e-11 2.0407158e-11 -1.3296845e-11   -69.273556 
      36   -69.273556       3.4118       3.4118      34.1176            0           -0            0   -5353.6547   -8030.4815   -8030.4815 -0.0012318676 -3.9750569e-12 -6.4664657e-12 -7.7261669e-12   -69.273556 
      37   -69.273556       3.4118       3.4118      34.1176            0           -0            0   -5353.6546   -8030.4814   -8030.4814 -0.0010894613 6.3824857e-12 1.3492799e-11 5.2907447e-12   -69.273556 
      38   -69.273556       3.4118       3.4118      34.1176            0           -0            0   -5353.6546   -8030.4813   -8030.4813 -0.0010022446 -3.3032163e-12 -1.3072898e-11 9.8256687e-12   -69.273556 
      39   -69.273556       3.4118       3.4118      34.1176            0           -0            0   -5353.6542   -8030.4811   -8030.4811 -0.0006006266 -4.7588709e-12 2.7993358e-14 8.6219543e-12   -69.273556 
      40   -69.273556       3.4118       3.4118      34.1176            0           -0            0    -5353.654   -8030.4809   -8030.4809 -0.00034997087 1.8279663e-11 8.3980075e-12 -1.7901753e-11   -69.273556 
      41   -69.273556       3.4118       3.4118      34.1176            0           -0            0    -5353.654   -8030.4808   -8030.4808 -0.00028211299 -3.1632495e-12 1.9595351e-12 1.3604772e-11   -69.273556 
      42   -69.273556       3.4118       3.4118      34.1176            0           -0            0   -5353.6539   -8030.4808   -8030.4808 -0.00020876088 -6.6904126e-12 -1.3324839e-11 -8.8459012e-12   -69.273556 
      43   -69.273556       3.4118       3.4118      34.1176            0           -0            0   -5353.6539   -8030.4807   -8030.4807 -0.00012167102 2.8833159e-12 8.3700141e-12 -4.3389705e-13   -69.273556 
      44   -69.273556       3.4118       3.4118      34.1176            0           -0            0   -5353.6538   -8030.4807   -8030.4807 -7.4276013e-05 4.4789373e-13 -7.6141934e-12 -6.1305455e-12   -69.273556 
      45   -69.273556       3.4118       3.4118      34.1176            0           -0            0   -5353.6538   -8030.4807   -8030.4807 -6.7018905e-05 -1.7467856e-11 1.2988918e-11 -2.3374454e-12   -69.273556 
      46   -69.273556       3.4118       3.4118      34.1176            0           -0            0   -5353.6538   -8030.4807   -8030.4807 -6.0406767e-05 -1.6796015e-13 -8.9578746e-13 -8.9718713e-12   -69.273556 
      47   -69.273556       3.4118       3.4118      34.1176            0           -0            0   -5353.6538   -8030.4807   -8030.4807 -4.9591606e-05 -3.6951233e-12 -8.0900805e-12 -2.23387e-11   -69.273556 
      48   -69.273556       3.4118       3.4118      34.1176            0           -0            0   -5353.6538   -8030.4807   -8030.4807 -4.2909918e-05 4.3949572e-12 6.4944591e-12 -8.5379743e-12   -69.273556 
      49   -69.273556       3.4118       3.4118      34.1176            0           -0            0   -5353.6538   -8030.4807   -8030.4807 -3.1852566e-05 -2.4550175e-11 -9.6017219e-12 5.7526351e-12   -69.273556 
      50   -69.273556       3.4118       3.4118      34.1176            0           -0            0   -5353.6538   -8030.4806   -8030.4806 -1.7051341e-05 -3.4431831e-12 -1.2960925e-11 -1.6110178e-11   -69.273556 
      51   -69.273556       3.4118       3.4118      34.1176            0           -0            0   -5353.6538   -8030.4806   -8030.4806 -7.491974e-06 -1.51724e-11 -1.4276613e-11 -1.6068188e-11   -69.273556 
      52   -69.273556       3.4118       3.4118      34.1176            0           -0            0   -5353.6538   -8030.4806   -8030.4806 -5.354753e-06 1.091741e-12 -7.7821536e-12 1.1729217e-11   -69.273556 
      53   -69.273556       3.4118       3.4118      34.1176            0           -0            0   -5353.6538   -8030.4806   -8030.4806 -4.7524971e-06 -5.2067646e-12 -1.1841191e-11 -1.1113363e-11   -69.273556 
      54   -69.273556       3.4118       3.4118      34.1176            0           -0            0   -5353.6538   -8030.4806   -8030.4806 -4.3144179e-06 3.9190702e-13 -9.4337617e-12 3.4991698e-13   -69.273556 
      55   -69.273556       3.4118       3.4118      34.1176            0           -0            0   -5353.6538   -8030.4806   -8030.4806 -3.8773943e-06 -1.0077609e-11 8.2580407e-12 -1.7369879e-11   -69.273556 
      56   -69.273556       3.4118       3.4118      34.1176            0           -0            0   -5353.6538   -8030.4806   -8030.4806 -2.19266e-06 -1.8055716e-11 -3.1996408e-11 1.2611008e-11   -69.273556 
      57   -69.273556       3.4118       3.4118      34.1176            0           -0            0   -5353.6538   -8030.4806   -8030.4806 -1.1130721e-06 -4.6189041e-12 7.1383063e-12 9.1258348e-12   -69.273556 
      58   -69.273556       3.4118       3.4118      34.1176            0           -0            0   -5353.6538   -8030.4806   -8030.4806 -6.913336e-07 -1.2093131e-11 2.0743078e-11 1.7635816e-12   -69.273556 
      59   -69.273556       3.4118       3.4118      34.1176            0           -0            0   -5353.6538   -8030.4806   -8030.4806 -5.4823951e-07 -1.8615583e-11 -1.4332599e-11 6.6904126e-12   -69.273556 
      60   -69.273556       3.4118       3.4118      34.1176            0           -0            0   -5353.6538   -8030.4806   -8030.4806 -4.7508066e-07 -2.4130275e-11 -4.7308775e-12   3.7931e-12   -69.273556 
      61   -69.273556       3.4118       3.4118      34.1176            0           -0            0   -5353.6538   -8030.4806   -8030.4806 -4.1847047e-07 5.4307115e-12 5.7106451e-12 5.4307115e-12   -69.273556 
      62   -69.273556       3.4118       3.4118      34.1176            0           -0            0   -5353.6538   -8030.4806   -8030.4806 -2.2047222e-07 -9.5737285e-12 1.1477277e-11 -5.5706783e-12   -69.273556 
      63   -69.273556       3.4118       3.4118      34.1176            0           -0            0   -5353.6538   -8030.4806   -8030.4806 -9.258904e-08 1.3128885e-11 2.3262481e-11 6.1445421e-12   -69.273556 
      64   -69.273556       3.4118       3.4118      34.1176            0           -0            0   -5353.6538   -8030.4806   -8030.4806 -4.8289663e-08 -2.1722846e-11 -8.9298813e-12 8.6639444e-12   -69.273556 
      65   -69.273556       3.4118       3.4118      34.1176            0           -0            0   -5353.6538   -8030.4806   -8030.4806 -1.9493455e-08 -2.0715085e-12 2.0127225e-11 -1.3184872e-11   -69.273556 
      66   -69.273556       3.4118       3.4118      34.1176            0           -0            0   -5353.6538   -8030.4806   -8030.4806 -1.1106645e-08 -4.0590369e-12 -8.202054e-12 3.9610602e-12   -69.273556 
      67   -69.273556       3.4118       3.4118      34.1176            0           -0            0   -5353.6538   -8030.4806   -8030.4806 -2.2278234e-09 1.3828719e-11 -1.0357543e-12 -1.5788254e-11   -69.273556 
      68   -69.273556       3.4118       3.4118      34.1176            0           -0            0   -5353.6538   -8030.4806   -8030.4806 -5.3075407e-11 1.2373064e-11 -7.6981735e-12 9.377775e-12   -69.273556 
      69   -69.273556       3.4118       3.4118      34.1176            0           -0            0   -5353.6538   -8030.4806   -8030.4806 1.0167188e-10 -1.7915749e-12 -1.6544075e-11 -4.101027e-12   -69.273556 
      70   -69.273556       3.4118       3.4118      34.1176            0           -0            0   -5353.6538   -8030.4806   -8030.4806 8.3980075e-11 -6.0465654e-12 -4.3389705e-12 -6.5784392e-13   -69.273556 
Loop time of 0.059536 on 1 procs for 70 steps with 20 atoms

11.1% CPU use with 1 MPI tasks x no OpenMP threads

Minimization stats:
  Stopping criterion = energy tolerance
  Energy initial, next-to-last, final = 
        -69.2730930636     -69.2735557558     -69.2735557558
  Force two-norm initial, final = 0.0705484 2.02192e-14
  Force max component initial, final = 0.0286708 9.20097e-15
  Final line search alpha, max atom move = 1 9.20097e-15
  Iterations, force evaluations = 70 139

MPI task timing breakdown:
Section |  min time  |  avg time  |  max time  |%varavg| %total
---------------------------------------------------------------
Pair    | 0.0049219  | 0.0049219  | 0.0049219  |   0.0 |  8.27
Neigh   | 0          | 0          | 0          |   0.0 |  0.00
Comm    | 0.00039124 | 0.00039124 | 0.00039124 |   0.0 |  0.66
Output  | 0.053966   | 0.053966   | 0.053966   |   0.0 | 90.64
Modify  | 0          | 0          | 0          |   0.0 |  0.00
Other   |            | 0.0002568  |            |       |  0.43

Nlocal:    20 ave 20 max 20 min
Histogram: 1 0 0 0 0 0 0 0 0 0
Nghost:    547 ave 547 max 547 min
Histogram: 1 0 0 0 0 0 0 0 0 0
Neighs:    688 ave 688 max 688 min
Histogram: 1 0 0 0 0 0 0 0 0 0

Total # of neighbors = 688
Ave neighs/atom = 34.4
Neighbor list builds = 0
Dangerous builds = 0
pypospack:output_section:begin
tot_energy = -69.2735557558119
num_atoms = 20
a11 = 3.4118
a22 = 3.4118
a33 = 34.1176
a12 = 0
a13 = -0
a23 = 0
tot_press = -5353.65375831251
pxx = -8030.48063746882
pyy = -8030.4806374688
pzz = 8.39800746605641e-11
pxy = -6.04656537556062e-12
pxz = -4.33897052412914e-12
pyz = -6.57843918174419e-13
pypospack:output_section:done
pypospack:lammps_sim:done
Total wall time: 0:00:00
