********************************************************************************
*                       GENERAL UTILITY LATTICE PROGRAM                        *
*                                 Julian Gale                                  *
*                      Nanochemistry Research Institute                        *
*                           Department of Chemistry                            *
*                    Curtin University, Western Australia                      *
********************************************************************************
* Version = 4.3.5 * Last modified = 16th December 2015                         *
********************************************************************************
*  optimise     - perform optimisation run                                     *
*  conp         - constant pressure calculation                                *
*  property     - calculate properties for final geometry                      *
*  phonon       - calculate phonons for final geometry                         *
*  eigenvectors - output phonon eigenvectors                                   *
********************************************************************************

  Job Started  at 10:36.46 22nd August     2017                               

  Number of CPUs =     1


  Total number of configurations input =   1

********************************************************************************
*  Input for Configuration =   1                                               *
********************************************************************************

  Formula = MgO                                                         

  Number of irreducible atoms/shells =       2


  Total number atoms/shells =       2

  Dimensionality = 3               :  Bulk   



  Cartesian lattice vectors (Angstroms) :

        3.009788    0.000000    0.000000
        1.504894    2.606553    0.000000
        1.504894    0.868851    2.457482

  Cell parameters (Angstroms/Degrees):

  a =       3.0098    alpha =  60.0000
  b =       3.0098    beta  =  60.0000
  c =       3.0098    gamma =  60.0000

  Initial cell volume =          19.279366 Angs**3

  Shrinking factors =      1     1     1

  Temperature of configuration =  0.000     K 

  Pressure of configuration =         0.000 GPa 

  Fractional coordinates of asymmetric unit :

--------------------------------------------------------------------------------
   No.  Atomic       x           y          z         Charge      Occupancy
        Label      (Frac)      (Frac)     (Frac)        (e)         (Frac)  
--------------------------------------------------------------------------------
      1 Mg    c    0.000000    0.000000    0.000000     2.00000    1.000000    
      2 O     c    0.500000 *  0.500000 *  0.500000 *  -2.00000    1.000000    
--------------------------------------------------------------------------------


  Brillouin zone sampling points :

--------------------------------------------------------------------------------
  Point number          x          y          z            Weight
--------------------------------------------------------------------------------
        1          10.000000  10.000000  10.000000         0.6667
        2           0.500000   0.500000   0.500000         0.3333
--------------------------------------------------------------------------------


********************************************************************************
*  General input information                                                   *
********************************************************************************

  Species output for all configurations : 

--------------------------------------------------------------------------------
  Species    Type    Atomic    Atomic    Charge       Radii (Angs)     Library
                     Number     Mass       (e)     Cova   Ionic  VDW   Symbol
--------------------------------------------------------------------------------
    Mg       Core       12      24.31   2.000000   1.100  0.000  1.640          
    O        Core        8      16.00  -2.000000   0.730  0.000  1.360          
--------------------------------------------------------------------------------


  Lattice summation method               =    Ewald          (3-D)
                                         =    Parry          (2-D)
                                         =    Saunders et al (1-D)
  Accuracy factor for lattice sums       =   12.000


  Time limit = Infinity

  Maximum range for interatomic potentials =    100000.000000 Angstroms

  General interatomic potentials :

--------------------------------------------------------------------------------
Atom  Types   Potential         A         B         C         D     Cutoffs(Ang)
  1     2                                                            Min    Max 
--------------------------------------------------------------------------------
Mg   c Mg   c Buckingham     0.00     0.500      0.00      0.00     0.000 12.000
O    c Mg   c Buckingham     822.     0.324      0.00      0.00     0.000 12.000
O    c O    c Buckingham    0.227E+04 0.149      27.9      0.00     0.000 12.000
--------------------------------------------------------------------------------

********************************************************************************
*  Output for configuration   1                                                *
********************************************************************************


  Components of energy : 

--------------------------------------------------------------------------------
  Interatomic potentials     =           6.76271521 eV
  Monopole - monopole (real) =          -5.06238942 eV
  Monopole - monopole (recip)=         -42.23394907 eV
  Monopole - monopole (total)=         -47.29633849 eV
--------------------------------------------------------------------------------
  Total lattice energy       =         -40.53362328 eV
--------------------------------------------------------------------------------
  Total lattice energy       =           -3910.8750 kJ/(mole unit cells)
--------------------------------------------------------------------------------


  Number of variables =        9

  Maximum number of calculations  =          1000
  Maximum Hessian update interval =            10
  Maximum step size               =   1.000000000
  Maximum parameter tolerance     =   0.000010000
  Maximum function  tolerance     =   0.000010000
  Maximum gradient  tolerance     =   0.001000000
  Maximum gradient  component     =   0.010000000

  Symmetry not applied to optimisation

  Cell parameters to be optimised using strains

  Newton-Raphson optimiser to be used

  BFGS hessian update to be used

  Start of bulk optimisation :

  Cycle:      0 Energy:       -40.533623  Gnorm:      0.148616  CPU:    0.003
  ** Hessian calculated **
  Cycle:      1 Energy:       -40.546368  Gnorm:      0.000029  CPU:    0.005


  **** Optimisation achieved ****


  Final energy =     -40.54636814 eV
  Final Gnorm  =       0.00000102

  Components of energy : 

--------------------------------------------------------------------------------
  Interatomic potentials     =           7.26591711 eV
  Monopole - monopole (real) =          -5.11761406 eV
  Monopole - monopole (recip)=         -42.69467119 eV
  Monopole - monopole (total)=         -47.81228525 eV
--------------------------------------------------------------------------------
  Total lattice energy       =         -40.54636814 eV
--------------------------------------------------------------------------------
  Total lattice energy       =           -3912.1047 kJ/(mole unit cells)
--------------------------------------------------------------------------------

  Final fractional coordinates of atoms :

--------------------------------------------------------------------------------
   No.  Atomic        x           y          z          Radius
        Label       (Frac)      (Frac)     (Frac)       (Angs) 
--------------------------------------------------------------------------------
     1  Mg    c     0.000000    0.000000    0.000000    0.000000
     2  O     c     0.500000    0.500000    0.500000    0.000000
--------------------------------------------------------------------------------

  Final Cartesian lattice vectors (Angstroms) :

        2.977309   -0.000000   -0.000000
        1.488655    2.578425   -0.000000
        1.488655    0.859475    2.430963


  Final cell parameters and derivatives :

--------------------------------------------------------------------------------
       a            2.977309 Angstrom     dE/de1(xx)    -0.000005 eV/strain
       b            2.977309 Angstrom     dE/de2(yy)    -0.000005 eV/strain
       c            2.977309 Angstrom     dE/de3(zz)    -0.000005 eV/strain
       alpha       60.000000 Degrees      dE/de4(yz)     0.000000 eV/strain
       beta        60.000000 Degrees      dE/de5(xz)     0.000000 eV/strain
       gamma       60.000000 Degrees      dE/de6(xy)     0.000000 eV/strain
--------------------------------------------------------------------------------

  Primitive cell volume =            18.661940 Angs**3

  Density of cell =      3.586840 g/cm**3

  Non-primitive cell volume =            18.661940 Angs**3


  Final internal derivatives :

--------------------------------------------------------------------------------
   No.  Atomic          a             b             c           Radius
        Label          (eV)          (eV)          (eV)        (eV/Angs)
--------------------------------------------------------------------------------
      1 Mg    c       0.000000      0.000000      0.000000      0.000000
      2 O     c      -0.000000     -0.000000     -0.000000      0.000000
--------------------------------------------------------------------------------
  Maximum abs         0.000000      0.000000      0.000000      0.000000
--------------------------------------------------------------------------------


  Born effective charge tensors : 

-------------------------------------------------------------------------------
  Atom             x           y             z
-------------------------------------------------------------------------------
   1 Mg    x       2.0000      0.0000      0.0000
           y       0.0000      2.0000      0.0000
           z       0.0000      0.0000      2.0000
-------------------------------------------------------------------------------
   2 O     x      -2.0000      0.0000      0.0000
           y       0.0000     -2.0000      0.0000
           z       0.0000      0.0000     -2.0000
-------------------------------------------------------------------------------




  Elastic Constant Matrix: (Units=GPa)

-------------------------------------------------------------------------------
  Indices      1         2         3         4         5         6    
-------------------------------------------------------------------------------
       1    397.6273  132.5425   98.6627   47.9133    0.0000    0.0000
       2    132.5425  397.6273   98.6627  -47.9133   -0.0000   -0.0000
       3     98.6627   98.6627  431.5071   -0.0000    0.0000   -0.0000
       4     47.9133  -47.9133   -0.0000   98.6626   -0.0000   -0.0000
       5      0.0000   -0.0000    0.0000   -0.0000   98.6626   47.9133
       6      0.0000   -0.0000   -0.0000   -0.0000   47.9133  132.5424
-------------------------------------------------------------------------------


  Elastic Compliance Matrix: (Units=1/GPa)

-------------------------------------------------------------------------------
  Indices      1         2         3         4         5         6    
-------------------------------------------------------------------------------
       1    0.003319 -0.001257 -0.000471 -0.002222 -0.000000 -0.000000
       2   -0.001257  0.003319 -0.000471  0.002222  0.000000  0.000000
       3   -0.000471 -0.000471  0.002533  0.000000 -0.000000  0.000000
       4   -0.002222  0.002222  0.000000  0.012294  0.000000  0.000000
       5   -0.000000  0.000000 -0.000000  0.000000  0.012294 -0.004444
       6   -0.000000  0.000000  0.000000  0.000000 -0.004444  0.009151
-------------------------------------------------------------------------------

  Mechanical properties :

-------------------------------------------------------------------------------
  Convention :                    Reuss         Voigt         Hill
-------------------------------------------------------------------------------
  Bulk  Modulus (GPa)     =     209.61083     209.61083     209.61083
  Shear Modulus (GPa)     =     102.25195     125.76647     114.00921
-------------------------------------------------------------------------------
  Velocity S-wave (km/s)  =       5.33924       5.92143       5.63786
  Velocity P-wave (km/s)  =       9.82084      10.25621      10.04089
-------------------------------------------------------------------------------
  Compressibility (1/GPa) =    0.00477075
-------------------------------------------------------------------------------
  Stress axis :                     x             y             z
-------------------------------------------------------------------------------
  Youngs Moduli (GPa)     =     301.32868     301.32868     394.78562
-------------------------------------------------------------------------------
  Poissons Ratio (x)      =                     0.37877       0.18610
  Poissons Ratio (y)      =       0.37877                     0.18610
  Poissons Ratio (z)      =       0.14204       0.14204
-------------------------------------------------------------------------------


  Piezoelectric Strain Matrix: (Units=C/m**2)

-------------------------------------------------------------------------------
  Indices      1         2         3         4         5         6    
-------------------------------------------------------------------------------
       x     0.00000   0.00000   0.00000  -0.00000  -0.00000  -0.00000
       y    -0.00000  -0.00000  -0.00000   0.00000  -0.00000  -0.00000
       z    -0.00000   0.00000   0.00000  -0.00000   0.00000  -0.00000
-------------------------------------------------------------------------------


  Piezoelectric Stress Matrix: (Units=10**-11 C/N)

-------------------------------------------------------------------------------
  Indices      1         2         3         4         5         6    
-------------------------------------------------------------------------------
       x     0.00000  -0.00000   0.00000  -0.00000   0.00000  -0.00000
       y    -0.00000   0.00000   0.00000   0.00000  -0.00000   0.00000
       z    -0.00000   0.00000   0.00000  -0.00000   0.00000  -0.00000
-------------------------------------------------------------------------------


  Static dielectric constant tensor : 

-------------------------------------------------------------------------------
              x         y         z
-------------------------------------------------------------------------------
       x    11.51328  -0.00000  -0.00000
       y    -0.00000  11.51328   0.00000
       z    -0.00000   0.00000  11.51328
--------------------------------------------------------------------------------

  Static refractive indices : 

-------------------------------------------------------------------------------
    1 =    3.39312      2 =    3.39312      3 =    3.39312
-------------------------------------------------------------------------------


  Phonon Calculation : 

  Number of k points for this configuration =        2

--------------------------------------------------------------------------------
  K point      1 =  10.000000 10.000000 10.000000  Weight =    0.667
--------------------------------------------------------------------------------

 Frequencies (cm-1) and Eigenvectors : 

 Frequency       0.0461              0.0461              0.0461
 IR Intensity    0.0000              0.0000              0.0000
    in X         0.0000              0.0000              0.0000
    in Y         0.0000              0.0000              0.0000
    in Z         0.0000              0.0000              0.0000
 Raman Intsty    0.0000              0.0000              0.0000

                Real    Imaginary   Real    Imaginary   Real    Imaginary

     1 x       0.548212  0.000000 -0.080985 -0.000000 -0.544041 -0.000000
     1 y       0.544629  0.000000 -0.027512 -0.000000  0.552900  0.000000
     1 z      -0.076933 -0.000000 -0.771855 -0.000000  0.037375  0.000000
     2 x       0.444750 -0.000000 -0.065701  0.000000 -0.441367 -0.000000
     2 y       0.441843 -0.000000 -0.022320  0.000000  0.448553  0.000000
     2 z      -0.062414  0.000000 -0.626186  0.000000  0.030321  0.000000


 Frequency     322.4391            322.4391            322.4391
 IR Intensity    0.4145              0.4145              0.4145
    in X         0.0000              0.4145              0.0000
    in Y         0.2073              0.0000              0.2073
    in Z         0.2073              0.0000              0.2073
 Raman Intsty    0.0000              0.0000              0.0000

                Real    Imaginary   Real    Imaginary   Real    Imaginary

     1 x       0.000481 -0.000000  0.630019 -0.000000  0.000350  0.000000
     1 y      -0.445490 -0.000000  0.000093  0.000000  0.445491  0.000000
     1 z      -0.445491 -0.000000  0.000588 -0.000000 -0.445490 -0.000000
     2 x      -0.000593 -0.000000 -0.776579  0.000000 -0.000432  0.000000
     2 y       0.549125 -0.000000 -0.000114  0.000000 -0.549125  0.000000
     2 z       0.549125 -0.000000 -0.000725  0.000000  0.549124  0.000000




--------------------------------------------------------------------------------
  K point      2 =   0.500000  0.500000  0.500000  Weight =    0.333
--------------------------------------------------------------------------------

 Frequencies (cm-1) and Eigenvectors : 

 Frequency     247.1272            247.1272            300.0274
 IR Intensity    0.1645              0.1645              0.2500
    in X         0.0233              0.0315              0.0166
    in Y         0.0000              0.1280              0.1656
    in Z         0.1412              0.0051              0.0678
 Raman Intsty    0.0000              0.0000              0.0000

                Real    Imaginary   Real    Imaginary   Real    Imaginary

     1 x      -0.291765 -0.238285  0.133484 -0.416664  0.000000  0.000000
     1 y      -0.001969 -0.001608 -0.269063  0.839867 -0.000000  0.000000
     1 z       0.717461  0.585950  0.053545 -0.167137 -0.000000 -0.000000
     2 x       0.000000  0.000000  0.000000 -0.000000 -0.257378 -0.000000
     2 y       0.000000 -0.000000 -0.000000  0.000000  0.814002  0.000000
     2 z      -0.000000  0.000000  0.000000  0.000000 -0.520728  0.000000


 Frequency     300.0274            659.9305            798.1569
 IR Intensity    0.2500              0.1645              0.2500
    in X         0.0668              0.1097              0.1667
    in Y         0.0288              0.0366              0.0556
    in Z         0.1544              0.0183              0.0278
 Raman Intsty    0.0000              0.0000              0.0000

                Real    Imaginary   Real    Imaginary   Real    Imaginary

     1 x      -0.000000 -0.000000  0.011392  0.816417 -0.000000 -0.000000
     1 y      -0.000000 -0.000000  0.006577  0.471359 -0.000000 -0.000000
     1 z       0.000000  0.000000  0.004651  0.333301 -0.000000 -0.000000
     2 x      -0.516807 -0.000000  0.000000  0.000000  0.816497 -0.000000
     2 y       0.339380  0.000000  0.000000  0.000000  0.471405 -0.000000
     2 z       0.785959  0.000000  0.000000  0.000000  0.333333  0.000000




--------------------------------------------------------------------------------
  Phonon properties (per mole of unit cells): Temperature =      0.000 K
--------------------------------------------------------------------------------
  Zero point energy            =        0.092721 eV
--------------------------------------------------------------------------------

  Phonon density of states : 

--------------------------------------------------------------------------------
 Frequency (cm-1) Density of States                                             
--------------------------------------------------------------------------------
    0.00000 |************************************************************  0.333
   12.47120 |                                                              0.000
   24.94240 |                                                              0.000
   37.41361 |                                                              0.000
   49.88481 |                                                              0.000
   62.35601 |                                                              0.000
   74.82721 |                                                              0.000
   87.29841 |                                                              0.000
   99.76961 |                                                              0.000
  112.24082 |                                                              0.000
  124.71202 |                                                              0.000
  137.18322 |                                                              0.000
  149.65442 |                                                              0.000
  162.12562 |                                                              0.000
  174.59683 |                                                              0.000
  187.06803 |                                                              0.000
  199.53923 |                                                              0.000
  212.01043 |                                                              0.000
  224.48163 |                                                              0.000
  236.95283 |********************                                          0.111
  249.42404 |                                                              0.000
  261.89524 |                                                              0.000
  274.36644 |                                                              0.000
  286.83764 |                                                              0.000
  299.30884 |********************                                          0.111
  311.78005 |************************************************************  0.333
  324.25125 |                                                              0.000
  336.72245 |                                                              0.000
  349.19365 |                                                              0.000
  361.66485 |                                                              0.000
  374.13605 |                                                              0.000
  386.60726 |                                                              0.000
  399.07846 |                                                              0.000
  411.54966 |                                                              0.000
  424.02086 |                                                              0.000
  436.49206 |                                                              0.000
  448.96327 |                                                              0.000
  461.43447 |                                                              0.000
  473.90567 |                                                              0.000
  486.37687 |                                                              0.000
  498.84807 |                                                              0.000
  511.31927 |                                                              0.000
  523.79048 |                                                              0.000
  536.26168 |                                                              0.000
  548.73288 |                                                              0.000
  561.20408 |                                                              0.000
  573.67528 |                                                              0.000
  586.14649 |                                                              0.000
  598.61769 |                                                              0.000
  611.08889 |                                                              0.000
  623.56009 |                                                              0.000
  636.03129 |                                                              0.000
  648.50249 |**********                                                    0.056
  660.97370 |                                                              0.000
  673.44490 |                                                              0.000
  685.91610 |                                                              0.000
  698.38730 |                                                              0.000
  710.85850 |                                                              0.000
  723.32971 |                                                              0.000
  735.80091 |                                                              0.000
  748.27211 |                                                              0.000
  760.74331 |                                                              0.000
  773.21451 |                                                              0.000
  785.68571 |**********                                                    0.056
--------------------------------------------------------------------------------




  Phonon density of states written as phonon.gulp.dens              



  Time to end of optimisation =       0.0244 seconds


  Peak dynamic memory used =       1.52 MB 


  Timing analysis for GULP :

--------------------------------------------------------------------------------
  Task / Subroutine                                          Time (Seconds)
--------------------------------------------------------------------------------
  Calculation of reciprocal space energy and derivatives          0.0153
  Calculation of real space energy and derivatives                0.0047
  Calculation of phonons                                          0.0168
  Calculation of scattering                                       0.0000
--------------------------------------------------------------------------------
  Total CPU time                                                  0.0245
--------------------------------------------------------------------------------


  Job Finished at 10:36.46 22nd August     2017                               

