   2   2   0   0
  0.9639684E+01  0.3009788E-09  0.3009788E-09  0.3009788E-09  0.5000000E-15
  1.000000000000000E-004
  CAR 
 automatically generated by pyflamestk   
     44.79095310    -16.54286187  301      3.72285282      1.00000000
    -16.543  0.0000E+00  0.0000E+00
    -16.338  0.0000E+00  0.0000E+00
    -16.134  0.0000E+00  0.0000E+00
    -15.930  0.0000E+00  0.0000E+00
    -15.725  0.0000E+00  0.0000E+00
    -15.521  0.0000E+00  0.0000E+00
    -15.316  0.0000E+00  0.0000E+00
    -15.112  0.0000E+00  0.0000E+00
    -14.907  0.0000E+00  0.0000E+00
    -14.703  0.0000E+00  0.0000E+00
    -14.498  0.0000E+00  0.0000E+00
    -14.294  0.0000E+00  0.0000E+00
    -14.090  0.0000E+00  0.0000E+00
    -13.885  0.5211E-06  0.1065E-06
    -13.681  0.4047E-01  0.8274E-02
    -13.476  0.2260E+00  0.5447E-01
    -13.272  0.4057E+00  0.1374E+00
    -13.067  0.5838E+00  0.2568E+00
    -12.863  0.8408E+00  0.4287E+00
    -12.658  0.1264E+01  0.6872E+00
    -12.454  0.2614E+01  0.1221E+01
    -12.249  0.3631E+01  0.1964E+01
    -12.045  0.1770E+00  0.2000E+01
    -11.841  0.0000E+00  0.2000E+01
    -11.636  0.0000E+00  0.2000E+01
    -11.432  0.0000E+00  0.2000E+01
    -11.227  0.0000E+00  0.2000E+01
    -11.023  0.0000E+00  0.2000E+01
    -10.818  0.0000E+00  0.2000E+01
    -10.614  0.0000E+00  0.2000E+01
    -10.409  0.0000E+00  0.2000E+01
    -10.205  0.0000E+00  0.2000E+01
    -10.001  0.0000E+00  0.2000E+01
     -9.796  0.0000E+00  0.2000E+01
     -9.592  0.0000E+00  0.2000E+01
     -9.387  0.0000E+00  0.2000E+01
     -9.183  0.0000E+00  0.2000E+01
     -8.978  0.0000E+00  0.2000E+01
     -8.774  0.0000E+00  0.2000E+01
     -8.569  0.0000E+00  0.2000E+01
     -8.365  0.0000E+00  0.2000E+01
     -8.161  0.0000E+00  0.2000E+01
     -7.956  0.0000E+00  0.2000E+01
     -7.752  0.0000E+00  0.2000E+01
     -7.547  0.0000E+00  0.2000E+01
     -7.343  0.0000E+00  0.2000E+01
     -7.138  0.0000E+00  0.2000E+01
     -6.934  0.0000E+00  0.2000E+01
     -6.729  0.0000E+00  0.2000E+01
     -6.525  0.0000E+00  0.2000E+01
     -6.321  0.0000E+00  0.2000E+01
     -6.116  0.0000E+00  0.2000E+01
     -5.912  0.0000E+00  0.2000E+01
     -5.707  0.0000E+00  0.2000E+01
     -5.503  0.0000E+00  0.2000E+01
     -5.298  0.0000E+00  0.2000E+01
     -5.094  0.0000E+00  0.2000E+01
     -4.889  0.0000E+00  0.2000E+01
     -4.685  0.0000E+00  0.2000E+01
     -4.481  0.0000E+00  0.2000E+01
     -4.276  0.0000E+00  0.2000E+01
     -4.072  0.0000E+00  0.2000E+01
     -3.867  0.0000E+00  0.2000E+01
     -3.663  0.0000E+00  0.2000E+01
     -3.458  0.0000E+00  0.2000E+01
     -3.254  0.0000E+00  0.2000E+01
     -3.049  0.0000E+00  0.2000E+01
     -2.845  0.0000E+00  0.2000E+01
     -2.641  0.0000E+00  0.2000E+01
     -2.436  0.0000E+00  0.2000E+01
     -2.232  0.0000E+00  0.2000E+01
     -2.027  0.0000E+00  0.2000E+01
     -1.823  0.0000E+00  0.2000E+01
     -1.618  0.0000E+00  0.2000E+01
     -1.414  0.0000E+00  0.2000E+01
     -1.209  0.2389E-05  0.2000E+01
     -1.005  0.1244E+00  0.2025E+01
     -0.801  0.4100E+00  0.2109E+01
     -0.596  0.4396E+00  0.2199E+01
     -0.392  0.1294E+01  0.2464E+01
     -0.187  0.2092E+01  0.2891E+01
      0.017  0.2201E+01  0.3341E+01
      0.222  0.1021E+01  0.3550E+01
      0.426  0.7994E+00  0.3713E+01
      0.631  0.3276E+00  0.3780E+01
      0.835  0.7191E+00  0.3927E+01
      1.039  0.1172E+01  0.4167E+01
      1.244  0.6627E+00  0.4302E+01
      1.448  0.1098E+01  0.4527E+01
      1.653  0.1086E+01  0.4749E+01
      1.857  0.1286E+01  0.5012E+01
      2.062  0.1794E+01  0.5379E+01
      2.266  0.2828E+01  0.5957E+01
      2.471  0.2453E+01  0.6458E+01
      2.675  0.3044E+01  0.7081E+01
      2.880  0.2290E+01  0.7549E+01
      3.084  0.1389E+01  0.7833E+01
      3.288  0.7044E+00  0.7977E+01
      3.493  0.1136E+00  0.8000E+01
      3.697  0.6733E-06  0.8000E+01
      3.902  0.0000E+00  0.8000E+01
      4.106  0.0000E+00  0.8000E+01
      4.311  0.0000E+00  0.8000E+01
      4.515  0.0000E+00  0.8000E+01
      4.720  0.0000E+00  0.8000E+01
      4.924  0.0000E+00  0.8000E+01
      5.128  0.0000E+00  0.8000E+01
      5.333  0.0000E+00  0.8000E+01
      5.537  0.0000E+00  0.8000E+01
      5.742  0.0000E+00  0.8000E+01
      5.946  0.0000E+00  0.8000E+01
      6.151  0.0000E+00  0.8000E+01
      6.355  0.0000E+00  0.8000E+01
      6.560  0.0000E+00  0.8000E+01
      6.764  0.0000E+00  0.8000E+01
      6.968  0.0000E+00  0.8000E+01
      7.173  0.0000E+00  0.8000E+01
      7.377  0.0000E+00  0.8000E+01
      7.582  0.5343E-10  0.8000E+01
      7.786  0.2583E-02  0.8001E+01
      7.991  0.1870E-02  0.8001E+01
      8.195  0.2488E-01  0.8006E+01
      8.400  0.3736E-01  0.8014E+01
      8.604  0.1257E-03  0.8014E+01
      8.808  0.5308E-01  0.8025E+01
      9.013  0.6601E-01  0.8038E+01
      9.217  0.7680E-01  0.8054E+01
      9.422  0.2992E-02  0.8054E+01
      9.626  0.1083E+00  0.8076E+01
      9.831  0.1307E+00  0.8103E+01
     10.035  0.1403E+00  0.8132E+01
     10.240  0.7317E-01  0.8147E+01
     10.444  0.1052E+00  0.8168E+01
     10.648  0.3355E+00  0.8237E+01
     10.853  0.1364E+00  0.8265E+01
     11.057  0.3224E+00  0.8331E+01
     11.262  0.2769E+00  0.8387E+01
     11.466  0.6349E+00  0.8517E+01
     11.671  0.2486E+00  0.8568E+01
     11.875  0.7064E+00  0.8712E+01
     12.080  0.3484E+00  0.8784E+01
     12.284  0.5435E+00  0.8895E+01
     12.488  0.2019E+00  0.8936E+01
     12.693  0.1010E+01  0.9142E+01
     12.897  0.8162E+00  0.9309E+01
     13.102  0.5632E+00  0.9424E+01
     13.306  0.1154E+01  0.9660E+01
     13.511  0.1124E+01  0.9890E+01
     13.715  0.3928E+00  0.9970E+01
     13.920  0.9245E+00  0.1016E+02
     14.124  0.6448E+00  0.1029E+02
     14.328  0.3401E+00  0.1036E+02
     14.533  0.5616E+00  0.1048E+02
     14.737  0.1279E+01  0.1074E+02
     14.942  0.9061E+00  0.1092E+02
     15.146  0.1967E+01  0.1132E+02
     15.351  0.1584E+01  0.1165E+02
     15.555  0.1499E+01  0.1195E+02
     15.760  0.9055E+00  0.1214E+02
     15.964  0.1107E+01  0.1237E+02
     16.169  0.9754E+00  0.1257E+02
     16.373  0.6815E+00  0.1271E+02
     16.577  0.3318E+00  0.1277E+02
     16.782  0.7412E+00  0.1292E+02
     16.986  0.5288E+00  0.1303E+02
     17.191  0.2257E+00  0.1308E+02
     17.395  0.4587E+00  0.1317E+02
     17.600  0.4433E+00  0.1326E+02
     17.804  0.2644E+00  0.1332E+02
     18.009  0.5400E+00  0.1343E+02
     18.213  0.3450E+00  0.1350E+02
     18.417  0.1378E+00  0.1353E+02
     18.622  0.2393E+00  0.1358E+02
     18.826  0.5948E+00  0.1370E+02
     19.031  0.4047E+00  0.1378E+02
     19.235  0.5872E+00  0.1390E+02
     19.440  0.8841E+00  0.1408E+02
     19.644  0.9655E+00  0.1428E+02
     19.849  0.1239E+01  0.1453E+02
     20.053  0.1870E+01  0.1491E+02
     20.257  0.1647E+01  0.1525E+02
     20.462  0.1211E+01  0.1550E+02
     20.666  0.1493E+01  0.1580E+02
     20.871  0.3723E+00  0.1588E+02
     21.075  0.3141E+00  0.1594E+02
     21.280  0.8325E+00  0.1611E+02
     21.484  0.1128E+01  0.1634E+02
     21.689  0.4063E+00  0.1643E+02
     21.893  0.7683E+00  0.1658E+02
     22.097  0.4259E+00  0.1667E+02
     22.302  0.1496E+01  0.1698E+02
     22.506  0.4781E+00  0.1707E+02
     22.711  0.4001E+00  0.1716E+02
     22.915  0.5653E+00  0.1727E+02
     23.120  0.3672E+00  0.1735E+02
     23.324  0.9652E+00  0.1754E+02
     23.529  0.8021E+00  0.1771E+02
     23.733  0.3904E+00  0.1779E+02
     23.937  0.5278E+00  0.1790E+02
     24.142  0.8018E+00  0.1806E+02
     24.346  0.4013E+00  0.1814E+02
     24.551  0.1084E+01  0.1836E+02
     24.755  0.6949E+00  0.1851E+02
     24.960  0.8015E+00  0.1867E+02
     25.164  0.1056E+01  0.1889E+02
     25.369  0.1091E+01  0.1911E+02
     25.573  0.6284E+00  0.1924E+02
     25.777  0.4113E+00  0.1932E+02
     25.982  0.9461E+00  0.1951E+02
     26.186  0.5213E+00  0.1962E+02
     26.391  0.3751E+00  0.1970E+02
     26.595  0.5872E+00  0.1982E+02
     26.800  0.7679E+00  0.1997E+02
     27.004  0.9537E+00  0.2017E+02
     27.209  0.5971E+00  0.2029E+02
     27.413  0.2149E+00  0.2034E+02
     27.617  0.6912E-01  0.2035E+02
     27.822  0.7588E+00  0.2051E+02
     28.026  0.1746E+00  0.2054E+02
     28.231  0.3978E+00  0.2062E+02
     28.435  0.1028E+01  0.2083E+02
     28.640  0.9751E+00  0.2103E+02
     28.844  0.6091E+00  0.2116E+02
     29.049  0.3057E+00  0.2122E+02
     29.253  0.3442E+00  0.2129E+02
     29.457  0.8375E+00  0.2146E+02
     29.662  0.7860E+00  0.2162E+02
     29.866  0.1225E+01  0.2187E+02
     30.071  0.1137E+01  0.2210E+02
     30.275  0.3126E+00  0.2217E+02
     30.480  0.1292E+01  0.2243E+02
     30.684  0.1105E+01  0.2266E+02
     30.889  0.7294E+00  0.2281E+02
     31.093  0.1354E+01  0.2308E+02
     31.298  0.1351E+01  0.2336E+02
     31.502  0.1443E+01  0.2366E+02
     31.706  0.2037E+01  0.2407E+02
     31.911  0.1683E+01  0.2442E+02
     32.115  0.1575E+01  0.2474E+02
     32.320  0.2144E+01  0.2518E+02
     32.524  0.1559E+01  0.2549E+02
     32.729  0.1441E+01  0.2579E+02
     32.933  0.7876E+00  0.2595E+02
     33.138  0.1031E+01  0.2616E+02
     33.342  0.8044E+00  0.2633E+02
     33.546  0.5515E+00  0.2644E+02
     33.751  0.4950E+00  0.2654E+02
     33.955  0.2466E+00  0.2659E+02
     34.160  0.6996E+00  0.2673E+02
     34.364  0.9380E+00  0.2692E+02
     34.569  0.3887E+00  0.2700E+02
     34.773  0.5890E+00  0.2712E+02
     34.978  0.5582E+00  0.2724E+02
     35.182  0.7498E+00  0.2739E+02
     35.386  0.3863E+00  0.2747E+02
     35.591  0.7805E+00  0.2763E+02
     35.795  0.7198E+00  0.2778E+02
     36.000  0.1449E+01  0.2807E+02
     36.204  0.6143E+00  0.2820E+02
     36.409  0.1286E+01  0.2846E+02
     36.613  0.6012E+00  0.2859E+02
     36.818  0.4839E+00  0.2868E+02
     37.022  0.1274E+01  0.2894E+02
     37.226  0.6763E+00  0.2908E+02
     37.431  0.6714E+00  0.2922E+02
     37.635  0.8639E+00  0.2940E+02
     37.840  0.1110E+01  0.2962E+02
     38.044  0.3138E+00  0.2969E+02
     38.249  0.5904E+00  0.2981E+02
     38.453  0.1256E+01  0.3007E+02
     38.658  0.5374E+00  0.3018E+02
     38.862  0.5813E+00  0.3029E+02
     39.066  0.5893E+00  0.3041E+02
     39.271  0.4575E+00  0.3051E+02
     39.475  0.7395E+00  0.3066E+02
     39.680  0.9054E+00  0.3084E+02
     39.884  0.3184E+00  0.3091E+02
     40.089  0.1035E+01  0.3112E+02
     40.293  0.8429E+00  0.3129E+02
     40.498  0.3302E+00  0.3136E+02
     40.702  0.4334E+00  0.3145E+02
     40.906  0.3662E+00  0.3152E+02
     41.111  0.3456E+00  0.3159E+02
     41.315  0.7665E+00  0.3175E+02
     41.520  0.2998E+00  0.3181E+02
     41.724  0.4918E+00  0.3191E+02
     41.929  0.2125E+00  0.3196E+02
     42.133  0.2107E+00  0.3200E+02
     42.338  0.2494E-04  0.3200E+02
     42.542  0.0000E+00  0.3200E+02
     42.746  0.0000E+00  0.3200E+02
     42.951  0.0000E+00  0.3200E+02
     43.155  0.0000E+00  0.3200E+02
     43.360  0.0000E+00  0.3200E+02
     43.564  0.0000E+00  0.3200E+02
     43.769  0.0000E+00  0.3200E+02
     43.973  0.0000E+00  0.3200E+02
     44.178  0.0000E+00  0.3200E+02
     44.382  0.0000E+00  0.3200E+02
     44.587  0.0000E+00  0.3200E+02
     44.791  0.0000E+00  0.3200E+02
