# ['Ni']

18 atoms
1 atom types

    0.0000     2.2601 xlo xhi
    0.0000     3.9147 ylo yhi
    0.0000    33.2117 zlo zhi

    0.0000     0.0000    -0.0004 xy xz yz

Atoms

1 1     0.0000     0.0000     0.0000
2 1     1.1301     0.6525     1.8451
3 1     0.0000     1.3049     3.6902
4 1     1.1301     1.9573     0.0000
5 1     0.0000     2.6098     1.8451
6 1     1.1301     3.2622     3.6902
7 1     0.0000     0.0000     5.5353
8 1     1.1301     0.6525     7.3804
9 1     0.0000     1.3049     9.2255
10 1     1.1301     1.9573     5.5353
11 1     0.0000     2.6098     7.3804
12 1     1.1301     3.2622     9.2255
13 1     0.0000     0.0000    11.0706
14 1     1.1301     0.6525    12.9157
15 1     0.0000     1.3049    14.7608
16 1     1.1301     1.9573    11.0706
17 1     0.0000     2.6098    12.9157
18 1     1.1301     3.2622    14.7608
