# ['Ni']

107 atoms
1 atom types

    0.0000    11.0784 xlo xhi
    0.0000    11.0784 ylo yhi
    0.0000    11.0784 zlo zhi

    0.0000    -0.0000    -0.0000 xy xz yz

Atoms

1 1     1.8464     1.8464     0.0000
2 1     1.8464     0.0000     1.8464
3 1     0.0000     1.8464     1.8464
4 1     0.0000     0.0000     3.6928
5 1     1.8464     1.8464     3.6928
6 1     1.8464     0.0000     5.5392
7 1     0.0000     1.8464     5.5392
8 1     0.0000     0.0000     7.3856
9 1     1.8464     1.8464     7.3856
10 1     1.8464     0.0000     9.2320
11 1     0.0000     1.8464     9.2320
12 1     0.0000     3.6928     0.0000
13 1     1.8464     5.5392     0.0000
14 1     1.8464     3.6928     1.8464
15 1     0.0000     5.5392     1.8464
16 1     0.0000     3.6928     3.6928
17 1     1.8464     5.5392     3.6928
18 1     1.8464     3.6928     5.5392
19 1     0.0000     5.5392     5.5392
20 1     0.0000     3.6928     7.3856
21 1     1.8464     5.5392     7.3856
22 1     1.8464     3.6928     9.2320
23 1     0.0000     5.5392     9.2320
24 1     0.0000     7.3856     0.0000
25 1     1.8464     9.2320     0.0000
26 1     1.8464     7.3856     1.8464
27 1     0.0000     9.2320     1.8464
28 1     0.0000     7.3856     3.6928
29 1     1.8464     9.2320     3.6928
30 1     1.8464     7.3856     5.5392
31 1     0.0000     9.2320     5.5392
32 1     0.0000     7.3856     7.3856
33 1     1.8464     9.2320     7.3856
34 1     1.8464     7.3856     9.2320
35 1     0.0000     9.2320     9.2320
36 1     3.6928     0.0000     0.0000
37 1     5.5392     1.8464     0.0000
38 1     5.5392     0.0000     1.8464
39 1     3.6928     1.8464     1.8464
40 1     3.6928     0.0000     3.6928
41 1     5.5392     1.8464     3.6928
42 1     5.5392     0.0000     5.5392
43 1     3.6928     1.8464     5.5392
44 1     3.6928     0.0000     7.3856
45 1     5.5392     1.8464     7.3856
46 1     5.5392     0.0000     9.2320
47 1     3.6928     1.8464     9.2320
48 1     3.6928     3.6928     0.0000
49 1     5.5392     5.5392     0.0000
50 1     5.5392     3.6928     1.8464
51 1     3.6928     5.5392     1.8464
52 1     3.6928     3.6928     3.6928
53 1     5.5392     5.5392     3.6928
54 1     5.5392     3.6928     5.5392
55 1     3.6928     5.5392     5.5392
56 1     3.6928     3.6928     7.3856
57 1     5.5392     5.5392     7.3856
58 1     5.5392     3.6928     9.2320
59 1     3.6928     5.5392     9.2320
60 1     3.6928     7.3856     0.0000
61 1     5.5392     9.2320     0.0000
62 1     5.5392     7.3856     1.8464
63 1     3.6928     9.2320     1.8464
64 1     3.6928     7.3856     3.6928
65 1     5.5392     9.2320     3.6928
66 1     5.5392     7.3856     5.5392
67 1     3.6928     9.2320     5.5392
68 1     3.6928     7.3856     7.3856
69 1     5.5392     9.2320     7.3856
70 1     5.5392     7.3856     9.2320
71 1     3.6928     9.2320     9.2320
72 1     7.3856     0.0000     0.0000
73 1     9.2320     1.8464     0.0000
74 1     9.2320     0.0000     1.8464
75 1     7.3856     1.8464     1.8464
76 1     7.3856     0.0000     3.6928
77 1     9.2320     1.8464     3.6928
78 1     9.2320     0.0000     5.5392
79 1     7.3856     1.8464     5.5392
80 1     7.3856     0.0000     7.3856
81 1     9.2320     1.8464     7.3856
82 1     9.2320     0.0000     9.2320
83 1     7.3856     1.8464     9.2320
84 1     7.3856     3.6928     0.0000
85 1     9.2320     5.5392     0.0000
86 1     9.2320     3.6928     1.8464
87 1     7.3856     5.5392     1.8464
88 1     7.3856     3.6928     3.6928
89 1     9.2320     5.5392     3.6928
90 1     9.2320     3.6928     5.5392
91 1     7.3856     5.5392     5.5392
92 1     7.3856     3.6928     7.3856
93 1     9.2320     5.5392     7.3856
94 1     9.2320     3.6928     9.2320
95 1     7.3856     5.5392     9.2320
96 1     7.3856     7.3856     0.0000
97 1     9.2320     9.2320     0.0000
98 1     9.2320     7.3856     1.8464
99 1     7.3856     9.2320     1.8464
100 1     7.3856     7.3856     3.6928
101 1     9.2320     9.2320     3.6928
102 1     9.2320     7.3856     5.5392
103 1     7.3856     9.2320     5.5392
104 1     7.3856     7.3856     7.3856
105 1     9.2320     9.2320     7.3856
106 1     9.2320     7.3856     9.2320
107 1     7.3856     9.2320     9.2320
