LAMMPS (11 Aug 2017)
Reading data file ...
  triclinic box = (0 0 0) to (4.8791 4.8791 4.8791) with tilt (0 0 0)
  1 by 1 by 1 MPI processor grid
  reading atoms ...
  8 atoms
8 atoms in group Ni
Neighbor list info ...
  update every 1 steps, delay 0 steps, check yes
  max neighbors/atom: 2000, page size: 100000
  master list distance cutoff = 5.64464
  ghost atom cutoff = 5.64464
  binsize = 2.82232, bins = 2 2 2
  1 neighbor lists, perpetual/occasional/extra = 1 0 0
  (1) pair eam/alloy, perpetual
      attributes: half, newton on
      pair build: half/bin/newton/tri
      stencil: half/bin/3d/newton/tri
      bin: standard
Setting up cg style minimization ...
  Unit style    : metal
  Current step  : 0
WARNING: Energy due to 3 extra global DOFs will be included in minimizer energies
Per MPI rank memory allocation (min/avg/max) = 4.21 | 4.21 | 4.21 Mbytes
Step PotEng Xhi Xlo Yhi Ylo Zhi Xy Xz Yz Press Pxx Pyy Pzz Pxy Pxz Pyz c_eatoms 
       0   -27.836004       4.8791            0       4.8791            0       4.8791            0            0            0    81630.278    81630.278    81630.278    81630.278   -24.954327   -24.954327   -24.954327   -27.836004 
      10   -27.972176    4.9034955   -0.0243955    4.9034955   -0.0243955    4.9034955            0            0            0    43432.373    43432.373    43432.373    43432.373   -20.534563   -20.534563   -20.534563   -27.972176 
      20   -28.031673     4.927891    -0.048791     4.927891    -0.048791     4.927891            0            0            0    10625.755    10625.755    10625.755    10625.755   -15.848438   -15.848438   -15.848438   -28.031673 
      30   -28.035973    4.9366807 -0.057580721    4.9366807 -0.057580721    4.9366807            0            0            0 -0.0031631281 -0.0031631278 -0.0031631286 -0.0031631279  0.067747345  0.067747345  0.067747345   -28.035973 
      32   -28.035973    4.9366807  -0.05758071    4.9366807  -0.05758071    4.9366807            0            0            0 0.0099613068 0.0099613076 0.0099613051 0.0099613075 -0.005565597 -0.0055655973 -0.0055655973   -28.035973 
Loop time of 0.000760794 on 1 procs for 32 steps with 8 atoms

100.0% CPU use with 1 MPI tasks x no OpenMP threads

Minimization stats:
  Stopping criterion = energy tolerance
  Energy initial, next-to-last, final = 
         -27.836004442     -28.0359734701     -28.0359734701
  Force two-norm initial, final = 10.2499 1.50961e-06
  Force max component initial, final = 5.9178 7.56638e-07
  Final line search alpha, max atom move = 1 7.56638e-07
  Iterations, force evaluations = 32 41

MPI task timing breakdown:
Section |  min time  |  avg time  |  max time  |%varavg| %total
---------------------------------------------------------------
Pair    | 0.00043178 | 0.00043178 | 0.00043178 |   0.0 | 56.75
Neigh   | 0          | 0          | 0          |   0.0 |  0.00
Comm    | 6.3419e-05 | 6.3419e-05 | 6.3419e-05 |   0.0 |  8.34
Output  | 3.6955e-05 | 3.6955e-05 | 3.6955e-05 |   0.0 |  4.86
Modify  | 0          | 0          | 0          |   0.0 |  0.00
Other   |            | 0.0002286  |            |       | 30.05

Nlocal:    8 ave 8 max 8 min
Histogram: 1 0 0 0 0 0 0 0 0 0
Nghost:    272 ave 272 max 272 min
Histogram: 1 0 0 0 0 0 0 0 0 0
Neighs:    184 ave 184 max 184 min
Histogram: 1 0 0 0 0 0 0 0 0 0

Total # of neighbors = 184
Ave neighs/atom = 23
Neighbor list builds = 0
Dangerous builds = 0
pypospack:output_section:begin
tot_energy = -28.0359734700615
num_atoms = 8
a11 = 4.99426142011297
a22 = 4.99426142011292
a33 = 4.99426142011296
a12 = 0
a13 = 0
a23 = 0
tot_press = 0.00996130677181941
pxx = 0.00996130764205321
pyy = 0.00996130514045455
pzz = 0.00996130753295047
pxy = -0.00556559700523798
pxz = -0.0055655973372316
pyz = -0.00556559727118986
pypospack:output_section:done
pypospack:lammps_sim:done
Total wall time: 0:00:00
