# ['Ni']

10 atoms
1 atom types

    0.0000     3.3123 xlo xhi
    0.0000     2.3711 ylo yhi
    0.0000    23.7107 zlo zhi

    0.0000     0.0000     0.0000 xy xz yz

Atoms

1 1     0.0000     0.0000     0.0000
2 1     1.6561     1.1855     1.1855
3 1     0.0000     0.0000     2.3711
4 1     1.6561     1.1855     3.5566
5 1     0.0000     0.0000     4.7421
6 1     1.6561     1.1855     5.9277
7 1     0.0000     0.0000     7.1132
8 1     1.6561     1.1855     8.2988
9 1     0.0000     0.0000     9.4843
10 1     1.6561     1.1855    10.6698
