# ['Ni']

28 atoms
1 atom types

    0.0000     2.5728 xlo xhi
    0.0000     4.4562 ylo yhi
    0.0000    29.4094 zlo zhi

    0.0000     0.0000     0.0000 xy xz yz

Atoms

1 1     0.0000     0.0000     0.0000
2 1     1.2864     2.2281     0.0000
3 1     1.2864     0.7427     2.1007
4 1     0.0000     2.9708     2.1007
5 1     0.0000     1.4854     4.2013
6 1     1.2864     3.7135     4.2013
7 1     0.0000     0.0000     6.3020
8 1     1.2864     2.2281     6.3020
9 1     1.2864     0.7427     8.4027
10 1     0.0000     2.9708     8.4027
11 1     0.0000     1.4854    10.5034
12 1     1.2864     3.7135    10.5034
13 1     0.0000     0.0000    12.6040
14 1     1.2864     2.2281    12.6040
15 1     0.0000     1.4854    14.7047
16 1     1.2864     3.7135    14.7047
17 1     0.0000     0.0000    16.8054
18 1     1.2864     2.2281    16.8054
19 1     1.2864     0.7427    18.9060
20 1     0.0000     2.9708    18.9060
21 1     0.0000     1.4854    21.0067
22 1     1.2864     3.7135    21.0067
23 1     0.0000     0.0000    23.1074
24 1     1.2864     2.2281    23.1074
25 1     1.2864     0.7427    25.2081
26 1     0.0000     2.9708    25.2081
27 1     0.0000     1.4854    27.3087
28 1     1.2864     3.7135    27.3087
