LAMMPS (10 Feb 2015)
# ---- initialize simulations
clear
units metal
dimension 3
boundary p p p
atom_style charge
atom_modify map array
# ---- create atoms
read_data /Users/eugeneragasa/pyflamestk_git/pypospack/tests/tests_integration/workflow/WorkflowLammpsThermalExpansion/param_6993/MgO_NaCl_unit.npt.T800/lammps.structure
  triclinic box = (0 0 0) to (4.2565 4.2565 4.2565) with tilt (0 0 0)
  1 by 1 by 1 MPI processor grid
  reading atoms ...
  8 atoms
# ---- define interatomic potential
include potential.mod
mass 1 24.305
mass 2 15.999

group Mg type 1
4 atoms in group Mg
group O type 2
4 atoms in group O

set group Mg charge 1.61814101446
  4 settings made for charge
set group O charge -1.61814101446
  4 settings made for charge

variable R_cut equal 10.0

pair_style buck/coul/long ${R_cut}
pair_style buck/coul/long 10
pair_coeff 1 1 0.0 0.5 0.0 ${R_cut}
pair_coeff 1 1 0.0 0.5 0.0 10
pair_coeff 1 2 1169.10574889 0.285525631363 0.0 ${R_cut}
pair_coeff 1 2 1169.10574889 0.285525631363 0.0 10
pair_coeff 2 2 5328.19415446 0.197938803692 16.6059399876 ${R_cut}
pair_coeff 2 2 5328.19415446 0.197938803692 16.6059399876 10

kspace_style pppm 1.0e-5

neighbor 1.0 bin
neigh_modify every 1 delay 0 check yes
# ---- define settings
compute eng all pe/atom
compute eatoms all reduce sum c_eng
# ---- run minimization
reset_timestep 0
fix 1 all box/relax iso 0.0 vmax 0.001
thermo 10
thermo_style custom step pe lx ly lz xy xz yz press pxx pyy pzz pxy pxz pyz c_eatoms
min_style cg
minimize 1e-25 1e-25 5000 10000
PPPM initialization ...
  G vector (1/distance) = 0.352506
  grid = 8 8 8
  stencil order = 5
  estimated absolute RMS force accuracy = 3.81426e-05
  estimated relative force accuracy = 2.64886e-06
  using double precision FFTs
  3d grid and FFT values/proc = 3375 512
Neighbor list info ...
  1 neighbor list requests
  update every 1 steps, delay 0 steps, check yes
  master list distance cutoff = 11
Memory usage per processor = 4.06549 Mbytes
Step PotEng Lx Ly Lz Xy Xz Yz Press Pxx Pyy Pzz Pxy Pxz Pyz eatoms 
       0   -108.09373       4.2565       4.2565       4.2565            0            0            0    -32837.55    -32837.55    -32837.55    -32837.55 6.8800808e-12 1.9793426e-10 1.5308399e-10   -108.09373 
       9   -108.11055     4.226584     4.226584     4.226584            0            0            0    13.792758    13.792758    13.792758    13.792758 -4.4920118e-11 -8.154534e-11 2.0970287e-11   -108.11055 
Loop time of 0.0122111 on 1 procs for 9 steps with 8 atoms

Minimization stats:
  Stopping criterion = linesearch alpha is zero
  Energy initial, next-to-last, final = 
         -108.09372829     -108.110551709     -108.110551709
  Force two-norm initial, final = 4.74176 0.0024943
  Force max component initial, final = 4.74176 0.00196378
  Final line search alpha, max atom move = 0.00390625 7.67103e-06
  Iterations, force evaluations = 9 28

Pair  time (%) = 0.00331402 (27.1394)
Kspce time (%) = 0.00203991 (16.7054)
Neigh time (%) = 0 (0)
Comm  time (%) = 0.000409603 (3.35435)
Outpt time (%) = 0 (0)
Other time (%) = 0.00644755 (52.8008)

Nlocal:    8 ave 8 max 8 min
Histogram: 1 0 0 0 0 0 0 0 0 0
Nghost:    2189 ave 2189 max 2189 min
Histogram: 1 0 0 0 0 0 0 0 0 0
Neighs:    2344 ave 2344 max 2344 min
Histogram: 1 0 0 0 0 0 0 0 0 0

Total # of neighbors = 2344
Ave neighs/atom = 293
Neighbor list builds = 0
Dangerous builds = 0
unfix 1
# ---- define output variables ----
variable natoms equal "count(all)"
variable tot_energy equal "c_eatoms"
variable length_x equal "lx"
variable length_y equal "ly"
variable length_z equal "lz"
variable tilt_xy equal "xy"
variable tilt_xz equal "xz"
variable tilt_yz equal "yz"
variable tot_press equal "press"
variable press_xx equal "pxx"
variable press_yy equal "pyy"
variable press_zz equal "pzz"
variable press_xy equal "pxy"
variable press_xz equal "pxz"
variable press_yz equal "pyz"

# ---- output ----
print "pypospack:output_section:begin"
pypospack:output_section:begin
print "tot_energy = ${tot_energy}"
tot_energy = -108.110551708828
print "num_atoms = ${natoms}"
num_atoms = 8
print "xx = ${length_x}"
xx = 4.22658398474032
print "yy = ${length_y}"
yy = 4.22658398474032
print "zz = ${length_z}"
zz = 4.22658398474032
print "xy = ${tilt_xy}"
xy = 0
print "xz = ${tilt_xz}"
xz = 0
print "yz = ${tilt_yz}"
yz = 0
print "tot_press = ${tot_press}"
tot_press = 13.7927584127517
print "pxx = ${press_xx}"
pxx = 13.7927584125475
print "pyy = ${press_yy}"
pyy = 13.7927584121258
print "pzz = ${press_zz}"
pzz = 13.7927584135819
print "pxy = ${press_xy}"
pxy = -4.49201179574407e-11
print "pxz = ${press_xz}"
pxz = -8.15453399591787e-11
print "pyz = ${press_yz}"
pyz = 2.09702873442201e-11
print "pypospack:output_section:done"
pypospack:output_section:done
print "pypospack:lammps_sim:done"
pypospack:lammps_sim:done
#------------------------------------------------------------------------------
# RUN THERMOSTAT
# running using an NPT Nose-Hoover style thermostat
#------------------------------------------------------------------------------
variable tempdamp equal 0.1
variable pressdamp equal 1.0
# set initial velocities
velocity all create 800 2210875 mom yes dist gaussian loop all
# fix for Nose-Hoover style thermostat
fix 20 all npt temp 800 800 0.1 aniso 0.0 0.0 1.0 drag 1.0 couple xyz
variable boxx equal lx
variable boxy equal ly
variable boxz equal lz
variable boxp equal press
variable boxt equal temp
# calculate averages every 10000 steps
reset_timestep 0
fix 21 all ave/time 10 10 100 v_boxx v_boxy v_boxz v_boxp v_boxt file lattice.out
thermo_style custom step temp pe ke etotal press lx ly lz press pxx pyy pzz pxy pxz pyz vol
thermo_modify flush yes
thermo 100
run 100000
PPPM initialization ...
  G vector (1/distance) = 0.352801
  grid = 8 8 8
  stencil order = 5
  estimated absolute RMS force accuracy = 3.76353e-05
  estimated relative force accuracy = 2.61363e-06
  using double precision FFTs
  3d grid and FFT values/proc = 3375 512
Memory usage per processor = 3.06549 Mbytes
Step Temp PotEng KinEng TotEng Press Lx Ly Lz Press Pxx Pyy Pzz Pxy Pxz Pyz Volume 
       0          800   -108.11055   0.72385681   -107.38669      10254.2     4.226584     4.226584     4.226584      10254.2    2732.2079    12081.043    15949.349   -1496.0498    1408.5046   -3154.7807    75.503748 
     100    289.66105   -107.54923   0.26209141   -107.28714    -2188.739    4.2559972    4.2559972    4.2559972    -2188.739   -24072.129    3745.1269    13760.785   -1454.8249   -1790.4483   -6066.8992    77.091056 
     200    439.70044   -107.49817    0.3978502   -107.10032   -13560.311    4.2594495    4.2594495    4.2594495   -13560.311   -26674.855   -2671.6038   -11334.474   -801.97609   -4468.4251   -4764.9768    77.278808 
     300    844.20902   -107.68033   0.76385806   -106.91647   -1521.7951    4.2481557    4.2481557    4.2481557   -1521.7951   -11555.065     7223.277   -233.59695    911.85922    847.21435    4082.7237     76.66573 
     400    460.14701    -107.2036   0.41635068   -106.78725   -11948.732    4.2717467    4.2717467    4.2717467   -11948.732   -36968.138    5444.4167   -4322.4737   -2301.3012   -1985.4546   -9922.2858    77.950063 
     500    638.18208   -107.27449   0.57744056   -106.69705   -2989.4528    4.2607851    4.2607851    4.2607851   -2989.4528    -16859.82    12790.882   -4899.4204   -5404.7308   -5328.2123   -5357.4937    77.351525 
     600    1126.9929   -107.67687    1.0197269   -106.65715    571.90163    4.2627787    4.2627787    4.2627787    571.90163   -23167.175    18676.034    6206.8453    2380.6846    1483.2268     13650.55    77.460153 
     700    809.85118   -107.38169   0.73277037   -106.64892   -15927.436    4.2836068    4.2836068    4.2836068   -15927.436   -53011.637    9555.8335   -4326.5049    -6773.441   -8041.0727   -8199.3354    78.601129 
     800    888.26601   -107.44961   0.80372175   -106.64589    114.44978    4.2495429    4.2495429    4.2495429    114.44978   -19804.995    24232.887   -4084.5426   -5302.7977   -11614.284   -11004.781     76.74086 
     900    924.21583   -107.49659    0.8362499   -106.66034    6588.4641    4.2626415    4.2626415    4.2626415    6588.4641   -21987.425    37151.444    4601.3729   -1099.6783    695.68193   -8870.7842    77.452678 
    1000    580.75079   -107.17718   0.52547552    -106.6517   -10435.388    4.2833553    4.2833553    4.2833553   -10435.388   -39838.006    1398.4216    7133.4206   -1959.7283   -3855.1238   -1568.2302    78.587288 
    1100    777.65151   -107.35173   0.70363543    -106.6481    7456.5018    4.2412604    4.2412604    4.2412604    7456.5018   -1073.4101    22221.164    1221.7516   -2129.8086   -10261.443   -7449.9291     76.29302 
    1200    748.83508   -107.35075   0.67756172   -106.67319    4896.2163    4.2655337    4.2655337    4.2655337    4896.2163   -26344.915    10014.877    31018.687    10189.853    4488.2051    12971.902    77.610436 
    1300    828.51351   -107.40016   0.74965644   -106.65051   -15309.507    4.2872515    4.2872515    4.2872515   -15309.507     -38881.1     6625.021   -13672.441    7738.5959   -4303.4967    4939.1298    78.801938 
    1400    955.45855   -107.50928   0.86451897   -106.64476    13647.109      4.24057      4.24057      4.24057    13647.109    11155.155    13124.308    16661.863    -3874.858   -6090.1746   -7474.0055     76.25577 
    1500    796.84226   -107.38638   0.72099962   -106.66538    19337.424    4.2549508    4.2549508    4.2549508    19337.424   -12621.624    36411.471    34222.426    2171.8571    13549.141   -1175.9129     77.03421 
    1600    959.76998   -107.51476   0.86842004   -106.64634   -32600.673    4.2877691    4.2877691    4.2877691   -32600.673   -39394.356   -16097.405   -42310.258    3038.4545   -663.20814   -9244.0067    78.830479 
    1700    603.65977   -107.19303   0.54620404   -106.64683   -29.709026    4.2525681    4.2525681    4.2525681   -29.709026   -5594.0503   -4195.6688     9700.592   -7239.5496    1775.1446   -15242.389    76.904866 
    1800    822.38133   -107.39475   0.74410791   -106.65064    11933.009    4.2472572    4.2472572    4.2472572    11933.009   -5628.0631     10337.87     31089.22    1035.9887    8765.2229    1904.4468    76.617093 
    1900      922.458   -107.48525   0.83465938   -106.65059   -16561.892    4.2792089    4.2792089    4.2792089   -16561.892   -30840.644     893.1338   -19738.167    -6085.157    4291.5491     2567.851    78.359286 
    2000    588.76695    -107.1882   0.53272871   -106.65547     12664.25     4.257844     4.257844     4.257844     12664.25   -23842.836     17367.25    44468.337    -12997.16    4400.5684   -7165.9622    77.191457 
    2100    1038.5448   -107.59306   0.93969717   -106.65336    14886.522    4.2519227    4.2519227    4.2519227    14886.522   -138.33179    28395.938    16401.959    4039.1719    2745.4157    8741.8067     76.86986 
    2200    860.23651   -107.42962   0.77836007   -106.65126   -6668.7663    4.2760515    4.2760515    4.2760515   -6668.7663   -24597.868    26310.613   -21719.043    1377.8386    2014.5414    9602.5096    78.185963 
    2300    594.50826   -107.18623   0.53792357   -106.64831    9031.7404    4.2568117    4.2568117    4.2568117    9031.7404   -23504.927    19606.519    30993.628   -3377.1358    2947.0166   -6254.9625    77.135325 
    2400    848.78342    -107.4194   0.76799707   -106.65141    8095.4811    4.2580149    4.2580149    4.2580149    8095.4811   -4754.5687    28761.871    279.14106     4037.698    294.09731    -5135.704     77.20075 
    2500    960.50951   -107.51772   0.86908919   -106.64863   -12690.189    4.2711563    4.2711563    4.2711563   -12690.189   -22846.462   -15430.045     205.9403    3135.7117    3171.0719   -5174.9879    77.917749 
    2600    520.74826   -107.12139   0.47118397   -106.65021     13617.35    4.2586587    4.2586587    4.2586587     13617.35   -26062.608    1087.8532    65826.803    3841.3865    2212.7041    557.11266    77.235776 
    2700    1064.1132   -107.61253   0.96283202    -106.6497   -4020.6488    4.2640731    4.2640731    4.2640731   -4020.6488   -20936.484    15428.096   -6553.5588    8603.8886    -7600.834   -5243.7857    77.530737 
    2800    894.94952   -107.45952   0.80976913   -106.64975    18595.908    4.2600641    4.2600641    4.2600641    18595.908   -15695.263    34950.759    36532.229   -835.14837    7347.9909   -9230.4858    77.312267 
    2900    695.06267   -107.28565   0.62890731   -106.65674    7872.6321    4.2602976    4.2602976    4.2602976    7872.6321     -31613.8    30467.114    24764.583    6523.6066    6918.8602    946.05875    77.324981 
    3000    904.52619   -107.47379    0.8184343   -106.65536   -8117.9182    4.2658894    4.2658894    4.2658894   -8117.9182   -36349.275    28527.246   -16531.725    4022.6864   -8748.3022   -488.30119    77.629857 
    3100    738.12413   -107.32163   0.66787022   -106.65376    25518.148    4.2500333    4.2500333    4.2500333    25518.148   -1887.4509    15789.294    62652.601    -1178.678    10791.282    28.100705     76.76743 
    3200    728.54426   -107.32518   0.65920216   -106.66598   -27657.146    4.2711894    4.2711894    4.2711894   -27657.146   -29011.792   -37917.165   -16042.483    7454.1555    1853.5785   -7682.1017    77.919557 
    3300    884.13914   -107.45838   0.79998767   -106.65839   -22641.005    4.2642396    4.2642396    4.2642396   -22641.005    -37535.75   -25760.763   -4626.5021    4493.7302   -17393.168    7159.1406    77.539824 
    3400    778.94632   -107.35075     0.704807   -106.64594    43568.016    4.2401401    4.2401401    4.2401401    43568.016    1896.5323    83509.945    45297.571   -5596.6961    7783.7666    4499.1011    76.232581 
    3500    846.58095   -107.42312   0.76600423   -106.65711   -36376.274    4.2845384    4.2845384    4.2845384   -36376.274   -59027.226    560.40926   -50662.005   -2575.5442    610.98297   -16146.524    78.652427 
    3600    805.15981   -107.38214   0.72852552   -106.65362   -547.30467    4.2623145    4.2623145    4.2623145   -547.30467   -42725.011     56395.03   -15311.933   -77.752265   -10874.761   -9091.1872     77.43485 
    3700    1057.0689   -107.59462   0.95645811   -106.63816    34770.366     4.228718     4.228718     4.228718    34770.366    3221.4498    52528.507    48561.141   -4181.3247    6103.2512   -4192.0779    75.618171 
    3800    770.59542   -107.35977   0.69725093   -106.66252   -46381.545    4.2851901    4.2851901    4.2851901   -46381.545   -50162.528   -45675.694   -43306.412    4657.6296   -4883.5519   -6599.4665    78.688323 
    3900    708.39511   -107.29306   0.64097078   -106.65209   -4880.5854    4.2685168    4.2685168    4.2685168   -4880.5854   -30000.177    15227.835    130.58628   -3095.3941   -2423.7472   -6270.5602    77.773385 
    4000    838.65133    -107.3915   0.75882935   -106.63267    34274.128    4.2309607    4.2309607    4.2309607    34274.128    4835.9112    53234.048    44752.425   -4519.6615    1943.8429    9992.6043    75.738546 
    4100    592.18001   -107.20329   0.53581692   -106.66747   -15880.784    4.2734358    4.2734358    4.2734358   -15880.784   -33330.961    18740.708   -33052.099    894.17791   -6760.5275    3322.4271    78.042566 
    4200    715.69115   -107.30052   0.64757239   -106.65295   -3013.1044    4.2771543    4.2771543    4.2771543   -3013.1044   -37340.966    29698.116   -1396.4633    2990.7729    7381.4042    4676.4698    78.246469 
    4300    1161.9073   -107.68689    1.0513181   -106.63557    23513.887     4.236694     4.236694     4.236694    23513.887   -2809.5003    38784.046    34567.115   -2239.4312    -1406.017    -5714.969    76.046859 
    4400    916.53359   -107.48843   0.82929885   -106.65913   -14151.439    4.2643981    4.2643981    4.2643981   -14151.439   -33849.296    18706.374   -27311.393    8772.8699   -13090.651   -6676.1484    77.548466 
    4500    711.46355   -107.29348   0.64374717   -106.64973   -14655.311      4.27483      4.27483      4.27483   -14655.311   -42537.175   -7929.7365    6500.9788    5602.3143    6303.1943   -8288.8269    78.118978 
    4600    459.65914   -107.05989   0.41590925   -106.64398    19417.167    4.2469545    4.2469545    4.2469545    19417.167   -5478.9207    54841.809    8888.6128    177.06658   -6007.0394   -862.11065    76.600716 
    4700    593.20072   -107.19539   0.53674048   -106.65864    67.044342    4.2605583    4.2605583    4.2605583    67.044342   -19672.655     44124.21   -24250.422    5263.7066   -10119.781   -10807.283    77.339175 
    4800    866.42734   -107.43924   0.78396167   -106.65528    644.07604    4.2665571    4.2665571    4.2665571    644.07604   -32624.471    24192.023    10364.676    6176.9761    2442.9485    2302.4625    77.666313 
    4900    1061.5256   -107.61524   0.96049068   -106.65475   -17945.275    4.2639116    4.2639116    4.2639116   -17945.275   -38924.722   -3501.4902   -11409.614   -3381.6805   -10671.513    15104.178     77.52193 
    5000    1088.7607   -107.64028   0.98513356   -106.65515    -7547.336    4.2622089    4.2622089    4.2622089    -7547.336   -34024.989    37768.043   -26385.062    5688.0037   -56.917786    6400.5026    77.429095 
    5100    804.74493   -107.38434   0.72815013   -106.65619    12007.388    4.2614376    4.2614376    4.2614376    12007.388   -36677.914    52123.457    20576.622   -1140.8553   -3814.8225   -4573.3097    77.387068 
    5200    566.25237   -107.16944   0.51235705   -106.65709    4745.2756     4.271485     4.271485     4.271485    4745.2756   -33723.448     64554.55   -16595.275      -820.71   -8141.2951   -6887.6029    77.935737 
    5300    919.90698   -107.48431   0.83235117   -106.65196   -9829.2609    4.2605182    4.2605182    4.2605182   -9829.2609   -14914.397    7511.8247    -22085.21    3271.3166     7638.915   -10510.986    77.336992 
    5400    651.72846   -107.24484   0.58969761   -106.65515    -4565.181    4.2545923    4.2545923    4.2545923    -4565.181   -23542.185   -9657.0336    19503.676    1174.9976   -7967.3442   -5022.5471    77.014739 
    5500    857.47685   -107.43499   0.77586308   -106.65913   -11824.004    4.2731523    4.2731523    4.2731523   -11824.004   -37382.942    28648.259    -26737.33   -8401.9941    24.550987   -1282.7875    78.027034 
    5600    763.32103   -107.35465   0.69066891   -106.66398    1388.8794    4.2624408    4.2624408    4.2624408    1388.8794   -24119.069    64195.163   -35909.455    299.41966   -3758.5187   -8744.9683    77.441738 
    5700    759.32804   -107.34527   0.68705596   -106.65821     33308.31    4.2447736    4.2447736    4.2447736     33308.31   -8209.9016     83681.82    24453.013   -13215.265    -7976.187   -35.549501    76.482768 
    5800    1103.9968   -107.65914   0.99891948   -106.66022   -24266.763     4.276306     4.276306     4.276306   -24266.763   -32078.731    -17759.83   -22961.729   -4485.7095    4800.4554    15716.518    78.199923 
    5900    1107.7263   -107.65539    1.0022941   -106.65309   -16863.307    4.2618278    4.2618278    4.2618278   -16863.307   -18873.844   -9633.9752   -22082.101   -2476.6451   -7899.7316    3897.2463    77.408328 
    6000    771.88631   -107.34486   0.69841895   -106.64644     18319.98    4.2485499    4.2485499    4.2485499     18319.98   -10440.192    40007.707    25392.426   -8722.1388   -5538.1332    3332.7608    76.687074 
    6100    472.41247   -107.07957   0.42744873   -106.65212   -9155.7118    4.2767881    4.2767881    4.2767881   -9155.7118   -31402.256    25528.066   -21592.946   -14.559705    3966.4517    78.920423    78.226371 
    6200     651.3885   -107.23703      0.58939   -106.64764    3666.2364    4.2621831    4.2621831    4.2621831    3666.2364   -10460.257    42784.021   -21325.054    5823.6132   -6043.6216   -953.06992    77.427693 
    6300    923.71864   -107.48267   0.83580004   -106.64687    4657.1065    4.2511234    4.2511234    4.2511234    4657.1065   -18338.942    21107.684    11202.577    -7141.127   -81.932327   -6180.2468    76.826517 
    6400      899.514   -107.46583   0.81389917   -106.65193   -17889.288    4.2680406    4.2680406    4.2680406   -17889.288   -33154.689   -7473.4844    -13039.69    5783.8799    3029.9465   -2207.7257    77.747357 
    6500    1062.0068   -107.61128   0.96092603   -106.65035   -716.41258    4.2614139    4.2614139    4.2614139   -716.41258   -15500.528     26276.85    -12925.56    3418.4702   -2271.0204    1901.1995     77.38578 
    6600     982.5159   -107.54253   0.88900104   -106.65353   -3265.8478    4.2573251    4.2573251    4.2573251   -3265.8478   -27714.843    4584.7622    13332.537   -297.79253    1932.0177    380.13942    77.163239 
    6700    554.99726   -107.15888   0.50217319    -106.6567    3911.1324    4.2593566    4.2593566    4.2593566    3911.1324   -19915.146    40491.483   -8842.9406    4068.9332    2048.8796    15304.163    77.273753 
    6800    670.68913    -107.2604   0.60685362   -106.65354   -3175.1877    4.2626423    4.2626423    4.2626423   -3175.1877   -19358.515    23092.166   -13259.215    2875.6389   -5053.9443    8112.7164     77.45272 
    6900    699.42511   -107.28466   0.63285454   -106.65181   -5399.4094    4.2598351    4.2598351    4.2598351   -5399.4094   -27876.873    10310.874    1367.7704   -6063.1298    6798.7088    1392.1097    77.299799 
    7000    720.07576   -107.30457   0.65153968   -106.65303   -3381.9304    4.2584335    4.2584335    4.2584335   -3381.9304   -18731.412    6076.5857    2509.0354    3663.8033    4954.9658    16756.058    77.223522 
    7100    1068.1535   -107.61909   0.96648775    -106.6526    518.02736    4.2592669    4.2592669    4.2592669    518.02736   -22408.834    11290.176     12672.74    10422.423   -3685.7925   -438.63511    77.268872 
    7200    819.47377   -107.39849   0.74147709   -106.65701    8575.6919     4.262889     4.262889     4.262889    8575.6919   -31551.649    44051.153    13227.572   -5994.6774    6081.1759   -12634.439    77.466167 
    7300    754.48483   -107.33708   0.68267373   -106.65441     -595.614    4.2593421    4.2593421    4.2593421     -595.614   -30478.592    24401.256    4290.4941   -6038.9585    2149.1368   -1699.9152    77.272961 
    7400    658.94564   -107.24666   0.59622786   -106.65043    18786.715    4.2541181    4.2541181    4.2541181    18786.715   -23806.945    63252.393    16914.696     365.9094    826.05067   -8162.3353    76.988992 
    7500    743.33565   -107.32887   0.67258571   -106.65628   -20160.992    4.2630624    4.2630624    4.2630624   -20160.992   -39262.503   -18251.936   -2968.5355   -6983.1783    7077.5777   -1751.5531    77.475622 
    7600    527.18703   -107.13726    0.4770099   -106.66025   -14651.575     4.256799     4.256799     4.256799   -14651.575     -28707.5   -16298.458    1051.2331     1483.787   -1999.0564    6260.5984    77.134637 
    7700    1025.8255   -107.58259   0.92818843    -106.6544    236.78958    4.2534728    4.2534728    4.2534728    236.78958   -5684.9386    7098.3367   -703.02939    6933.1145    1613.8433     3829.188    76.953959 
    7800    870.24495   -107.44212   0.78741592   -106.65471   -4767.1421     4.268062     4.268062     4.268062   -4767.1421   -38495.191    30842.723    -6648.959   -6334.7418     10303.47    9543.8244    77.748527 
    7900     819.3549   -107.39672   0.74136953   -106.65535    2796.8436    4.2520861    4.2520861    4.2520861    2796.8436   -18978.473    18670.229    8698.7747   -1525.4819    4039.9957    -9065.202    76.878722 
    8000    875.80863   -107.45377   0.79245005   -106.66132    10040.377    4.2546532    4.2546532    4.2546532    10040.377   -4394.3181    37021.733    -2506.285    6491.4926   -1166.4316     4562.371    77.018049 
    8100    810.10634    -107.3878   0.73300124    -106.6548   -30517.824    4.2751315    4.2751315    4.2751315   -30517.824   -45812.414    -23093.58   -22647.477   -1841.7661    3142.7156   -7120.2492    78.135505 
    8200    661.74714   -107.24865   0.59876272   -106.64989   -6045.7004    4.2486374    4.2486374    4.2486374   -6045.7004   -11529.154   -4540.7091   -2067.2379   -4144.9363    1323.1479    3318.5024    76.691815 
    8300    701.62498   -107.28879   0.63484503   -106.65394    20902.603    4.2490732    4.2490732    4.2490732    20902.603    5439.7246    44766.509    12501.576    315.24202    3781.1302    14464.829    76.715416 
    8400    841.39965   -107.41116   0.76131608   -106.64984    937.89585    4.2699306    4.2699306    4.2699306    937.89585   -22016.575    22647.232    2183.0306   -6915.3444    -1033.569   -9391.3302    77.850687 
    8500    824.88935   -107.39805   0.74637722   -106.65167   -1795.1498    4.2590681    4.2590681    4.2590681   -1795.1498   -30203.106    37081.772   -12264.115   -2348.9378   -5463.8277    4803.0121     77.25805 
    8600    954.28287   -107.51695    0.8634552   -106.65349     18064.68    4.2449404    4.2449404    4.2449404     18064.68    2484.0014    35845.268    15864.772    -5803.646    2276.9142   -1918.0568    76.491782 
    8700    932.62704   -107.50566   0.84386054    -106.6618    6257.8644     4.262943     4.262943     4.262943    6257.8644    -6435.751    19228.142    5981.2025    736.97742    5028.2569   -7561.4189    77.469114 
    8800    588.59885    -107.1839   0.53257661   -106.65132    -29246.21    4.2812337    4.2812337    4.2812337    -29246.21    -42701.15   -28363.366   -16674.114    1337.6176    1256.8798    8770.5265     78.47057 
    8900    771.46658   -107.33683   0.69803917   -106.63879    25290.082    4.2366655    4.2366655    4.2366655    25290.082    22535.129    55809.125   -2474.0089    4588.3548   -1264.1128   -9096.5366    76.045329 
    9000    552.44039   -107.15823   0.49985967   -106.65837    26421.526    4.2502932    4.2502932    4.2502932    26421.526    15878.666    31569.671    31816.241    8701.0674    2573.1636   -7188.9977    76.781514 
    9100    537.95364    -107.1338   0.48675176   -106.64705   -26715.236    4.2883188    4.2883188    4.2883188   -26715.236   -53148.451   -9538.2474   -17459.009   -2904.0655    3732.8071    256.11564    78.860804 
    9200     1148.502   -107.67688    1.0391888   -106.63769    23442.094    4.2366193    4.2366193    4.2366193    23442.094    15216.998    46674.482    8434.8033    4178.9343    4405.7391   -19909.697    76.042836 
    9300     760.4604    -107.3403   0.68808055   -106.65221    17478.509    4.2411893    4.2411893    4.2411893    17478.509    7243.2175    13819.753    31372.555    3491.3193    4750.3478    425.26491    76.289183 
    9400    746.97399   -107.32136   0.67587776   -106.64549   -36593.345    4.2806388    4.2806388    4.2806388   -36593.345   -46509.783   -52251.129   -11019.124   -14985.864   -815.73529    5520.3454    78.437864 
    9500    773.78985   -107.34513   0.70014131   -106.64499     11947.26     4.250885     4.250885     4.250885     11947.26    12374.291    34771.879    -11304.39   -489.97823    1421.8332   -2453.6605    76.813593 
    9600     525.2804   -107.12204   0.47528475   -106.64676    20658.439    4.2373213    4.2373213    4.2373213    20658.439    15935.362    36630.857    9409.0968   -7620.6868    8282.0198    2601.2621    76.080647 
    9700    536.42955   -107.14426   0.48537273   -106.65889   -4026.4033    4.2700622    4.2700622    4.2700622   -4026.4033   -29857.451    16294.621    1483.6201   -16771.247   -117.85346    3860.6929    77.857888 
    9800    1117.1381   -107.65838      1.01081   -106.64757   -2563.6727    4.2640957    4.2640957    4.2640957   -2563.6727   -12102.874    938.29336    3473.5629   -35.840744    3940.2802    7828.2763     77.53197 
    9900    687.85551   -107.26954   0.62238612   -106.64716    25197.087    4.2387253    4.2387253    4.2387253    25197.087    6042.9669    43001.906    26546.387   -8959.3779    9795.8252   -3996.3359    76.156297 
   10000    1001.2924   -107.56428   0.90599042   -106.65829   -12385.975    4.2635667    4.2635667    4.2635667   -12385.975   -32954.255   -7299.3886    3095.7171    -14998.31    2814.6608     2257.581     77.50312 
   10100    930.22661   -107.49311   0.84168859   -106.65142    8856.3891    4.2562054    4.2562054    4.2562054    8856.3891    -2783.587    31008.896   -1656.1421    10874.989    5732.1351    5285.3021    77.102372 
   10200      358.272   -106.97486   0.32417204   -106.65069    18953.323    4.2403552    4.2403552    4.2403552    18953.323    3070.9742      35208.1    18580.895   -12957.405    2530.4395   -7563.3823    76.244184 
   10300    820.12863   -107.39516   0.74206962   -106.65309   -23961.684    4.2662311    4.2662311    4.2662311   -23961.684   -27780.321   -26994.688   -17110.042   -11643.573    4388.3556    5342.9571    77.648511 
   10400    762.38434   -107.33981   0.68982137   -106.64999    27094.288    4.2469295    4.2469295    4.2469295    27094.288    9582.3734    45013.638    26686.853    2025.7875    5350.7075    602.74336     76.59936 
   10500    851.63645    -107.4289   0.77057856   -106.65832   -9513.7116    4.2470217    4.2470217    4.2470217   -9513.7116   -11034.656   -12141.777   -5364.7014   -22309.237    3965.8458   -1214.3311    76.604353 
   10600    854.22448   -107.42742   0.77292026    -106.6545   -4642.2086    4.2637656    4.2637656    4.2637656   -4642.2086   -23678.179    4822.3782    4929.1755   -11459.838   -1252.9582    2009.6447    77.513967 
   10700    1045.4023   -107.59191     0.945902   -106.64601    10917.158    4.2446333    4.2446333    4.2446333    10917.158    7200.1928    9949.3831    15601.899    2906.5793   -2973.2084    6441.5644    76.475182 
   10800    471.16575   -107.08207   0.42632067   -106.65575   -19057.237    4.2583092    4.2583092    4.2583092   -19057.237    -26768.38   -16795.548   -13607.781   -27412.584    4250.4698    1224.7721    77.216758 
   10900    796.96092   -107.37084   0.72110699   -106.64974   -2618.2703    4.2542535    4.2542535    4.2542535   -2618.2703   -2727.9021   -2344.2098   -2782.6992   -12650.539   -3508.2924   -8907.6579    76.996341 
   11000     678.1111   -107.26592   0.61356917   -106.65235    13574.894    4.2522609    4.2522609    4.2522609    13574.894    12387.727    22626.776    5710.1796    3723.4053    1510.4465    5546.8403    76.888202 
   11100    701.73168   -107.28536   0.63494157   -106.65042   -30589.845    4.2679018    4.2679018    4.2679018   -30589.845   -32164.869   -28652.081   -30952.586   -27868.672    2624.8207   -6047.5296    77.739772 
   11200    1157.9485    -107.6883    1.0477362   -106.64056    22302.873    4.2376332    4.2376332    4.2376332    22302.873    23094.054    24910.465    18904.099    5672.9853   -4914.0133   -15310.755    76.097449 
   11300    926.77262   -107.49417   0.83856335   -106.65561    1029.0558    4.2511876    4.2511876    4.2511876    1029.0558   -12448.345    10023.304    5512.2087   -4205.3949     1845.253     15311.36    76.829995 
   11400    766.56916    -107.3472   0.69360788   -106.65359   -37843.401    4.2703332    4.2703332    4.2703332   -37843.401   -47541.501   -45393.069   -20595.632   -23379.284   -1830.9674    4035.0789    77.872712 
   11500    891.58081   -107.44811   0.80672105   -106.64139    19921.164    4.2408222    4.2408222    4.2408222    19921.164    9061.3031    43371.104    7331.0848    10483.434   -518.72045    2053.7336    76.269376 
   11600    643.63664   -107.23529   0.58237596   -106.65292   -10381.393    4.2566441    4.2566441    4.2566441   -10381.393   -15108.955   -13736.919   -2298.3049    -13815.65    5426.6498    5154.9786    77.126213 
   11700    757.20191   -107.33586    0.6851322   -106.65072   -23164.299    4.2599899    4.2599899    4.2599899   -23164.299   -28267.283   -23345.426   -17880.188   -15190.045   -2060.0541    1482.1409    77.308225 
   11800    1007.8078   -107.55504   0.91188568   -106.64315    15081.194      4.24457      4.24457      4.24457    15081.194    24141.223    21468.648   -366.28741     2703.285    1831.6325    8070.1401     76.47176 
   11900    681.16106   -107.26914   0.61632884   -106.65281   -3508.8015    4.2610503    4.2610503    4.2610503   -3508.8015    19698.151   -21852.619   -8371.9365   -13699.703    6842.1594     1770.548    77.365974 
   12000     916.7755   -107.47751   0.82951774     -106.648   -3889.6903    4.2523481    4.2523481    4.2523481   -3889.6903    15306.244   -29163.144    2187.8294   -13255.934   -3934.7317   -8681.5613    76.892933 
   12100    765.09191   -107.33899   0.69227123   -106.64672    16321.724    4.2524023    4.2524023    4.2524023    16321.724    43743.498    10821.741   -5600.0661   -1803.9567    1427.0593   -1198.4833    76.895872 
   12200    512.48099   -107.11294   0.46370357   -106.64924   -14652.272     4.265634     4.265634     4.265634   -14652.272    -9177.664   -28963.522   -5815.6309   -17347.721    11052.587    10255.792    77.615915 
   12300    842.92187    -107.4056   0.76269342    -106.6429    7970.1284    4.2400751    4.2400751    4.2400751    7970.1284    11695.285    2587.5238    9627.5767   -17846.981    4104.4304   -3247.2523    76.229074 
   12400    912.54377   -107.47758   0.82568878   -106.65189   -1117.2379    4.2566769    4.2566769    4.2566769   -1117.2379     915.3619    9968.5783   -14235.654    8280.2743    1273.8312   -780.25494    77.127996 
   12500    665.96634   -107.24986   0.60258034   -106.64728   -25695.962    4.2719699    4.2719699    4.2719699   -25695.962   -44710.979   -32548.811    171.90302   -21494.943    10092.769    6662.0796    77.962286 
   12600    1047.4367   -107.58079   0.94774273   -106.63305    17816.183    4.2319397    4.2319397    4.2319397    17816.183    -2801.496    9124.8268    47125.219    -15157.38    4781.3404    2073.9521    75.791138 
   12700    978.37739   -107.53193   0.88525642   -106.64668    -7213.201    4.2556595    4.2556595    4.2556595    -7213.201   -16586.185   -11221.217    6167.7993    13367.023    3347.6885     14215.62    77.072708 
   12800    412.02488   -107.02108   0.37280877   -106.64827   -24003.528    4.2708086    4.2708086    4.2708086   -24003.528    -49560.67   -53253.408    30803.493   -24004.499    7781.4982   -405.17955    77.898723 
   12900    992.45958   -107.53355   0.89799828   -106.63555    18896.948       4.2316       4.2316       4.2316    18896.948    4384.2049    6193.3346    46113.305   -8014.0173    -4441.467   -4067.8101    75.772887 
   13000    974.63808      -107.53   0.88187302   -106.64813   -9739.6863    4.2526368    4.2526368    4.2526368   -9739.6863    -18783.32   -6818.2464   -3617.4929    7312.5512    1752.2329    13532.855    76.908594 
   13100    532.57594   -107.13295    0.4818859   -106.65107   -30211.966    4.2690458    4.2690458    4.2690458   -30211.966   -50564.423    -45408.65    5337.1753   -33034.324    4592.2031    -217.1108    77.802301 
   13200    1095.1158   -107.63201    0.9908838   -106.64112    16078.175    4.2341583    4.2341583    4.2341583    16078.175    9771.5861    16243.001    22219.939   -4075.2236   -5547.9655   -3032.2617    75.910398 
   13300    861.64751   -107.43276   0.77963677   -106.65313   -6591.6785    4.2509816    4.2509816    4.2509816   -6591.6785   -13004.242    -26304.65    19533.856    3138.8153   -8340.1352   -1635.9953    76.818829 
   13400    429.75682   -107.04265   0.38885301   -106.65379    -25750.24    4.2674771    4.2674771    4.2674771    -25750.24   -33366.483   -60252.739    16368.501   -31842.029    6965.5546    10585.084    77.716566 
   13500    1047.6081   -107.58879   0.94789784   -106.64089    20236.305    4.2365754    4.2365754    4.2365754    20236.305    21751.629     25485.49    13471.797    2746.9725   -3595.3664   -4202.9785    76.040473 
   13600    784.74323   -107.36076   0.71005217   -106.65071   -5271.6032    4.2512878    4.2512878    4.2512878   -5271.6032   -11686.541   -17004.807    12876.537    -8894.333    3927.0068    7165.2471    76.835426 
   13700    696.78036   -107.28181   0.63046152   -106.65135   -23192.842    4.2643975    4.2643975    4.2643975   -23192.842   -34280.647   -25664.344   -9633.5358   -26434.235     5829.365    7985.0457    77.548433 
   13800     986.7604   -107.53562   0.89284155   -106.64278    22263.376    4.2370468    4.2370468    4.2370468    22263.376    13700.538     41177.23    11912.359    2817.7741   -4286.8116   -6349.1513    76.065859 
   13900    691.43476   -107.28005    0.6256247   -106.65443    -2575.035    4.2486759    4.2486759    4.2486759    -2575.035    -562.0942   -30818.406    23655.395   -17354.717    3733.7331    2434.3646    76.693896 
   14000    652.71977    -107.2398   0.59059456    -106.6492   -20210.442    4.2667232    4.2667232    4.2667232   -20210.442   -25978.564   -39570.968    4918.2054   -18859.173    3584.4778    495.28357    77.675386 
   14100    813.34412   -107.37752   0.73593085   -106.64159     16793.27    4.2405466    4.2405466    4.2405466     16793.27    15212.916    33383.472     1783.422    5590.2348   -8782.1313    -696.2208    76.254509 
   14200    785.17423   -107.35888   0.71044215   -106.64843    388.41114    4.2404639    4.2404639    4.2404639    388.41114     1718.007   -16018.466    15465.693   -17738.627   -1428.1987    1357.9753    76.250047 
   14300    903.09371   -107.46539   0.81713817   -106.64825   -11708.643    4.2662906    4.2662906    4.2662906   -11708.643    -27599.15   -1544.5064   -5982.2716   -9888.4944    4370.0068    3932.3867    77.651761 
   14400    981.64767   -107.53598   0.88821544   -106.64776     2398.213    4.2460024    4.2460024    4.2460024     2398.213    97.150996    31928.766   -24831.278    8657.6801    -5998.991   -2194.9894    76.549209 
   14500    613.20824   -107.20527    0.5548437   -106.65042    14671.751    4.2369536    4.2369536    4.2369536    14671.751    20045.526   -4137.6809     28107.41    -12592.55   -3354.3323    2304.9923    76.060841 
   14600     845.6659   -107.41241   0.76517628   -106.64723   -11393.129    4.2655843    4.2655843    4.2655843   -11393.129   -16317.817   -7537.8664   -10323.703   -6659.7618   -80.104014    5791.8495    77.613198 
   14700    671.23263   -107.25705   0.60734539   -106.64971    3342.9911    4.2484986    4.2484986    4.2484986    3342.9911    9544.2717    13227.252   -12742.551    2664.7767   -4605.3384   -8845.2563    76.684296 
   14800     701.1104   -107.28519   0.63437942   -106.65081    9867.2189    4.2340852    4.2340852    4.2340852    9867.2189    28244.759   -13347.886    14704.784   -17388.493   -5912.2215    5855.9156    75.906468 
   14900    1006.9205     -107.563   0.91108287   -106.65192   -4474.8454    4.2608144    4.2608144    4.2608144   -4474.8454   -15295.234     14865.96   -12995.262   -9882.2222   -2019.0068    2362.6752    77.353122 
   15000    803.92181   -107.38097   0.72740535   -106.65356    -7849.053    4.2549677    4.2549677    4.2549677    -7849.053    7095.4551     7630.927   -38273.541    1278.6669    -4714.827   -13417.326    77.035129 
   15100    752.73281   -107.32957   0.68108847   -106.64848    12806.719    4.2369448    4.2369448    4.2369448    12806.719    15857.974    9740.3403    12821.842   -13701.605   -6938.4653    9773.5808    76.060366 
   15200    869.08592   -107.43796    0.7863672   -106.65159    10861.445    4.2519991    4.2519991    4.2519991    10861.445   -65.992139    31810.993    839.33534   -5822.5366    6085.4504    -2926.332    76.874003 
   15300    747.16575    -107.3295   0.67605127   -106.65345   -18696.901      4.25867      4.25867      4.25867   -18696.901    7749.0357    -33452.89   -30386.849    1582.1141   -9580.5564   -15440.318    77.236387 
   15400    628.80497   -107.22185   0.56895595    -106.6529    10990.429    4.2416391    4.2416391    4.2416391    10990.429    10203.887   -1603.5459    24370.945   -12599.794   -1474.5876    9793.7793    76.313458 
   15500    1005.1822   -107.56131   0.90950995    -106.6518    4937.1943     4.245815     4.245815     4.245815    4937.1943    1774.8844    14769.659   -1732.9611   -627.64801    8866.8943    -7181.339    76.539073 
   15600    743.45239   -107.32617   0.67269135   -106.65347   -14926.837     4.261029     4.261029     4.261029   -14926.837    4745.1086   -12612.634   -36912.987    2564.4756   -6131.9966   -15324.053    77.364809 
   15700    820.15998   -107.38927   0.74209799   -106.64717    13934.493    4.2455236    4.2455236    4.2455236    13934.493    3378.3225     41108.13   -2682.9725   -9127.3741    1781.2441    9243.5082    76.523315 
   15800     955.7224   -107.51312   0.86475771   -106.64836    7380.8202    4.2431589    4.2431589    4.2431589    7380.8202    3869.6626    14431.937    3840.8609    -5385.754    5034.5749   -14390.843    76.395518 
   15900    708.04855   -107.29425   0.64065721    -106.6536    -9114.798    4.2566589    4.2566589    4.2566589    -9114.798    9451.5727   -18720.329   -18075.637    935.28862   -1344.2613   -12192.742    77.127017 
   16000    756.28249   -107.33217   0.68430029   -106.64787    10462.301    4.2506822    4.2506822    4.2506822    10462.301    3367.8142    11605.812    16413.277    -8513.894   -1215.5453     8056.105    76.802599 
   16100    831.64625    -107.4006     0.752491   -106.64811   -5021.0193    4.2473628    4.2473628    4.2473628   -5021.0193   -6411.4701   -9212.7705     561.1827    1053.7805    5928.0261   -16669.516    76.622812 
   16200    749.36482   -107.32861   0.67804104   -106.65057    1442.8414    4.2502321    4.2502321    4.2502321    1442.8414     25463.18    -5371.224   -15763.432    -3151.928   -5768.6446   -7232.9037    76.778203 
   16300    780.61214   -107.35465   0.70631427   -106.64833    5961.4574    4.2533016    4.2533016    4.2533016    5961.4574   -6530.0519    27389.082   -2974.6577    -7423.423   -2667.3473    7220.9111    76.944672 
   16400    780.38851   -107.35654   0.70611193   -106.65043   -8952.4036    4.2492349    4.2492349    4.2492349   -8952.4036   -4954.6788    3588.9956   -25491.527    3181.3304    15004.719   -16251.068    76.724176 
   16500    904.67292   -107.46724   0.81856707   -106.64868    17042.088    4.2433599    4.2433599    4.2433599    17042.088    21213.768    10592.739    19319.757   -245.99715   -9734.1837   -3784.5625    76.406374 
   16600    842.93983   -107.41393   0.76270967   -106.65122     6843.782    4.2556553    4.2556553    4.2556553     6843.782    -7063.383     18111.62     9483.109   -1946.9012    5167.7774    5747.5188    77.072477 
   16700    715.53804   -107.30032   0.64743386   -106.65288   -10803.159    4.2544808    4.2544808    4.2544808   -10803.159   -14275.969    -18236.05    102.54163   -2036.8959    15889.745   -20210.417    77.008683 
   16800    982.35902   -107.53422   0.88885909   -106.64537     15188.77    4.2422199    4.2422199    4.2422199     15188.77     33289.82     -4407.34     16683.83   -1085.7675   -8294.5458   -3130.7789    76.344812 
   16900    623.88043   -107.21601   0.56450012   -106.65151    2640.3886    4.2533564    4.2533564    4.2533564    2640.3886   -12625.819    22113.188   -1566.2037    3344.6842    6696.2451    3964.0849    76.947641 
   17000    565.22361   -107.16435    0.5114262   -106.65293   -14171.452     4.255859     4.255859     4.255859   -14171.452   -9535.6877   -1776.1962   -31202.473   -1966.6166    11679.425   -24467.402    77.083549 
   17100    1075.1061   -107.61763   0.97277862   -106.64486    19583.677    4.2426254    4.2426254    4.2426254    19583.677     22058.83    5659.3558    31032.846   -19.554899   -2698.0461    3324.6051    76.366707 
   17200    784.87128    -107.3634   0.71016803   -106.65323     5684.844    4.2496721    4.2496721    4.2496721     5684.844    -5550.875    25641.058   -3035.6512    3239.3021    6018.7661    675.58254    76.747856 
   17300    710.11958   -107.29935   0.64253112   -106.65682   -5846.9719    4.2552106    4.2552106    4.2552106   -5846.9719   -16240.196   -2296.1343    995.41464    2475.4099    9883.2859   -18436.674    77.048323 
   17400    1232.0609   -107.76164    1.1147946   -106.64685    10212.483    4.2491485    4.2491485    4.2491485    10212.483    22647.987     -10902.1    18891.563    866.61814   -2856.1673    7394.7667    76.719492 
   17500    695.04086   -107.28194   0.62888757   -106.65305   -3078.3032    4.2476151    4.2476151    4.2476151   -3078.3032   -10546.144    8640.2385   -7329.0041    4058.4562    11063.223   -10805.995    76.636467 
   17600    379.83517   -107.00281   0.34368284   -106.65913    2571.5909     4.253627     4.253627     4.253627    2571.5909    9214.7038    7919.4557   -9419.3867    1955.7856    11793.147   -14213.788    76.962332 
   17700    1013.3057   -107.56336   0.91686029    -106.6465    8156.5413    4.2528405    4.2528405    4.2528405    8156.5413     7773.308   -1478.0785    18174.394   -1903.7297   -11781.681     3644.221    76.919645 
   17800    662.67758   -107.25497    0.5996046   -106.65537   -2230.7567    4.2443014    4.2443014    4.2443014   -2230.7567    665.61319    7849.4186   -15207.302    4949.5236    12717.386   -17501.006    76.457245 
   17900    685.46824   -107.28183   0.62022607    -106.6616   -108.90157     4.253265     4.253265     4.253265   -108.90157   -11527.075    7219.0539    3981.3163   -2966.7348    13730.339   -16221.838    76.942682 
   18000    1237.2547   -107.76702    1.1194941   -106.64753    6341.8476    4.2557764    4.2557764    4.2557764    6341.8476    7149.5303   -464.40452    12340.417    686.89659   -8142.0143    3585.7218    77.079062 
   18100    891.86972   -107.46011   0.80698247   -106.65312   -3955.2882    4.2409704    4.2409704    4.2409704   -3955.2882   -961.03391   -7844.0082   -3060.8225    4903.3154    7962.7679   -6040.1703    76.277372 
   18200    538.44196   -107.14695    0.4871936   -106.65975    9233.4429    4.2518723    4.2518723    4.2518723    9233.4429   -1790.0321     12932.48    16557.881    205.53677    10169.136   -12890.384    76.867125 
   18300    947.50802   -107.50609   0.85732517   -106.64877   -7802.7321    4.2601905    4.2601905    4.2601905   -7802.7321     11702.62   -9064.4337   -26046.382    824.81808   -426.35181    1076.5484    77.319146 
   18400    454.83694   -107.06516   0.41154603   -106.65361    -9289.431    4.2445017    4.2445017    4.2445017    -9289.431    7519.0329   -13555.858   -21831.468    2794.2085    12223.441   -17974.699    76.468073 
   18500     683.6475   -107.27352   0.61857863   -106.65494    4105.9763    4.2429071    4.2429071    4.2429071    4105.9763     2904.121    11463.388   -2049.5804    1504.4237    9808.5025    -5127.699    76.381921 
   18600    1037.1235   -107.58811   0.93841117    -106.6497    1938.0797    4.2590046    4.2590046    4.2590046    1938.0797    15992.541   -12369.951    2191.6492    1167.9553   -4367.6035    -2024.491    77.254597 
   18700    760.71567   -107.34313   0.68831152   -106.65482   -16481.878    4.2569991    4.2569991    4.2569991   -16481.878   -10893.261   -32013.748   -6538.6248    564.39422    15679.722   -30100.868    77.145515 
   18800    1024.1776   -107.57536   0.92669743   -106.64866    17412.181    4.2338646    4.2338646    4.2338646    17412.181    8618.9942    14702.839    28914.711    717.37427    18401.922    2429.3266    75.894601 
   18900    922.94188   -107.49066   0.83509721   -106.65556    5565.3368    4.2525472    4.2525472    4.2525472    5565.3368    20081.853    351.15186   -3736.9949   -4906.5188   -12304.904    1568.7327    76.903736 
   19000    446.26804   -107.05857    0.4037927   -106.65478   -34206.092    4.2674642    4.2674642    4.2674642   -34206.092   -20034.021   -32209.183   -50375.072     2482.688    15523.312   -24887.106    77.715863 
   19100    848.55585   -107.41019   0.76779116   -106.64239    14669.356    4.2274571    4.2274571    4.2274571    14669.356    22751.238    21123.001    133.82903    2455.8265    10899.029    261.65742    75.550548 
   19200    710.87704   -107.29955   0.64321649   -106.65633     9742.914    4.2492212    4.2492212    4.2492212     9742.914    17470.786   -2326.7255    14084.682   -1887.8462   -9461.5629   -2505.7675     76.72343 
   19300    558.08684   -107.15396    0.5049687     -106.649    -31576.98    4.2731591    4.2731591    4.2731591    -31576.98   -22091.727   -35325.183   -37314.031    5174.5681    12992.513   -21450.511    78.027411 
   19400    1172.0789   -107.69614    1.0605216   -106.63562      27610.1    4.2220305    4.2220305    4.2220305      27610.1    12562.674    29043.886    41223.739    3842.7453    -3162.446    5258.4001    75.259983 
   19500    764.03953    -107.3483   0.69131902   -106.65698    10173.994    4.2454403    4.2454403    4.2454403    10173.994    26790.178   -756.76416    4488.5671     321.0646   -4928.7686   -2268.6208    76.518811 
   19600    675.88288   -107.25593   0.61155304   -106.64437   -38729.579    4.2730824    4.2730824    4.2730824   -38729.579   -26182.672   -34000.854    -56005.21    5579.4811    11842.484   -20235.565    78.023207 
   19700    998.21425   -107.53918   0.90320523   -106.63598    20010.013    4.2250759    4.2250759    4.2250759    20010.013    22188.219    29475.161    8366.6586    2489.7499   -2307.7173    9370.5476    75.422955 
   19800    672.61749   -107.26367   0.60859844   -106.65507    2111.7484    4.2458644    4.2458644    4.2458644    2111.7484    14983.795     -5527.12   -3121.4295   -1230.6724   -5708.7923   -3161.6671    76.541744 
   19900    698.39655    -107.2784   0.63192388   -106.64648   -26051.311     4.267067     4.267067     4.267067   -26051.311   -15881.515   -33631.953   -28640.464    6781.0377    6591.3351   -23146.846    77.694162 
   20000    990.81367   -107.53505   0.89650903   -106.63854    24280.792    4.2305335    4.2305335    4.2305335    24280.792    10518.482    21232.731    41091.162    4609.8583    4846.2273    7010.6019    75.715609 
   20100    699.95858   -107.28776   0.63333724   -106.65442   -1472.6818    4.2476618    4.2476618    4.2476618   -1472.6818    6423.9988   -10272.971   -569.07294    114.20185   -3846.9038   -6380.7885    76.638994 
   20200    689.29093   -107.27652   0.62368492   -106.65284   -8557.7051    4.2587291    4.2587291    4.2587291   -8557.7051    11274.851   -21948.294   -14999.672    4155.9408    3487.0986   -16620.793    77.239606 
   20300    1015.9112   -107.56506   0.91921777   -106.64584    6405.9183    4.2444552    4.2444552    4.2444552    6405.9183   -4980.0283    16254.936    7942.8474    12258.399    5831.8884    3774.9903    76.465557 
   20400    678.65569   -107.26631   0.61406193   -106.65225    5494.8948    4.2465368    4.2465368    4.2465368    5494.8948    24445.085   -2025.5662   -5934.8348   -2207.5524    -9044.338   -13834.781    76.578114 
   20500    885.90764   -107.45474   0.80158785   -106.65316   -2207.0988    4.2482017    4.2482017    4.2482017   -2207.0988    17430.511   -16203.921   -7847.8866     5153.431    5320.6247   -11965.709    76.668219 
   20600    855.46361   -107.42703   0.77404145   -106.65299    1954.6995    4.2559984    4.2559984    4.2559984    1954.6995   -2153.7451   -12373.912    20391.756    7567.9676   -2297.2985    3452.9389    77.091123 
   20700    802.93822   -107.38086   0.72651537   -106.65435   -1747.6226    4.2442799    4.2442799    4.2442799   -1747.6226    14070.403   -19772.224     458.9531   -4718.6356   -13034.522   -12179.628    76.456087 
   20800    595.07379   -107.19351   0.53843528   -106.65508    21149.377     4.238073     4.238073     4.238073    21149.377    42661.914   -9726.8432    30513.061    9272.8756    10038.767   -12146.409    76.121143 
   20900    814.04569   -107.38876   0.73656565    -106.6522   -14186.539    4.2652422    4.2652422    4.2652422   -14186.539    -28431.96   -21891.036    7763.3795    496.17288    -7488.064    6405.4389    77.594526 
   21000    735.03222   -107.31919    0.6650726   -106.65412    8907.6777     4.242292     4.242292     4.242292    8907.6777    18622.477    1772.1012    6328.4545   -2099.5276   -4940.3545   -17034.629    76.348703 
   21100    927.43648   -107.49204   0.83916402   -106.65287    11146.052    4.2306255    4.2306255    4.2306255    11146.052     17040.39   -393.41311    16791.179    12260.427    2993.4415   -15437.366    75.720551 
   21200    903.90112   -107.46811   0.81786873   -106.65024   -21678.129    4.2696285    4.2696285    4.2696285   -21678.129   -27942.949   -33771.918   -3319.5213    9090.3225   -7898.2751     4663.788    77.834166 
   21300    906.81196   -107.47009   0.82050252   -106.64959   -940.56738    4.2437964    4.2437964    4.2437964   -940.56738    20796.713    -14533.33    -9085.085   -1998.1413    1875.1257   -21347.173    76.429959 
   21400    771.63629   -107.34521   0.69819273   -106.64702    13315.401    4.2315851    4.2315851    4.2315851    13315.401    30233.076   -10996.238    20709.364    9060.1623   -2704.6679   -8321.9487    75.772083 
   21500    725.44935   -107.30339   0.65640182   -106.64699   -22944.836    4.2659794    4.2659794    4.2659794   -22944.836   -30407.626   -41058.164    2631.2819    7221.0213    1950.0776    1542.5823    77.634771 
   21600    745.06033   -107.32147   0.67414624   -106.64732    2081.7511    4.2447429    4.2447429    4.2447429    2081.7511    20100.248   -13170.915   -684.07937    -5321.116   -2264.9524   -18431.142    76.481109 
   21700    821.89487   -107.39125   0.74366775   -106.64758   -1924.1233    4.2387707    4.2387707    4.2387707   -1924.1233   -1169.5367   -15205.646    10602.813    11813.885    5639.8806   -4527.5324    76.158741 
   21800    806.80414   -107.37932   0.73001334   -106.64931   -16451.155     4.261768     4.261768     4.261768   -16451.155   -23907.124   -32927.783    7481.4416    -1857.125    2560.0436    5592.5977    77.405068 
   21900     930.0513   -107.48789   0.84152996   -106.64636    9774.7742    4.2436475    4.2436475    4.2436475    9774.7742     35804.48   -4789.2132   -1690.9439   -4811.4716   -4640.6931   -21489.434    76.421915 
   22000    821.50427   -107.39244   0.74331433   -106.64912    2791.4707    4.2422763    4.2422763    4.2422763    2791.4707    369.79699   -19420.578    27425.193    13992.738    16854.424   -5688.5848    76.347854 
   22100    607.05381   -107.20208   0.54927504    -106.6528   -8896.7752    4.2555039    4.2555039    4.2555039   -8896.7752   -21701.094   -37031.356    32042.124   -6479.6057   -3018.2351    6566.5602    77.064254 
   22200    802.44136   -107.37399    0.7260658   -106.64792   -208.83152     4.246552     4.246552     4.246552   -208.83152   -1086.1849   -8254.7795    8714.4699   -1662.9121   -459.95918   -16197.889    76.578938 
   22300    612.21401   -107.20682    0.5539441   -106.65287    -9514.015    4.2460195    4.2460195    4.2460195    -9514.015   -25888.319   -27098.173    24444.447    5600.8906    4450.0358    85.997766    76.550135 
   22400    700.30122   -107.28833   0.63364726   -106.65468   -8656.2859    4.2484062    4.2484062    4.2484062   -8656.2859   -18131.633   -26684.601    18847.377   -7725.7171   -2676.0204    6507.1857    76.679296 
   22500    1225.5423   -107.75656    1.1088964   -106.64767    2313.8876    4.2504446    4.2504446    4.2504446    2313.8876    24555.068   -5775.4095   -11837.995    1888.4541    5116.7171   -6385.5696    76.789721 
   22600     738.6755   -107.32326   0.66836912   -106.65489   -6606.9446    4.2502682    4.2502682    4.2502682   -6606.9446   -9858.2112   -28989.714    19027.092   -4225.4312   -2433.0627    1429.0268    76.780161 
   22700    690.89622   -107.27997   0.62513742   -106.65483   -586.58029    4.2417981    4.2417981    4.2417981   -586.58029    2896.7879   -26239.364    21582.835   -14566.322    7022.3766    5392.5024    76.322043 
   22800    977.48467   -107.53329   0.88444867   -106.64884   -8015.7872     4.258037     4.258037     4.258037   -8015.7872   -802.99845   -17726.791   -5517.5719    2799.2559   -2903.3385   -10139.463    77.201956 
   22900    511.04655   -107.11915   0.46240566   -106.65675   -19166.565    4.2504577    4.2504577    4.2504577   -19166.565   -40487.799   -32336.585     15324.69   -10577.312    4737.1329    1345.6134     76.79043 
   23000    714.40012   -107.30207   0.64640424   -106.65567    6298.7436    4.2322241    4.2322241    4.2322241    6298.7436    5559.9679   -17415.269    30751.532   -15540.858    1385.4184    5878.7343    75.806417 
   23100    1188.3147     -107.728    1.0752121   -106.65279    3775.5513    4.2555571    4.2555571    4.2555571    3775.5513     6360.221    -1759.983    6726.4159    2003.2628   -7055.5211   -1415.9511    77.067146 
   23200    840.42553   -107.42006   0.76043468   -106.65962   -2535.8554    4.2491518    4.2491518    4.2491518   -2535.8554   -18002.298   -25054.625    35449.357   -9874.1535    9093.6064    3141.0666    76.719672 
   23300    711.03203    -107.2983   0.64335672   -106.65495    11530.607    4.2374631    4.2374631    4.2374631    11530.607    14362.269   -13944.957    34174.508   -2310.3656   -4767.6334    10489.991    76.088283 
   23400    883.37854   -107.45007   0.79929947   -106.65077    -1736.988    4.2522805    4.2522805    4.2522805    -1736.988   -4421.1401   -7442.1873    6652.3634    505.25912   -7433.9172    4602.0231    76.889266 
   23500    424.21639   -107.03856   0.38383991   -106.65472    3763.6451    4.2472183    4.2472183    4.2472183    3763.6451   -20609.544   -24918.571     56819.05   -16937.664    579.88258    232.95961    76.614989 
   23600    815.50841    -107.3895   0.73788914   -106.65161   -11645.948     4.246634     4.246634     4.246634   -11645.948    -4875.287    -28511.33   -1551.2282    3601.8113    908.53193    10381.255    76.583376 
   23700    857.21805   -107.42564    0.7756289   -106.65001    10137.305    4.2448947    4.2448947    4.2448947    10137.305     12881.66    1991.9946    15538.261    634.30282   -12227.547   -98.949156    76.489312 
   23800    940.79159   -107.50478     0.851248   -106.65353    1658.6676    4.2457128    4.2457128    4.2457128    1658.6676    -3431.846   -12006.143    20413.992   -18448.278    8122.3815   -1551.1897    76.533549 
   23900    920.60372   -107.48698    0.8329816   -106.65399   -5120.2116    4.2536033    4.2536033    4.2536033   -5120.2116    372.45218   -25226.929    9493.8421    4050.0394    5367.9003    4238.8802    76.961045 
   24000     759.9888   -107.34194   0.68765384   -106.65429    6505.4467     4.240805     4.240805     4.240805    6505.4467    3935.5303    1856.3385    13724.471   -2808.5856   -18701.397   -9869.4704    76.268447 
   24100    592.74205   -107.19266   0.53632546   -106.65634   -2224.8476     4.246302     4.246302     4.246302   -2224.8476   -25287.165   -10078.059    28690.681   -9655.5479    5632.7242   -2184.6153    76.565416 
   24200    776.54343   -107.35207   0.70263282   -106.64944   -13454.149    4.2547009    4.2547009    4.2547009   -13454.149   -19444.793   -28971.241    8053.5884    7572.9596    -2994.414    58.105218    77.020639 
   24300    738.37861   -107.31932   0.66810049   -106.65122   -4138.5943    4.2407181    4.2407181    4.2407181   -4138.5943   -6558.1146   -7573.5706    1715.9021   -8925.6134   -15382.855   -14408.936     76.26376 
   24400    805.12753   -107.38534   0.72849631   -106.65684    5515.9796    4.2450696    4.2450696    4.2450696    5515.9796   -9590.9715   -3046.0955    29185.006   -7998.2419   -1704.3665   -3539.3168    76.498766 
   24500     1236.705   -107.77113    1.1189966   -106.65213   -8289.5348     4.250861     4.250861     4.250861   -8289.5348    1940.3233   -18027.174   -8781.7541    8407.0303    7540.1793   -466.53035     76.81229 
   24600    768.57439   -107.35088   0.69542226   -106.65546    1713.2661     4.244283     4.244283     4.244283    1713.2661    2612.1307   -8959.0944    11486.762   -6887.8497   -10143.221   -18019.916    76.456254 
   24700    768.56037   -107.34906   0.69540958   -106.65365     3553.899    4.2450665    4.2450665    4.2450665     3553.899   -17305.362   -275.00504    28242.064   -8379.3088   -1391.8194    117.46586    76.498601 
   24800    891.83991   -107.45567   0.80695549   -106.64871   -4095.2755    4.2480704    4.2480704    4.2480704   -4095.2755   -10275.676   -10152.707    8142.5566    4969.1551    1714.9951     845.5247    76.661113 
   24900    373.62136   -106.99454   0.33806045   -106.65648    -8138.841     4.249434     4.249434     4.249434    -8138.841   -14158.566   -28094.022    17836.065   -6677.2387   -12886.554   -18527.552     76.73496 
   25000    814.27396   -107.38904   0.73677219   -106.65226     3081.219    4.2441917    4.2441917    4.2441917     3081.219   -5911.1297   -2241.1915    17395.978   -1763.8151    2944.3651   -562.21785     76.45132 
   25100    1009.4949    -107.5642   0.91341223   -106.65079    8823.9342    4.2433572    4.2433572    4.2433572    8823.9342    21856.775   -6062.0651    10677.092    6080.0161    -5108.865   -1271.1735    76.406228 
   25200    563.35705   -107.16897    0.5097373   -106.65923   -3607.5451    4.2527957    4.2527957    4.2527957   -3607.5451    10270.582   -28234.851    7141.6343   -10952.329   -16795.345   -18727.786    76.917219 
   25300     1145.651   -107.68786    1.0366091   -106.65125    1367.1798    4.2445162    4.2445162    4.2445162    1367.1798   -1871.3557   -4493.6403    10466.535     570.6193    4135.4234   -3138.0206    76.468856 
   25400    870.92051   -107.44051   0.78802718   -106.65248    13741.225    4.2419188    4.2419188    4.2419188    13741.225    12338.664   -1409.4878    30294.499    5252.5297   -564.90319   -3111.5565    76.328555 
   25500    476.06954   -107.09277   0.43075773   -106.66201   -20205.131    4.2513755    4.2513755    4.2513755   -20205.131   -13814.389   -31432.207   -15368.797   -6483.2862   -17996.099   -24889.876    76.840184 
   25600    797.17358   -107.37763   0.72129941   -106.65633    7399.1666    4.2414004    4.2414004    4.2414004    7399.1666   -7073.0527   -9042.7453    38313.298    3519.2736    3566.3465    2156.3692    76.300578 
   25700    858.18286    -107.4309   0.77650189    -106.6544   -2833.6496    4.2490573    4.2490573    4.2490573   -2833.6496    5952.7837   -16471.374    2017.6418   -1086.5521    3695.6626   -4369.1794    76.714552 
   25800    468.69293   -107.08113   0.42408322   -106.65705   -22817.876    4.2560192    4.2560192    4.2560192   -22817.876   -9771.3961    -39422.54   -19259.691   -5045.3617   -16766.737   -19659.964    77.092254 
   25900    1001.6549   -107.55488   0.90631837   -106.64856    17716.018    4.2348429    4.2348429    4.2348429    17716.018    8623.4135    2556.3669    41968.274    3022.3707    3511.1718    2750.3627    75.947226 
   26000    1091.3581    -107.6422   0.98748374   -106.65472   -2916.1493     4.246136     4.246136     4.246136   -2916.1493     4303.876    5.4183518   -13057.742    2313.6462     3588.012   -11560.492    76.556434 
   26100    513.17199   -107.12389    0.4643288   -106.65956   -15639.144    4.2578178    4.2578178    4.2578178   -15639.144   -18728.079   -23821.216   -4368.1381   -7752.3785   -12490.169   -23433.947    77.190033 
   26200    1120.0918   -107.65936    1.0134826   -106.64588    15088.046    4.2382055    4.2382055    4.2382055    15088.046    8765.6215    12933.028    23565.488   -2443.1932   -7545.1104    6215.1225    76.128283 
   26300    898.21533    -107.4651   0.81272411   -106.65238   -1614.1147    4.2467768    4.2467768    4.2467768   -1614.1147    8830.6131   -1463.8546   -12209.103    5668.5998    -2451.741     -8114.19    76.591098 
   26400    476.05844   -107.08776   0.43074768   -106.65701   -15166.578    4.2532407    4.2532407    4.2532407   -15166.578   -10893.739   -32656.763   -1949.2319   -9840.0773   -16376.674   -18979.697    76.941366 
   26500    923.65259   -107.48591   0.83574028   -106.65017    14420.071    4.2392026    4.2392026    4.2392026    14420.071    27954.314    2721.4244    12584.476   -1945.8832   -1885.6816     4296.704    76.182025 
   26600    788.92274    -107.3688   0.71383388   -106.65496    5529.0133    4.2438405    4.2438405    4.2438405    5529.0133    23265.578    12014.132    -18692.67    6420.3525    4142.0424    -9155.986    76.432341 
   26700    513.35791   -107.12336   0.46449702   -106.65886    1055.9513    4.2514491    4.2514491    4.2514491    1055.9513    20875.436   -6304.8105   -11402.772   -14596.492   -12020.453   -10001.948    76.844174 
   26800    1011.9686   -107.56611   0.91565049   -106.65046    11314.743    4.2453067    4.2453067    4.2453067    11314.743    26195.269    14088.289   -6339.3291   -7210.1988    5607.0535    3629.6213    76.511587 
   26900    875.58034     -107.445   0.79224349   -106.65275    9653.5793    4.2420309    4.2420309    4.2420309    9653.5793    17390.216    20986.238   -9415.7161    1758.6388    9581.1782   -13423.968     76.33461 
   27000    742.07087    -107.3269   0.67144132   -106.65546   -2014.8307    4.2483847    4.2483847    4.2483847   -2014.8307    7112.4334   -21871.205    8714.2795   -11134.457   -13472.244   -4775.3271    76.678131 
   27100    982.92249   -107.54094   0.88936892   -106.65157   -5691.0534    4.2477464    4.2477464    4.2477464   -5691.0534   -14902.809   -672.21399   -1498.1369   -8172.4138    5311.9826    3440.3025    76.643573 
   27200    831.31757    -107.4051   0.75219361    -106.6529   -461.39498    4.2428078    4.2428078    4.2428078   -461.39498    1226.9973    6776.4261   -9387.6084    1448.0072    7564.6874   -16717.646    76.376559 
   27300    617.46328   -107.21392   0.55869375   -106.65523    -3369.731    4.2483496    4.2483496    4.2483496    -3369.731    2571.2555   -9851.3342   -2829.1143   -10420.834   -14811.547   -5267.9808    76.676229 
   27400    875.61329   -107.44342    0.7922733   -106.65115   -5412.3199    4.2470063    4.2470063    4.2470063   -5412.3199   -9082.8502    9891.4926   -17045.602   -9558.3136    2015.7927    1002.5893    76.603519 
   27500    867.71124   -107.43625   0.78512336   -106.65113    4950.8259    4.2439434    4.2439434    4.2439434    4950.8259     20380.23     14887.73   -20415.483     5113.565    5014.2369    -11838.21    76.437902 
   27600    722.44932   -107.30714   0.65368733   -106.65345   -7839.8607    4.2509897    4.2509897    4.2509897   -7839.8607    -1707.473    -24409.52    2597.4114    -16669.54   -13488.523   -4016.6678    76.819269 
   27700    871.58766   -107.44086   0.78863083   -106.65222    -2413.259    4.2451563    4.2451563    4.2451563    -2413.259   -4054.6431   -1216.6776   -1968.4564   -9227.4455    9067.8787    -205.2205    76.503455 
   27800    1054.6387    -107.6035   0.95425924   -106.64925    9549.1525    4.2408202    4.2408202    4.2408202    9549.1525    24575.088    4004.6476    67.721593    10117.625    7050.7464   -3971.2818    76.269269 
   27900    505.62882   -107.11475   0.45750358   -106.65724    -12165.06    4.2512491    4.2512491    4.2512491    -12165.06   -27859.204   -23953.848    15317.872   -21096.057   -8967.9969   -1617.1347    76.833333 
   28000    651.49933   -107.24545   0.58949028   -106.65596   -1651.6002    4.2400907    4.2400907    4.2400907   -1651.6002   -14410.588    9725.4432   -269.65631    -10232.36     6240.194    737.43648    76.229913 
   28100    1056.3151   -107.60698   0.95577613   -106.65121   -656.43604    4.2428809    4.2428809    4.2428809   -656.43604    3707.6532    11287.021   -16963.983    7437.6569    2423.9497   -3848.6587    76.380503 
   28200    417.91513   -107.03729    0.3781384   -106.65915   -22538.349    4.2539086    4.2539086    4.2539086   -22538.349   -36996.815   -29478.105   -1140.1262    -25173.55   -8716.5167    145.01404    76.977615 
   28300    808.83755   -107.38716   0.73185321    -106.6553    8270.6621    4.2348006    4.2348006    4.2348006    8270.6621    6516.5388    10749.607    7545.8401   -4368.1906    823.10832    989.60469    75.944952 
   28400    1290.3432   -107.82057    1.1675296   -106.65305    2248.5525    4.2461403    4.2461403    4.2461403    2248.5525    11999.269     1991.428   -7245.0397   -1738.1273   -6015.9936   -1104.2463    76.556668 
   28500    527.16851   -107.14214   0.47699315   -106.66515   -9008.5002    4.2502161    4.2502161    4.2502161   -9008.5002   -20447.161   -29003.824    22425.485   -23802.756   -11972.912    2567.1918    76.777338 
   28600     918.9792   -107.48921   0.83151169    -106.6577     11038.76    4.2374365    4.2374365    4.2374365     11038.76    11702.033    4931.4012    16482.845    1854.4046     6999.706    6482.4567    76.086849 
   28700     1073.799   -107.62316   0.97159594   -106.65157   -9985.7412    4.2529747    4.2529747    4.2529747   -9985.7412   -5566.1338   -11298.343   -13092.747   -5612.1188    1832.8097    150.31698    76.926928 
   28800    292.31261   -106.92505    0.2644906   -106.66056    186.17199    4.2409989    4.2409989    4.2409989    186.17199   -7124.3281   -15588.916     23271.76   -29831.724   -13311.769    659.44487    76.278911 
   28900    804.77694   -107.38388   0.72817909    -106.6557    1967.0473    4.2404413    4.2404413    4.2404413    1967.0473     17530.02    1615.6426   -13244.521    6539.6519   -1113.3844    3686.5435    76.248825 
   29000    984.43503    -107.5417    0.8907375   -106.65096   -14915.456    4.2527842    4.2527842    4.2527842   -14915.456   -6755.3984   -10474.037   -27516.931   -6666.2217     8563.936   -3055.6853    76.916592 
   29100    533.69439   -107.13902    0.4828979   -106.65612      11746.7    4.2346042    4.2346042    4.2346042      11746.7    5728.5037    -4546.799    34058.395   -27460.195   -13856.652     1422.225    75.934382 
   29200    1032.1106   -107.58889   0.93387536   -106.65501    1476.8566    4.2478832    4.2478832    4.2478832    1476.8566    15896.312   -10666.216   -799.52653    11285.252   -7918.9764    2347.5743     76.65098 
   29300    1087.0059   -107.63591   0.98354579   -106.65236   -11335.075    4.2488565    4.2488565    4.2488565   -11335.075   -17875.547   -12124.847   -4004.8322   -8089.0555    6007.0556   -8765.1593     76.70368 
   29400    498.32317   -107.10506   0.45089328   -106.65416    21329.223    4.2320304    4.2320304    4.2320304    21329.223    22874.971    3849.1094     37263.59   -22014.712   -10311.418   -1096.4257    75.796011 
   29500    948.79812   -107.51041   0.85849248   -106.65192     -10183.4    4.2533681    4.2533681    4.2533681     -10183.4   -616.62722   -11742.959   -18190.613    8992.4655   -4591.2844    2579.8312    76.948281 
   29600    814.20692   -107.38928   0.73671153   -106.65256   -3381.6369    4.2437057    4.2437057    4.2437057   -3381.6369    10203.709    5287.7122   -25636.332   -12928.578    1337.6385     -5623.41    76.425058 
   29700    455.68979     -107.069   0.41231769   -106.65668    8477.1828    4.2389371    4.2389371    4.2389371    8477.1828    20230.953    1356.9235    3843.6718   -15630.227   -16724.144   -2094.9782    76.167714 
   29800     1057.175   -107.60449   0.95655414   -106.64794   -5843.1061    4.2519737    4.2519737    4.2519737   -5843.1061    3422.7049   -5862.6731    -15089.35      7172.06   -1791.0272   -3222.0191    76.872624 
   29900    918.83747   -107.48234   0.83138345   -106.65096    16583.346    4.2331621    4.2331621    4.2331621    16583.346    22552.661    15236.483    11960.895   -13477.469    7687.3983   -2316.7723    75.856831 
   30000    577.16359   -107.18465   0.52222975   -106.66242    1158.0018    4.2481366    4.2481366    4.2481366    1158.0018   -7394.7942    -8324.168    19192.968   -14279.262   -13640.158    2177.6565    76.664699 
   30100    1146.3144   -107.68921    1.0372094     -106.652    624.90718    4.2478858    4.2478858    4.2478858    624.90718    -2915.511    2412.7512    2377.4814    2805.4994    547.00192   -1134.7478     76.65112 
   30200    733.27626   -107.31737   0.66348377   -106.65388    22424.534    4.2261598    4.2261598    4.2261598    22424.534    29582.764     26167.55    11523.288   -10435.957    893.17934   -10705.195    75.481017 
   30300    466.43351   -107.08394   0.42203885    -106.6619   -23862.653    4.2590679    4.2590679    4.2590679   -23862.653   -28894.813   -21358.309   -21334.837   -14402.672   -17891.789    1418.4913    77.258038 
   30400    1072.8708   -107.62205   0.97075601    -106.6513    10295.435    4.2414562    4.2414562    4.2414562    10295.435    27551.787    12556.466   -9221.9478    1552.8174    360.57231    2684.0079    76.303588 
   30500    742.86515   -107.32355      0.67216   -106.65139    18359.848    4.2233713    4.2233713    4.2233713    18359.848    19808.995    29406.125    5864.4238   -9305.7514   -7989.4616   -8279.5996    75.331706 
   30600    546.72099   -107.14963   0.49468464   -106.65494   -32429.379    4.2632879    4.2632879    4.2632879   -32429.379   -40634.258   -28301.116   -28352.764   -15395.156   -20243.526    1298.2373    77.487918 
   30700    1150.9626   -107.69121    1.0414152    -106.6498    17382.768    4.2340025    4.2340025    4.2340025    17382.768     26296.43    16112.364    9739.5092    1939.4391      4116.35    6256.7001    75.902017 
   30800    747.16933   -107.33044   0.67605451   -106.65438    11449.253    4.2267466    4.2267466    4.2267466    11449.253   -10666.203    25976.495    19037.466   -11095.165   -425.04542   -442.00844    75.512464 
   30900    615.55908   -107.20744   0.55697079   -106.65047   -31830.938    4.2635441    4.2635441    4.2635441   -31830.938   -37275.681   -30484.896   -27732.237   -13169.459   -14419.787    4940.7942    77.501888 
   31000    986.58622   -107.53894   0.89268395   -106.64626    16798.376    4.2318903    4.2318903    4.2318903    16798.376    40697.663    14527.638   -4830.1722    2528.0293    1467.4669    13031.242    75.788479 
   31100    670.70669   -107.25884   0.60686951   -106.65197    3006.3922    4.2302103    4.2302103    4.2302103    3006.3922   -8984.7893    25859.348    -7855.382   -12477.849   -6940.7504   -3719.7093    75.698256 
   31200    695.43313     -107.279   0.62924251   -106.64976   -28258.247    4.2572269    4.2572269    4.2572269   -28258.247   -20041.425   -21328.891   -43404.424   -9678.6958   -9829.3371    6967.6106    77.157899 
   31300     959.8654   -107.51566   0.86850638   -106.64716    11430.658     4.234017     4.234017     4.234017    11430.658    34744.397     15884.57   -16336.992    6306.7389    723.77268    20721.339    75.902798 
   31400    782.43244   -107.36037   0.70796132   -106.65241   -2364.8653    4.2359641    4.2359641    4.2359641   -2364.8653    -26482.37    14745.987    4641.7873   -11566.044   -16886.209   -7165.2239    76.007563 
   31500    792.17163    -107.3686   0.71677353   -106.65183   -19533.028    4.2500005    4.2500005    4.2500005   -19533.028    -21865.62    -20753.73   -15979.733    -11262.19   -10000.933    7148.5046    76.765654 
   31600    870.25245   -107.43719   0.78742271   -106.64977    12581.385    4.2354447    4.2354447    4.2354447    12581.385    33333.096    11368.749   -6957.6902    4843.9781    7985.6599    23382.374    75.979606 
   31700    682.93919   -107.27178   0.61793773   -106.65385   -4923.8599    4.2418308    4.2418308    4.2418308   -4923.8599   -22999.207    6236.6019    1991.0257   -7603.5506   -14748.266   -3118.1117    76.323804 
   31800    654.83935    -107.2462    0.5925124   -106.65369   -11190.249     4.244397     4.244397     4.244397   -11190.249    794.44501   -4007.0599   -30358.132   -12634.064   -9602.1772      11730.2    76.462414 
   31900    904.26827    -107.4683   0.81820093    -106.6501    3250.3286    4.2385555    4.2385555    4.2385555    3250.3286     22455.69    15092.756    -27797.46    5574.8499    2686.9965    13674.427    76.147143 
   32000    762.58186   -107.34308    0.6900001   -106.65308   -9417.6229    4.2453727    4.2453727    4.2453727   -9417.6229   -28379.349    1405.1844   -1278.7039   -6148.6904   -10792.138   -6338.9326    76.515158 
   32100    818.48083   -107.39336   0.74057866   -106.65278   -1901.0486    4.2385117    4.2385117    4.2385117   -1901.0486    140.62201   -3271.8806   -2571.8872   -9858.8333   -4366.4008    17153.635    76.144786 
   32200    984.33083     -107.542   0.89064323   -106.65136    7499.7435    4.2388377    4.2388377    4.2388377    7499.7435    15610.863    5226.5959     1661.771    4302.5673    2863.0616     11268.25    76.162354 
   32300    716.62154   -107.30384   0.64841423   -106.65543   -9884.6282    4.2461758    4.2461758    4.2461758   -9884.6282   -38387.857   -10792.211    19526.183   -10744.027   -4780.8824   -10042.146    76.558588 
   32400    716.39039   -107.30234   0.64820508   -106.65414    1413.8383      4.23727      4.23727      4.23727    1413.8383    8170.9006   -196.60073   -3732.7851   -5446.8993   -1362.3313    12540.727    76.077885 
   32500    873.70132   -107.44202   0.79054332   -106.65148   -1930.0461     4.241423     4.241423     4.241423   -1930.0461    5211.9859    8779.6934   -19781.818    3355.3874    10003.223    13266.438    76.301795 
   32600    627.51587   -107.22294   0.56778954   -106.65515   -7579.5715    4.2438641    4.2438641    4.2438641   -7579.5715   -21801.626    -2107.341    1170.2522   -14781.945   -3333.1193   -7103.1115    76.433617 
   32700    828.55027   -107.40235   0.74968969   -106.65266    5928.9043    4.2378753    4.2378753    4.2378753    5928.9043    20631.336    7906.0097   -10750.633   -6877.7186   -1354.8405    6774.5712    76.110493 
   32800    934.56597    -107.4967   0.84561493   -106.65109   -2370.2008    4.2434351    4.2434351    4.2434351   -2370.2008    -848.0963    5681.9407   -11944.447    6108.4502     13478.82    4858.9273    76.410436 
   32900    706.98055   -107.29456   0.63969086   -106.65487   -6445.6051    4.2422776    4.2422776    4.2422776   -6445.6051   -21191.959   -17152.838    19007.982   -7361.6183   -3572.8478   -5946.6127    76.347928 
   33000     901.0241   -107.46722   0.81526554   -106.65195    4393.1614    4.2405101    4.2405101    4.2405101    4393.1614    12184.887   -3596.1806    4590.7773   -8535.1846   -405.98821     6191.321    76.252537 
   33100    907.93488   -107.47377   0.82151856   -106.65226    -5080.227     4.239925     4.239925     4.239925    -5080.227   -15624.055    9672.0095   -9288.6355     4550.135    14835.464    -2292.038    76.220978 
   33200    602.67635   -107.20224   0.54531423   -106.65693   -5185.5164    4.2402373    4.2402373    4.2402373   -5185.5164   -6665.7871   -12080.067    3189.3051   -5472.5779   -694.68167   -7532.9561    76.237821 
   33300    867.51475   -107.43696   0.78494558   -106.65201   -2360.3533    4.2464155    4.2464155    4.2464155   -2360.3533    11897.194    4773.7853   -23752.039   -7834.3792    1851.2763    5203.5883    76.571556 
   33400    808.23409   -107.38414   0.73130719   -106.65283   -3149.8074    4.2363117    4.2363117    4.2363117   -3149.8074   -8818.7782    23476.582   -24107.226    165.48624    22678.852   -424.39198    76.026277 
   33500    623.23445   -107.22112   0.56391563   -106.65721   -3539.1275    4.2387119    4.2387119    4.2387119   -3539.1275    4831.2513   -19711.297    4262.6636   -15148.703    27.306054   -6202.0017    76.155577 
   33600    941.76565   -107.50344   0.85212935   -106.65131   -10726.589    4.2497572    4.2497572    4.2497572   -10726.589   -9151.0474   -10390.167   -12638.553   -2749.5933    10126.135     1426.261    76.752471 
   33700    908.91107   -107.47435   0.82240184   -106.65194    -726.5162    4.2318603    4.2318603    4.2318603    -726.5162   -15204.441    15463.946   -2439.0538    3566.5413    31040.613    3249.0337    75.786868 
[...]
   91300    745.18871   -107.32757    0.6742624   -106.65331    3395.6445    4.2331703    4.2331703    4.2331703    3395.6445   -5336.8505    4919.9032    10603.881   -2779.2744   -18941.455   -9629.4557    75.857273 
   91400    622.21033   -107.21877   0.56298899   -106.65578   -8335.4627    4.2404495    4.2404495    4.2404495   -8335.4627   -28739.125    3057.1287    675.60823    1593.8262    24691.514   -1063.7629    76.249268 
   91500     689.0504   -107.28197   0.62346728    -106.6585   -859.99855    4.2328837    4.2328837    4.2328837   -859.99855   -17363.082    23276.336     -8493.25    4705.8118    22663.444    -2840.977    75.841865 
   91600    1163.9192   -107.70747    1.0531385   -106.65434    4260.4647    4.2349925    4.2349925    4.2349925    4260.4647    11856.612    6101.0473   -5176.2652   -1912.8366   -18136.802   -12627.865    75.955272 
   91700    989.42148   -107.55167   0.89524935   -106.65642   -6700.3547     4.240749     4.240749     4.240749   -6700.3547    -15011.39    7602.7045   -12692.378    2516.5394    25071.978    3757.9252    76.265425 
   91800    847.30427   -107.42262   0.76665871   -106.65597    2328.1209     4.232261     4.232261     4.232261    2328.1209   -4144.3316    18628.169   -7499.4748    8070.7092    14185.846   -4577.1792      75.8084 
   91900    892.26218   -107.46068   0.80733757   -106.65334    -1183.826    4.2360258    4.2360258    4.2360258    -1183.826    5338.8736   -4313.9621   -4576.3894   -3765.4536    -13753.22   -16785.383    76.010884 
   92000    448.85587   -107.06371   0.40613422   -106.65758   -6995.5565    4.2382335    4.2382335    4.2382335   -6995.5565    -23761.37    4051.4521   -1276.7519   -3332.8315    26617.854    3575.6382     76.12979 
   92100    471.64751   -107.08428   0.42675658   -106.65753   -1023.1054    4.2330689    4.2330689    4.2330689   -1023.1054   -12075.244    5364.8485    3641.0791    10516.095     9573.149   -5098.0608    75.851821 
   92200    882.25383   -107.45168    0.7982818    -106.6534   -4994.5009    4.2384672    4.2384672    4.2384672   -4994.5009    3998.4031   -13597.169    -5384.737     -2418.67   -8685.5206   -15512.597    76.142387 
   92300    767.72122   -107.35168   0.69465029   -106.65703   -1892.6595    4.2364031    4.2364031    4.2364031   -1892.6595   -8358.9792    8685.7076   -6004.7068   -7300.9406    27370.712    2107.6545      76.0312 
   92400    959.06755   -107.52542   0.86778447   -106.65764    3681.4338     4.233748     4.233748     4.233748    3681.4338    10567.786    3248.9403    -2772.425    10854.495    7651.5202   -3292.1447    75.888333 
   92500     1249.563   -107.78378    1.1306308   -106.65315     1277.251    4.2376962    4.2376962    4.2376962     1277.251    21183.807   -8050.7973   -9301.2564    1523.7962   -5159.9281   -14053.726    76.100841 
   92600    733.53968   -107.32252   0.66372212    -106.6588    926.07252    4.2352359    4.2352359    4.2352359    926.07252   -8054.7923    11498.433   -665.42337   -7195.4069    21429.409    3590.5835    75.968372 
   92700     635.1395   -107.23191   0.57468756   -106.65723   -6750.7663     4.237508     4.237508     4.237508   -6750.7663   -16361.455   -11259.816    7368.9722    5982.2985    6453.5059   -3314.0834      76.0907 
   92800    806.74116   -107.38186   0.72995636   -106.65191   -6745.6231    4.2370562    4.2370562    4.2370562   -6745.6231   -8502.4942   -14030.376    2296.0009    495.28368   -2252.3706   -15475.555    76.066368 
   92900    411.00166   -107.03019   0.37188294   -106.65831   -3575.5439    4.2329757    4.2329757    4.2329757   -3575.5439   -23102.559    3606.5742    8769.3529   -7766.8911    16193.225    3716.4178    75.846813 
   93000    716.19285    -107.3063   0.64802634   -106.65827   -7702.3565     4.239547     4.239547     4.239547   -7702.3565    -4747.225    -22385.69    4025.8452     2914.746    6379.9786    495.98619    76.200597 
   93100    1099.7545   -107.64807     0.995081   -106.65299    2573.0057    4.2363608    4.2363608    4.2363608    2573.0057     15966.86   -9822.3531    1574.5102    1274.9438   -6202.3331   -10061.855    76.028922 
   93200    750.31499    -107.3383   0.67890077    -106.6594    1406.5906    4.2331616    4.2331616    4.2331616    1406.5906   -5437.6686    7768.8639    1888.5766   -7620.5579    11779.177    1170.9873    75.856807 
   93300    1044.6521   -107.60098   0.94522317   -106.65576   -3868.4146    4.2408017    4.2408017    4.2408017   -3868.4146    -3404.759   -6901.9692   -1298.5155    5475.9822    6318.5235    7499.0695    76.268269 
   93400    1048.7945   -107.60243   0.94897133   -106.65346     3763.054    4.2352092    4.2352092    4.2352092     3763.054   -7612.3773     15352.31    3549.2292      1525.65   -11952.311    393.91233    75.966936 
   93500    524.75588   -107.13492   0.47481014   -106.66011   -2958.5281    4.2335566    4.2335566    4.2335566   -2958.5281    -36021.58    18708.839    8437.1571   -14266.938    7309.0553   -1265.6826     75.87804 
   93600    751.30175   -107.33501   0.67979361   -106.65522   -4116.7214    4.2397377    4.2397377    4.2397377   -4116.7214   -9667.9326   -9165.6412    6483.4097    876.53838    6123.6855    13038.311     76.21088 
   93700    734.27361   -107.31812   0.66438619   -106.65373   -453.77008    4.2358519    4.2358519    4.2358519   -453.77008   -10234.491   -881.48643    9754.6669    934.77778   -14651.877    1012.8946    76.001525 
   93800    454.49927   -107.06948   0.41124049   -106.65824   -10757.791    4.2369256    4.2369256    4.2369256   -10757.791   -28582.961   -10940.968     7250.555   -13644.968    3087.2515   -252.62254    76.059334 
   93900     872.6531   -107.44347   0.78959487   -106.65388   -1422.7779    4.2365428    4.2365428    4.2365428   -1422.7779    9403.8367   -15867.544    2195.3741   -4621.1624    6783.6869    17168.023    76.038718 
   94000      887.814   -107.45798   0.80331276   -106.65466    3604.9708    4.2339988    4.2339988    4.2339988    3604.9708    247.32116    9348.1336    1219.4577     1747.773   -16315.686    1125.6961     75.90182 
   94100    769.83278   -107.35514   0.69656087   -106.65857   -8826.5373    4.2396114    4.2396114    4.2396114   -8826.5373   -29136.223    3241.6463   -585.03512   -9867.3407    1395.0101   -288.27285     76.20407 
   94200    1086.5165   -107.63696   0.98310294   -106.65386     4512.876    4.2351673    4.2351673    4.2351673     4512.876    4344.0467     1263.307    7931.2743   -3431.7956    8744.6645    16319.482    75.964678 
   94300    917.94033   -107.48583    0.8305717   -106.65526    3021.0667    4.2342516    4.2342516    4.2342516    3021.0667   -13945.112    15421.585    7586.7276    1728.9768   -16990.822    5565.5395    75.915418 
   94400    692.94956   -107.28436   0.62699532   -106.65736   -10128.858    4.2405814    4.2405814    4.2405814   -10128.858   -34645.636   -3936.2486    8195.3115    -15928.15     3688.974   -3301.4515    76.256385 
   94500    841.00384   -107.41381   0.76095795   -106.65285    2864.1591    4.2339558    4.2339558    4.2339558    2864.1591    7916.0718   -12288.347    12964.753   -677.55976    8525.9039      10980.2    75.899505 
   94600     589.5626   -107.18915   0.53344863    -106.6557   -2085.7899    4.2348765    4.2348765    4.2348765   -2085.7899   -3044.5443   -5627.1377    2414.3122    8766.8043    -20674.51    4543.7863    75.949031 
   94700    564.81346   -107.16832   0.51105509   -106.65726   -11389.997    4.2396154    4.2396154    4.2396154   -11389.997    -16007.19   -19558.937     1396.137    -16475.05    4743.7681   -4218.5866    76.204284 
   94800    901.77539   -107.46817   0.81594532   -106.65222    3690.2156    4.2341376    4.2341376    4.2341376    3690.2156    14764.297   -12642.135     8948.485    1429.0286    7455.1519    10176.954    75.909287 
   94900    771.29944   -107.35454   0.69788794   -106.65665   -5074.0297    4.2368158    4.2368158    4.2368158   -5074.0297   -17274.133    5064.3029   -3012.2595    12696.681    -19379.89    2420.8049     76.05342 
   95000    954.80876   -107.52026   0.86393103   -106.65633   -1225.3299    4.2365718    4.2365718    4.2365718   -1225.3299   -23785.612    15038.834    5070.7881   -12040.969    2879.0388   -1662.9312    76.040279 
   95100    1122.4814   -107.66865    1.0156448   -106.65301     5682.032    4.2344902    4.2344902    4.2344902     5682.032   -3381.2026    11699.128    8728.1703     4775.351    3893.9929    11110.761    75.928252 
   95200    687.18081   -107.28054   0.62177564   -106.65876   -5850.6271    4.2385803    4.2385803    4.2385803   -5850.6271   -25341.343    5381.7671     2407.695    14675.666   -16929.194    2493.1444    76.148483 
   95300    793.22937   -107.37281   0.71773061   -106.65508    40.812164    4.2346981    4.2346981    4.2346981    40.812164   -6779.6823   -5139.0337    12041.152   -16231.614   -716.56385   -1549.4138    75.939436 
   95400    709.20727   -107.29585   0.64170564   -106.65414   -21.838374    4.2353497    4.2353497    4.2353497   -21.838374    8139.1094   -21820.209    13615.584    7800.9436    2006.3998    3359.3087    75.974497 
   95500    398.16992   -107.02015   0.36027251   -106.65988   -10613.508    4.2385974    4.2385974    4.2385974   -10613.508   -14763.407   -17382.263    305.14795    22673.217   -16134.217    5245.2776    76.149402 
   95600    917.94937   -107.48582   0.83057988   -106.65524    8009.5201    4.2333774    4.2333774    4.2333774    8009.5201    9162.3895    10136.442    4729.7291   -17350.057   -2449.3866   -2027.8672    75.868407 
   95700    991.83697     -107.553   0.89743493   -106.65556    2807.9751     4.236439     4.236439     4.236439    2807.9751    532.42258    5623.6378    2267.8649    12434.496    4423.9641   -961.30706    76.033131 
   95800    736.69394   -107.32796   0.66657616   -106.66138   -8199.8661    4.2388396    4.2388396    4.2388396   -8199.8661   -23829.004     7215.465   -7986.0598    27993.646    -16635.26    8139.3786    76.162457 
   95900    1212.2746   -107.75081    1.0968916   -106.65392    11488.171    4.2323033    4.2323033    4.2323033    11488.171    3216.1609    24412.582    6835.7703   -12578.412   -3755.5427   -1255.5125    75.810671 
   96000    812.58764   -107.39327   0.73524637   -106.65802   -1987.9037     4.237579     4.237579     4.237579   -1987.9037   -8214.3332   -9059.9258    11310.548    16332.977    3193.4889    1438.0118    76.094529 
   96100    294.84812   -106.92968   0.26678478    -106.6629   -10392.695    4.2389164    4.2389164    4.2389164   -10392.695   -9746.3137   -18023.404   -3408.3669    21679.054   -18110.536    5025.9488      76.1666 
   96200    867.47858   -107.43817   0.78491285   -106.65325    12176.807    4.2320002    4.2320002    4.2320002    12176.807    20822.099    8024.1755    7684.1476   -8641.6267   -5579.1965    -1199.271    75.794385 
   96300    703.91734   -107.29412    0.6369192    -106.6572   -3536.6279    4.2372773    4.2372773    4.2372773   -3536.6279    436.86556    -19141.96    8095.2109    19892.564    2886.1361    2521.4498    76.078274 
   96400    545.06547   -107.15744    0.4931867   -106.66425   -10660.783    4.2383065    4.2383065    4.2383065   -10660.783    -9080.366   -7252.8131   -15649.171    17392.227   -18585.549     2736.839    76.133725 
   96500    1341.0198   -107.86841    1.2133829   -106.65503    14382.328    4.2320119    4.2320119    4.2320119    14382.328    9770.5094    34478.706   -1102.2298   -6794.2735   -8246.3551   -1941.3542    75.795013 
   96600    1069.5945   -107.62662   0.96779161   -106.65883    2808.7743    4.2371535    4.2371535    4.2371535    2808.7743   -3423.4111    6540.5901    5309.1438    18212.094    5190.0363   -1370.4334     76.07161 
   96700    549.17091   -107.15912   0.49690138   -106.66222   -9173.9906    4.2395787    4.2395787    4.2395787   -9173.9906    -7503.082    -5205.666   -14813.224    15940.967   -19375.438    6889.6427    76.202304 
   96800    880.83483   -107.44986   0.79699786   -106.65287    7997.2401    4.2326665    4.2326665    4.2326665    7997.2401    14807.745    3356.7211    5827.2542   -9629.5327   -8843.5139    1413.3554    75.830189 
   96900    575.36486   -107.17668   0.52060222   -106.65608   -6714.7267    4.2362594    4.2362594    4.2362594   -6714.7267    1356.5257   -34995.202    13494.496    18935.065    7478.0553   -784.79893    76.023462 
   97000    412.94945   -107.03441   0.37364534   -106.66076   -12312.454    4.2372789    4.2372789    4.2372789   -12312.454   -5290.5425   -23388.321   -8258.4983    16052.092    -18662.73    5118.0653    76.078363 
   97100    981.70675   -107.54341    0.8882689   -106.65514    9483.4904    4.2336608    4.2336608    4.2336608    9483.4904    10225.347    12970.287     5254.837   -12653.038   -8435.5697    2915.3457    75.883643 
   97200    943.14363   -107.50995   0.85337618   -106.65658    458.17409     4.237938     4.237938     4.237938    458.17409   -8845.3456    1962.5164    8257.3514    19244.147    9372.8957     2127.426    76.113867 
   97300    889.63505   -107.46292   0.80496049   -106.65796    -962.1624    4.2363082    4.2363082    4.2363082    -962.1624   -5349.4364     14868.51   -12405.561    12942.177   -14460.125    2243.7241    76.026089 
   97400    1065.1301   -107.61637   0.96375206   -106.65262    9005.7024    4.2337284    4.2337284    4.2337284    9005.7024    12068.093    12033.109    2915.9051   -12922.332   -5820.7226    665.42388     75.88728 
   97500    588.30045   -107.19036   0.53230661   -106.65806   -7408.5539    4.2374016    4.2374016    4.2374016   -7408.5539   -2524.8728   -26010.422    6309.6329    16416.629    9214.8989   -1725.5052    76.084972 
   97600    642.92774   -107.23831   0.58173453   -106.65657   -5655.4939    4.2357067    4.2357067    4.2357067   -5655.4939    9694.0015   -21528.465   -5132.0186     11314.34   -6072.9783    6200.7229     75.99371 
   97700    826.80348   -107.40103   0.74810916   -106.65292    5219.8518    4.2348771    4.2348771    4.2348771    5219.8518    17770.782   -12050.019    9938.7926   -13688.609   -1954.9393    1368.6894    75.949067 
   97800    511.32823   -107.12284   0.46266053   -106.66018   -7619.1166    4.2376809    4.2376809    4.2376809   -7619.1166   -15530.253   -25483.432    18156.335    16076.706    8593.1942   -4335.5223    76.100018 
   97900    982.46226   -107.54661    0.8889525   -106.65765    1244.1602    4.2345105    4.2345105    4.2345105    1244.1602    1351.5752   -1225.3282    3606.2335    13287.508    5171.2745    4831.6821    75.929343 
   98000    1227.4589   -107.76459    1.1106306   -106.65396    7643.4334    4.2355996    4.2355996    4.2355996    7643.4334    8520.1299    6564.1432    7846.0271   -14274.826   -1304.7026    2224.0175    75.987947 
   98100     579.5137   -107.18779   0.52435617   -106.66344    -8460.639    4.2380505    4.2380505    4.2380505    -8460.639   -17511.739   -16617.574    8747.3957    15338.007    9251.8867    986.26445     76.11993 
   98200    907.64569   -107.47902   0.82125689   -106.65776    1154.4612    4.2333594    4.2333594    4.2333594    1154.4612    15503.601   -4713.6952   -7326.5227    12303.666    9288.8046     1023.669    75.867437 
   98300    882.67385   -107.45362   0.79866185   -106.65496     2747.698    4.2362905    4.2362905    4.2362905     2747.698    21245.133   -10349.386   -2652.6535   -6685.4334   -8426.4963    -445.4948    76.025136 
   98400    233.68708   -106.87448   0.21144498   -106.66303   -13180.741     4.238682     4.238682     4.238682   -13180.741     -14562.1   -35202.095    10221.971    16961.264    10390.436   -257.04674    76.153964 
   98500    769.76124   -107.35405   0.69649614   -106.65756    458.79352    4.2333837    4.2333837    4.2333837    458.79352      9507.75   -14812.722    6681.3523    5171.1132    5243.8079    527.75933    75.868747 
   98600    1008.3409    -107.5668   0.91236805   -106.65443    126.33581    4.2362302    4.2362302    4.2362302    126.33581    1626.3849   -5096.5267    3849.1493    328.36252   -16650.459    1255.7932    76.021887 
   98700    752.31353   -107.34147   0.68070909   -106.66076   -6524.4413    4.2377444    4.2377444    4.2377444   -6524.4413    -14883.52   -19284.583    14594.779    18723.492     9749.192   -4092.2885    76.103439 
   98800    1164.9454   -107.70962    1.0540671   -106.65555    5223.2245     4.233889     4.233889     4.233889    5223.2245    8570.2528    8836.1139   -1736.6931    603.61257   -178.11329    74.987532    75.895915 
   98900    999.79778   -107.56083   0.90463804   -106.65619    1565.6449    4.2359789    4.2359789    4.2359789    1565.6449    4071.5568    10733.393   -10108.016    363.87163    -21471.23    1930.4836    76.008361 
   99000    629.18913   -107.22707   0.56930355   -106.65777   -6187.3455     4.237746     4.237746     4.237746   -6187.3455   -795.41456   -24042.285    6275.6633    16635.446    7872.4298   -261.95606    76.103527 
   99100    673.12313   -107.26329   0.60905596   -106.65424   -4073.3861    4.2353593    4.2353593    4.2353593   -4073.3861     8702.062   -17365.579   -3556.6416   -2108.1801   -7955.9735   -68.916584    75.975013 
   99200    532.84787   -107.13805   0.48213195   -106.65592   -4848.1369    4.2344192    4.2344192    4.2344192   -4848.1369    929.99641   -9154.2511    -6320.156    3630.8813   -25635.304   -674.39492     75.92443 
   99300    668.54904   -107.26119   0.60491722   -106.65627   -3765.8729     4.236617     4.236617     4.236617   -3765.8729    5655.6309   -30306.906    13353.657    15388.039    6726.9692    1417.2291    76.042717 
   99400    856.75209   -107.43133    0.7752073   -106.65612   -282.63271    4.2370946    4.2370946    4.2370946   -282.63271    2394.3549    983.00141   -4225.2544   -7316.2212   -13155.251    -2359.967    76.068437 
   99500     993.9192   -107.55541   0.89931898   -106.65609    4398.1108    4.2344483    4.2344483    4.2344483    4398.1108    1737.1317    22453.708   -10996.507    6527.4553   -24986.619    2102.0081    75.925996 
   99600    1122.4442   -107.67011    1.0156111    -106.6545    4184.0756    4.2356373    4.2356373    4.2356373    4184.0756    10136.957   -6364.1054    8779.3752    10023.968    7928.2599   -2731.8338    75.989974 
   99700    855.85893   -107.43137   0.77439915   -106.65697   -3089.7691    4.2376852    4.2376852    4.2376852   -3089.7691     3057.387     290.0016   -12616.696   -11476.718   -16930.645   -5850.1914    76.100246 
   99800    740.84162   -107.32579   0.67032906   -106.65546    1646.1131    4.2346704    4.2346704    4.2346704    1646.1131    8183.9284    8696.0489   -11941.638    6023.3557   -20550.656     3239.088    75.937946 
   99900    672.78788   -107.26341   0.60875261   -106.65465   -170.10949    4.2347318    4.2347318    4.2347318   -170.10949     16776.95   -22851.471    5564.1922    6878.7432    10044.001   -1947.3868    75.941249 
  100000    449.15593   -107.06428   0.40640572   -106.65787     -8174.53    4.2380438    4.2380438    4.2380438     -8174.53   -1730.8224    -13054.21   -9738.5579   -9294.7425    -18674.96   -5489.8092    76.119571 
Loop time of 23.5216 on 1 procs for 100000 steps with 8 atoms

Pair  time (%) = 7.77853 (33.0698)
Kspce time (%) = 5.64325 (23.9918)
Neigh time (%) = 0 (0)
Comm  time (%) = 1.15295 (4.90167)
Outpt time (%) = 0.0264604 (0.112494)
Other time (%) = 8.92038 (37.9242)

Nlocal:    8 ave 8 max 8 min
Histogram: 1 0 0 0 0 0 0 0 0 0
Nghost:    2189 ave 2189 max 2189 min
Histogram: 1 0 0 0 0 0 0 0 0 0
Neighs:    2472 ave 2472 max 2472 min
Histogram: 1 0 0 0 0 0 0 0 0 0

Total # of neighbors = 2472
Ave neighs/atom = 309
Neighbor list builds = 0
Dangerous builds = 0
unfix 20
unfix 21
print "seeds:2210875"
seeds:2210875
