# ['Al']

28 atoms
1 atom types

    0.0000     2.7820 xlo xhi
    0.0000     4.8186 ylo yhi
    0.0000    31.8014 zlo zhi

    0.0000     0.0000     0.0000 xy xz yz

Atoms

1 1     0.0000     0.0000     0.0000
2 1     1.3910     2.4093     0.0000
3 1     1.3910     0.8031     2.2715
4 1     0.0000     3.2124     2.2715
5 1     0.0000     1.6062     4.5431
6 1     1.3910     4.0155     4.5431
7 1     0.0000     0.0000     6.8146
8 1     1.3910     2.4093     6.8146
9 1     1.3910     0.8031     9.0861
10 1     0.0000     3.2124     9.0861
11 1     0.0000     1.6062    11.3576
12 1     1.3910     4.0155    11.3576
13 1     0.0000     0.0000    13.6292
14 1     1.3910     2.4093    13.6292
15 1     0.0000     1.6062    15.9007
16 1     1.3910     4.0155    15.9007
17 1     0.0000     0.0000    18.1722
18 1     1.3910     2.4093    18.1722
19 1     1.3910     0.8031    20.4437
20 1     0.0000     3.2124    20.4437
21 1     0.0000     1.6062    22.7153
22 1     1.3910     4.0155    22.7153
23 1     0.0000     0.0000    24.9868
24 1     1.3910     2.4093    24.9868
25 1     1.3910     0.8031    27.2583
26 1     0.0000     3.2124    27.2583
27 1     0.0000     1.6062    29.5298
28 1     1.3910     4.0155    29.5298
