# ['Ni']

107 atoms
1 atom types

    0.0000    10.8650 xlo xhi
    0.0000    10.8650 ylo yhi
    0.0000    10.8650 zlo zhi

    0.0000    -0.0000    -0.0000 xy xz yz

Atoms

1 1     1.8108     1.8108     0.0000
2 1     1.8108     0.0000     1.8108
3 1     0.0000     1.8108     1.8108
4 1     0.0000     0.0000     3.6217
5 1     1.8108     1.8108     3.6217
6 1     1.8108     0.0000     5.4325
7 1     0.0000     1.8108     5.4325
8 1     0.0000     0.0000     7.2434
9 1     1.8108     1.8108     7.2434
10 1     1.8108     0.0000     9.0542
11 1     0.0000     1.8108     9.0542
12 1     0.0000     3.6217     0.0000
13 1     1.8108     5.4325     0.0000
14 1     1.8108     3.6217     1.8108
15 1     0.0000     5.4325     1.8108
16 1     0.0000     3.6217     3.6217
17 1     1.8108     5.4325     3.6217
18 1     1.8108     3.6217     5.4325
19 1     0.0000     5.4325     5.4325
20 1     0.0000     3.6217     7.2434
21 1     1.8108     5.4325     7.2434
22 1     1.8108     3.6217     9.0542
23 1     0.0000     5.4325     9.0542
24 1     0.0000     7.2434     0.0000
25 1     1.8108     9.0542     0.0000
26 1     1.8108     7.2434     1.8108
27 1     0.0000     9.0542     1.8108
28 1     0.0000     7.2434     3.6217
29 1     1.8108     9.0542     3.6217
30 1     1.8108     7.2434     5.4325
31 1     0.0000     9.0542     5.4325
32 1     0.0000     7.2434     7.2434
33 1     1.8108     9.0542     7.2434
34 1     1.8108     7.2434     9.0542
35 1     0.0000     9.0542     9.0542
36 1     3.6217     0.0000     0.0000
37 1     5.4325     1.8108     0.0000
38 1     5.4325     0.0000     1.8108
39 1     3.6217     1.8108     1.8108
40 1     3.6217     0.0000     3.6217
41 1     5.4325     1.8108     3.6217
42 1     5.4325     0.0000     5.4325
43 1     3.6217     1.8108     5.4325
44 1     3.6217     0.0000     7.2434
45 1     5.4325     1.8108     7.2434
46 1     5.4325     0.0000     9.0542
47 1     3.6217     1.8108     9.0542
48 1     3.6217     3.6217     0.0000
49 1     5.4325     5.4325     0.0000
50 1     5.4325     3.6217     1.8108
51 1     3.6217     5.4325     1.8108
52 1     3.6217     3.6217     3.6217
53 1     5.4325     5.4325     3.6217
54 1     5.4325     3.6217     5.4325
55 1     3.6217     5.4325     5.4325
56 1     3.6217     3.6217     7.2434
57 1     5.4325     5.4325     7.2434
58 1     5.4325     3.6217     9.0542
59 1     3.6217     5.4325     9.0542
60 1     3.6217     7.2434     0.0000
61 1     5.4325     9.0542     0.0000
62 1     5.4325     7.2434     1.8108
63 1     3.6217     9.0542     1.8108
64 1     3.6217     7.2434     3.6217
65 1     5.4325     9.0542     3.6217
66 1     5.4325     7.2434     5.4325
67 1     3.6217     9.0542     5.4325
68 1     3.6217     7.2434     7.2434
69 1     5.4325     9.0542     7.2434
70 1     5.4325     7.2434     9.0542
71 1     3.6217     9.0542     9.0542
72 1     7.2434     0.0000     0.0000
73 1     9.0542     1.8108     0.0000
74 1     9.0542     0.0000     1.8108
75 1     7.2434     1.8108     1.8108
76 1     7.2434     0.0000     3.6217
77 1     9.0542     1.8108     3.6217
78 1     9.0542     0.0000     5.4325
79 1     7.2434     1.8108     5.4325
80 1     7.2434     0.0000     7.2434
81 1     9.0542     1.8108     7.2434
82 1     9.0542     0.0000     9.0542
83 1     7.2434     1.8108     9.0542
84 1     7.2434     3.6217     0.0000
85 1     9.0542     5.4325     0.0000
86 1     9.0542     3.6217     1.8108
87 1     7.2434     5.4325     1.8108
88 1     7.2434     3.6217     3.6217
89 1     9.0542     5.4325     3.6217
90 1     9.0542     3.6217     5.4325
91 1     7.2434     5.4325     5.4325
92 1     7.2434     3.6217     7.2434
93 1     9.0542     5.4325     7.2434
94 1     9.0542     3.6217     9.0542
95 1     7.2434     5.4325     9.0542
96 1     7.2434     7.2434     0.0000
97 1     9.0542     9.0542     0.0000
98 1     9.0542     7.2434     1.8108
99 1     7.2434     9.0542     1.8108
100 1     7.2434     7.2434     3.6217
101 1     9.0542     9.0542     3.6217
102 1     9.0542     7.2434     5.4325
103 1     7.2434     9.0542     5.4325
104 1     7.2434     7.2434     7.2434
105 1     9.0542     9.0542     7.2434
106 1     9.0542     7.2434     9.0542
107 1     7.2434     9.0542     9.0542
