LAMMPS (11 Aug 2017)
Reading data file ...
  triclinic box = (0 0 0) to (3.3542 3.3542 33.5425) with tilt (0 -0 0)
  1 by 1 by 1 MPI processor grid
  reading atoms ...
  20 atoms
20 atoms in group Ni
Neighbor list info ...
  update every 1 steps, delay 0 steps, check yes
  max neighbors/atom: 2000, page size: 100000
  master list distance cutoff = 5.64464
  ghost atom cutoff = 5.64464
  binsize = 2.82232, bins = 2 2 12
  1 neighbor lists, perpetual/occasional/extra = 1 0 0
  (1) pair eam/alloy, perpetual
      attributes: half, newton on
      pair build: half/bin/newton/tri
      stencil: half/bin/3d/newton/tri
      bin: standard
Setting up cg style minimization ...
  Unit style    : metal
  Current step  : 0
Per MPI rank memory allocation (min/avg/max) = 4.207 | 4.207 | 4.207 Mbytes
Step PotEng Lx Ly Lz Xy Xz Yz Press Pxx Pyy Pzz Pxy Pxz Pyz c_eatoms 
       0   -85.444597       3.3542       3.3542      33.5425            0           -0            0   -10183.999   -13465.826   -13465.826   -3620.3441 1.0016274e-12 -2.9165032e-12 -1.5024411e-12   -85.444597 
       1   -85.446893       3.3542       3.3542      33.5425            0           -0            0   -9267.3277   -12681.444   -12681.444   -2439.0957 1.7675777e-13 1.8559566e-12 -2.7986647e-13   -85.446893 
       2   -85.447494       3.3542       3.3542      33.5425            0           -0            0   -8805.1228   -12267.298   -12267.298   -1880.7721 -1.1783851e-13 -2.2683914e-12 -1.9148759e-13   -85.447494 
       3   -85.447714       3.3542       3.3542      33.5425            0           -0            0   -8406.8681   -11921.036   -11921.036   -1378.5321 5.3027331e-13 -1.4435218e-12 -2.5187982e-12   -85.447714 
       4    -85.44776       3.3542       3.3542      33.5425            0           -0            0   -8295.6684   -11820.945   -11820.945   -1245.1159 8.8378886e-13 -4.8019195e-12 -2.1505529e-12    -85.44776 
       5   -85.447802       3.3542       3.3542      33.5425            0           -0            0   -8093.9656   -11641.093   -11641.093   -999.70993 -1.826497e-12 -8.5432923e-13 -1.3404131e-12   -85.447802 
       6   -85.447926       3.3542       3.3542      33.5425            0           -0            0   -7273.1867   -10918.794   -10918.794    18.027816 1.9443355e-12 -1.5319007e-12 -3.5940747e-12   -85.447926 
       7   -85.447943       3.3542       3.3542      33.5425            0           -0            0   -7245.2072   -10892.363   -10892.363    49.104885 3.0638014e-12 -1.4435218e-12 -1.4877112e-12   -85.447943 
       8   -85.447949       3.3542       3.3542      33.5425            0           -0            0   -7237.7239   -10886.605   -10886.605    60.038214 3.7119132e-12 -2.6808262e-12 -4.2569163e-12   -85.447949 
       9   -85.447949       3.3542       3.3542      33.5425            0           -0            0   -7238.3432   -10887.292   -10887.292    59.554972 -2.9459629e-13 -1.9148759e-12 -1.9296057e-12   -85.447949 
      10   -85.447949       3.3542       3.3542      33.5425            0           -0            0   -7243.7758   -10892.087   -10892.087    52.847185 2.9459629e-13 -1.4729814e-12 -4.124348e-12   -85.447949 
      11   -85.447949       3.3542       3.3542      33.5425            0           -0            0   -7257.2316   -10904.035   -10904.035    36.374503 -7.6595034e-13 -9.7216774e-13 1.3404131e-12   -85.447949 
      12   -85.447949       3.3542       3.3542      33.5425            0           -0            0   -7270.2302   -10915.406   -10915.406    20.122406 -1.2962237e-12 -1.8559566e-12 -1.9590653e-12   -85.447949 
      13   -85.447949       3.3542       3.3542      33.5425            0           -0            0   -7287.4359   -10930.668   -10930.668  -0.97112192 8.8378886e-13 -1.266764e-12 -1.900146e-12   -85.447949 
      14   -85.447949       3.3542       3.3542      33.5425            0           -0            0   -7288.8745   -10931.964   -10931.964   -2.6951465 7.0703109e-13 6.422199e-12 -2.3567703e-12   -85.447949 
      15   -85.447949       3.3542       3.3542      33.5425            0           -0            0   -7288.9484   -10932.007   -10932.007   -2.8306257 -6.5694972e-12 7.5711245e-12 6.1276027e-12   -85.447949 
      16   -85.447949       3.3542       3.3542      33.5425            0           -0            0   -7288.3894   -10931.521   -10931.521   -2.1264913 2.0032547e-12 -1.4435218e-12 -2.4304194e-11   -85.447949 
      17   -85.447949       3.3542       3.3542      33.5425            0           -0            0   -7288.2158   -10931.365   -10931.365   -1.9177843 -8.0719382e-12 3.9181306e-12 4.6988108e-12   -85.447949 
      18   -85.447949       3.3542       3.3542      33.5425            0           -0            0   -7287.6757   -10930.885   -10930.885   -1.2579432 4.3305654e-12 5.0375965e-12 -4.3452952e-12   -85.447949 
      19   -85.447949       3.3542       3.3542      33.5425            0           -0            0   -7286.9122   -10930.213   -10930.213  -0.31099639 -9.7216774e-12 -1.3286292e-11 -4.9786772e-12   -85.447949 
      20   -85.447949       3.3542       3.3542      33.5425            0           -0            0   -7286.5632   -10929.904   -10929.904    0.1180239 1.584928e-11 -2.2300939e-11 1.3934404e-11   -85.447949 
      21   -85.447949       3.3542       3.3542      33.5425            0           -0            0   -7286.5579     -10929.9     -10929.9   0.12657595 6.5989568e-12 -1.0605466e-12 1.6026038e-11   -85.447949 
      22   -85.447949       3.3542       3.3542      33.5425            0           -0            0   -7286.5808    -10929.92    -10929.92  0.097781323 -1.7499019e-11 -1.9413895e-11 1.7970373e-11   -85.447949 
      23   -85.447949       3.3542       3.3542      33.5425            0           -0            0   -7286.5944   -10929.932   -10929.932  0.080727777 -1.4729814e-12 -2.857584e-12 -2.1505529e-12   -85.447949 
      24   -85.447949       3.3542       3.3542      33.5425            0           -0            0   -7286.6038    -10929.94    -10929.94    0.0695353 -1.7675777e-12 -6.5400375e-12 1.0605466e-11   -85.447949 
      25   -85.447949       3.3542       3.3542      33.5425            0           -0            0   -7286.6455   -10929.977   -10929.977  0.017761773 1.0900063e-11 -6.4811183e-13 -6.6136866e-12   -85.447949 
      26   -85.447949       3.3542       3.3542      33.5425            0           -0            0   -7286.6625   -10929.992   -10929.992 -0.0028982477 1.1695473e-11 1.6497392e-11 4.0948884e-12   -85.447949 
      27   -85.447949       3.3542       3.3542      33.5425            0           -0            0   -7286.6633   -10929.993   -10929.993 -0.0039048751 -4.124348e-13 5.8624661e-12 1.9148759e-12   -85.447949 
      28   -85.447949       3.3542       3.3542      33.5425            0           -0            0   -7286.6635   -10929.993   -10929.993 -0.0041244744 1.4140622e-12 -3.6235343e-12 -1.8839432e-11   -85.447949 
      29   -85.447949       3.3542       3.3542      33.5425            0           -0            0    -7286.663   -10929.993   -10929.993 -0.0035408935 -7.0113916e-12 3.0638014e-12 -2.0327144e-11   -85.447949 
      30   -85.447949       3.3542       3.3542      33.5425            0           -0            0   -7286.6627   -10929.992   -10929.992 -0.0031469401 -1.346305e-11 -1.3227373e-11 1.3713457e-11   -85.447949 
      31   -85.447949       3.3542       3.3542      33.5425            0           -0            0   -7286.6617   -10929.992   -10929.992 -0.0019106716 -1.3757647e-11 1.3551429e-11 1.428792e-12   -85.447949 
      32   -85.447949       3.3542       3.3542      33.5425            0           -0            0   -7286.6606   -10929.991   -10929.991 -0.0005655066 1.8058752e-11 -1.4729814e-12 -2.7279616e-11   -85.447949 
      33   -85.447949       3.3542       3.3542      33.5425            0           -0            0   -7286.6601    -10929.99    -10929.99 3.1817844e-05 -1.985579e-11 1.4170081e-11 2.5836094e-11   -85.447949 
      34   -85.447949       3.3542       3.3542      33.5425            0           -0            0     -7286.66    -10929.99    -10929.99 0.00019612653 -2.0857417e-11 -3.5351554e-13 -2.3862299e-12   -85.447949 
      35   -85.447949       3.3542       3.3542      33.5425            0           -0            0     -7286.66    -10929.99    -10929.99 0.00017226772 -6.8935531e-12 -1.741064e-11 -1.0826413e-11   -85.447949 
      36   -85.447949       3.3542       3.3542      33.5425            0           -0            0     -7286.66    -10929.99    -10929.99 0.00012634557 -1.187223e-11 -4.2421865e-12 -3.7855623e-12   -85.447949 
      37   -85.447949       3.3542       3.3542      33.5425            0           -0            0     -7286.66    -10929.99    -10929.99 0.00011486348 -1.6467932e-11 -1.823551e-11 -7.7478823e-12   -85.447949 
      38   -85.447949       3.3542       3.3542      33.5425            0           -0            0   -7286.6601    -10929.99    -10929.99 4.4762612e-05 -4.1832673e-12 -2.7986647e-12 -1.0001544e-11   -85.447949 
      39   -85.447949       3.3542       3.3542      33.5425            0           -0            0   -7286.6601    -10929.99    -10929.99 2.5906366e-06 -6.2749009e-12 2.4805007e-11 -3.2464511e-11   -85.447949 
      40   -85.447949       3.3542       3.3542      33.5425            0           -0            0   -7286.6601    -10929.99    -10929.99 -8.8030183e-06 1.0369789e-11 3.9181306e-11 2.3862299e-11   -85.447949 
      41   -85.447949       3.3542       3.3542      33.5425            0           -0            0   -7286.6601    -10929.99    -10929.99 -6.7505733e-06 5.5973294e-12 -1.0870603e-11 6.4663885e-12   -85.447949 
      42   -85.447949       3.3542       3.3542      33.5425            0           -0            0   -7286.6601    -10929.99    -10929.99 -5.7158915e-06 -5.3321928e-12 6.4516587e-12 8.484373e-12   -85.447949 
      43   -85.447949       3.3542       3.3542      33.5425            0           -0            0   -7286.6601    -10929.99    -10929.99 -4.8524082e-06 -1.6968746e-11 7.5711245e-12 -2.3273107e-12   -85.447949 
      44   -85.447949       3.3542       3.3542      33.5425            0           -0            0   -7286.6601    -10929.99    -10929.99 -3.8713013e-06 9.2503234e-12 2.3862299e-12 7.1734196e-12   -85.447949 
      45   -85.447949       3.3542       3.3542      33.5425            0           -0            0   -7286.6601    -10929.99    -10929.99 -9.9598055e-07 -2.3656082e-11 -1.4641435e-11 4.4631337e-12   -85.447949 
      46   -85.447949       3.3542       3.3542      33.5425            0           -0            0   -7286.6601    -10929.99    -10929.99 1.9518041e-07 4.6546213e-12 -3.8002921e-12 -1.6217526e-11   -85.447949 
      47   -85.447949       3.3542       3.3542      33.5425            0           -0            0   -7286.6601    -10929.99    -10929.99 3.1320935e-07 -2.21831e-11 -1.3787106e-11 -2.4009597e-11   -85.447949 
      48   -85.447949       3.3542       3.3542      33.5425            0           -0            0   -7286.6601    -10929.99    -10929.99 2.4891077e-07 1.7705237e-11 1.3934404e-11 -7.3501773e-12   -85.447949 
      49   -85.447949       3.3542       3.3542      33.5425            0           -0            0   -7286.6601    -10929.99    -10929.99 2.2163928e-07 -1.4435218e-11 -8.7789693e-12 -2.7971917e-11   -85.447949 
      50   -85.447949       3.3542       3.3542      33.5425            0           -0            0   -7286.6601    -10929.99    -10929.99 1.6852157e-07 6.1276027e-12 5.8624661e-12 3.1374504e-11   -85.447949 
      51   -85.447949       3.3542       3.3542      33.5425            0           -0            0   -7286.6601    -10929.99    -10929.99 6.9225649e-08 -3.9475902e-12 -8.8084289e-12 -1.6394283e-11   -85.447949 
      52   -85.447949       3.3542       3.3542      33.5425            0           -0            0   -7286.6601    -10929.99    -10929.99 1.8639932e-08 6.4516587e-12 2.4363113e-11 9.279783e-13   -85.447949 
      53   -85.447949       3.3542       3.3542      33.5425            0           -0            0   -7286.6601    -10929.99    -10929.99 -7.7128843e-09 1.7057125e-11 -7.6005842e-12 -1.1651283e-11   -85.447949 
      54   -85.447949       3.3542       3.3542      33.5425            0           -0            0   -7286.6601    -10929.99    -10929.99 -1.2112621e-08 -2.9165032e-12 1.3227373e-11 2.1490799e-11   -85.447949 
      55   -85.447949       3.3542       3.3542      33.5425            0           -0            0   -7286.6601    -10929.99    -10929.99 -8.8356496e-09 -8.013019e-12 2.7073399e-11 -1.3109535e-12   -85.447949 
      56   -85.447949       3.3542       3.3542      33.5425            0           -0            0   -7286.6601    -10929.99    -10929.99 -7.9168627e-09 -2.3862299e-12 -8.9262675e-12 3.2405591e-12   -85.447949 
      57   -85.447949       3.3542       3.3542      33.5425            0           -0            0   -7286.6601    -10929.99    -10929.99 -6.429505e-09 -6.7757146e-13 -3.0431796e-11 -1.0163572e-12   -85.447949 
      58   -85.447949       3.3542       3.3542      33.5425            0           -0            0   -7286.6601    -10929.99    -10929.99 -3.5620226e-09 3.0579094e-11 -1.8058752e-11 -1.5215898e-11   -85.447949 
      59   -85.447949       3.3542       3.3542      33.5425            0           -0            0   -7286.6601    -10929.99    -10929.99 -1.3398239e-10 -5.2438139e-12 -5.7740872e-12 -2.2138911e-11   -85.447949 
      60   -85.447949       3.3542       3.3542      33.5425            0           -0            0   -7286.6601    -10929.99    -10929.99 -5.6491784e-10 1.031087e-11 -9.6038389e-12 6.3338201e-12   -85.447949 
      61   -85.447949       3.3542       3.3542      33.5425            0           -0            0   -7286.6601    -10929.99    -10929.99 -6.0663267e-10 -1.9266597e-11 -1.8883622e-11 4.2421865e-12   -85.447949 
Loop time of 0.0602832 on 1 procs for 61 steps with 20 atoms

9.7% CPU use with 1 MPI tasks x no OpenMP threads

Minimization stats:
  Stopping criterion = energy tolerance
  Energy initial, next-to-last, final = 
        -85.4445974999     -85.4479493573     -85.4479493573
  Force two-norm initial, final = 0.232117 2.93275e-14
  Force max component initial, final = 0.0936266 1.34615e-14
  Final line search alpha, max atom move = 1 1.34615e-14
  Iterations, force evaluations = 61 122

MPI task timing breakdown:
Section |  min time  |  avg time  |  max time  |%varavg| %total
---------------------------------------------------------------
Pair    | 0.0044632  | 0.0044632  | 0.0044632  |   0.0 |  7.40
Neigh   | 0          | 0          | 0          |   0.0 |  0.00
Comm    | 0.0003581  | 0.0003581  | 0.0003581  |   0.0 |  0.59
Output  | 0.055287   | 0.055287   | 0.055287   |   0.0 | 91.71
Modify  | 0          | 0          | 0          |   0.0 |  0.00
Other   |            | 0.000175   |            |       |  0.29

Nlocal:    20 ave 20 max 20 min
Histogram: 1 0 0 0 0 0 0 0 0 0
Nghost:    547 ave 547 max 547 min
Histogram: 1 0 0 0 0 0 0 0 0 0
Neighs:    688 ave 688 max 688 min
Histogram: 1 0 0 0 0 0 0 0 0 0

Total # of neighbors = 688
Ave neighs/atom = 34.4
Neighbor list builds = 0
Dangerous builds = 0
pypospack:output_section:begin
tot_energy = -85.4479493572739
num_atoms = 20
a11 = 3.3542
a22 = 3.3542
a33 = 33.5425
a12 = 0
a13 = -0
a23 = 0
tot_press = -7286.66011501433
pxx = -10929.9901725212
pyy = -10929.9901725212
pzz = -6.06632671508388e-10
pxy = -1.92665970846195e-11
pxz = -1.88836219132127e-11
pyz = 4.24218651404467e-12
pypospack:output_section:done
pypospack:lammps_sim:done
Total wall time: 0:00:00
