LAMMPS (10 Feb 2015)
# ---- initialize simulations
clear
units metal
dimension 3
boundary p p p
atom_style charge
atom_modify map array
# ---- create atoms
read_data /Users/eugeneragasa/pyflamestk_git/pypospack/tests/tests_integration/workflow/WorkflowLammpsThermalExpansion/param_2217/MgO_NaCl_unit.npt.T600/lammps.structure
  triclinic box = (0 0 0) to (4.2565 4.2565 4.2565) with tilt (0 0 0)
  1 by 1 by 1 MPI processor grid
  reading atoms ...
  8 atoms
# ---- define interatomic potential
include potential.mod
mass 1 24.305
mass 2 15.999

group Mg type 1
4 atoms in group Mg
group O type 2
4 atoms in group O

set group Mg charge 1.63539617609
  4 settings made for charge
set group O charge -1.63539617609
  4 settings made for charge

variable R_cut equal 10.0

pair_style buck/coul/long ${R_cut}
pair_style buck/coul/long 10
pair_coeff 1 1 0.0 0.5 0.0 ${R_cut}
pair_coeff 1 1 0.0 0.5 0.0 10
pair_coeff 1 2 1445.86118726 0.28350177361 0.0 ${R_cut}
pair_coeff 1 2 1445.86118726 0.28350177361 0.0 10
pair_coeff 2 2 14001.7361193 0.0970682303871 13.3227844282 ${R_cut}
pair_coeff 2 2 14001.7361193 0.0970682303871 13.3227844282 10

kspace_style pppm 1.0e-5

neighbor 1.0 bin
neigh_modify every 1 delay 0 check yes
# ---- define settings
compute eng all pe/atom
compute eatoms all reduce sum c_eng
# ---- run minimization
reset_timestep 0
fix 1 all box/relax iso 0.0 vmax 0.001
thermo 10
thermo_style custom step pe lx ly lz xy xz yz press pxx pyy pzz pxy pxz pyz c_eatoms
min_style cg
minimize 1e-25 1e-25 5000 10000
PPPM initialization ...
  G vector (1/distance) = 0.35265
  grid = 8 8 8
  stencil order = 5
  estimated absolute RMS force accuracy = 3.8734e-05
  estimated relative force accuracy = 2.68993e-06
  using double precision FFTs
  3d grid and FFT values/proc = 3375 512
Neighbor list info ...
  1 neighbor list requests
  update every 1 steps, delay 0 steps, check yes
  master list distance cutoff = 11
Memory usage per processor = 4.06549 Mbytes
Step PotEng Lx Ly Lz Xy Xz Yz Press Pxx Pyy Pzz Pxy Pxz Pyz eatoms 
       0   -107.83625       4.2565       4.2565       4.2565            0            0            0    103722.55    103722.55    103722.55    103722.55 -7.9651797e-11 -6.6040977e-11 3.4954802e-10   -107.83625 
      10   -107.94585     4.299065     4.299065     4.299065            0            0            0    48505.206    48505.206    48505.206    48505.206 -1.814552e-10 -8.0829294e-11 -4.0355362e-11   -107.94585 
      20   -107.98099     4.341612     4.341612     4.341612            0            0            0  -0.16598057  -0.16598057  -0.16598058  -0.16598057 -1.539671e-10 -9.8603927e-12 -7.0562295e-11   -107.98099 
      24     -107.981    4.3416118    4.3416118    4.3416118            0            0            0 -0.022137581 -0.022137581 -0.022137581 -0.022137581 -7.2866315e-11 -1.1353573e-10 -3.1341588e-11     -107.981 
Loop time of 0.0151889 on 1 procs for 24 steps with 8 atoms

Minimization stats:
  Stopping criterion = linesearch alpha is zero
  Energy initial, next-to-last, final = 
        -107.836253395     -107.981002151     -107.981002151
  Force two-norm initial, final = 14.9776 3.56003e-06
  Force max component initial, final = 14.9776 3.3258e-06
  Final line search alpha, max atom move = 0.5 1.6629e-06
  Iterations, force evaluations = 24 36

Pair  time (%) = 0.00337076 (22.1922)
Kspce time (%) = 0.00452614 (29.7989)
Neigh time (%) = 0 (0)
Comm  time (%) = 0.000486374 (3.20216)
Outpt time (%) = 2.88486e-05 (0.189932)
Other time (%) = 0.00677681 (44.6168)

Nlocal:    8 ave 8 max 8 min
Histogram: 1 0 0 0 0 0 0 0 0 0
Nghost:    2189 ave 2189 max 2189 min
Histogram: 1 0 0 0 0 0 0 0 0 0
Neighs:    2344 ave 2344 max 2344 min
Histogram: 1 0 0 0 0 0 0 0 0 0

Total # of neighbors = 2344
Ave neighs/atom = 293
Neighbor list builds = 0
Dangerous builds = 0
unfix 1
# ---- define output variables ----
variable natoms equal "count(all)"
variable tot_energy equal "c_eatoms"
variable length_x equal "lx"
variable length_y equal "ly"
variable length_z equal "lz"
variable tilt_xy equal "xy"
variable tilt_xz equal "xz"
variable tilt_yz equal "yz"
variable tot_press equal "press"
variable press_xx equal "pxx"
variable press_yy equal "pyy"
variable press_zz equal "pzz"
variable press_xy equal "pxy"
variable press_xz equal "pxz"
variable press_yz equal "pyz"

# ---- output ----
print "pypospack:output_section:begin"
pypospack:output_section:begin
print "tot_energy = ${tot_energy}"
tot_energy = -107.981002151143
print "num_atoms = ${natoms}"
num_atoms = 8
print "xx = ${length_x}"
xx = 4.34161184326772
print "yy = ${length_y}"
yy = 4.34161184326772
print "zz = ${length_z}"
zz = 4.34161184326772
print "xy = ${tilt_xy}"
xy = 0
print "xz = ${tilt_xz}"
xz = 0
print "yz = ${tilt_yz}"
yz = 0
print "tot_press = ${tot_press}"
tot_press = -0.0221375810241508
print "pxx = ${press_xx}"
pxx = -0.0221375810918532
print "pyy = ${press_yy}"
pyy = -0.0221375807194137
print "pzz = ${press_zz}"
pzz = -0.0221375812611855
print "pxy = ${press_xy}"
pxy = -7.28663154154814e-11
print "pxz = ${press_xz}"
pxz = -1.13535727889352e-10
print "pyz = ${press_yz}"
pyz = -3.13415884666446e-11
print "pypospack:output_section:done"
pypospack:output_section:done
print "pypospack:lammps_sim:done"
pypospack:lammps_sim:done
#------------------------------------------------------------------------------
# RUN THERMOSTAT
# running using an NPT Nose-Hoover style thermostat
#------------------------------------------------------------------------------
variable tempdamp equal 0.1
variable pressdamp equal 1.0
# set initial velocities
velocity all create 600 8602210 mom yes dist gaussian loop all
# fix for Nose-Hoover style thermostat
fix 20 all npt temp 600 600 0.1 aniso 0.0 0.0 1.0 drag 1.0 couple xyz
variable boxx equal lx
variable boxy equal ly
variable boxz equal lz
variable boxp equal press
variable boxt equal temp
# calculate averages every 10000 steps
reset_timestep 0
fix 21 all ave/time 10 10 100 v_boxx v_boxy v_boxz v_boxp v_boxt file lattice.out
thermo_style custom step temp pe ke etotal press lx ly lz press pxx pyy pzz pxy pxz pyz vol
thermo_modify flush yes
thermo 100
run 100000
PPPM initialization ...
  G vector (1/distance) = 0.3518
  grid = 8 8 8
  stencil order = 5
  estimated absolute RMS force accuracy = 4.02804e-05
  estimated relative force accuracy = 2.79732e-06
  using double precision FFTs
  3d grid and FFT values/proc = 3375 512
Memory usage per processor = 3.06549 Mbytes
Step Temp PotEng KinEng TotEng Press Lx Ly Lz Press Pxx Pyy Pzz Pxy Pxz Pyz Volume 
       0          600   -107.98101   0.54289261   -107.43812    7083.6177    4.3416118    4.3416118    4.3416118    7083.6177     8412.387    8441.1175    4397.3485   -5853.1449    1821.6408   -609.86768    81.837618 
     100    120.17279   -107.47211   0.10873486   -107.36338    44.904251    4.3609914    4.3609914    4.3609914    44.904251   -2970.1674   -564.96546    3669.8456    10547.512    1278.8087    2920.7133    82.938406 
     200    470.70207   -107.64048   0.42590113   -107.21458   -8419.6516    4.3591781    4.3591781    4.3591781   -8419.6516    -14884.77   -6193.6844   -4180.5006    5584.2802    881.61312   -2377.3286    82.834995 
     300    513.30376   -107.55324   0.46444803   -107.08879    14149.946    4.3531368    4.3531368    4.3531368    14149.946    7367.7365    28006.469    7075.6311   -3688.7094   -81.943255    1235.1696    82.491073 
     400    381.21415   -107.33646   0.34493057   -106.99153   -11536.782     4.372464     4.372464     4.372464   -11536.782   -15085.201   -15693.271   -3831.8754    23539.697    1882.0838    3573.1158    83.594699 
     500    902.02517   -107.73273   0.81617133   -106.91656    1502.3041    4.3603313    4.3603313    4.3603313    1502.3041   -5356.2329    7013.3433    2849.8019    780.73174   -3141.9589   -5247.1452    82.900753 
     600    407.30117   -107.26062   0.36853466   -106.89208    6330.2406    4.3625776    4.3625776    4.3625776    6330.2406    8101.4963    13718.223   -2828.9975    13215.239   -154.80482    5930.9973    83.028942 
     700     484.7332   -107.32332   0.43859678   -106.88472   -11812.708    4.3725974    4.3725974    4.3725974   -11812.708   -19009.203   -25251.134    8822.2128    15424.137    806.55235   -252.28296     83.60235 
     800    856.70354   -107.65428   0.77516336   -106.87912     16538.55    4.3561521    4.3561521    4.3561521     16538.55    22837.537    31541.601   -4763.4884   -2077.9505   -8565.5036   -1478.8035    82.662607 
     900    420.14664   -107.27163   0.38015751   -106.89147   -10799.743    4.3728835    4.3728835    4.3728835   -10799.743   -9919.3993   -23447.348    967.51687    18968.368    2503.5544    5506.6818    83.618762 
    1000    718.64086   -107.53666   0.65024135   -106.88641   -509.72798    4.3611221    4.3611221    4.3611221   -509.72798   -13676.131    5453.7219    6693.2257   -3619.8643   -5481.0228   -2628.0916    82.945865 
    1100    555.17249   -107.39258   0.50233174   -106.89024       5035.3    4.3611128    4.3611128    4.3611128       5035.3    12103.886    7349.4187   -4347.4047    10251.546    157.13363    3396.3538    82.945333 
    1200    526.33013   -107.36862   0.47623456   -106.89239   -18565.172    4.3764324    4.3764324    4.3764324   -18565.172   -22145.026   -27415.343   -6135.1481    10629.241   -3018.8184   -810.98211    83.822515 
    1300    812.80742   -107.61764   0.73544523   -106.88219    25049.373    4.3488016    4.3488016    4.3488016    25049.373    27601.936    30096.192     17449.99   -6315.2284   -2304.2088   -299.29997    82.244863 
    1400    425.29975   -107.27719   0.38482015   -106.89237    -23796.78    4.3787598    4.3787598    4.3787598    -23796.78   -21067.236   -33391.261   -16931.841    26679.333     2837.498    382.78117    83.956315 
    1500    611.62579   -107.44095   0.55341187   -106.88754    6920.6183    4.3580761    4.3580761    4.3580761    6920.6183   -1878.4435    7177.5129    15462.785    650.94414   -3791.0072    -3314.523    82.772187 
    1600    656.01209   -107.48278   0.59357353    -106.8892    10035.223    4.3583773    4.3583773    4.3583773    10035.223    30089.191    -1961.593    1978.0701    9460.6562    1845.3374   -1866.0487     82.78935 
    1700    555.27435   -107.39142    0.5024239     -106.889   -26797.077    4.3801702    4.3801702    4.3801702   -26797.077   -34031.215    -26841.45   -19518.566    23644.723    3673.8429    2217.1038    84.037468 
    1800    712.24466   -107.52401   0.64445394   -106.87955    25571.997    4.3452928    4.3452928    4.3452928    25571.997    29752.062    25957.388    21006.542   -8037.8772   -1427.7947   -5744.2044    82.045945 
    1900    410.07317    -107.2629   0.37104282   -106.89186    -22015.05     4.377152     4.377152     4.377152    -22015.05   -26127.771    -31487.01   -8430.3683    25507.307   -289.13893    3137.2043    83.863868 
    2000    681.70981   -107.50432   0.61682537   -106.88749   -2594.9223    4.3605792    4.3605792    4.3605792   -2594.9223    4826.1909   -4320.3727   -8290.5851    8008.0928    6482.8893   -3579.4211    82.914889 
    2100     661.8668   -107.48477   0.59887099    -106.8859    14196.766     4.357997     4.357997     4.357997    14196.766    21482.508    2001.6546    19106.135    -370.5196   -5387.0484   -744.46111    82.767682 
    2200    456.49221   -107.30231   0.41304375   -106.88927   -21739.052    4.3758367    4.3758367    4.3758367   -21739.052   -31765.071   -27102.548   -6349.5382    23044.756    5674.3483   -82.540539    83.788288 
    2300    713.84125   -107.52804   0.64589857   -106.88214    17825.775    4.3502646    4.3502646    4.3502646    17825.775    21154.308    9470.6428    22852.374   -6846.4568   -2549.1137   -4295.6209    82.327898 
    2400    491.92699   -107.33476   0.44510588   -106.88965   -13402.995    4.3742596    4.3742596    4.3742596   -13402.995   -18548.029   -18604.889   -3056.0672    20289.413   -2097.5813    4071.4455    83.697726 
    2500    686.59544   -107.50907   0.62124598   -106.88782   -2007.5933     4.357756     4.357756     4.357756   -2007.5933    531.40282    -12162.19     5608.007    8327.7437    4168.9174   -5846.0444     82.75395 
    2600    609.10303   -107.43884   0.55112922   -106.88771     6154.492     4.365004     4.365004     4.365004     6154.492    6090.6091     4517.557    7855.3098    1125.9602    -10365.06    2464.0687    83.167557 
    2700    414.07356    -107.2645   0.37466246   -106.88984   -12693.256    4.3697498    4.3697498    4.3697498   -12693.256   -20284.013   -23522.809    5727.0555     24108.49    4100.8038    1541.8227    83.439122 
    2800    825.18612   -107.62755   0.74664574   -106.88091     11686.95    4.3509983    4.3509983    4.3509983     11686.95    22886.759    5476.3677    6697.7223   -3093.7112   -6458.5358    154.24672     82.36956 
    2900    431.41207   -107.27702   0.39035071   -106.88667     -5632.38    4.3789053    4.3789053    4.3789053     -5632.38   -14979.659   -14411.449    12493.968    13237.132    -5119.785    1490.6832    83.964685 
    3000    681.73367   -107.50134   0.61684695   -106.88449    2580.2716    4.3528127    4.3528127    4.3528127    2580.2716     2781.871   -7941.8378    12900.782    12832.519    2694.3659    1694.3456    82.472647 
    3100    536.77452   -107.37571   0.48568487   -106.89002     13721.65    4.3620952    4.3620952    4.3620952     13721.65    6173.5458    10947.455    24043.951   -1358.0459   -3131.2324    2130.7179    83.001399 
    3200    553.31334   -107.38909   0.50064953   -106.88844   -20436.002    4.3772489    4.3772489    4.3772489   -20436.002   -22477.382   -32839.339   -5991.2833    16684.325    508.92007   -1399.1959    83.869439 
    3300    680.74551   -107.49653   0.61595284   -106.88058    19997.411    4.3387138    4.3387138    4.3387138    19997.411    19581.686    20557.604    19852.942   -1735.0843     2104.952    1004.3581    81.673846 
    3400    512.65783   -107.35672   0.46386358   -106.89286   -16375.122    4.3809097    4.3809097    4.3809097   -16375.122   -29479.292   -13791.709   -5854.3643    6741.1501   -2622.5595   -3346.0886    84.080036 
    3500    642.58438   -107.47379   0.58142386   -106.89236   -3794.2401    4.3605217    4.3605217    4.3605217   -3794.2401   -6782.0437   -19148.356     14547.68    10809.571    2528.8757   -1523.1844    82.911613 
    3600    655.31952   -107.47515   0.59294688    -106.8822    27801.269    4.3424694    4.3424694    4.3424694    27801.269    27659.865    34129.331     21614.61   -3578.5919    5481.1534   -2817.5481    81.886121 
    3700    498.33946    -107.3311   0.45090802   -106.88019   -22913.486    4.3878766    4.3878766    4.3878766   -22913.486   -21124.578   -41777.928   -5837.9515    13439.033   -4853.5513     2241.956     84.48181 
    3800    717.34182   -107.53089   0.64906595   -106.88182    17081.933    4.3391919    4.3391919    4.3391919    17081.933    11169.015    17861.432    22215.352    3035.4359     10230.97   -3795.9623    81.700851 
    3900     494.0762   -107.34468   0.44705053   -106.89763    2993.6305    4.3639822    4.3639822    4.3639822    2993.6305   -3307.5619    5774.0556    6514.3977    1389.3629   -6467.6033   -171.59812    83.109163 
    4000    776.04385   -107.58849   0.70218078   -106.88631   -25890.679    4.3763138    4.3763138    4.3763138   -25890.679    -25350.61   -38971.518   -13349.909    16438.436    1854.3322   -844.26272    83.815696 
    4100    503.63097   -107.33081   0.45569589   -106.87512    37510.236    4.3319708    4.3319708    4.3319708    37510.236    34192.936    47866.386    30471.385   -1998.9178    3931.6641    1326.2224    81.293638 
    4200    583.26371   -107.41361   0.52774926   -106.88586   -22920.923    4.3814075    4.3814075    4.3814075   -22920.923   -24047.418   -29826.676   -14888.676    6563.2758   -2958.2217   -1124.0773    84.108705 
    4300    658.25006   -107.48476   0.59559849   -106.88916    3208.4838    4.3557231    4.3557231    4.3557231    3208.4838    -135.3178   -6882.6105     16643.38    7388.4822    6900.8624   -738.80668    82.638189 
    4400    614.16022   -107.44163   0.55570507   -106.88592    23259.995    4.3447144    4.3447144    4.3447144    23259.995     25822.72    34695.923     9261.343   -2803.0997    2061.8093    1063.4444    82.013186 
    4500    702.68703   -107.51521   0.63580599    -106.8794   -25730.429    4.3821862    4.3821862    4.3821862   -25730.429   -26210.152   -41392.095   -9589.0398    3687.9645    1414.5346   -3080.9012    84.153558 
    4600    447.41295   -107.28832   0.40482864   -106.88349    17956.767    4.3423105    4.3423105    4.3423105    17956.767    5461.0501    38025.683    10383.569    1589.6968    9772.1822    2839.3927    81.877132 
    4700    665.14813   -107.49318      0.60184   -106.89134   -2326.4342    4.3613946    4.3613946    4.3613946   -2326.4342   -6641.6904   -3744.5961    3406.9838    404.05249    1327.5678   -5573.7599    82.961411 
    4800    705.95315   -107.52438   0.63876124   -106.88562   -19421.542     4.372472     4.372472     4.372472   -19421.542   -21919.793   -21940.803   -14404.032    -1472.683    8250.2473   -723.12129    83.595158 
    4900    505.57269   -107.33809    0.4574528   -106.88064    22527.263    4.3418715    4.3418715    4.3418715    22527.263    20728.139    39842.412    7011.2386     2065.578    14169.657    1736.2454      81.8523 
    5000    758.51173   -107.57121   0.68631735   -106.88489   -14283.602     4.368537     4.368537     4.368537   -14283.602    -14050.12    -23006.42   -5794.2667   -158.13354   -4036.7282   -850.02604    83.369666 
    5100    337.08763   -107.19634   0.30500397   -106.89134    1973.5809    4.3623037    4.3623037    4.3623037    1973.5809   -17350.891    13540.649    9730.9853   -163.69464    17012.209    2665.8699      83.0133 
    5200    886.68926   -107.68697   0.80229508   -106.88467    7493.0868    4.3509401    4.3509401    4.3509401    7493.0868    13719.998    9053.5018   -294.23927    2335.6149    6437.7186    2747.2849    82.366254 
    5300    581.09275   -107.41474   0.52578493   -106.88896   -3104.0834    4.3646859    4.3646859    4.3646859   -3104.0834   -15819.208   -9476.9111    15983.869    3210.9502   -610.85771   -1217.9575    83.149375 
    5400    344.54599   -107.20194   0.31175245   -106.89019   -1799.7353    4.3633738    4.3633738    4.3633738   -1799.7353   -17454.346    22032.764    -9977.624   -432.54749    20911.253    3216.6693     83.07441 
    5500    912.48004   -107.70811   0.82563112   -106.88248    5826.7726    4.3513528    4.3513528    4.3513528    5826.7726    3696.3447    14.951938    13769.021    1940.3361   -6830.2233    942.17387    82.389693 
    5600    375.79537   -107.23331   0.34002755   -106.89328   -312.83301    4.3636881    4.3636881    4.3636881   -312.83301   -14880.927    7243.8748    6698.5533    1497.1167    13541.292      1027.42    83.092363 
    5700    740.02892   -107.55693   0.66959372   -106.88734   -4210.2108    4.3647345    4.3647345    4.3647345   -4210.2108    -4386.018    4141.1101   -12385.725   -1728.1136    7443.4846     1200.028    83.152154 
    5800    644.92999   -107.47002   0.58354621   -106.88647    15624.528     4.345391     4.345391     4.345391    15624.528    7567.9669    7989.1167      31316.5   -1798.8069   -905.90855   -2412.7885    82.051509 
    5900    272.62032   -107.14192   0.24667259   -106.89525    -12098.23      4.37305      4.37305      4.37305    -12098.23   -34601.896    8712.0486   -10404.842    392.81345    18009.656    2347.8145    83.628309 
    6000    1037.6139   -107.82421   0.93885482   -106.88536    4064.1791    4.3537785    4.3537785    4.3537785    4064.1791    11054.668    77.537632    1060.3316   -2256.3359   -4513.8244   -4134.6075     82.52756 
    6100    403.42381   -107.25847   0.36502634   -106.89344    12945.321    4.3489446    4.3489446    4.3489446    12945.321   -7002.9712    23471.075    22367.859   -2799.4147    12937.974   -173.48618    82.252978 
    6200    484.46958   -107.32741   0.43835826   -106.88905   -24648.378    4.3782274    4.3782274    4.3782274   -24648.378   -33625.759   -8282.7761   -32036.597    4481.3543    7762.6448   -1497.8834    83.925697 
    6300    788.75648   -107.59501   0.71368344   -106.88132    21028.287    4.3401904    4.3401904    4.3401904    21028.287    20400.322    19629.545    23054.996   -6926.9917   -2914.8516   -1092.2367    81.757261 
    6400    409.36485   -107.26383   0.37040191   -106.89343   -6399.6601    4.3650359    4.3650359    4.3650359   -6399.6601   -17533.171     7483.221   -9149.0299   -698.17744    19920.915    184.90205    83.169382 
    6500    830.53045   -107.63603   0.75148141   -106.88455   -7321.1911    4.3651857    4.3651857    4.3651857   -7321.1911     4033.278   -9084.0238   -16912.828    1981.2097   -5333.7916    2327.2582    83.177945 
    6600    489.99525   -107.32791     0.443358   -106.88455    20488.245    4.3413397    4.3413397    4.3413397    20488.245    11342.316    23970.528    26151.892   -2480.8013    6629.7174   -354.46001    81.822231 
    6700    476.05661   -107.32057   0.43074602   -106.88982   -19875.296    4.3746693    4.3746693    4.3746693   -19875.296   -27532.336   -7214.0851   -24879.467    4964.8478     15641.41    2777.6046    83.721248 
    6800    918.09727   -107.71592    0.8307137    -106.8852    9298.6956    4.3505617    4.3505617    4.3505617    9298.6956    19992.946    3353.5397     4549.601    229.15585   -15378.349     2499.806    82.344763 
    6900    441.74532   -107.29127   0.39970045   -106.89157    10924.179    4.3518543    4.3518543    4.3518543    10924.179    3647.0373     26802.59    2322.9086    1157.8756    20265.065    188.08542    82.418185 
    7000    593.19701   -107.42403   0.53673712   -106.88729   -13277.967     4.371754     4.371754     4.371754   -13277.967    -8200.356   -7875.4545   -23758.091    1417.1841   -212.63559    1236.2395    83.553981 
    7100    584.51999   -107.41503   0.52888597   -106.88614    19018.505    4.3466525    4.3466525    4.3466525    19018.505     27165.12    21649.042    8241.3528    -140.5957   -7666.9149    1683.4654    82.122994 
    7200    599.89813   -107.43454   0.54280044   -106.89173    2055.4721    4.3591373    4.3591373    4.3591373    2055.4721    3050.3982    11961.994    -8845.976    2462.9158    23708.064    1285.5954    82.832668 
    7300     727.8177   -107.54606   0.65854475   -106.88752   -3404.1863    4.3648645    4.3648645    4.3648645   -3404.1863    8465.8283   -7495.8538   -11182.533   -3802.3693   -16670.881    -933.2744    83.159581 
    7400    515.16151   -107.35271   0.46612896   -106.88658    10974.786    4.3475322    4.3475322    4.3475322    10974.786    2176.9407     20194.32    10553.098    2586.4112    9259.2733    1345.6503    82.172865 
    7500      553.053   -107.39113   0.50041398   -106.89071   -5199.7772    4.3658113    4.3658113    4.3658113   -5199.7772   -7837.9039    3137.6449   -10899.073   -367.28466    7174.8263   -1011.6164    83.213709 
    7600     717.8417   -107.54003   0.64951826   -106.89051    2902.2059    4.3582939    4.3582939    4.3582939    2902.2059    13101.794   -2997.4437   -1397.7321    10.851161   -17594.522   -1172.1302    82.784599 
    7700    670.30835   -107.49595   0.60650908   -106.88944     17290.67    4.3476377    4.3476377    4.3476377     17290.67    13553.826    27480.611    10837.574    3000.4013    19523.219   -2640.0326    82.178848 
    7800    491.34333   -107.33278   0.44457777    -106.8882    -10559.45    4.3710613    4.3710613    4.3710613    -10559.45   -6293.8281   -7363.5347   -18020.987    4806.7662   -14742.364   -421.62555    83.514273 
    7900     558.0512    -107.3919   0.50493646   -106.88697    14055.798    4.3464118    4.3464118    4.3464118    14055.798   -2394.6249    27775.359    16786.661   -1813.4246   -382.72196    1188.2322    82.109349 
    8000    715.40882   -107.53915   0.64731693   -106.89184    2779.5653    4.3585424    4.3585424    4.3585424    2779.5653    3632.0995    12819.464   -8112.8681    1805.5629    11489.458   -2323.5962    82.798758 
    8100    571.57695   -107.40841   0.51717484   -106.89124   -10873.802    4.3658843    4.3658843    4.3658843   -10873.802   -15396.507   -13662.385   -3562.5134    5547.4318   -20812.677    4143.4405    83.217882 
    8200    592.98545   -107.42062    0.5365457   -106.88407    22160.589    4.3408645    4.3408645    4.3408645    22160.589    5680.4652    38029.233     22772.07    -2741.555     17250.88   -2045.3385    81.795362 
    8300     556.5212   -107.39082   0.50355208   -106.88726   -17421.251    4.3727525    4.3727525    4.3727525   -17421.251   -18755.745   -18134.939   -15373.068    7209.8899   -7641.2951    528.04384    83.611246 
    8400    641.72115   -107.47095   0.58064278   -106.89031    9565.0923    4.3484551    4.3484551    4.3484551    9565.0923    848.18981     9910.185    17936.902    3659.5214   -9725.8816    3413.2762    82.225207 
    8500    771.14614   -107.58753   0.69774923   -106.88978    11827.187    4.3527992    4.3527992    4.3527992    11827.187    11956.248    18859.742    4665.5698   -3672.1013     14112.33   -2788.6208    82.471883 
    8600    445.28235   -107.29211   0.40290082   -106.88921   -18738.666    4.3707857    4.3707857    4.3707857   -18738.666   -28851.216   -14639.129   -12725.652    6185.6119   -18446.349   -1020.0158    83.498472 
    8700    532.61516   -107.36409   0.48192139   -106.88217    23934.461      4.33986      4.33986      4.33986    23934.461    6265.8713    35179.768    30357.742   -2198.8339    1687.3052    5113.2097    81.738593 
    8800    749.27615   -107.56542   0.67796081   -106.88746   -13689.895    4.3675262    4.3675262    4.3675262   -13689.895    -12240.53   -11805.578   -17023.576    879.02862    632.23399   -6777.8794    83.311808 
    8900    526.08093    -107.3674   0.47600908   -106.89139    2822.7581    4.3536993    4.3536993    4.3536993    2822.7581   -10335.541   -4376.7759    23180.591    6019.8422   -15444.454    2534.5271    82.523053 
    9000    695.34578   -107.51572   0.62916348   -106.88656    6714.8106    4.3528168    4.3528168    4.3528168    6714.8106   -411.83107    10220.799    10335.464   -3011.5022     4928.261    1817.6053     82.47288 
    9100    492.52524   -107.33465   0.44564718     -106.889   -15308.638    4.3653195    4.3653195    4.3653195   -15308.638   -26155.655   -13843.275   -5926.9829    7850.6386   -7282.4132    -7634.145    83.185591 
    9200    570.35475   -107.40355   0.51606897   -106.88748     17767.43    4.3467927    4.3467927    4.3467927     17767.43     11300.63     15659.89    26341.769   -3386.8114   -7110.9896     6826.276    82.130941 
    9300    810.22087   -107.61984   0.73310487   -106.88673   -10801.289    4.3657159    4.3657159    4.3657159   -10801.289   -8366.1457    -7536.763   -16500.957    640.74027    4541.8459   -4640.8195    83.208256 
    9400    404.94841   -107.25762   0.36640584   -106.89122    2500.2754    4.3497402    4.3497402    4.3497402    2500.2754   -9182.1437    3602.0661    13080.904    10116.976   -10657.303    -1960.296     82.29813 
    9500    610.88874   -107.44269   0.55274497   -106.88995   -733.13361    4.3597817    4.3597817    4.3597817   -733.13361   -4514.9993   -3327.2726     5642.871   -6524.5039    3263.0545    2301.2582    82.869408 
    9600    712.86233   -107.53431   0.64501282    -106.8893   -10999.143    4.3602217    4.3602217    4.3602217   -10999.143   -9646.2783   -10446.253   -12904.898    10051.827   -4631.8826    -6808.307    82.894501 
    9700    556.11308    -107.3922    0.5031828   -106.88902    14137.352    4.3439313    4.3439313    4.3439313    14137.352    4296.9755    9426.1393    28688.941    6697.0363   -7963.7394    1048.7314    81.968852 
    9800    646.13557   -107.46982   0.58463704   -106.88519   -14030.481    4.3729898    4.3729898    4.3729898   -14030.481   -19963.745   -14685.167    -7442.533   -8467.0283    3918.5876   -2987.4387     83.62486 
    9900    473.08682    -107.3173    0.4280589   -106.88924    6586.1736    4.3435309    4.3435309    4.3435309    6586.1736    340.10886    6852.0452    12566.367    10948.412   -13302.784   -6867.6986    81.946185 
   10000    621.01794   -107.45414   0.56191008   -106.89223    5336.2241    4.3560834    4.3560834    4.3560834    5336.2241    3886.6882   -2692.6481    14814.632   -2183.2675   -192.03289    3405.2742    82.658699 
   10100    704.28911   -107.52274   0.63725558   -106.88548   -14128.712    4.3693692    4.3693692    4.3693692   -14128.712   -10474.124   -15823.662   -16088.349   -5509.0724   -7315.1226   -9289.7586     83.41732 
   10200    461.90039    -107.3008   0.41793718   -106.88287    18428.186    4.3345177    4.3345177    4.3345177    18428.186    7329.7239    12956.392    34998.442    8470.1832   -13041.939   -312.78892     81.43711 
   10300    649.44093   -107.47165    0.5876278   -106.88402   -14361.975    4.3721292    4.3721292    4.3721292   -14361.975   -23162.461   -14633.784   -5289.6798   -6812.4981    1248.6755    2128.5373    83.575494 
   10400    555.65089   -107.39129   0.50276461   -106.88852    4521.2795    4.3511968    4.3511968    4.3511968    4521.2795     1390.047    4458.2814    7715.5101    1048.9243       -14583   -11554.735    82.380831 
   10500    688.04969   -107.51039   0.62256182   -106.88783    8962.2559    4.3447314    4.3447314    4.3447314    8962.2559   -1232.6465    5046.2944     23073.12    591.85099   -8038.6885    7196.4419    82.014153 
   10600    618.81783   -107.44343   0.55991938   -106.88351   -8904.2982    4.3715891    4.3715891    4.3715891   -8904.2982   -16876.037   -12078.132    2241.2751   -7076.4369   -2057.7677   -7129.7087    83.544525 
   10700    423.79393   -107.27068   0.38345766   -106.88722    7619.5702    4.3436933    4.3436933    4.3436933    7619.5702     -3525.35    5596.3258    20787.735    7919.0374   -14942.704    -2830.935    81.955377 
   10800    726.56363   -107.54578   0.65741004   -106.88837   -1997.4707    4.3571698    4.3571698    4.3571698   -1997.4707   -6303.8207   -7875.7169    8187.1254   -5376.8647   -1760.1012    1324.7695    82.720557 
   10900    664.95208   -107.48943   0.60166261   -106.88777    2976.8764     4.359577     4.359577     4.359577    2976.8764   -1273.2595    1007.7824    9196.1062   -271.04529   -5212.5982   -10304.258    82.857733 
   11000    472.65673   -107.31702   0.42766974   -106.88935   -2963.3344     4.352314     4.352314     4.352314   -2963.3344   -20128.332   -2167.8514     13406.18    11927.509   -9755.5985    1876.8318    82.444308 
   11100    671.00511   -107.49383   0.60713953   -106.88669    2224.2152    4.3548878    4.3548878    4.3548878    2224.2152   -8470.8136   -1658.9592    16802.418   -9095.3956     6201.272   -5072.0825    82.590653 
   11200    491.40173   -107.33672   0.44463061   -106.89209    396.32203    4.3583237    4.3583237    4.3583237    396.32203   -12964.766    7074.0639    7079.6684    6823.7625   -14557.347   -5806.1355    82.786295 
   11300    719.94579   -107.54189   0.65142208   -106.89047   -10521.129    4.3564972    4.3564972    4.3564972   -10521.129   -15384.882   -15005.847   -1172.6576    6455.5192    2881.7799    919.16374    82.682258 
   11400    624.83052   -107.45277   0.56535978   -106.88741    15303.863    4.3473607    4.3473607    4.3473607    15303.863    5008.8126      12293.4    28609.377   -5199.3706    -4880.735   -3041.6442    82.163139 
   11500    399.66088   -107.25249   0.36162156   -106.89087   -25173.773    4.3692648    4.3692648    4.3692648   -25173.773   -40588.475   -12258.715    -22674.13    10960.536   -16061.335    -3552.478     83.41134 
   11600    725.41194   -107.54415   0.65636797   -106.88778    11080.013    4.3418504    4.3418504    4.3418504    11080.013    8875.0122    312.39322    24052.633    1164.1297    8388.5399    8049.0797    81.851107 
   11700    693.30091   -107.52084   0.62731323   -106.89352   -1595.2266    4.3572701    4.3572701    4.3572701   -1595.2266   -5940.5366    10396.423    -9241.566    1085.3446   -18016.633   -1704.2818    82.726272 
   11800    454.30828   -107.30239   0.41106768   -106.89132   -24156.555     4.366352     4.366352     4.366352   -24156.555   -37510.679   -21164.083   -13794.903    8603.7155   -4956.7296    2458.4302    83.244632 
   11900    636.87386   -107.45633   0.57625686   -106.88007    21620.288     4.331743     4.331743     4.331743    21620.288    15296.477    20990.681    28573.706   -5137.5626    -1068.803    9563.4949    81.280813 
   12000    543.89225   -107.38063   0.49212514    -106.8885   -26680.447    4.3736982    4.3736982    4.3736982   -26680.447   -39766.014   -11378.252   -28897.074    6171.2022    -14950.16   -4701.5312    83.665502 
   12100    683.35518   -107.50972   0.61831412   -106.89141   -1629.6652     4.347143     4.347143     4.347143   -1629.6652   -2379.9573    -10766.52    8257.4819    3983.9657     655.2615    8594.8843    82.150795 
   12200    647.75351   -107.47377   0.58610099   -106.88767    9878.7511    4.3437562    4.3437562    4.3437562    9878.7511    6137.1854    17338.393    6160.6753   -3173.6327   -5179.6344    3112.1112    81.958938 
   12300    421.89481    -107.2667   0.38173929   -106.88496   -28521.072    4.3730946    4.3730946    4.3730946   -28521.072   -42961.439   -23217.124   -19384.653    12850.969   -8134.3122   -1416.9264     83.63087 
   12400    676.34581   -107.49357    0.6119719    -106.8816     17531.82    4.3347259    4.3347259    4.3347259     17531.82    19884.314    11588.306     21122.84   -1296.5668    4212.2575    10922.231    81.448843 
   12500    680.13949   -107.50322   0.61540451   -106.88782   -12242.821    4.3625718    4.3625718    4.3625718   -12242.821   -12148.813   -2452.2438   -22127.405    3080.3007   -11943.527    1582.0307    83.028609 
   12600    564.79061   -107.40077   0.51103441   -106.88974   -11884.265    4.3555257    4.3555257    4.3555257   -11884.265   -22391.772   -12887.492   -373.53098    12212.245   -564.20794    1386.7295    82.626952 
   12700    491.34318   -107.33047   0.44457764   -106.88589    8696.2473    4.3449639    4.3449639    4.3449639    8696.2473    2948.4163    10707.983    12432.343   -2593.8912   -5185.2007    12320.502    82.027316 
   12800    642.62925   -107.46841   0.58146445   -106.88694   -17624.121     4.362602     4.362602     4.362602   -17624.121   -31132.691   -10698.095   -11041.578     9215.294   -11695.514   -3016.3209    83.030331 
   12900    630.56594   -107.45821   0.57054932   -106.88766     8874.558    4.3477522    4.3477522    4.3477522     8874.558     7051.603    380.84066     19191.23    6452.3421    5969.3452    8361.7909    82.185339 
   13000    633.53932   -107.46009   0.57323969   -106.88685   -8651.1661     4.358332     4.358332     4.358332   -8651.1661   -3533.3197   -2726.1047   -19694.074   -434.21215   -16574.922    11838.501     82.78677 
   13100    499.51816   -107.34098   0.45197453     -106.889   -13.316585    4.3495112    4.3495112    4.3495112   -13.316585   -16860.774    1871.3474    14949.477    9042.7884   -386.25562   -4853.6741    82.285128 
   13200    629.86493   -107.45845   0.56991502   -106.88854   -3872.6937    4.3574248    4.3574248    4.3574248   -3872.6937    1748.4343   -6923.1478   -6443.3676    3996.4886   -1727.0108    17802.198     82.73508 
   13300    668.96203   -107.49474    0.6052909   -106.88945   -3052.0465    4.3522629    4.3522629    4.3522629   -3052.0465   -7389.8336    5377.7718   -7144.0775   -299.92859   -13773.006    45.236628    82.441399 
   13400    571.74848   -107.40737   0.51733004   -106.89004    1883.5083    4.3484695    4.3484695    4.3484695    1883.5083   -5564.4383   -2679.8988    13894.862    11120.454    4127.4343    4223.7993    82.226025 
   13500    549.15363   -107.38496   0.49688574   -106.88808    -8647.359     4.363611     4.363611     4.363611    -8647.359    -6596.956   -7862.0673   -11483.054   -1767.1553   -4145.2131    12208.171    83.087955 
   13600    578.15496   -107.41105   0.52312676   -106.88792    5859.8124    4.3426324    4.3426324    4.3426324    5859.8124    -7955.522    6142.6132    19392.346    7186.9913    -8048.093    -4298.978    81.895341 
   13700    670.51723   -107.49595   0.60669808   -106.88925   -3266.1248    4.3585214    4.3585214    4.3585214   -3266.1248    7456.2717   -12860.313   -4394.3332    7274.1146    5793.2998    12615.258    82.797563 
   13800    664.30396   -107.48941   0.60107618   -106.88833   -4544.7062    4.3561275    4.3561275    4.3561275   -4544.7062   -2746.5918   -1430.3491   -9457.1776   -3064.4009   -7157.9469    2204.3251     82.66121 
   13900    459.13466   -107.30482   0.41543469   -106.88939    3743.8463    4.3446943    4.3446943    4.3446943    3743.8463   -8331.3352    1852.8728    17710.001    14160.727   -4814.7875    1246.9509    82.012052 
   14000    678.84851   -107.50085    0.6142364   -106.88661   -5920.5522    4.3615316    4.3615316    4.3615316   -5920.5522   -3188.5342    -9636.797   -4936.3254   -1308.0057    5447.0792    7564.4337    82.969233 
   14100    568.59369   -107.40344   0.51447552   -106.88896     2961.493    4.3491956    4.3491956    4.3491956     2961.493   -12754.326    7507.8176    14130.988    4960.9318   -14704.783   -646.57287    82.267221 
   14200    624.22614   -107.45332   0.56481293    -106.8885    24.096496    4.3538171    4.3538171    4.3538171    24.096496     6282.809   -10225.831    4015.3112    10461.574    4199.6235    726.48275    82.529755 
   14300    637.02327   -107.46279   0.57639204    -106.8864    2034.9395    4.3537587    4.3537587    4.3537587    2034.9395   -4461.0755    1164.2392    9401.6548   -4177.1517   -8787.9285    5858.3319    82.526431 
   14400    417.65972   -107.26974   0.37790729   -106.89183   -2938.5181    4.3533158    4.3533158    4.3533158   -2938.5181   -14627.457   -3885.3719    9697.2749    8300.5298   -8679.5362   -1895.6869    82.501248 
   14500    833.16848   -107.63988   0.75386835   -106.88601    2549.3254    4.3549763    4.3549763    4.3549763    2549.3254     12673.65   -8397.6523    3371.9786    3399.8001    2316.8713    581.26394    82.595689 
   14600    544.20404   -107.38275   0.49240725   -106.89035    4371.5579     4.348512     4.348512     4.348512    4371.5579    -3549.209    7822.7614    8841.1213   -5664.2197   -14791.407    5564.2321    82.228434 
   14700    507.90222    -107.3498    0.4595606   -106.89024   -9356.5269    4.3604931    4.3604931    4.3604931   -9356.5269   -11523.272   -12589.021   -3957.2871    8742.0499    1489.9232   -6224.4344    82.909978 
   14800     694.3015   -107.51449   0.62821859   -106.88627    10092.986    4.3467746    4.3467746    4.3467746    10092.986    5923.2169    9150.5683    15205.172   -2533.1616   -5320.8206    3239.7892    82.129915 
   14900    468.63455   -107.31827   0.42403039   -106.89424   -6643.0288    4.3542721    4.3542721    4.3542721   -6643.0288   -16640.114    2492.4834   -5781.4555   -3337.9442   -9651.1368   -558.85718    82.555629 
   15000    807.38303   -107.61862   0.73053713   -106.88808   -371.69223    4.3572441    4.3572441    4.3572441   -371.69223    12960.819   -9476.5052   -4599.3908    8546.6662    5824.9612   -3386.4252     82.72479 
   15100     542.2059   -107.37974   0.49059929   -106.88914    7751.4839    4.3447535    4.3447535    4.3447535    7751.4839   -1873.8623     13989.59    11138.724   -8139.5954   -10730.151    2731.1427    82.015405 
   15200    400.57251   -107.25419   0.36244643   -106.89175   -13883.321    4.3626682    4.3626682    4.3626682   -13883.321   -17616.407   -11754.953   -12278.603     3859.122   -4289.7604   -1980.7523    83.034114 
   15300    832.55762   -107.63911   0.75331563   -106.88579    12688.271    4.3452622    4.3452622    4.3452622    12688.271    18277.521    5892.5035    13894.789     2232.621    5425.5217   -1960.4154    82.044216 
   15400     493.5612   -107.34025   0.44658454   -106.89367   -5794.8566    4.3546834    4.3546834    4.3546834   -5794.8566   -14759.006    3486.4959   -6112.0604    -6449.767   -13436.598    964.23065    82.579024 
   15500    646.33242   -107.47314   0.58481516   -106.88833   -5496.9148    4.3579824    4.3579824    4.3579824   -5496.9148    1364.6893   -10323.263   -7532.1708    8373.3313    3668.9741    -3824.501    82.766845 
   15600    560.05537   -107.39355   0.50674987    -106.8868    9878.4611    4.3427745    4.3427745    4.3427745    9878.4611   -1918.4565    16667.455    14886.385   -6047.3207   -4232.9869   -5947.0298    81.903384 
   15700    467.13268   -107.31444   0.42267146   -106.89177   -16705.636    4.3629596    4.3629596    4.3629596   -16705.636   -23769.637   -10149.692   -16197.579   -3331.1127   -8468.6659    3695.8101    83.050752 
   15800    836.48813   -107.64289   0.75687204   -106.88602    14596.732    4.3457439    4.3457439    4.3457439    14596.732    26146.274    6724.6449    10919.279    3635.4681    4401.7011   -11686.373    82.071505 
   15900    529.36272   -107.37106   0.47897851   -106.89209   -6286.7397    4.3526078    4.3526078    4.3526078   -6286.7397   -17105.209    897.35525   -2652.3653   -12668.379   -8724.8123    103.17475    82.461004 
   16000    450.60666   -107.29787   0.40771838   -106.89016   -7449.2772    4.3592361    4.3592361    4.3592361   -7449.2772   -11343.655   -6777.7361   -4226.4409   -1502.6648     923.7856   -3297.2217    82.838301 
   16100    705.28464   -107.52389   0.63815637   -106.88573    7080.6498    4.3451726    4.3451726    4.3451726    7080.6498    6121.7097    9077.4789    6042.7608   -1689.4663    -3626.882   -14078.012    82.039137 
   16200     526.1426   -107.36722   0.47606488   -106.89116   -12935.133    4.3591214    4.3591214    4.3591214   -12935.133   -25897.567   -2208.0709    -10699.76   -14322.159   -5623.8433    3784.2814     82.83176 
   16300    804.33022   -107.61356   0.72777488   -106.88578    8498.3793    4.3480613    4.3480613    4.3480613    8498.3793    21354.235    5331.3729   -1190.4706    1539.8913   -142.13123   -15312.388    82.202871 
   16400    474.43955   -107.31954   0.42928287   -106.89026   -7661.2426    4.3552027    4.3552027    4.3552027   -7661.2426   -23374.686    1916.7756   -1525.8171   -6367.2828   -6263.2498   -2525.0642    82.608571 
   16500     465.9399   -107.31273   0.42159221   -106.89114   -4831.7637    4.3531897    4.3531897    4.3531897   -4831.7637   -13130.384    2674.6441   -4039.5514   -7632.2236   -2681.4058   -1748.0117    82.494081 
   16600    768.14756   -107.58203   0.69503606     -106.887    7804.6375    4.3501455    4.3501455    4.3501455    7804.6375     20435.32    594.01102    2384.5817    2500.5066    655.79988   -11082.116    82.321134 
   16700    584.33837   -107.41944   0.52872163   -106.89072   -13932.782    4.3573086    4.3573086    4.3573086   -13932.782    -25343.59   -5052.9065    -11401.85   -8271.6978   -9018.3051    3121.8767    82.728465 
   16800    557.67172   -107.39251   0.50459309   -106.88792    9154.2532     4.346304     4.346304     4.346304    9154.2532     13049.87    12407.048     2005.842    837.34745    1638.7913   -4577.6335    82.103242 
   16900    595.19385   -107.42697    0.5385439   -106.88843   -11459.545    4.3584878    4.3584878    4.3584878   -11459.545   -17263.606   -10420.537   -6694.4928   -1214.4317   -2539.6618   -6453.5841    82.795645 
   17000    520.52505   -107.36292     0.470982   -106.89194   -1373.1862     4.349504     4.349504     4.349504   -1373.1862   -12972.355    10381.277   -1528.4808   -6719.1625   -6199.4875    2588.2447    82.284721 
   17100     790.9801   -107.60326   0.71569541   -106.88756    8455.5857    4.3509987    4.3509987    4.3509987    8455.5857    20036.081    2784.7441    2545.9316    4251.1245    4083.3528    -6582.597    82.369579 
   17200    534.21507   -107.37329   0.48336903   -106.88993   -13504.963    4.3589059    4.3589059    4.3589059   -13504.963   -27513.395   -8078.1455   -4923.3497   -5077.9693   -2923.4579   -4839.1975    82.819474 
   17300    448.81798   -107.29511   0.40609994   -106.88901    11026.763     4.343909     4.343909     4.343909    11026.763    7784.1208     16642.21    8653.9584   -4885.0779   -1081.3335    2620.0158    81.967586 
   17400     709.8666   -107.52995   0.64230222   -106.88765   -6823.0422    4.3591128    4.3591128    4.3591128   -6823.0422    950.71105   -15807.169   -5612.6683    6210.6405    947.31303   -12877.562    82.831268 
   17500    618.11685   -107.44973   0.55928512   -106.89044   -2318.9903    4.3510112    4.3510112    4.3510112   -2318.9903   -8626.3887    2146.2457   -476.82796    -6302.138   -1619.3385    1199.6476     82.37029 
   17600    650.82762   -107.47577   0.58888251   -106.88689    9042.3378    4.3500316    4.3500316    4.3500316    9042.3378    14666.521     10601.89    1858.6017    924.62868    -2989.164   -3806.8329     82.31467 
   17700    533.87019   -107.37149   0.48305696   -106.88844    -9145.394    4.3573799    4.3573799    4.3573799    -9145.394   -17592.331   -11352.825    1508.9736    8269.7216   -46.036534   -9570.5976    82.732523 
   17800    541.43376   -107.37898   0.48990065   -106.88908    10893.183     4.346893     4.346893     4.346893    10893.183    5286.7782     16670.88    10721.891   -7687.2934   -4870.5096    5064.6715    82.136627 
   17900    725.99875   -107.54451   0.65689892   -106.88762    1118.2816    4.3568117    4.3568117    4.3568117    1118.2816    13382.507   -10202.969    175.30722     8381.248    22.243221   -4210.0634    82.700166 
   18000    580.63655   -107.41512   0.52537215   -106.88975    1546.8209    4.3500732    4.3500732    4.3500732    1546.8209   -5401.5883     2528.534     7513.517     5390.113   -4730.9722    62.392329    82.317031 
   18100    549.39542   -107.38571   0.49710452   -106.88861     7205.386     4.352001     4.352001     4.352001     7205.386    9657.8256    10417.928    1540.4043   -4374.2021   -3539.9667    4521.1776    82.426518 
   18200    578.69457   -107.41276   0.52361501   -106.88914   -6351.8539    4.3560525    4.3560525    4.3560525   -6351.8539    -4373.052   -15351.237    668.72685    14184.017    2257.6919     255.8197    82.656937 
   18300    645.24288   -107.47305   0.58382932   -106.88922    10260.268    4.3469199    4.3469199    4.3469199    10260.268    12042.405    12871.938    5866.4605   -916.09212   -7423.5285    878.07366    82.138149 
   18400    675.08435   -107.49924    0.6108305   -106.88841    476.52693    4.3567275    4.3567275    4.3567275    476.52693    10586.389   -3634.0088   -5522.7999    3040.8296    3041.7791    8658.5089    82.695372 
   18500    535.46714   -107.37394   0.48450192   -106.88944    600.53299    4.3515721    4.3515721    4.3515721    600.53299   -6906.5332   -864.55915    9572.6914    13372.267   -75.117246   -2422.4156     82.40215 
   18600    577.19141   -107.41079   0.52225491   -106.88854    10197.998    4.3500314    4.3500314    4.3500314    10197.998    12147.416    13231.617    5214.9603   -6061.7259   -2777.6986    6931.5573    82.314658 
   18700    596.75444   -107.42947   0.53995595   -106.88952   -2180.6325    4.3563034    4.3563034    4.3563034   -2180.6325    8979.0805   -19773.876    4252.8976    14148.725    1606.1967     8562.607    82.671224 
   18800    671.96169   -107.49678   0.60800506   -106.88877    8124.5058    4.3493114    4.3493114    4.3493114    8124.5058    11640.975    3914.6348    8817.9071    5104.0083    460.35331   -5753.8823    82.273789 
   18900    593.95075   -107.42573   0.53741912   -106.88832    1402.2121    4.3535803    4.3535803    4.3535803    1402.2121    4983.7728   -567.43104   -209.70563    340.03138   -2085.3855    13325.402     82.51629 
   19000    485.48967   -107.32988   0.43928126    -106.8906   -1355.6351    4.3529155    4.3529155    4.3529155   -1355.6351    250.41543   -14023.674     9706.353    18803.171    2249.3771   -2031.0866    82.478489 
   19100    711.93238   -107.53147   0.64417138    -106.8873    5797.9978    4.3526283    4.3526283    4.3526283    5797.9978    6250.5188     6582.999    4560.4756   -4340.8134    1271.6955    704.45317    82.462168 
   19200    600.01822   -107.43261    0.5429091    -106.8897     3642.227     4.351802     4.351802     4.351802     3642.227    16030.092   -8767.1529    3663.7424     12963.16   -1688.5574    11663.789    82.415212 
   19300    638.23576   -107.46616   0.57748913   -106.88867    5897.2781    4.3540674    4.3540674    4.3540674    5897.2781    6146.8464   -655.31064    12200.298    12795.257   -1076.4205   -4854.5115    82.543986 
   19400    589.00274   -107.42093   0.53294206   -106.88798    6208.8708     4.351303     4.351303     4.351303    6208.8708     1685.767    6259.3716    10681.474   -5136.4693   -3730.1788    8316.3001    82.386864 
   19500    429.40562   -107.28085   0.38853523   -106.89232   -326.40734    4.3526715    4.3526715    4.3526715   -326.40734    6808.6399   -19260.944    11473.082    21618.331   -1576.5194    6183.8442    82.464623 
   19600    809.99778   -107.61952   0.73290301   -106.88662    6286.9778    4.3550176    4.3550176    4.3550176    6286.9778    2222.1388    3103.5077    13535.287   -561.34725   -5922.8386    934.48581    82.598039 
   19700    570.12451     -107.407   0.51586064   -106.89114     4712.283    4.3481004    4.3481004    4.3481004     4712.283    7457.8296   -1571.5942    8250.6137    4660.9367    993.26849    9498.0927    82.205086 
   19800    491.83807   -107.33693   0.44502542    -106.8919   -2600.4484    4.3571273    4.3571273    4.3571273   -2600.4484   -4489.3181   -11350.779    8038.7521    19474.031   -697.28729    4765.8697     82.71814 
   19900    717.71861   -107.53645   0.64940688   -106.88704    11368.694    4.3506224    4.3506224    4.3506224    11368.694    4361.8083    10880.934     18863.34   -8319.2938   -1265.1798   -262.80228    82.348213 
   20000    460.27297   -107.30984   0.41646466   -106.89338   -2277.4432    4.3513211    4.3513211    4.3513211   -2277.4432    2973.5189   -12855.073     3049.224    22520.191    2396.5296     12195.38    82.387893 
   20100    782.06821   -107.59658   0.70763176   -106.88895    5558.6492    4.3565276    4.3565276    4.3565276    5558.6492    390.86552    762.01127    15523.071    3152.3772    513.15168   -949.88368    82.683986 
   20200    607.63595   -107.44068   0.54980178   -106.89088    2454.5462    4.3488027    4.3488027    4.3488027    2454.5462   -8124.2066    8225.3286    7262.5167    5781.5619    1172.4102    5824.6497    82.244925 
   20300    320.55225   -107.18465   0.29004242   -106.89461   -6379.9359    4.3546871    4.3546871    4.3546871   -6379.9359   -12088.112    -18105.83    11054.134    23599.499    81.358928    12324.755    82.579237 
   20400    840.52881   -107.64621   0.76052813   -106.88569    8113.8255    4.3535177    4.3535177    4.3535177    8113.8255    8320.3186    3645.6198    12375.538   -7918.8866    246.78573   -7169.8515     82.51273 
   20500    515.22792   -107.36017   0.46618905   -106.89398   -8091.1103    4.3511781    4.3511781    4.3511781   -8091.1103   -12991.177   -10591.803   -690.35099    24325.342   -3016.7159     12083.39    82.379769 
   20600    617.76564   -107.45181   0.55896733   -106.89284    5025.6548    4.3527031    4.3527031    4.3527031    5025.6548    4688.2427   -2289.2857    12678.007     8279.232   -623.96527    1358.9357    82.466419 
   20700    717.18464   -107.53758   0.64892373   -106.88866   -2440.5006    4.3555589    4.3555589    4.3555589   -2440.5006   -10691.315    3135.6703    234.14247     1323.194   -2376.3178   -3436.6367    82.628842 
   20800    298.88751   -107.16552    0.2704397   -106.89508   -5704.0891    4.3499812    4.3499812    4.3499812   -5704.0891   -11565.245   -12199.197    6652.1745    27011.829   -1534.0631    11910.621     82.31181 
   20900    862.69512    -107.6682   0.78058467   -106.88761    7200.6863    4.3530583    4.3530583    4.3530583    7200.6863    12419.911    5667.4752    3514.6732   -4735.4413   -2909.8651   -1206.9316    82.486609 
   21000    541.42404   -107.38325   0.48989185   -106.89336   -9757.2898    4.3560794    4.3560794    4.3560794   -9757.2898   -23438.327   -9154.0145    3320.4722    18565.502    1284.5087    726.04828    82.658472 
   21100    457.56685   -107.30649    0.4140161   -106.89248    964.32764    4.3484868    4.3484868    4.3484868    964.32764   -1455.6592   -6908.1596    11256.802    11261.254   -4211.2937    13493.076    82.227003 
   21200    785.31407   -107.59726   0.71056867   -106.88669    1636.5376    4.3562308    4.3562308    4.3562308    1636.5376     3828.544   -3331.9734    4413.0423   -2231.7469   -63.921771   -3215.7845     82.66709 
   21300    399.14921   -107.25574   0.36115859   -106.89458   -7910.5926     4.352204     4.352204     4.352204   -7910.5926   -12983.739   -12502.267    1754.2278    24071.091    1926.2474    5537.3561    82.438052 
   21400    722.96523   -107.54446   0.65415414   -106.89031    6357.3689    4.3503141    4.3503141    4.3503141    6357.3689    17276.884     5415.199   -3619.9763   -6828.8042   -3881.2497    12898.295    82.330707 
   21500    678.20552   -107.50375   0.61365461   -106.89009   -5393.4756    4.3558756    4.3558756    4.3558756   -5393.4756   -17619.463   -2943.6918    4382.7281    15251.817    4818.3945   -5643.9112    82.646871 
   21600    376.70883   -107.23445   0.34085407   -106.89359   -5524.4051    4.3506759    4.3506759    4.3506759   -5524.4051   -3104.3182   -14728.622    1259.7244    15933.032   -1389.6771    14550.332    82.351252 
   21700    780.99127   -107.59404   0.70665731   -106.88738    2433.7605    4.3536524    4.3536524    4.3536524    2433.7605    11623.542    1323.4338   -5645.6941    -9697.126    804.30494    159.05219    82.520388 
   21800    513.81143   -107.35672   0.46490738   -106.89181   -7910.7329    4.3539018    4.3539018    4.3539018   -7910.7329    -13118.21   -15797.997    5184.0086    29964.001   -550.42581     2210.702    82.534568 
   21900    563.48606   -107.40105   0.50985403   -106.89119    1088.9101    4.3520213    4.3520213    4.3520213    1088.9101    14339.195   -5703.1745     -5369.29   -1373.5206    1281.6769    13445.166     82.42767 
   22000    721.32314   -107.54024   0.65266834   -106.88757    3212.4353    4.3523363    4.3523363    4.3523363    3212.4353   -229.31111   -3537.0334     13403.65    6149.9664   -2381.4218   -5417.9983    82.445573 
   22100    442.48734   -107.29318   0.40037185   -106.89281   -8784.5527    4.3538888    4.3538888    4.3538888   -8784.5527   -786.51979    -19224.92   -6342.2183    24265.608   -1449.2789    13618.758    82.533828 
   22200    678.98916   -107.50242   0.61436366   -106.88806    1924.8494    4.3537288    4.3537288    4.3537288    1924.8494    18531.808    4161.8177   -16919.078    -9436.318    504.94454    7243.9258    82.524733 
   22300    644.99542   -107.47295   0.58360541   -106.88935   -3489.9883    4.3495685    4.3495685    4.3495685   -3489.9883   -12273.308   -8958.3724    10761.716    20043.149   -1723.6361   -1736.7838    82.288382 
   22400    514.74443   -107.35766   0.46575158   -106.89191   -9264.9512    4.3589706    4.3589706    4.3589706   -9264.9512    6301.6331   -18848.337    -15248.15     7232.259     1108.992    18288.953    82.823166 
   22500    719.41905   -107.53827   0.65094548   -106.88732       6025.8    4.3475374    4.3475374    4.3475374       6025.8    9656.1126    4738.7364     3682.551   -956.66935   -2536.3535    767.61215    82.173156 
   22600    473.54632   -107.32175   0.42847466   -106.89327    -4284.065    4.3520501    4.3520501    4.3520501    -4284.065    2279.3448   -19678.824    4547.2845    20805.166    2951.1241    5116.8425    82.429311 
   22700    642.92129   -107.47039   0.58172869   -106.88866   -5807.3134    4.3608434    4.3608434    4.3608434   -5807.3134    9033.9295   -3406.9002    -23048.97   -4294.2608   -4379.7022    16929.288    82.929962 
   22800    666.79522   -107.49064   0.60333032   -106.88731    9356.8595    4.3413812    4.3413812    4.3413812    9356.8595    2990.0621   -1832.7439     26913.26     13925.38    2410.6484   -6484.9999    81.824578 
   22900    478.73049   -107.32546   0.43316541    -106.8923   -10467.857    4.3608457    4.3608457    4.3608457   -10467.857    1058.3901    -21883.26     -10578.7    13056.318   -511.77363    13515.174    82.930094 
   23000    705.42896   -107.52627   0.63828695   -106.88799    321.48351    4.3517264    4.3517264    4.3517264    321.48351    12934.534    807.92729   -12778.011   -4991.8941   -760.90292    7680.2307     82.41092 
   23100    473.90312   -107.31993    0.4287975   -106.89113    -316.6235    4.3452347    4.3452347    4.3452347    -316.6235    1287.4268   -13394.524    11157.226    24864.969    1199.8528   -3014.7111    82.042657 
   23200    623.61405   -107.45209    0.5642591   -106.88783   -11733.759    4.3645187    4.3645187    4.3645187   -11733.759    625.50572   -14509.599   -21317.184   -2643.6738   -2326.7786    17671.391    83.139821 
   23300    706.79874   -107.52619   0.63952635   -106.88666    7065.7246    4.3418562    4.3418562    4.3418562    7065.7246    10003.344   -4976.7535    16170.583    9254.4494    2899.7513   -5255.6396    81.851436 
   23400    442.77102   -107.29381   0.40062853   -106.89318   -6673.3752     4.355601     4.355601     4.355601   -6673.3752   -104.75227   -17535.968   -2379.4056    18383.651   -4631.6141      9777.62    82.631237 
   23500    742.99968   -107.55874   0.67228173   -106.88646   -3196.7393    4.3574114    4.3574114    4.3574114   -3196.7393    14422.557   -3743.6213   -20269.154   -9630.8795    2755.9604    9103.3396    82.734317 
   23600    488.25833   -107.33116   0.44178639   -106.88938    2711.8077    4.3426827    4.3426827    4.3426827    2711.8077    1052.6561   -8978.0077    16060.775    21897.585   -1079.2267   -5662.4026    81.898189 
   23700    631.05454   -107.46085   0.57099141   -106.88986   -10245.982     4.360914     4.360914     4.360914   -10245.982    590.57311   -21782.165   -9546.3547    981.43234    1782.3158    14130.112    82.933989 
   23800    741.59306   -107.55892   0.67100899   -106.88791   -3927.6871    4.3506966    4.3506966    4.3506966   -3927.6871    4758.0174    -10551.58    -5989.499     4985.036    1786.2201   -3443.6242    82.352423 
   23900    330.68776   -107.19322   0.29921323   -106.89401   -3585.6855    4.3470156    4.3470156    4.3470156   -3585.6855   -842.15661   -14189.271    4274.3711    18765.566    159.06141   -2012.0425    82.143573 
   24000     831.4657   -107.63944   0.75232764   -106.88711   -7056.8909    4.3600029    4.3600029    4.3600029   -7056.8909    144.85447   -8000.2407   -13315.286   -3881.2912    4186.9489    7144.6517    82.882021 
   24100    440.83966   -107.29272   0.39888099   -106.89384   -1685.2125    4.3504544    4.3504544    4.3504544   -1685.2125   -1488.5932   -16978.495    13411.451    18681.665   -3037.2528   -10524.784    82.338672 
   24200    586.25885   -107.42341   0.53045932   -106.89295    520.57201     4.346685     4.346685     4.346685    520.57201    1925.5975   -11733.564    11369.682    6477.2348    5451.0136    1083.4981    82.124834 
   24300    821.71172   -107.63117   0.74350203   -106.88767   -5561.3237    4.3609978    4.3609978    4.3609978   -5561.3237    5511.6143   -10725.849   -11469.736      2392.73   -152.02224    2920.4178    82.938775 
   24400    275.23885     -107.146   0.24904189   -106.89696   -8085.8294    4.3476987    4.3476987    4.3476987   -8085.8294   -10181.275   -17986.492    3910.2786    21880.485   -478.34179   -10935.248    82.182305 
   24500    791.98338   -107.60781   0.71660321    -106.8912    486.83957    4.3487879    4.3487879    4.3487879    486.83957    1363.4346   -3513.8463    3610.9305    -9843.211    798.48742    5682.6864    82.244088 
   24600     618.1819   -107.45033   0.55934397   -106.89099   -14681.297     4.362697     4.362697     4.362697   -14681.297   -6731.9716   -25334.922   -11976.997    17052.123   -595.59668   -5168.6309    83.035755 
   24700    425.98411   -107.27914   0.38543938    -106.8937    2901.5829    4.3407675    4.3407675    4.3407675    2901.5829     4251.178   -7426.2752    11879.846    7580.0187   -1575.0213   -5765.3135    81.789878 
   24800     914.9424   -107.71626   0.82785911    -106.8884   -68.568925    4.3566664    4.3566664    4.3566664   -68.568925    10422.362   -1318.7708   -9309.2977   -10812.372   -3214.1443    3391.3345    82.691893 
   24900    275.72279   -107.14662   0.24947978   -106.89714   -7747.8099    4.3566684    4.3566684    4.3566684   -7747.8099   -9444.9541    -17838.61     4040.134    26781.115    2271.9224   -8378.3655    82.692005 
   25000    664.50363   -107.49098   0.60125685   -106.88972    7033.2979    4.3415301    4.3415301    4.3415301    7033.2979    8516.5183   -3569.8593    16153.235   -10225.388   -3738.0374    -62.35974    81.832994 
   25100     764.9723   -107.57916   0.69216301     -106.887   -6935.6052    4.3619895    4.3619895    4.3619895   -6935.6052    -1987.439   -12638.089   -6181.2873    8522.3494    3046.8886   -1531.2336    82.995369 
   25200    386.60502   -107.24459   0.34980835   -106.89478    -1491.614     4.347466     4.347466     4.347466    -1491.614   -719.39998   -10809.754    7054.3119     19678.08    747.03558   -7190.7593    82.169112 
   25300    804.07962   -107.61384   0.72754814    -106.8863    3501.2998    4.3506189    4.3506189    4.3506189    3501.2998    8538.3214    3359.9477   -1394.3697   -10265.293    2166.9345    415.55413    82.348013 
   25400    378.83438   -107.23539   0.34277731   -106.89262   -3490.7184    4.3567826    4.3567826    4.3567826   -3490.7184    4054.5374   -12638.683   -1888.0095    21538.374    2761.5914   -2189.5316    82.698508 
   25500    611.41736   -107.44396   0.55322328   -106.89073    6649.8295    4.3475504    4.3475504    4.3475504    6649.8295     15005.87   -1510.8597    6454.4782    6418.3819   -27.434298   -8487.5885    82.173894 
   25600    859.38322   -107.66463     0.777588   -106.88704    2630.1199    4.3546859    4.3546859    4.3546859    2630.1199    12876.958    3396.4964   -8383.0949   -2537.3096    2838.0316    4678.2093     82.57917 
   25700    360.58478   -107.22087   0.32626468    -106.8946   -790.10333    4.3497055    4.3497055    4.3497055   -790.10333   -1753.1726   -2528.7871    1911.6498    21291.482   -1903.0858   -6380.8055    82.296157 
   25800    704.36368   -107.52566   0.63732306   -106.88833   -1841.4031    4.3565172    4.3565172    4.3565172   -1841.4031    8842.1381   -4451.6836   -9914.6637   -8268.9574    1375.2537   -5567.7121    82.683396 
   25900    585.65154   -107.42203   0.52990982   -106.89212   -903.08331     4.347455     4.347455     4.347455   -903.08331   -1651.0171   -2083.8392    1025.6064    12142.657   -2473.3384    5992.8388    82.168486 
   26000    481.11006   -107.33171   0.43531849   -106.89639    3616.9596    4.3531078    4.3531078    4.3531078    3616.9596    17907.788    486.04452   -7542.9535    13289.219    2029.8886   -12634.707    82.489421 
   26100    963.20169   -107.75977   0.87152513   -106.88825   -57.622127    4.3552102    4.3552102    4.3552102   -57.622127    3258.8609     6487.953   -9919.6803   -8082.2902   -2055.8355    56.238077    82.609002 
   26200    236.37617   -107.10979   0.21387813   -106.89591    12140.423    4.3429888    4.3429888    4.3429888    12140.423    13995.672    13419.532    9006.0656    27174.566   -371.16975    131.71354    81.915507 
   26300    647.48844   -107.47704   0.58586115   -106.89118   -13150.147    4.3649111    4.3649111    4.3649111   -13150.147     1908.867   -20733.771   -20625.537   -3812.7834    1682.5287   -11474.992    83.162246 
   26400    770.14284   -107.58552   0.69684143   -106.88867    12627.602    4.3417713    4.3417713    4.3417713    12627.602    10264.499    15812.846     11805.46    11281.387   -3836.1391    5420.1097    81.846638 
   26500    407.95074   -107.26653    0.3691224    -106.8974   -1860.3321    4.3513603    4.3513603    4.3513603   -1860.3321    10103.411    -9855.789   -5828.6187    21788.796    397.64962    -5098.826    82.390123 
   26600    816.89207   -107.62612   0.73914111   -106.88698   -9644.8848    4.3619975    4.3619975    4.3619975   -9644.8848   -7211.0699    -7623.603   -14099.981   -7547.9344   -1796.3376   -6277.8593    82.995822 
   26700    356.82129   -107.21346    0.3228594    -106.8906    20383.236    4.3359404    4.3359404    4.3359404    20383.236    29461.901    12010.513    19677.294    21379.053   -2890.6064    5569.9614    81.517324 
   26800    605.74261   -107.43958   0.54808865   -106.89149   -17783.155    4.3654458    4.3654458    4.3654458   -17783.155   -199.48816   -26484.733   -26665.243    6264.3981   -529.17841   -12822.533    83.192812 
   26900     882.5936   -107.68582   0.79858924   -106.88723    13851.674    4.3440443    4.3440443    4.3440443    13851.674    20466.041    14392.306    6696.6745   -3669.4137    -3450.807    689.85369    81.975245 
   27000    408.22343   -107.26503   0.36936914   -106.89566   -3191.5441    4.3486498    4.3486498    4.3486498   -3191.5441    2426.8451   -11676.155   -325.32264    21352.129    -2663.815   -4250.2526    82.236253 
   27100    659.38947   -107.48458   0.59662945   -106.88795   -14741.055    4.3619633    4.3619633    4.3619633   -14741.055   -2434.8798   -22259.084   -19529.201   -2872.9066    355.37182   -12237.874    82.993868 
   27200    561.76009   -107.39568   0.50829233   -106.88739    11942.239    4.3398206    4.3398206    4.3398206    11942.239    12960.148    5593.9495    17272.619    4402.0336   -5447.8867    5820.3279    81.736365 
   27300    567.54061   -107.40399   0.51352267   -106.89047     -13386.2     4.360102     4.360102     4.360102     -13386.2    671.86496   -23669.903   -17160.562    17882.774   -385.16785   -11162.899    82.887672 
   27400    837.23094   -107.64333   0.75754415   -106.88579    7744.8669     4.347219     4.347219     4.347219    7744.8669    15165.252    4839.2929    3230.0559   -11742.831   -1787.0616   -3820.7505    82.155105 
   27500    337.50825   -107.19869   0.30538456    -106.8933   -555.65018    4.3508455    4.3508455    4.3508455   -555.65018    1595.3801   -13429.999    10167.669    16491.893   -3750.7559    1961.5546     82.36088 
   27600    653.29143   -107.48171   0.59111182    -106.8906   -7191.6192    4.3558683    4.3558683    4.3558683   -7191.6192    9638.7226   -15849.776   -15363.805    3592.0181    1179.8515   -12114.942    82.646454 
   27700    700.50331   -107.52254   0.63383012   -106.88871    10488.542      4.34667      4.34667      4.34667    10488.542    15166.194    8236.0837     8063.349   -3440.1626    682.96703    820.00464    82.123983 
   27800    508.40313   -107.35326   0.46001383   -106.89324   -10084.622    4.3547702    4.3547702    4.3547702   -10084.622   -12763.684   -16984.777   -505.40527    16627.294   -3490.6548   -4538.9422    82.583967 
   27900     677.9853   -107.50117   0.61345534   -106.88772    5171.0589    4.3490396    4.3490396    4.3490396    5171.0589    21072.372   -996.14607    -4563.049   -3801.0938    4154.2925   -7818.7403    82.258368 
   28000    495.32983   -107.33967   0.44818484   -106.89149   -6660.6272    4.3541826    4.3541826    4.3541826   -6660.6272   -9527.5492   -20466.702    10012.369    4489.6414   -531.10848    3527.3077    82.550541 
   28100    608.00375   -107.44139   0.55013457   -106.89125    3868.9983    4.3483212    4.3483212    4.3483212    3868.9983    21577.624   -5180.8356   -4789.7937    11128.498   -1640.7107   -8741.9572     82.21761 
   28200    802.67795   -107.61451   0.72627988   -106.88823    86.949424    4.3544235    4.3544235    4.3544235    86.949424    11653.698   -2480.7651   -8912.0847   -6291.4156    5381.6147   -312.22329    82.564239 
   28300    398.81452   -107.25399   0.36085576   -106.89314   -3110.5361    4.3506157    4.3506157    4.3506157   -3110.5361   -6939.7633   -16562.044    14170.199    9542.9667   -4117.7135    1037.6931    82.347831 
   28400     610.4056   -107.44159   0.55230781   -106.88928    5217.8869     4.348292     4.348292     4.348292    5217.8869    21468.449    645.61515   -6460.4039    4413.5215    3416.7606   -12438.852    82.215955 
   28500    688.20373   -107.51236    0.6227012   -106.88966   -10464.251    4.3565666    4.3565666    4.3565666   -10464.251   -12107.613    -13661.02   -5624.1202   -7285.8946    1368.5917    4945.4571    82.686205 
   28600    495.83462   -107.34018   0.44864159   -106.89153    7894.8248    4.3456807    4.3456807    4.3456807    7894.8248    15359.254   -3061.2723    11386.493    14508.113    -1951.184   -6779.9572     82.06792 
   28700    752.54728   -107.56785   0.68092059   -106.88693   -9300.6042    4.3575846    4.3575846    4.3575846   -9300.6042    -1896.984   -13171.775   -12833.053   -10408.052    4526.0042   -6463.2712    82.744183 
   28800    384.65538   -107.24033   0.34804427   -106.89228    4030.2971    4.3451493    4.3451493    4.3451493    4030.2971    10896.388   -16911.464    18105.967    4679.3805    632.04053    3718.1765    82.037819 
   28900    692.77407   -107.51863   0.62683654   -106.89179    -733.6572    4.3538937    4.3538937    4.3538937    -733.6572     10434.18   -7737.8742   -4897.2771    8125.2892    565.19347   -6732.0543     82.53411 
   29000    697.28376   -107.52132     0.630917    -106.8904    -5411.985     4.355149     4.355149     4.355149    -5411.985    1243.4801   -4255.8541   -13223.581   -9858.0459    7311.1535    540.92705    82.605515 
   29100    420.97755   -107.27255   0.38090934   -106.89164     8313.698    4.3387173    4.3387173    4.3387173     8313.698    4480.5584   -1629.9756    22090.511    13622.011   -999.43352   -590.11046    81.674044 
   29200     710.7296   -107.52844   0.64308308   -106.88536   -18202.787    4.3669008    4.3669008    4.3669008   -18202.787   -11465.068   -19227.815    -23915.48   -538.14578    4384.7191   -2946.1592    83.276024 
   29300    517.34596   -107.35977   0.46810549   -106.89166     5269.743    4.3386887    4.3386887    4.3386887     5269.743    10765.577    -4894.976    9938.6281   -2416.7892    7773.0408    1690.3771    81.672429 
   29400    679.18818   -107.50977   0.61454374   -106.89523   -3604.9611    4.3499983    4.3499983    4.3499983   -3604.9611    3675.6426   -17757.156      3266.63    14782.613   -5069.2585   -1179.1684    82.312778 
   29500    706.07586   -107.52589   0.63887228   -106.88701   -13767.811    4.3636963    4.3636963    4.3636963   -13767.811   -6156.9862   -12992.256    -22154.19   -4243.3061    10752.278   -1489.4176    83.092831 
   29600    344.49154   -107.19941   0.31170318   -106.88771    12509.653    4.3299956    4.3299956    4.3299956    12509.653    17001.631   -11369.044    31896.371    3003.4254    282.26513     5594.947    81.182487 
   29700    705.18085    -107.5269   0.63806246   -106.88884   -12251.639    4.3655216    4.3655216    4.3655216   -12251.639   -5372.6696   -17668.424   -13713.824    9483.4708    1612.2383   -818.23425    83.197142 
   29800    691.08254   -107.51744   0.62530601   -106.89214    2566.3872    4.3469015    4.3469015    4.3469015    2566.3872    6836.2298    3041.1366   -2178.2048   -9286.9484    11711.794    1903.0889    82.137105 
   29900    430.18569   -107.28132   0.38924106   -106.89208    3907.8041    4.3396113    4.3396113    4.3396113    3907.8041    -1806.297   -9362.9758    22892.685    10078.875   -3757.6982    5747.1149    81.724544 
   30000    717.53389   -107.53186   0.64923974   -106.88262   -14093.892    4.3648987    4.3648987    4.3648987   -14093.892   -12213.464   -10097.535   -19970.677   -413.87811    7788.6566   -1998.5546    83.161536 
   30100    453.34419   -107.29975   0.41019535   -106.88955    5693.1043    4.3393288    4.3393288    4.3393288    5693.1043    15002.292   -17127.721    19204.742    -856.2976     3219.557    4140.5648    81.708581 
   30200    684.33305   -107.51104   0.61919893   -106.89184   -5766.3345    4.3511545    4.3511545    4.3511545   -5766.3345    -1192.287   -18933.075    2826.3588     9163.296   -1135.8874    691.90839    82.378432 
   30300     752.3325    -107.5677   0.68072626   -106.88698   -1231.0157    4.3554805    4.3554805    4.3554805   -1231.0157     6495.243     2297.191   -12485.481   -2796.1271    4102.1261   -1595.4625    82.624383 
   30400    392.82724    -107.2465   0.35543834   -106.89106    -4890.429    4.3449001    4.3449001    4.3449001    -4890.429   -9130.5282   -24130.648    18589.889    4289.7051   -494.99278    970.02002    82.023705 
   30500    616.64412   -107.44771   0.55795256   -106.88976   -658.76508    4.3502727    4.3502727    4.3502727   -658.76508   -1362.1524    2255.0316   -2869.1744    6665.6629   -2040.8428   -901.98594    82.328355 
   30600    670.83766     -107.497   0.60698802   -106.89001   -5054.1908    4.3543456    4.3543456    4.3543456   -5054.1908    774.50026   -8365.4416   -7571.6312   -4342.6711   -116.39031   -3531.8448    82.559811 
   30700     580.4647   -107.41678   0.52521666   -106.89156   -1511.8802     4.345712     4.345712     4.345712   -1511.8802   -8131.9455   -12573.838    16170.143    7099.9435    39.345325    788.58985    82.069694 
   30800    657.79437   -107.48541   0.59518617   -106.89022      2698.26    4.3491346    4.3491346    4.3491346      2698.26    5970.6799    12250.622   -10126.522   -1653.9801    -7680.533   -2993.9228    82.263759 
   30900    477.15853   -107.32297   0.43174307   -106.89123   -11965.716    4.3567293    4.3567293    4.3567293   -11965.716   -5293.1207   -35132.009     4527.982   -603.43285    3013.5942   -3657.5435    82.695472 
   31000    605.92677   -107.43746   0.54825528    -106.8892    4157.3876     4.341381     4.341381     4.341381    4157.3876    3708.9502   -4658.6069    13421.819    5675.1246   -6980.4483    1988.5752    81.824562 
   31100    718.72586   -107.53909   0.65031826   -106.88877   -2785.5989    4.3546028    4.3546028    4.3546028   -2785.5989    4093.9193    3928.2259   -16378.942   -3022.8139   -6937.8592   -7578.5852    82.574441 
   31200    525.74208   -107.36728   0.47570248   -106.89158   -7602.2318    4.3509824    4.3509824    4.3509824   -7602.2318   -19999.848   -19654.755    16847.908    7825.3749    3693.9909    2695.7715    82.368656 
   31300    539.07741   -107.37813   0.48776857   -106.89036    3949.5706    4.3440038    4.3440038    4.3440038    3949.5706    2331.0606    13422.171   -3904.5195    1713.8118   -15955.312   -1499.7609    81.972954 
   31400    657.32219   -107.48232   0.59475893   -106.88756   -5645.2333    4.3565566    4.3565566    4.3565566   -5645.2333    6571.0411   -17428.027   -6078.7141    250.78099     78.43021    -3550.423    82.685638 
   31500       578.26   -107.41361    0.5232218   -106.89039   -2621.8553    4.3455592    4.3455592    4.3455592   -2621.8553   -8136.8474   -13024.327    13295.608    6057.8505   -5365.6178    4281.8736     82.06104 
   31600    673.25937   -107.49902   0.60917923   -106.88984    2576.6951    4.3504334    4.3504334    4.3504334    2576.6951    12253.946    10656.892   -15180.753   -1231.8696   -12895.589    -2830.286    82.337479 
   31700    621.76844   -107.45277   0.56258915   -106.89018   -7052.8444    4.3516092    4.3516092    4.3516092   -7052.8444   -7876.5229   -23999.357    10717.347   -839.98438    5047.9573   -767.37581    82.404259 
   31800    378.57733   -107.23654   0.34254472   -106.89399   -2779.5598    4.3484858    4.3484858    4.3484858   -2779.5598    1202.9718   -12058.796    2517.1449     4134.167   -12436.733    809.85613    82.226946 
   31900    876.81518   -107.68073    0.7933608   -106.88737    2287.4192    4.3501793    4.3501793    4.3501793    2287.4192    10755.739    3164.6877   -7058.1686   -4026.7199   -3024.6835   -1791.1977    82.323053 
   32000    443.92551   -107.29562   0.40167313   -106.89395   -1199.4214    4.3486686    4.3486686    4.3486686   -1199.4214   -9490.2461   -11546.946    17438.927    1166.5645    933.84096   -1679.3848    82.237318 
   32100    551.23625    -107.3918   0.49877014   -106.89303   -2983.2435    4.3533078    4.3533078    4.3533078   -2983.2435    621.46901    968.18372   -10539.383    3010.2052   -13165.905    1654.4281    82.500794 
   32200    794.79959   -107.60777   0.71915137   -106.88862    11727.575    4.3442998    4.3442998    4.3442998    11727.575    24852.082   -2231.9217    12562.565   -1059.1052    3957.5159   -3403.6445    81.989714 
   32300     328.6529   -107.19467   0.29737205   -106.89729   -6443.5825    4.3532343    4.3532343    4.3532343   -6443.5825   -466.69977   -25439.442    6575.3948    3477.6979   -5224.2774    2898.0247    82.496615 
   32400    853.49575   -107.66096   0.77226089    -106.8887    2910.6217    4.3512526    4.3512526    4.3512526    2910.6217    13430.523    3628.2535   -8326.9114    3067.2202   -7202.8823    37.751541    82.384004 
   32500    498.46329   -107.34367   0.45102006   -106.89265    6766.7258    4.3431604    4.3431604    4.3431604    6766.7258    6782.3865   -3299.3096      16817.1    902.62606     7002.506   -1773.6503     81.92522 
   32600    476.76056   -107.32707   0.43138298   -106.89569   -10984.712     4.356676     4.356676     4.356676   -10984.712   -7774.0408    -22862.78   -2317.3169    2596.0751   -8159.6258    3443.8676    82.692436 
   32700    860.52962   -107.66645   0.77862529   -106.88783      13620.6    4.3465206    4.3465206    4.3465206      13620.6    36502.074     5718.576   -1358.8499     986.9656    2706.3266   -1156.5699    82.115516 
   32800    376.44551   -107.23676   0.34061581   -106.89615    -4393.687    4.3473651    4.3473651    4.3473651    -4393.687   -12255.395   -12269.023    11343.356    3059.5273    5819.2402   -306.95177    82.163389 
   32900    676.68433   -107.50395    0.6122782   -106.89167    4118.4766    4.3547765    4.3547765    4.3547765    4118.4766    18480.824   -4884.3111   -1241.0835    317.71449   -5506.3223    2004.8518    82.584323 
   33000    717.73536    -107.5405   0.64942204   -106.89108    3576.5526    4.3473585    4.3473585    4.3473585    3576.5526    12292.374   -369.28764   -1193.4284    2679.1645    11512.712    153.58981    82.163017 
   33100    370.37107   -107.23151   0.33511953   -106.89639   -2131.3311     4.347112     4.347112     4.347112   -2131.3311    2315.1077   -23245.726    14536.625    4911.3863   -65.897227     1059.737    82.149042 
   33200    816.52822   -107.62624   0.73881189   -106.88742    934.45545    4.3548453    4.3548453    4.3548453    934.45545    15454.441    -6358.691   -6292.3841   -3620.5139    1976.0082     3430.066    82.588239 
   33300    444.04121    -107.2961   0.40177781   -106.89433   -6775.8004    4.3478374    4.3478374    4.3478374   -6775.8004   -21562.298   -1970.5105    3205.4075    7525.3677    10459.453   -1345.8321    82.190173 
   33400    589.39295   -107.42732   0.53329513   -106.89402    6003.0369    4.3459087    4.3459087    4.3459087    6003.0369    12961.274   -11408.927    16456.764   -1185.5473   -4624.6643    5451.5764    82.080842 
   33500    800.59421   -107.61342   0.72439447   -106.88902   -5646.0326    4.3577434    4.3577434    4.3577434   -5646.0326    5668.2181   -6716.8121   -15889.504   -1322.1014    9373.1367    -1275.695    82.753234 
[...]
   91300    520.74859   -107.36282   0.47118427   -106.89163    942.77882    4.3443971    4.3443971    4.3443971    942.77882   -4198.9594   -5251.5873    12278.883     630.9937   -2957.3988    4117.7341    81.995223 
   91400    523.60737   -107.36483   0.47377095   -106.89106   -7678.5364    4.3539451    4.3539451    4.3539451   -7678.5364   -8350.4016    -14864.77    179.56236   -20627.255    2445.8226   -3015.6737    82.537032 
   91500    695.27691   -107.51859   0.62910116   -106.88949    956.07199    4.3459506    4.3459506    4.3459506    956.07199    10761.833    1424.0018   -9317.6186     14376.65   -2296.9148    10258.774    82.083217 
   91600    519.77655   -107.36316   0.47030475   -106.89285   -1768.9594    4.3488414    4.3488414    4.3488414   -1768.9594   -10197.937   -2197.5733    7088.6323   -17991.867   -779.44431    583.05378    82.247119 
   91700    737.80547   -107.55707   0.66758189   -106.88949   -3740.6883    4.3522244    4.3522244    4.3522244   -3740.6883   -3103.9466   -7329.7501   -788.36811   -5583.4753    4599.1065    3197.9975    82.439211 
   91800    482.95854   -107.32838   0.43699104   -106.89139    10325.426    4.3433943    4.3433943    4.3433943    10325.426    12781.783    11632.599    6561.8967     7260.675   -1142.4567    8916.0849    81.938456 
   91900    535.06584   -107.37657   0.48413882   -106.89243   -8198.5103    4.3538025    4.3538025    4.3538025   -8198.5103   -10515.637   -14613.816    533.92178   -21392.495    996.34399   -1622.0406    82.528921 
   92000    742.14396    -107.5601   0.67150745   -106.88859    5026.8739     4.347479     4.347479     4.347479    5026.8739    12266.624    14370.598     -11556.6    6687.3754    5533.3234    9014.3312    82.169849 
   92100     578.3001   -107.41507   0.52325808   -106.89181   -3803.0051    4.3463566    4.3463566    4.3463566   -3803.0051   -8431.8963   -12317.302    9340.1827   -10597.049   -3886.4467    4976.7207    82.106219 
   92200    574.04311   -107.41034   0.51940627   -106.89093   -9062.6595    4.3537403    4.3537403    4.3537403   -9062.6595   -10473.231   -17395.896     681.1477   -13626.481    5420.9498   -1996.7508    82.525382 
   92300     624.7067   -107.45452   0.56524775   -106.88927    2991.1139    4.3453613    4.3453613    4.3453613    2991.1139    17394.011    3046.0987   -11466.768    5818.4767    2953.8044    12956.199    82.049831 
   92400    525.69765   -107.36782   0.47566228   -106.89216   -572.29545    4.3494473    4.3494473    4.3494473   -572.29545   -7530.3493    2434.6083    3378.8547   -15665.466   -2217.4699   -4360.4589    82.281501 
   92500    712.18728    -107.5339   0.64440201    -106.8895    1277.9687    4.3509522    4.3509522    4.3509522    1277.9687    4671.8121    8425.6877   -9263.5936   -1942.3239    9689.2028    3688.9088    82.366942 
   92600    547.19513    -107.3863   0.49511366   -106.89118    4215.5298    4.3460516    4.3460516    4.3460516    4215.5298    6977.6793    1083.7691    4585.1411    276.20889   -1203.3833    9312.1793    82.088938 
   92700    547.29951   -107.38625    0.4952081   -106.89105   -5499.4558    4.3502416    4.3502416    4.3502416   -5499.4558   -7715.9855   -18075.379    9292.9966   -16465.293    2452.2903   -4758.1551    82.326592 
   92800    647.02304   -107.47559   0.58544004   -106.89015   -1981.2811     4.349583     4.349583     4.349583   -1981.2811    10591.693    5098.2975   -21633.834    4739.8157    8298.9328    10187.869    82.289205 
   92900    603.71699   -107.43809   0.54625582   -106.89183   -1265.0892    4.3474455    4.3474455    4.3474455   -1265.0892   -3628.2277   -2437.2096    2270.1697   -9316.8031    -2152.628    2757.2966    82.167947 
   93000    679.40556   -107.50445   0.61474043   -106.88971   -1608.9556    4.3494955    4.3494955    4.3494955   -1608.9556   -1089.7355   -4711.4886    974.35741   -10275.979    5712.7061    990.79838    82.284241 
   93100    480.56031   -107.32601   0.43482107   -106.89119   -482.40689    4.3499064    4.3499064    4.3499064   -482.40689    13632.775   -790.79145   -14289.205    4212.5917     6127.268    11668.768    82.307562 
   93200     569.7022   -107.40611   0.51547852   -106.89063    186.51296    4.3468726    4.3468726    4.3468726    186.51296   -2136.9889   -5027.0989    7723.6266    -20916.05   -893.75245   -1361.7799    82.135469 
   93300    729.62961   -107.55021   0.66018421   -106.89002    1068.1103    4.3508492    4.3508492    4.3508492    1068.1103    7130.7782    11064.264   -14990.711    721.61385    6190.9298    7653.2371    82.361089 
   93400    571.16659   -107.40913   0.51680353   -106.89233   -2402.2286    4.3482133    4.3482133    4.3482133   -2402.2286   -882.42517   -3272.2921   -3051.9684   -9685.2408    3047.9574    12577.347    82.211491 
   93500    559.37116   -107.39672   0.50613078   -106.89059   -717.78853    4.3482269    4.3482269    4.3482269   -717.78853   -5718.6246   -12940.436    16505.695    -13215.71   -2707.6525   -3204.4129    82.212264 
   93600    601.67009   -107.43394   0.54440374   -106.88954   -6532.3931    4.3517414    4.3517414    4.3517414   -6532.3931    9227.7577   -11299.423   -17525.514    6151.5515    7366.1816    16175.901    82.411769 
   93700    494.86067   -107.34091   0.44776034   -106.89315    1504.5987    4.3447852    4.3447852    4.3447852    1504.5987   -1233.4292    3828.6462    1918.5791   -16728.944   -2917.6667    1992.9114    82.017198 
   93800    833.80436   -107.64421   0.75444371   -106.88977   -3882.4542    4.3527281    4.3527281    4.3527281   -3882.4542   -2074.4671    -1324.564   -8248.3316   -325.73747    -12.67945    1858.7487     82.46784 
   93900    518.03031   -107.36067   0.46872472   -106.89195    2548.0567    4.3476653    4.3476653    4.3476653    2548.0567    12126.981    1444.0993     -5926.91   -3157.1036    5080.5108    13001.807     82.18041 
   94000    440.66881   -107.29193    0.3987264    -106.8932   -5167.2033    4.3465009    4.3465009    4.3465009   -5167.2033   -11417.194   -15665.558    11581.142   -18193.385   -5242.0501   -5302.4371    82.114398 
   94100     737.8535   -107.55635   0.66762536   -106.88872   -3512.8289    4.3530846    4.3530846    4.3530846   -3512.8289    5590.2181   -340.66069   -15788.044     3927.597    2128.0288    10914.175    82.488105 
   94200    591.33945   -107.42791   0.53505636   -106.89285   -325.49966    4.3450953    4.3450953    4.3450953   -325.49966    2831.9599   -4851.1543    1042.6954   -14196.818    500.07095    5304.1813    82.034763 
   94300    623.65881   -107.45557    0.5642996   -106.89127   -6702.3157    4.3515223    4.3515223    4.3515223   -6702.3157   -11122.642    -13853.44    4869.1354   -12470.125   -4944.5694   -1459.9246    82.399322 
   94400    620.45022   -107.45083   0.56139639   -106.88943    5138.1777    4.3475851    4.3475851    4.3475851    5138.1777    18658.467    378.61713   -3622.5509    2392.8515   -910.88005    11285.973    82.175862 
   94500    411.76848   -107.26649   0.37257677   -106.89391   -1707.2919    4.3480219    4.3480219    4.3480219   -1707.2919   -7824.2288   -580.78384    3283.1368       -24551   -1079.1618    450.58222    82.200637 
   94600    756.75848   -107.57465   0.68473098   -106.88992   -1836.3353     4.352033     4.352033     4.352033   -1836.3353   -1600.9888    11612.576   -15520.594   -1454.3684   -7929.1812    1698.2597    82.428338 
   94700     648.6384   -107.47819   0.58690165   -106.89129    3487.5824    4.3450202    4.3450202    4.3450202    3487.5824     13081.21     -2727.83    109.36669   -6662.0955    1078.4332    13014.772     82.03051 
   94800    444.03872   -107.29449   0.40177557   -106.89271   -11252.997    4.3523409    4.3523409    4.3523409   -11252.997   -14621.091   -25234.289    6096.3884   -20702.019   -4915.9984   -3204.4459    82.445835 
   94900    711.87238   -107.53261   0.64411709    -106.8885    108.43727    4.3476561    4.3476561    4.3476561    108.43727    9351.9715    134.43984   -9161.0995    9729.8745   -6630.7437    8185.2247     82.17989 
   95000    519.97885   -107.36293   0.47048779   -106.89244    666.96474    4.3475902    4.3475902    4.3475902    666.96474   -996.54086    1414.3799    1583.0551    -21590.61    3328.4913    6631.7856    82.176151 
   95100    691.86961   -107.51715   0.62601816   -106.89113   -5702.5989    4.3518989    4.3518989    4.3518989   -5702.5989   -10723.312    2941.0665   -9325.5513   -6583.6683   -11531.623   -4010.3609    82.420718 
   95200    590.75864   -107.42453   0.53453083      -106.89    8868.0563    4.3456165    4.3456165    4.3456165    8868.0563    17098.974    8540.0565    965.13844    74.487052    591.25486    10969.983    82.064286 
   95300    437.42388   -107.28908   0.39579032   -106.89329   -9528.5351    4.3512712    4.3512712    4.3512712   -9528.5351   -10548.817    -22100.83    4064.0415   -26907.645   -3336.6822   -1986.3485    82.385057 
   95400    737.21433   -107.55622   0.66704702   -106.88918    2487.5086    4.3486619    4.3486619    4.3486619    2487.5086    3730.1167    17637.721   -13905.312    7496.9637   -9560.9961    3543.4821    82.236935 
   95500    648.07151   -107.47751   0.58638872   -106.89113   -1844.0276    4.3478768    4.3478768    4.3478768   -1844.0276    1645.8393   -3921.5713   -3256.3507    -17418.31    3646.1988    7879.3678    82.192402 
   95600    461.32705   -107.31033   0.41741841   -106.89291   -6565.2543     4.349929     4.349929     4.349929   -6565.2543   -8611.2947   -14019.708    2935.2402   -14973.415   -7823.7537   -4367.9882    82.308847 
   95700     699.7071   -107.52195   0.63310969   -106.88884    459.02983    4.3481146    4.3481146    4.3481146    459.02983    6194.1792    1457.6043    -6274.694    2850.7354   -3314.0621    5859.8727     82.20589 
   95800    492.05112   -107.33868    0.4452182   -106.89346   -332.32976    4.3496714    4.3496714    4.3496714   -332.32976   -3929.0164   -2700.8655    5632.8927   -24107.195    2448.3224    3262.2009    82.294222 
   95900    750.98806    -107.5703   0.67950978   -106.89079    464.53372     4.348195     4.348195     4.348195    464.53372    -491.7698    15601.492   -13716.121   -1827.1262   -9160.3616   -5129.8178    82.210455 
   96000    611.40612   -107.44334    0.5532131   -106.89013    4506.4308    4.3496727    4.3496727    4.3496727    4506.4308    7397.4989    9642.3923   -3520.5988   -3989.3119   -192.29778     6563.828    82.294298 
   96100    401.22453   -107.25589   0.36303639   -106.89286   -5772.8713    4.3479967    4.3479967    4.3479967   -5772.8713   -3307.7016    -22021.34    8010.4273   -18577.488   -1716.4766    137.96825    82.199202 
   96200    675.11327   -107.50074   0.61085667   -106.88988   -1437.5722    4.3498196    4.3498196    4.3498196   -1437.5722     223.8107    6961.6035   -11498.131    5749.3342   -11217.349   -3453.8173    82.302632 
   96300    703.57275   -107.52786   0.63660741   -106.89125   -1406.0704    4.3483553    4.3483553    4.3483553   -1406.0704   -6673.3726   -196.74878    2651.9102   -16204.275    4954.9226    5628.6697    82.219547 
   96400     554.4313   -107.39393   0.50166109   -106.89227   -1389.1266    4.3485527    4.3485527    4.3485527   -1389.1266    926.09093   -3586.6157   -1506.8552   -11668.826   -8595.4934   -3841.5026    82.230744 
   96500    603.12579   -107.43533   0.54572089   -106.88961      1131.96    4.3499241    4.3499241    4.3499241      1131.96    6821.6416    1917.4501   -5343.2118    4257.2205   -6682.1787   -2013.1913    82.308566 
   96600    442.99268   -107.29283   0.40082908     -106.892     4848.677    4.3473056    4.3473056    4.3473056     4848.677     2136.926   -1139.4156    13548.521   -25920.022    4904.9503    1586.1842    82.160013 
   96700    763.14946   -107.58051   0.69051367      -106.89   -1897.4392    4.3505303    4.3505303    4.3505303   -1897.4392    -2062.912     11497.35   -15126.756    3933.1692   -15255.452   -5321.5806    82.342982 
   96800    657.68968   -107.48586   0.59509144   -106.89077     289.2284    4.3478393    4.3478393    4.3478393     289.2284   -4448.6961    6805.9183    -1489.537   -14767.836    526.22516    100.70805    82.190278 
   96900    502.78546   -107.34692   0.45493085   -106.89199   -6565.3825    4.3486636    4.3486636    4.3486636   -6565.3825    182.19777    -23940.19    4061.8443     -19167.4   -1911.2465   -480.30558    82.237036 
   97000    631.21126   -107.46011   0.57113321   -106.88898   -4588.7169     4.350661     4.350661     4.350661   -4588.7169    6356.2573   -11643.714   -8478.6936    6756.3874     -11474.5   -6419.4349    82.350405 
   97100    494.72024   -107.34049   0.44763327   -106.89286    1824.0857    4.3470805    4.3470805    4.3470805    1824.0857   -4393.2816   -498.05856    10363.597   -25855.566    7216.4052    2013.7016    82.147251 
   97200    772.52374    -107.5892   0.69899571   -106.89021    1741.3136    4.3501173    4.3501173    4.3501173    1741.3136    4430.2472    4916.4849   -4122.7912    2270.1601   -6117.3466   -4426.2969    82.319534 
   97300    603.48197    -107.4366   0.54604317   -106.89055    2286.7754    4.3487402    4.3487402    4.3487402    2286.7754     4306.948     2104.644    448.73407   -6964.4801   -1995.2456   -3897.1686     82.24138 
   97400    342.71485   -107.20462    0.3100956   -106.89452   -5386.0541    4.3482883    4.3482883    4.3482883   -5386.0541     -7114.71   -20794.785    11751.332   -20529.143    6481.7218    2660.2836    82.215742 
   97500     806.9647   -107.61888   0.73015862   -106.88873    -299.0573    4.3498317    4.3498317    4.3498317    -299.0573    7120.0663   -4766.5397   -3250.6985    8114.0302   -5766.8212   -3685.6273    82.303319 
   97600    597.52585    -107.4352   0.54065395   -106.89454   -4038.7818    4.3482757    4.3482757    4.3482757   -4038.7818   -9705.4736    -5778.491     3367.619   -21292.727    2783.0971    1361.7711     82.21503 
   97700    533.19583   -107.37748   0.48244679   -106.89503   -4233.8542    4.3491397    4.3491397    4.3491397   -4233.8542    1823.3885    -14708.17      183.219   -3995.5134    6414.9539    1721.4997    82.264049 
   97800    748.67931   -107.56589   0.67742077   -106.88847    63.669185    4.3490741    4.3490741    4.3490741    63.669185    13780.364   -15750.295    2160.9391   -37.397236   -3215.0235   -720.85484    82.260324 
   97900    284.75534   -107.15365   0.25765262     -106.896   -4203.5305    4.3496542    4.3496542    4.3496542   -4203.5305   -11946.385   -11257.976    10593.769   -24618.854    5595.0428     2064.984    82.293245 
   98000    832.23879   -107.64441   0.75302715   -106.89138       1588.6    4.3479939    4.3479939    4.3479939       1588.6    1210.0741    3857.8913   -302.16538    9656.8415    6123.4334    1379.8946    82.199047 
   98100    757.90636   -107.57728    0.6857696   -106.89151    5215.6534    4.3492841    4.3492841    4.3492841    5215.6534    5017.9985    1863.8878    8765.0738   -16356.254   -4975.9286    473.49895    82.272241 
   98200    300.88504   -107.16831   0.27224711   -106.89606   -7431.1428    4.3492065    4.3492065    4.3492065   -7431.1428   -4949.1433    -21018.42     3674.135   -8627.9518    8264.0177    4089.7525    82.267841 
   98300    638.38956   -107.46768   0.57762829   -106.89005    1074.4141    4.3484409    4.3484409    4.3484409    1074.4141    10097.816   -11969.896    5095.3221     11660.63    1279.4965   -494.62861      82.2244 
   98400    672.85148   -107.50088   0.60881016   -106.89207   -4041.1945     4.350086     4.350086     4.350086   -4041.1945   -8483.3094   -9810.5153    6170.2413   -22979.346   -2029.8318    2042.1979    82.317756 
   98500    574.25855   -107.41313    0.5196012   -106.89353   -1057.0592    4.3485743    4.3485743    4.3485743   -1057.0592   -3493.9458   -167.10939    489.87768    8768.1525     11544.08    2504.3141    82.231967 
   98600    752.63182   -107.56956   0.68099709   -106.88856    375.55652    4.3483168    4.3483168    4.3483168    375.55652    8023.1961   -12213.125     5316.599   -2222.4863    -4457.394   -3178.9454    82.217362 
   98700    332.72144   -107.19395   0.30105335   -106.89289    1379.3727    4.3499067    4.3499067    4.3499067    1379.3727    3788.8903   -8469.3061     8818.534   -16028.206    5829.5539    2119.3664    82.307578 
   98800    627.09158    -107.4599   0.56740564    -106.8925   -3198.5587    4.3487748    4.3487748    4.3487748   -3198.5587   -4858.8711   -605.44852   -4131.3566    16235.648    7436.6279   -2667.9424     82.24334 
   98900      825.498   -107.63708   0.74692794   -106.89016    5662.5618    4.3475113    4.3475113    4.3475113    5662.5618     971.7413    10618.853    5397.0911   -13551.252   -7931.8932    489.52689    82.171677 
   99000    533.41627   -107.37548   0.48264625   -106.89283   -8073.5762    4.3515265    4.3515265    4.3515265   -8073.5762   -7997.6285   -12535.202   -3687.8982   -1343.5529    11457.566    386.26238    82.399562 
   99100    473.06085   -107.31826    0.4280354   -106.89023    -4231.613    4.3479382    4.3479382    4.3479382    -4231.613    51.061523   -15812.554     3066.653    10422.692    150.37066    747.65545    82.195885 
   99200    624.10175   -107.45481   0.56470037   -106.89011   -366.62616    4.3476284    4.3476284    4.3476284   -366.62616     5272.734   -7962.8623    1590.2498   -17314.925   -4862.4255     545.2904    82.178317 
   99300     598.8246   -107.43483   0.54182908     -106.893    -1372.443    4.3519703    4.3519703    4.3519703    -1372.443   -5840.8981    4274.5792     -2551.01    12762.425    16372.713    2416.5617    82.424775 
   99400    775.46746   -107.59104   0.70165925   -106.88938    3030.0191    4.3458208    4.3458208    4.3458208    3030.0191    2928.9598    5681.0193    480.07835    -2027.877   -10274.405     1992.583    82.075857 
   99500    459.00243   -107.30672   0.41531504    -106.8914    440.54718    4.3505072    4.3505072    4.3505072    440.54718    175.38687   -2676.9179    3823.1726   -5119.0711    1624.6414    1495.4861    82.341672 
   99600    481.28198   -107.32691   0.43547405   -106.89144    -7592.551    4.3498826    4.3498826    4.3498826    -7592.551    -9636.173    -9069.252    -4072.228    13393.912    11535.935    4955.4511    82.306211 
   99700    703.59708   -107.52685   0.63662942   -106.89022    1928.8015    4.3463125    4.3463125    4.3463125    1928.8015    794.23198    9772.7855   -4780.6129   -8502.7835   -20233.366    -817.4716    82.103722 
   99800    731.10683   -107.55236   0.66152082   -106.89084    -3993.891    4.3516025    4.3516025    4.3516025    -3993.891     -2717.81    -1984.467   -7279.3959    6710.9847    14278.585    6127.3832    82.403878 
   99900     513.8562   -107.35608   0.46494789   -106.89113   -1437.5624    4.3472992    4.3472992    4.3472992   -1437.5624   -527.98321   -2690.5511   -1094.1529    3047.1958   -5014.8584   -929.47757    82.159652 
  100000    502.33702   -107.34509   0.45452509   -106.89056   -4218.0204    4.3493559    4.3493559    4.3493559   -4218.0204    2275.2201   -9962.6165   -4966.6647   -1863.3137   -14825.679    2244.4501    82.276316 
Loop time of 22.3244 on 1 procs for 100000 steps with 8 atoms

Pair  time (%) = 6.99187 (31.3194)
Kspce time (%) = 5.44511 (24.3909)
Neigh time (%) = 0 (0)
Comm  time (%) = 1.09377 (4.89943)
Outpt time (%) = 0.0247958 (0.11107)
Other time (%) = 8.76884 (39.2792)

Nlocal:    8 ave 8 max 8 min
Histogram: 1 0 0 0 0 0 0 0 0 0
Nghost:    2189 ave 2189 max 2189 min
Histogram: 1 0 0 0 0 0 0 0 0 0
Neighs:    2056 ave 2056 max 2056 min
Histogram: 1 0 0 0 0 0 0 0 0 0

Total # of neighbors = 2056
Ave neighs/atom = 257
Neighbor list builds = 0
Dangerous builds = 0
unfix 20
unfix 21
print "seeds:8602210"
seeds:8602210
