# ['Ni']

28 atoms
1 atom types

    0.0000     2.6015 xlo xhi
    0.0000     4.5060 ylo yhi
    0.0000    29.7380 zlo zhi

    0.0000     0.0000     0.0000 xy xz yz

Atoms

1 1     0.0000     0.0000     0.0000
2 1     1.3008     2.2530     0.0000
3 1     1.3008     0.7510     2.1242
4 1     0.0000     3.0040     2.1242
5 1     0.0000     1.5020     4.2483
6 1     1.3008     3.7550     4.2483
7 1     0.0000     0.0000     6.3724
8 1     1.3008     2.2530     6.3724
9 1     1.3008     0.7510     8.4966
10 1     0.0000     3.0040     8.4966
11 1     0.0000     1.5020    10.6207
12 1     1.3008     3.7550    10.6207
13 1     0.0000     0.0000    12.7449
14 1     1.3008     2.2530    12.7449
15 1     0.0000     1.5020    14.8690
16 1     1.3008     3.7550    14.8690
17 1     0.0000     0.0000    16.9932
18 1     1.3008     2.2530    16.9932
19 1     1.3008     0.7510    19.1173
20 1     0.0000     3.0040    19.1173
21 1     0.0000     1.5020    21.2415
22 1     1.3008     3.7550    21.2415
23 1     0.0000     0.0000    23.3656
24 1     1.3008     2.2530    23.3656
25 1     1.3008     0.7510    25.4898
26 1     0.0000     3.0040    25.4898
27 1     0.0000     1.5020    27.6139
28 1     1.3008     3.7550    27.6139
