LAMMPS (10 Feb 2015)
Reading data file ...
  triclinic box = (0 0 0) to (4.2565 4.2565 4.2565) with tilt (0 0 0)
  1 by 1 by 1 MPI processor grid
  reading atoms ...
  8 atoms
4 atoms in group Mg
4 atoms in group O
Setting atom values ...
  4 settings made for charge
Setting atom values ...
  4 settings made for charge
PPPM initialization ...
  G vector (1/distance) = 0.3534
  grid = 8 8 8
  stencil order = 5
  estimated absolute RMS force accuracy = 4.23269e-05
  estimated relative force accuracy = 2.93944e-06
  using double precision FFTs
  3d grid and FFT values/proc = 3375 512
Neighbor list info ...
  1 neighbor list requests
  update every 1 steps, delay 0 steps, check yes
  master list distance cutoff = 11
Setting up minimization ...
Memory usage per processor = 4.06549 Mbytes
Step PotEng Lx Ly Lz Xy Xz Yz Press Pxx Pyy Pzz Pxy Pxz Pyz eatoms 
       0   -122.62677       4.2565       4.2565       4.2565            0            0            0    18600.794    18600.794    18600.794    18600.794 4.9707872e-11 4.7042733e-11 1.8950886e-10   -122.62677 
       5   -122.63132    4.2712858    4.2712858    4.2712858            0            0            0   -6.7076035   -6.7076035   -6.7076035   -6.7076035 9.5134085e-11 4.9732958e-12 8.6603347e-11   -122.63132 
Loop time of 0.00816298 on 1 procs for 5 steps with 8 atoms

Minimization stats:
  Stopping criterion = linesearch alpha is zero
  Energy initial, next-to-last, final = 
        -122.626768711     -122.631316441     -122.631316441
  Force two-norm initial, final = 2.68597 0.0019334
  Force max component initial, final = 2.68596 0.000975322
  Final line search alpha, max atom move = 0.00390625 3.80985e-06
  Iterations, force evaluations = 5 22

Pair  time (%) = 0.00227594 (27.8813)
Kspce time (%) = 0.00134397 (16.4642)
Neigh time (%) = 0 (0)
Comm  time (%) = 0.000247955 (3.03756)
Outpt time (%) = 0 (0)
Other time (%) = 0.00429511 (52.617)

Nlocal:    8 ave 8 max 8 min
Histogram: 1 0 0 0 0 0 0 0 0 0
Nghost:    2189 ave 2189 max 2189 min
Histogram: 1 0 0 0 0 0 0 0 0 0
Neighs:    2344 ave 2344 max 2344 min
Histogram: 1 0 0 0 0 0 0 0 0 0

Total # of neighbors = 2344
Ave neighs/atom = 293
Neighbor list builds = 0
Dangerous builds = 0
pypospack:output_section:begin
tot_energy = -122.631316441343
num_atoms = 8
xx = 4.27128583299446
yy = 4.27128583299446
zz = 4.27128583299446
xy = 0
xz = 0
yz = 0
tot_press = -6.70760353710228
pxx = -6.70760353705429
pyy = -6.70760353725253
pzz = -6.70760353700002
pxy = 9.51340852761742e-11
pxz = 4.97329584958765e-12
pyz = 8.66033470907354e-11
pypospack:output_section:done
pypospack:lammps_sim:done
PPPM initialization ...
  G vector (1/distance) = 0.353246
  grid = 8 8 8
  stencil order = 5
  estimated absolute RMS force accuracy = 4.26311e-05
  estimated relative force accuracy = 2.96057e-06
  using double precision FFTs
  3d grid and FFT values/proc = 3375 512
Setting up run ...
Memory usage per processor = 3.06549 Mbytes
Step Temp PotEng KinEng TotEng Press Lx Ly Lz Press Pxx Pyy Pzz Pxy Pxz Pyz Volume 
       0         1100   -122.63132   0.99530312   -121.63602    13635.344    4.2712858    4.2712858    4.2712858    13635.344    26530.691    2100.7389      12274.6   -3643.7352    2652.2043   -2233.9884    77.924838 
     100    662.92069   -122.10464   0.59982458   -121.50481    4664.1846    4.2875002    4.2875002    4.2875002    4664.1846    8203.4432   -28901.504    34690.615    3537.2484    2819.1072   -653.55985     78.81565 
     200    397.58415   -121.59567   0.35974249   -121.23593   -21765.717    4.3039282    4.3039282    4.3039282   -21765.717   -29207.559   -66148.709    30059.116    8988.4664   -9326.4715    3646.4363    79.725098 
     300    749.28465   -121.66731   0.67796849   -120.98934    7280.3425    4.2944404    4.2944404    4.2944404    7280.3425    5950.7743   -48361.022    64251.275   -3441.6792   -2570.6538   -760.86647    79.199007 
     400    1562.5184   -122.21859    1.4137995   -120.80479    22473.175     4.285917     4.285917     4.285917    22473.175    38257.352   -9512.6963     38674.87    -2887.954    1246.6366   -2840.5439    78.728369 
     500    858.42897   -121.48008   0.77672457   -120.70335    17183.442    4.3021359    4.3021359    4.3021359    17183.442    12902.726   -44048.499    82696.101    16926.776    2911.5479   -3661.4581    79.625537 
     600    703.99929   -121.27126   0.63699336   -120.63427   -23959.725    4.3179623    4.3179623    4.3179623   -23959.725   -13720.331     -77089.8    18930.957    1726.9552    1676.1786    6974.1909    80.507537 
     700    1192.6113   -121.68387    1.0790997   -120.60477    10807.279    4.2969958    4.2969958    4.2969958    10807.279    10241.824   -37392.622    59572.634   -18232.855   -9875.9666    1683.8619    79.340472 
     800    1621.7451   -122.06728     1.467389   -120.59989    12080.003    4.2833495    4.2833495    4.2833495    12080.003    30441.476   -1712.2219     7510.756    5027.0943     16848.07   -9669.7711    78.586968 
     900    680.26561   -121.24293   0.61551862   -120.62741   -4050.5511    4.3024423    4.3024423    4.3024423   -4050.5511   -8205.1665   -53927.908    49981.421    6288.1104    2998.2024   -4222.6205    79.642552 
    1000    736.57521   -121.29313   0.66646873   -120.62666    -23470.43    4.3184275    4.3184275    4.3184275    -23470.43   -62601.721   -76589.124    68779.555   -16120.574    4885.9809    5804.7389    80.533561 
    1100    1293.2225   -121.77746    1.1701349   -120.60732    10438.613    4.3058911    4.3058911    4.3058911    10438.613    6067.8501   -34671.721    59919.709   -4676.5745    -3396.522     1073.044    79.834228 
    1200    1227.3936   -121.71881    1.1105715   -120.60824    30904.407    4.2832247    4.2832247    4.2832247    30904.407    37883.268   -3214.5678    58044.521    7025.7817   -13119.453   -2967.1811    78.580097 
    1300    603.32753    -121.1816   0.54590342    -120.6357    1427.4573    4.3003174    4.3003174    4.3003174    1427.4573    5988.2081    -46581.96    44876.124     2575.267    469.94634   -2131.3261    79.524607 
    1400    898.58282    -121.4373   0.81305662   -120.62424   -28226.542    4.3175465    4.3175465    4.3175465   -28226.542   -16906.234    -64290.21   -3483.1815   -9029.3704    3551.5607    5747.0668    80.484282 
    1500    1423.2333   -121.89758    1.2877714   -120.60981    17548.488    4.2884559    4.2884559    4.2884559    17548.488    54512.629    434.21652   -2301.3803   -371.46615    -5525.927    14791.865    78.868364 
    1600    1209.9359   -121.71376    1.0947754   -120.61899   -3756.8209    4.2929224    4.2929224    4.2929224   -3756.8209    16494.677   -15896.662   -11868.477    4385.3273   -11401.532    8025.5756    79.115052 
    1700    945.36157   -121.47855   0.85538301   -120.62317   -33439.061     4.304476     4.304476     4.304476   -33439.061   -49350.359   -58547.453    7580.6285   -6621.6677    3842.7977   -7949.2181    79.755541 
    1800    1027.1789   -121.55047   0.92941305   -120.62106    15393.423    4.2887312    4.2887312    4.2887312    15393.423    50492.194   -25433.523    21121.596   -6548.3636    6011.1154    7157.5011    78.883559 
    1900    1279.2087   -121.77979    1.1574549   -120.62234    2720.8885    4.3061022    4.3061022    4.3061022    2720.8885    28608.309   -30965.647    10520.003    553.52511   -6963.2552    20190.626    79.845967 
    2000    1482.8774   -121.96168    1.3417387   -120.61994    4492.5097    4.2950532    4.2950532    4.2950532    4492.5097    39175.802   -23715.207    -1983.066    69.942994   -4482.5679    6353.4125    79.232914 
    2100    903.23657   -121.43748   0.81726743   -120.62022     31829.32     4.278431     4.278431     4.278431     31829.32    36160.288   -27520.814    86848.484   -9331.1146   -9739.7727   -9177.9579    78.316559 
    2200     965.7143   -121.50574   0.87379859   -120.63194    -29079.43    4.3109552    4.3109552    4.3109552    -29079.43   -40896.254    -67587.53    21245.495   -2319.8392     9584.454    11505.186    80.116233 
    2300    1475.5012   -121.95594    1.3350645   -120.62087   -7701.1345    4.2984361    4.2984361    4.2984361   -7701.1345    16003.376   -36386.458   -2720.3214    6074.0842    3788.9834    19010.901    79.420282 
    2400    1232.8175   -121.73063    1.1154792   -120.61515    22783.661    4.2771856    4.2771856    4.2771856    22783.661    27138.824   -10919.893    52132.051   -5692.4447    6397.4615   -10776.311    78.248187 
    2500    602.57552   -121.17847   0.54522299   -120.63325   -30160.361    4.3023051    4.3023051    4.3023051   -30160.361   -49634.401   -68908.074    28061.392   -7288.3202   -7542.7084   -14085.458    79.634935 
    2600    901.39763   -121.44466   0.81560352   -120.62906    -253.4501    4.2998266    4.2998266    4.2998266    -253.4501    1327.1647   -52076.187    49988.672    2609.1656   -1960.7926    1334.4225    79.497383 
    2700    1504.7509    -121.9794    1.3615303   -120.61787    15139.776    4.2952523    4.2952523    4.2952523    15139.776    37328.071   -15877.863    23969.121    5131.9684    6300.9065    2419.0212    79.243937 
    2800    986.38862   -121.51825   0.89250516   -120.62574   -1104.9894    4.2974821    4.2974821    4.2974821   -1104.9894    -5596.528   -20884.776    23166.336   -6720.7075    8524.7452   -1792.4461    79.367415 
    2900    905.06626    -121.4462   0.81892297   -120.62728   -12902.791    4.2917684    4.2917684    4.2917684   -12902.791   -10899.545   -31234.804    3425.9773   -11209.142     12293.93   -17334.773    79.051265 
    3000    1080.3039    -121.6051   0.97748164   -120.62762   -2211.2071    4.2982941    4.2982941    4.2982941   -2211.2071     3335.595   -48747.715    38778.499    2157.0619     -10235.8    1572.9797     79.41241 
    3100    1289.9635   -121.78977     1.167186   -120.62258   -16990.849    4.3008506    4.3008506    4.3008506   -16990.849    -3383.852    -24636.31   -22952.385    6061.5707     8749.651    27047.129    79.554193 
    3200    1077.8078   -121.59881   0.97522313   -120.62359    9492.9573    4.2893671    4.2893671    4.2893671    9492.9573   -7558.3064   -947.74146     36984.92   -1196.1951    12626.724    3410.4944    78.918648 
    3300    1225.7169   -121.73433    1.1090545   -120.62528     5254.521    4.2979709    4.2979709    4.2979709     5254.521   -12894.126   -10642.957    39300.646   -10019.152     13567.08   -8652.4098    79.394497 
    3400    1358.1605   -121.84869    1.2288922    -120.6198    5463.2269    4.3048772    4.3048772    4.3048772    5463.2269    16026.508   -32775.366    33138.538   -1024.8584    -1198.789    4064.0709    79.777847 
    3500    1199.0862   -121.70356    1.0849584    -120.6186    10227.328    4.2998076    4.2998076    4.2998076    10227.328     8880.571    8024.3273    13777.086    10211.886    5355.2382    16867.111    79.496327 
    3600    907.47051   -121.43987   0.82109838   -120.61878   -6960.3108     4.296698     4.296698     4.296698   -6960.3108   -9156.8237     15789.37   -27513.478   -8592.4324    14982.764    12800.404    79.323979 
    3700    817.58283   -121.36405   0.73976612   -120.62429     4642.077    4.2955067    4.2955067    4.2955067     4642.077   -10780.988   -9204.9005     33912.12   -17368.323   -176.06483    888.79226    79.258016 
    3800    1184.8675   -121.69424     1.072093   -120.62215    16517.921    4.2999117    4.2999117    4.2999117    16517.921   -14322.252   -5516.0349    69392.048    784.11949   -8100.1931   -5050.0724    79.502103 
    3900      1149.28   -121.66044    1.0398927   -120.62054    20466.678    4.2966946    4.2966946    4.2966946    20466.678    3847.8175    31605.348     25946.87    4784.5239     1608.537    6102.2965    79.323793 
    4000    725.86795   -121.28345   0.65678058   -120.62667    -7552.966    4.3052217    4.3052217    4.3052217    -7552.966   -29247.824     2031.857    4557.0687   -16573.367    16474.866    8976.3895    79.797001 
    4100    1003.1923   -121.52029    0.9077095   -120.61258   -16976.856    4.3098401    4.3098401    4.3098401   -16976.856   -52187.318   -509.63017    1766.3797   -20972.352    4485.4444   -8619.8756    80.054078 
    4200    1478.3532   -121.94267     1.337645   -120.60503    5093.7358    4.2925231    4.2925231    4.2925231    5093.7358    9254.3341     4812.657    1214.2164    4918.1147    779.23446   -13986.031    79.092975 
    4300     1097.329    -121.6097   0.99288631   -120.61681    850.97667    4.2886318    4.2886318    4.2886318    850.97667   -2172.1461   -571.82256    5296.8986   -686.73332    3220.4407   -19797.522    78.878072 
    4400    770.49739   -121.32564   0.69716223   -120.62848   -8087.2849    4.3052591    4.3052591    4.3052591   -8087.2849   -66056.404   -2644.8999    44439.449   -21965.961    21418.268     7418.579    79.799079 
    4500    1261.0992   -121.75625    1.1410691   -120.61518   -16338.321    4.3108162    4.3108162    4.3108162   -16338.321   -42731.562   -6486.5562    203.15474   -11864.134    11829.084     -8973.24    80.108487 
    4600    1199.1008   -121.69347    1.0849716    -120.6085    13578.832    4.2874778    4.2874778    4.2874778    13578.832    17337.682   -1155.7462     24554.56    7828.0045   -7112.3154   -29168.535    78.814413 
    4700    1077.0355   -121.59134   0.97452434   -120.61681   -370.60054    4.2917791    4.2917791    4.2917791   -370.60054   -11409.557   -1330.4305    11628.186    2157.8297    882.27369    2303.9478    79.051856 
    4800    1342.2698   -121.82676    1.2145139   -120.61225   -24400.671    4.3104203    4.3104203    4.3104203   -24400.671   -52568.124     8676.325   -29310.214   -12427.955    15465.738    11146.825    80.086418 
    4900    1517.2653   -121.98056    1.3728536   -120.60771    1165.1531    4.2909515    4.2909515    4.2909515    1165.1531    5207.1107    8556.0166   -10267.668   -8352.1865    6601.1371   -9699.6925    79.006138 
    5000    861.02811   -121.39921   0.77907632   -120.62014   -2361.4159    4.2924638    4.2924638    4.2924638   -2361.4159    9371.1505   -17579.576    1124.1779    17698.791   -8009.6924    -27303.81    79.089699 
    5100    963.53578   -121.49629   0.87182743   -120.62446   -22771.145    4.3017297    4.3017297    4.3017297   -22771.145   -31823.376   -22177.558   -14312.502        19075    -3036.202   -5342.5442    79.602987 
    5200    1462.2113   -121.93536    1.3230395   -120.61232    19257.175    4.2924839    4.2924839    4.2924839    19257.175    375.64508    32637.827    24758.053   -9192.8854    5803.9298    13909.306    79.090808 
    5300    949.53563   -121.47789   0.85915979   -120.61873   -9665.0636    4.3060726    4.3060726    4.3060726   -9665.0636   -10783.047   -31380.503    13168.359    4453.6778    7828.3018   -42293.377    79.844323 
    5400      522.903   -121.09755   0.47313362   -120.62442   -2783.3679    4.2965121    4.2965121    4.2965121   -2783.3679   -14900.963   -5630.7121    12181.572    14568.775   -3935.2582   -45962.618    79.313681 
    5500     1273.685   -121.76646     1.152457   -120.61401    10944.291    4.2887626    4.2887626    4.2887626    10944.291   -7649.8368    8849.1664    31633.545    9131.9761    53.657814     12539.14    78.885289 
    5600     1409.253    -121.8876    1.2751217   -120.61248   -12097.019    4.3082642    4.3082642    4.3082642   -12097.019   -16833.349    6469.6429   -25927.352   -1867.3452    8258.3719     1434.889    79.966295 
    5700    863.84541   -121.40654   0.78162548   -120.62491   -2138.8181    4.2938357    4.2938357    4.2938357   -2138.8181    6089.4877   -7659.8736   -4846.0684   -3666.6677    1802.9256   -41907.034    79.165554 
    5800    825.73746    -121.3725   0.74714461   -120.62536    15549.083    4.2861718    4.2861718    4.2861718    15549.083    11002.711   -23213.158    58857.696    20495.206    7800.4916   -24967.686    78.742413 
    5900    1667.6573   -122.12683    1.5089314    -120.6179   -14359.045    4.3079463    4.3079463    4.3079463   -14359.045   -26028.066    -19624.35    2575.2821    9019.1467    -7549.115    12980.492    79.948596 
    6000    1331.4339   -121.81969    1.2047094   -120.61498    11017.981    4.2975693    4.2975693    4.2975693    11017.981    1953.1324    11538.454    19562.356   -5123.5476   -6427.8723    2230.9133    79.372248 
    6100    923.87608   -121.45409   0.83594249   -120.61814   -5822.6097    4.2927087    4.2927087    4.2927087   -5822.6097    1738.0378   -23724.918    4519.0507    4052.5682    6460.4444   -43106.608    79.103239 
    6200    983.73708   -121.50978   0.89010598   -120.61968   -23471.072    4.3023131    4.3023131    4.3023131   -23471.072   -20630.049   -40790.754   -8992.4124    16382.439   -5077.1823   -20118.524    79.635379 
    6300    1241.8693   -121.73946    1.1236695   -120.61579    5295.4197    4.2843352    4.2843352    4.2843352    5295.4197    8404.7981    6232.8786    1248.5824    17090.546   -2334.6779    25045.999    78.641233 
    6400    832.27655   -121.38114   0.75306131   -120.62808   -2654.3826    4.2959493    4.2959493    4.2959493   -2654.3826     28242.45    13622.768   -49828.366   -5899.2358   -10000.019    2492.5294    79.282519 
    6500    1096.3715   -121.60879   0.99202001   -120.61677   -32672.516    4.3118672    4.3118672    4.3118672   -32672.516   -18500.374   -30992.649   -48524.524    1896.8682   -2258.8562   -31012.205    80.167093 
    6600    1269.1138   -121.76385    1.1483208   -120.61553    22141.809    4.2752915    4.2752915    4.2752915    22141.809    41597.954    3073.4409    21754.031    15843.683    8878.2742   -14804.053     78.14428 
    6700    715.96408   -121.27933   0.64781935   -120.63151    19975.946    4.2824229    4.2824229    4.2824229    19975.946     58373.94   -24.280101     1578.179     7657.913    -10666.32    33978.674    78.535981 
    6800    1038.2895   -121.56257   0.93946612    -120.6231   -35343.784    4.3170535    4.3170535    4.3170535   -35343.784    -18334.01   -34867.569   -52829.773    4939.2276    -14166.53    23714.342    80.456716 
    6900    1730.4174   -122.17811     1.565718   -120.61239    23510.216    4.2867648    4.2867648    4.2867648    23510.216    41080.237    14064.635    15385.776   -6046.6507    1299.0273    -12067.88    78.775099 
    7000    1384.3351   -121.86849    1.2525755   -120.61592    18789.504    4.2788981    4.2788981    4.2788981    18789.504    34552.691   -3014.2426    24830.065    7063.3125    5122.7051    6168.7251    78.342214 
    7100    464.52269   -121.05264   0.42030989   -120.63233   -28868.404    4.3059866    4.3059866    4.3059866   -28868.404   -29458.009   -47899.402   -9247.8023    8725.1246    6679.7993    41674.566    79.839541 
    7200     902.7074   -121.44485   0.81678863   -120.62807    2458.0846    4.2921036    4.2921036    4.2921036    2458.0846   -1787.0938    -8040.462    17201.809   -1611.4247   -11726.037    33716.757    79.069791 
    7300    1478.7144    -121.9547    1.3379718   -120.61673    13422.339    4.2897244    4.2897244    4.2897244    13422.339    21054.288    3288.3886    15924.341    -3596.993   -964.70905   -21263.729    78.938374 
    7400    1114.0903   -121.62878    1.0080523   -120.62072   -13517.909    4.3005337    4.3005337    4.3005337   -13517.909   -7225.3538   -30767.936    -2560.438    2291.1005    7768.5144   -17027.352    79.536609 
    7500    870.16799   -121.40909   0.78734628   -120.62174    8008.4359    4.2881091    4.2881091    4.2881091    8008.4359   -6894.9365   -3419.1672    34339.411     4980.962    180.07121    38718.389    78.849237 
    7600    1092.7198   -121.61342   0.98871583    -120.6247   -10291.471    4.2903747    4.2903747    4.2903747   -10291.471    7835.2086   -19375.473   -19334.147    7031.8044     4121.221    10392.364    78.974279 
    7700    1096.2331   -121.61822   0.99189472   -120.62632   -12309.214    4.2943581    4.2943581    4.2943581   -12309.214    25395.652    -21004.91   -41318.386   -3872.6937   -10829.526   -52235.916    79.194455 
    7800    1127.7389   -121.64511    1.0204019   -120.62471    3262.5741    4.2998579    4.2998579    4.2998579    3262.5741    2468.9161   -8109.4312    15428.237   -746.43886    369.03621   -26563.945    79.499117 
    7900    1554.2869    -122.0213    1.4063515   -120.61495   -11399.088     4.301803     4.301803     4.301803   -11399.088   -21219.779   -29429.574     16452.09    9950.8622    7523.9862    31051.274    79.607053 
    8000    944.99105   -121.47553   0.85504776   -120.62048    29943.906    4.2745972    4.2745972    4.2745972    29943.906    44387.073     -2275.61    47720.257    1006.5158   -1925.6709   -15462.212    78.106215 
    8100     536.7261   -121.12718   0.48564106   -120.64153   -3691.1197    4.2909165    4.2909165    4.2909165   -3691.1197     27565.92   -28748.477    -9890.802     44.58962    2837.7841    -64968.22    79.004202 
    8200    1272.5216   -121.77321    1.1514043   -120.62181   -28184.626    4.3083812    4.3083812    4.3083812   -28184.626   -34844.017   -33907.697   -15802.165   -1636.1883   -10583.167    -7964.931    79.972811 
    8300    1500.7846   -121.97385    1.3579414   -120.61591    27066.524    4.2750821    4.2750821    4.2750821    27066.524    2068.2706    25308.472     53822.83    540.07803   -7302.4444    12652.497    78.132796 
    8400    764.55822    -121.3251   0.69178835   -120.63331   -725.69587    4.2844259    4.2844259    4.2844259   -725.69587    29951.119   -23834.369   -8293.8376    3582.3857    5780.2217   -61411.636    78.646228 
    8500    897.69536    -121.4359   0.81225362   -120.62365   -22440.777    4.3057956    4.3057956    4.3057956   -22440.777    4872.3383   -61633.313   -10561.358    378.96238   -3812.4352   -48160.903    79.828916 
    8600    1355.9827   -121.84168    1.2269216   -120.61476    15279.174     4.288806     4.288806     4.288806    15279.174   -7468.2348    21129.096    32176.661    4134.4051   -3081.2199    28456.764    78.887681 
    8700    1215.4872   -121.72062    1.0997983   -120.62082   -3293.3561    4.2869495    4.2869495    4.2869495   -3293.3561   -11080.156    252.02536    948.06183    1592.3866   -2852.0643    2609.0529    78.785282 
    8800    998.42948   -121.52952   0.90339998   -120.62612   -4200.8488    4.2907773    4.2907773    4.2907773   -4200.8488    5785.1529   -27727.543    9339.8433   -401.92333    3172.1581   -49611.818    78.996511 
    8900    1333.5256    -121.8334     1.206602    -120.6268   -5918.1481    4.2909795    4.2909795    4.2909795   -5918.1481    5684.0876   -26807.107    3368.5748    2141.5919    4252.5978   -13823.137    79.007682 
    9000    943.30275   -121.48152   0.85352015     -120.628   -9315.3444    4.2954023    4.2954023    4.2954023   -9315.3444   -5356.3708   -23721.815    1132.1528   -1862.9954   -1558.4341    45846.619     79.25224 
    9100    930.12356   -121.46978   0.84159535   -120.62819   -16022.279    4.2893317    4.2893317    4.2893317   -16022.279   -25333.142   -11620.514    -11113.18   -2229.2346   -2175.2478    16448.151    78.916696 
    9200     1193.264   -121.70416    1.0796903   -120.62447   -9668.2684    4.2879906    4.2879906    4.2879906   -9668.2684   -33882.095    4515.5568    361.73322    4015.9187    57.745081   -31480.777      78.8427 
    9300    974.56876   -121.50575    0.8818103   -120.62394   -7276.5805    4.2962539    4.2962539    4.2962539   -7276.5805   -11930.096   -16566.459    6666.8137    8054.2395    2811.6037    13265.218    79.299387 
    9400    834.27128   -121.38206   0.75486619   -120.62719   -13834.086    4.2944701    4.2944701    4.2944701   -13834.086    1163.7178   -48499.205    5833.2291    7857.8802   -2751.3081    64891.087    79.200648 
    9500     1165.662   -121.67917    1.0547155   -120.62445    15060.334     4.282913     4.282913     4.282913    15060.334   -5606.4609    28248.478    22538.985   -609.22855     2207.996    12561.001    78.562947 
    9600    1493.4417   -121.97518    1.3512974   -120.62389    3623.6214    4.2914223    4.2914223    4.2914223    3623.6214   -25803.493    17434.906    19239.452   -3323.6938    176.19447   -17901.223    79.032141 
    9700    778.58184   -121.33826   0.70447721   -120.63378   -15339.376    4.2990332    4.2990332    4.2990332   -15339.376    2756.4719    -31692.72    -17081.88    7587.5883   -5825.2746    39118.753    79.453383 
    9800    793.09806   -121.35448   0.71761179   -120.63687    1233.9093      4.28437      4.28437      4.28437    1233.9093    31005.413   -20206.262   -7097.4238     7143.413    5343.3052    43179.655    78.643154 
    9900    1854.6132   -122.29916     1.678093   -120.62106    8134.4058    4.2903651    4.2903651    4.2903651    8134.4058   -7846.4603    5068.5875     27181.09   -1112.7873    1473.1337    4.1705295    78.973748 
   10000    1519.2672   -121.99831    1.3746649   -120.62364    3125.8128    4.3007311    4.3007311    4.3007311    3125.8128   -23708.535     1584.328    31501.645   -6556.5783   -2269.7702   -3290.5428    79.547564 
   10100     564.7722   -121.14613   0.51101775   -120.63511    -13277.43    4.2926058    4.2926058    4.2926058    -13277.43     -6326.83   -38617.899    5112.4384    4443.5738     1057.102    54888.321    79.097547 
   10200    598.44612   -121.17866   0.54148663   -120.63717    -6173.751     4.289448     4.289448     4.289448    -6173.751   -19575.082   -16457.208    17511.038    14304.526    1416.3149    34499.198    78.923114 
   10300    1465.5196   -121.95532     1.326033   -120.62928    4053.0503    4.2894196    4.2894196    4.2894196    4053.0503   -36556.229      32254.5     16460.88    1836.1364    8837.1475   -29019.204    78.921547 
   10400    1279.9992   -121.78956    1.1581701   -120.63139    8729.2399    4.2893156    4.2893156    4.2893156    8729.2399   -13394.429    18335.571    21246.578   -7055.7074    2000.9878    17277.899    78.915808 
   10500    687.38892   -121.26118   0.62196394   -120.63922     2819.497    4.2959291    4.2959291    4.2959291     2819.497   -2121.0543   -9238.9048     19818.45    3518.6103   -2032.1676    52424.773    79.281403 
   10600    964.64056    -121.5029   0.87282705   -120.63007   -15862.371    4.2961593    4.2961593    4.2961593   -15862.371   -31377.124    -7478.607   -8731.3818    16191.456    6921.3088    23001.203    79.294149 
   10700    1263.8958   -121.76818    1.1435995   -120.62458   -1075.3733    4.2876801    4.2876801    4.2876801   -1075.3733   -36950.645    14233.254    19491.271    14160.152    8720.5429   -17847.549    78.825571 
   10800    1202.6042   -121.71665    1.0881416   -120.62851   -3086.9746    4.2879091    4.2879091    4.2879091   -3086.9746   -6729.6975    7605.7527   -10136.979   -3641.5294   -1290.1525    14056.641    78.838204 
   10900    1125.2165   -121.64825    1.0181196   -120.63013   -855.93549    4.2935933    4.2935933    4.2935933   -855.93549    7429.0239    6051.5567   -16048.387   -5350.0509   -7017.6048    52039.692    79.152151 
   11000    1244.3223   -121.75385    1.1258889   -120.62796    361.52954    4.2956779    4.2956779    4.2956779    361.52954   -21504.989    16442.113    6147.4649    13989.144    11823.786    6584.6498    79.267493 
   11100     1202.066   -121.71556    1.0876546   -120.62791    196.13383    4.2914446    4.2914446    4.2914446    196.13383   -40182.636    31809.216    8961.8215    10501.387    13182.753   -17403.106    79.033377 
   11200    974.94089   -121.51259   0.88214701   -120.63044    -1796.353    4.2881002    4.2881002    4.2881002    -1796.353   -20282.369      22892.1     -7998.79   -911.21022   -6342.0037    18622.109    78.848742 
   11300    1075.3439   -121.60573   0.97299373   -120.63274    3698.4794    4.2886825    4.2886825    4.2886825    3698.4794   -1321.3236   -3011.8362    15428.598   -4836.4792   -10618.728     33181.88    78.880872 
   11400    1318.5713    -121.8192     1.193071   -120.62612   -152.63354    4.2961257    4.2961257    4.2961257   -152.63354   -21658.899   -8279.1695    29480.168   -5023.4839    6342.2773    13261.273    79.292287 
   11500    914.60412   -121.45408   0.82755303   -120.62653   -16510.288    4.3003323    4.3003323    4.3003323   -16510.288   -47019.063     18617.57    -21129.37    5067.8135     12816.61   -24885.761    79.525435 
   11600    818.93507    -121.3682   0.74098966   -120.62722   -244.78623    4.2871397    4.2871397    4.2871397   -244.78623   -26823.395    38864.453   -12775.417    8151.2726   -13513.374   -5108.4344    78.795773 
   11700    1204.5506   -121.71358    1.0899027   -120.62368    8878.4928    4.2896083    4.2896083    4.2896083    8878.4928   -22276.982    32935.471    15976.989   -13369.177   -11341.284    15047.271    78.931963 
   11800    1119.2727   -121.63827    1.0127414   -120.62553   -6160.0759    4.3032541    4.3032541    4.3032541   -6160.0759   -41290.414    16846.393     5963.794    -22259.84    13534.693     6159.904    79.687643 
   11900    874.22004   -121.41947   0.79101266   -120.62846    912.65229     4.293722     4.293722     4.293722    912.65229   -29540.865     38724.49   -6445.6677    1532.5626    6580.5126   -7004.7346    79.159266 
   12000    925.39773   -121.46171   0.83731931   -120.62439    6138.3275    4.2876814    4.2876814    4.2876814    6138.3275   -17617.104    37898.372    -1866.286    948.11781   -16983.566   -15214.019    78.825643 
   12100    1289.3853   -121.79189    1.1666629   -120.62523    433.49435    4.2903137    4.2903137    4.2903137    433.49435   -14753.465   -5735.8275    21789.775   -23483.423   -16193.382    2460.8562    78.970909 
   12200    1336.9829   -121.83241    1.2097302   -120.62268    5236.9387    4.2948236    4.2948236    4.2948236    5236.9387   -8477.0318   -4097.8426    28285.691   -30971.445    16812.343    1821.6522    79.220211 
   12300    1139.8228   -121.65366    1.0313356   -120.62233   -18623.442    4.3026523    4.3026523    4.3026523   -18623.442   -29180.479   -3940.0368   -22749.811   -4682.5966    11734.612    -3318.595    79.654214 
   12400    912.37371   -121.45099   0.82553491   -120.62546   -7832.2922    4.2879635    4.2879635    4.2879635   -7832.2922   -4342.7239    8854.5323   -28008.685    7532.9309   -17889.748   -20179.985    78.841203 
   12500     1059.778   -121.58405   0.95890945   -120.62514    13907.561    4.2821888    4.2821888    4.2821888    13907.561    20094.061   -2068.0287    23696.649   -15977.756   -16937.246   -14738.274      78.5231 
   12600    1211.1651   -121.72171    1.0958876   -120.62582   -18963.453    4.3039993    4.3039993    4.3039993   -18963.453   -25955.112   -34874.135    3938.8888   -18200.394    12775.205    18027.881     79.72905 
   12700    1063.6239   -121.58731   0.96238925   -120.62492   -7534.6617    4.2954725    4.2954725    4.2954725   -7534.6617   -25865.857    8690.7729   -5428.9008   -2028.8349    17259.646    5736.3256    79.256123 
   12800     1198.876   -121.70468    1.0847682   -120.61991    4848.5707    4.2844027    4.2844027    4.2844027    4848.5707   -15519.779    29450.285    615.20659    7631.0384   -21394.626   -13820.842     78.64495 
   12900    982.26204   -121.51298   0.88877134    -120.6242   -3836.1074    4.2966495    4.2966495    4.2966495   -3836.1074   -15882.311    2764.0475    1609.9419   -7919.5773   -19893.661   -5136.9182    79.321295 
   13000    853.04034   -121.39497   0.77184882   -120.62312   -1305.7136    4.2954546    4.2954546    4.2954546   -1305.7136   -4303.9456   -26978.731    27365.536   -24262.073    7682.4892    19963.053    79.255134 
   13100    931.57998   -121.46858   0.84291314   -120.62567    -274.3631    4.2953841    4.2953841    4.2953841    -274.3631     -4403.02   -8575.2319    12155.163    1925.5236    1160.3681    17884.669    79.251228 
   13200    1423.2202   -121.91202    1.2877596   -120.62426   -1008.6299    4.2910538    4.2910538    4.2910538   -1008.6299   -24513.725    23510.813   -2022.9774    11489.738   -12920.527   -8164.3782    79.011785 
   13300     1384.135   -121.87801    1.2523945   -120.62562     25243.32    4.2816079    4.2816079    4.2816079     25243.32     23847.47     23722.96    28159.531   -10631.831   -11365.546    1236.6112    78.491145 
   13400    1133.5366   -121.66077    1.0256477   -120.63513    -9778.023    4.2988999    4.2988999    4.2988999    -9778.023    717.94029   -33903.038    3851.0285   -36914.458    4420.2196    24178.437    79.445996 
   13500    970.51234   -121.50951   0.87813996   -120.63137   -6867.2738    4.3006354    4.3006354    4.3006354   -6867.2738    3220.2833    -21434.94   -2387.1649   -14676.015     8969.262    16743.853    79.542253 
   13600    1319.3104   -121.81011    1.1937398   -120.61637    11736.234    4.2860136    4.2860136    4.2860136    11736.234    21701.282    12648.501    858.91866    19305.288   -10423.061   -4057.1873    78.733697 
   13700     1037.869   -121.55979   0.93908572    -120.6207   -7502.4961    4.2966087    4.2966087    4.2966087   -7502.4961   -4161.4738   -20608.589    2262.5744   -19984.733   -11194.147     -12700.8    79.319034 
   13800    827.11812   -121.37521   0.74839386   -120.62682   -9393.6565    4.2961987    4.2961987    4.2961987   -9393.6565   -1932.9972   -41242.606    14994.633   -44557.363    460.84145    2015.0574    79.296326 
   13900    1269.4306   -121.76792    1.1486075   -120.61932    19187.644    4.2835896    4.2835896    4.2835896    19187.644    16179.667    16588.605    24794.659   -14073.105    11747.955    22762.119    78.600186 
   14000    1201.7424    -121.7107    1.0873618   -120.62334    2586.4872    4.2982852    4.2982852    4.2982852    2586.4872   -15100.012    18634.098    4225.3762    7600.2838    3295.7417   -1328.5944    79.411917 
   14100    675.41821   -121.23834   0.61113259   -120.62721   -14757.535     4.304992     4.304992     4.304992   -14757.535   -48597.798   -380.62938    4705.8224   -25194.387   -8358.8105   -14791.693    79.784229 
   14200    822.71224   -121.36719   0.74440732   -120.62278    10916.142    4.2864425    4.2864425    4.2864425    10916.142   -4285.6961    9086.6169    27947.505   -39474.366   -4821.7238   -6232.7999    78.757335 
   14300    1374.9522   -121.86555    1.2440856   -120.62146    11976.368    4.2840478    4.2840478    4.2840478    11976.368   -862.42784    3764.6083    33026.923    1760.2365    10500.808    4936.1642     78.62541 
   14400    1338.7091   -121.84043    1.2112921   -120.62914   -5681.1798    4.2923501    4.2923501    4.2923501   -5681.1798   -34445.525    8705.7405    8696.2446    17458.028   -3258.8033    15210.174    79.083417 
   14500    753.58872   -121.32184   0.68186291   -120.63997   -12990.811    4.2934414    4.2934414    4.2934414   -12990.811   -20642.373   -14599.385    -3730.675    -20917.12   -18480.986   -11631.553    79.143747 
   14600    694.64414   -121.26904   0.62852861   -120.64052   -1695.9122      4.29227      4.29227      4.29227   -1695.9122     20616.58   -32435.733    6731.4158   -30710.462   -7973.5099   -31352.887    79.078985 
   14700    1539.0128   -122.02137    1.3925311   -120.62884    1036.1045    4.2905845    4.2905845    4.2905845    1036.1045    3649.5629   -15715.908    15174.659    6876.8977   -2535.4061   -11103.928    78.985865 
   14800    1744.1431    -122.2018    1.5781373   -120.62367    10542.543    4.2909629    4.2909629    4.2909629    10542.543    14380.173    4364.9322    12882.523    22859.359    7086.8566    8222.2929    79.006766 
   14900    1110.4193   -121.63929    1.0047307   -120.63456   -9133.1606    4.2946932    4.2946932    4.2946932   -9133.1606   -20367.002   -14635.685    7603.2056     -18883.6   -8439.8131   -12449.798    79.212996 
   15000    512.64377   -121.10658   0.46385086   -120.64273   -10111.163    4.2890557    4.2890557    4.2890557   -10111.163   -9744.3191   -15213.224   -5375.9468   -33900.324   -17748.574   -27219.094    78.901465 
   15100    928.30415   -121.48274    0.8399491   -120.64279   -734.91927     4.288897     4.288897     4.288897   -734.91927    20745.657   -23623.718    673.30356   -3265.8043    4331.7634     477.8741    78.892703 
   15200    1515.5248    -122.0003    1.3712787   -120.62902    5268.6716     4.293614     4.293614     4.293614    5268.6716   -7092.1378    2854.9812    20043.171    8682.4358    2129.4359    18449.784    79.153296 
   15300    1253.5982   -121.76476     1.134282   -120.63047   -2077.6809    4.2921833    4.2921833    4.2921833   -2077.6809   -22493.279   -1208.2025    17468.439   -16782.958    1136.0081   -1716.9883    79.074196 
   15400    672.88495   -121.24472   0.60884045   -120.63588   -4788.1075    4.2915415    4.2915415    4.2915415   -4788.1075   -3267.7711   -32016.407    20919.856   -27872.282    -3694.231   -25765.849    79.038727 
   15500    838.02258    -121.3905   0.75826045   -120.63224   -144.80029    4.2933952    4.2933952    4.2933952   -144.80029    20103.136   -25762.963    5225.4262   -4634.3683   -4722.4789   -6222.7847    79.141193 
   15600    1305.0527   -121.80611    1.1808392   -120.62528   -3360.7373    4.2925743    4.2925743    4.2925743   -3360.7373   -7615.4864    5733.0189   -8199.7444    10864.797    24445.375    18465.789    79.095807 
   15700    1035.5186   -121.56589     0.936959   -120.62893    3188.3797    4.2892679    4.2892679    4.2892679    3188.3797   -14421.674    3312.4972    20674.316   -9455.7165    19346.464   -816.11967    78.913174 
   15800    1058.0254   -121.58897   0.95732365   -120.63165   -8763.7808    4.2912845    4.2912845    4.2912845   -8763.7808   -25235.037   -21650.324    20594.019   -27354.694   -9132.2676   -16835.602    79.024531 
   15900    1157.5061   -121.67714    1.0473358   -120.62981    2703.7095    4.2925564    4.2925564    4.2925564    2703.7095    7137.9806    1800.1197   -826.97196   -5463.7766   -2945.3649   -16505.812    79.094819 
   16000     1344.802   -121.84272    1.2168051   -120.62591    9834.4615    4.2928863    4.2928863    4.2928863    9834.4615   -9218.7307    37975.636    746.47972    7797.7852    18318.554    2371.7794    79.113053 
   16100    1190.1434   -121.70267    1.0768667    -120.6258   -4065.8002    4.2982644    4.2982644    4.2982644   -4065.8002   -32313.567     24270.17   -4154.0041   -10741.067    19999.981    13625.623    79.410763 
   16200    855.51717   -121.40196   0.77408991   -120.62787    -13813.06    4.2921658    4.2921658    4.2921658    -13813.06    -36174.31   -18782.765    13517.893   -24609.466   -6115.1314   -18611.587     79.07323 
   16300    921.67755   -121.46453   0.83395322   -120.63058   -1493.3238    4.2822665    4.2822665    4.2822665   -1493.3238   -18977.297   -3323.2065    17820.532   -9422.3657   -2875.3615   -16291.435    78.527376 
   16400    1300.2167      -121.81    1.1764634   -120.63353   -4162.1788    4.2957615    4.2957615    4.2957615   -4162.1788   -23288.927    17411.764   -6609.3735    15811.453    19681.204    930.20678     79.27212 
   16500    1448.0867   -121.93819    1.3102593   -120.62793   -2946.5857    4.2987728    4.2987728    4.2987728   -2946.5857   -25470.644    31324.876   -14693.989   -7826.9432     4527.937    8562.3525    79.438945 
   16600    944.75464   -121.48539   0.85483385   -120.63056    5239.4056    4.2842416    4.2842416    4.2842416    5239.4056   -31680.699    33115.561    14283.355   -19536.136   -11002.322    535.04782     78.63608 
   16700    662.92443   -121.23552   0.59982795   -120.63569   -13936.858    4.2959481    4.2959481    4.2959481   -13936.858   -36602.985   -16348.252    11140.662    12872.584   -8175.9871   -24923.212    79.282454 
   16800    1199.8998   -121.71121    1.0856946   -120.62551   -14025.829    4.2980869    4.2980869    4.2980869   -14025.829   -28751.569   -13175.077   -150.84103    22698.229   -852.03938   -5899.2581    79.400928 
   16900    1500.3321   -121.97783    1.3575321    -120.6203    9544.1637    4.2804817    4.2804817    4.2804817    9544.1637    18723.278    8260.3482    1648.8648   -3975.9975    6679.9229    35241.374    78.429226 
   17000    1095.4984   -121.62102   0.99122993   -120.62979   -8386.0194    4.2906108    4.2906108    4.2906108   -8386.0194   -4081.0531   -18388.671    -2688.334   -2592.2548   -4406.9143    15466.029     78.98732 
   17100    995.22186     -121.532   0.90049765   -120.63151   -12255.009    4.2980688    4.2980688    4.2980688   -12255.009   -28517.723   -21469.426    13222.122    6435.6188   -10376.245     -21280.4    79.399922 
   17200    1087.1567   -121.61311   0.98368227   -120.62943   -2725.3555    4.2888321    4.2888321    4.2888321   -2725.3555   -9072.7923    7171.3186   -6274.5929    4594.1555    3859.7141   -3137.5679    78.889124 
   17300    827.17193   -121.38252   0.74844255   -120.63408    995.54529    4.2876857    4.2876857    4.2876857    995.54529    31556.607    1088.1196   -29658.091     5781.341    3461.7609    56246.866    78.825881 
   17400    1238.9111   -121.75225    1.1209928   -120.63125    4737.3554     4.286578     4.286578     4.286578    4737.3554    24575.169    6803.8821   -17166.985   -8107.8438   -4602.1575    38304.304    78.764803 
   17500    1527.7673    -122.0094     1.382356   -120.62705   -2323.2768    4.2957688    4.2957688    4.2957688   -2323.2768   -25162.585    39198.616   -21005.861    5546.1757   -19486.464   -19461.642    79.272525 
   17600    946.84093   -121.48872   0.85672157     -120.632   -27298.981    4.2996403    4.2996403    4.2996403   -27298.981   -27344.386   -8789.8759   -45762.679    10089.095   -10106.372    18606.613    79.487047 
   17700    561.43048   -121.14127    0.5079941   -120.63328   -4855.3761    4.2775195    4.2775195    4.2775195   -4855.3761     30447.76   -21324.515   -23689.373   -1770.6528    9356.9027    55831.767    78.266515 
   17800    922.68883   -121.47338   0.83486825   -120.63851   -3506.4716    4.2881132    4.2881132    4.2881132   -3506.4716   -9751.2047    11733.201   -12501.412    2448.3371    -12404.12    11795.968    78.849458 
   17900    1317.4914   -121.81801    1.1920939   -120.62592   -21276.121    4.3052627    4.3052627    4.3052627   -21276.121   -48341.841    9827.9433   -25314.466   -8737.3783   -24437.784   -21827.435    79.799277 
   18000    1300.1243   -121.80049    1.1763798   -120.62411    8386.3355    4.2804964    4.2804964    4.2804964    8386.3355    13610.012    10211.932    1337.0635   -2235.5736   -7595.8751    24066.125    78.430036 
   18100     1097.686   -121.62281   0.99320936    -120.6296    7226.2611    4.2831459    4.2831459    4.2831459    7226.2611    23217.069   -2079.4161    541.13078    6380.4702    8746.5306    47405.682     78.57576 
   18200    1138.9382   -121.65845    1.0305352   -120.62791   -25200.749    4.3004802    4.3004802    4.3004802   -25200.749   -35150.034   -25892.986   -14559.228    440.59938    14466.425    10195.189     79.53364 
   18300    1286.8157   -121.78944    1.1643379    -120.6251      4639.77    4.2849606    4.2849606    4.2849606      4639.77   -16080.049     3711.142    26288.217   -1164.9283   -9059.7455   -18584.106    78.675676 
   18400    1275.4152   -121.77936    1.1540225   -120.62534   -7912.1049    4.2892508    4.2892508    4.2892508   -7912.1049    12509.874   -20616.553   -15629.635   -4878.5326   -6991.2185   -3936.8841    78.912231 
   18500    851.38836   -121.40203   0.77035408   -120.63167   -22036.527    4.2948429    4.2948429    4.2948429   -22036.527   -10719.612   -14643.964   -40746.006    1320.3859    23517.598    23408.753    79.221279 
   18600    697.60595   -121.26721   0.63120852   -120.63601   -1317.9143    4.2824091    4.2824091    4.2824091   -1317.9143   -39632.451    8090.7054    27588.003    9416.0699    27756.152    18236.202    78.535219 
   18700    984.21085   -121.52623   0.89053466   -120.63569    -6303.037    4.2926035    4.2926035    4.2926035    -6303.037   -41149.581   -4240.7699     26481.24     6744.045    3929.4387   -3152.9817    79.097424 
   18800     1265.771   -121.77603    1.1452962   -120.63073   -9113.4192    4.2920855    4.2920855    4.2920855   -9113.4192   -18961.303    -8775.438    396.48356    -3383.634   -11487.132   -20227.263    79.068791 
   18900    1034.5992   -121.56673   0.93612709    -120.6306    14593.593    4.2820653    4.2820653    4.2820653    14593.593    3186.7528     15417.26    25176.767   -3893.9578    10563.503   -5569.0686    78.516306 
   19000    1121.0027   -121.64512    1.0143068   -120.63082   -13231.876     4.296369     4.296369     4.296369   -13231.876   -36711.929   -2837.6606   -146.03716    18745.244    24917.937    14861.986    79.305757 
   19100    1047.0423   -121.57447   0.94738588   -120.62708   -6079.7869     4.294876     4.294876     4.294876   -6079.7869   -42814.036   -4187.9332    28762.608    9161.8284   -7735.3973    3673.8655     79.22311 
   19200    887.33348   -121.43348   0.80287798    -120.6306   -2454.2776    4.2838145    4.2838145    4.2838145   -2454.2776   -12549.423   -10325.259     15511.85   -5828.1356   -28928.116   -24752.002    78.612563 
   19300     1113.408   -121.64274     1.007435   -120.63531   -7544.2263    4.2858529    4.2858529    4.2858529   -7544.2263    14623.746   -14162.296   -23094.129   -10919.772   -12918.902   -29077.905     78.72484 
   19400    1560.3542   -122.04111    1.4118412   -120.62927     6659.964    4.2905427    4.2905427    4.2905427     6659.964    14249.767   -2092.3456    7822.4701    7325.1666    8842.9128    2303.3305    78.983556 
   19500    1311.6318   -121.81789     1.186792    -120.6311   -7800.4045    4.2976706    4.2976706    4.2976706   -7800.4045   -28201.611   -17436.503      22236.9    32648.351    802.40395    7422.9513    79.377858 
   19600    580.88387   -121.15901   0.52559593   -120.63342   -5108.5563    4.2919338    4.2919338    4.2919338   -5108.5563   -12033.962    -8056.319    4764.6123    1753.0304   -25437.702   -29678.823    79.060404 
   19700    853.72286   -121.40219   0.77246639   -120.62973    11889.056    4.2916821    4.2916821    4.2916821    11889.056    19134.782    10472.334    6060.0528   -11499.973   -15995.474     -35875.9    79.046498 
   19800    1554.2095   -122.02064    1.4062815   -120.61436    4038.9881    4.3025404    4.3025404    4.3025404    4038.9881   -6526.5835    4956.2847    13687.263      6705.22    6341.4944    910.99787    79.647998 
   19900      1469.18   -121.94764    1.3293449    -120.6183    14640.894    4.2857093    4.2857093    4.2857093    14640.894   -16777.989      27424.6    33276.073    10740.239   -551.36084    9252.5663    78.716927 
   20000    684.07116   -121.25256   0.61896196    -120.6336   -2056.8554    4.2843642    4.2843642    4.2843642   -2056.8554   -237.23271    658.17595   -6591.5095   -2168.5971   -19440.999   -35988.385    78.642832 
   20100     631.7288   -121.21247    0.5716015   -120.64086   -28103.779    4.2965463    4.2965463    4.2965463   -28103.779   -685.28449    -38142.01   -45484.042   -14557.918   -17499.203   -43181.663     79.31558 
   20200    1526.1306   -122.01277     1.380875    -120.6319    4146.2974    4.2865609    4.2865609    4.2865609    4146.2974   -576.16154    11786.673    1228.3811   -4142.0985    9136.8204    10054.659    78.763858 
   20300    1707.9189   -122.17014    1.5453609   -120.62478   -180.07063    4.2956354    4.2956354    4.2956354   -180.07063   -7213.0024    14649.825   -7977.0349    7378.0485     4359.183    7874.7243    79.265143 
   20400    722.22634   -121.28239   0.65348557    -120.6289   -12936.062    4.3024118    4.3024118    4.3024118   -12936.062    8801.4154   -19818.744   -27790.857   -4674.5433   -20208.573   -40146.105    79.640858 
   20500    525.61385   -121.10072   0.47558646   -120.62514    677.64929    4.2907571    4.2907571    4.2907571    677.64929    14675.756    -4635.718   -8007.0905   -13736.372   -13387.614   -26402.433    78.995396 
   20600    1201.5241   -121.70937    1.0871642    -120.6222    4600.0425    4.2854232    4.2854232    4.2854232    4600.0425   -3080.3325   -6727.0539    23607.514   -4840.6278    15183.169     17006.96    78.701164 
   20700     1293.255    -121.7937    1.1701643   -120.62354    16648.983    4.2851084    4.2851084    4.2851084    16648.983    27624.466   -5874.3918    28196.874    6397.5752    7036.4887    8403.8136    78.683819 
   20800    831.37841    -121.3852   0.75224866   -120.63295   -14927.776    4.3027398    4.3027398    4.3027398   -14927.776    6718.2084   -30237.694   -21263.842    1169.2407   -17544.502   -42066.271    79.659072 
   20900    835.99253   -121.38063   0.75642361   -120.62421   -20784.818    4.3012916    4.3012916    4.3012916   -20784.818    -27737.62   -22851.432   -11765.403   -19608.952   -17399.823   -23874.521    79.578666 
   21000    1370.2003   -121.85266    1.2397861   -120.61287    17626.806    4.2784913    4.2784913    4.2784913    17626.806   -1903.2808    18261.212    36522.488   -10916.413    5745.8122    14581.419    78.319869 
   21100    1418.0821   -121.90386    1.2831105   -120.62075     4040.527    4.2871474    4.2871474    4.2871474     4040.527   -3481.9048    8449.5687    7153.9171    25595.511     11514.38   -3155.2909    78.796195 
   21200    948.21745   -121.48959   0.85796708   -120.63163   -13585.987    4.2941324    4.2941324    4.2941324   -13585.987    -24107.55    149.91388   -16800.326    20468.807   -14959.809   -29188.424    79.181967 
   21300    844.25851   -121.39809   0.76390285   -120.63419    5623.9439    4.2874045    4.2874045    4.2874045    5623.9439   -19741.683     16881.79    19731.725   -24970.227   -18775.619   -18791.275    78.810369 
   21400    1428.2697   -121.92062    1.2923285   -120.62829   -2660.8881    4.2921258    4.2921258    4.2921258   -2660.8881   -12312.014    585.01749    3744.3322   -25293.415    27.473684    9797.3992    79.071017 
   21500    1433.8191   -121.91967    1.2973496   -120.62232    5166.3549    4.2913527    4.2913527    4.2913527    5166.3549   -12159.607    4715.7823     22942.89    22578.762    4479.8331    4258.2298    79.028296 
   21600    863.63143   -121.40809   0.78143187   -120.62665   -2729.1899    4.2965328    4.2965328    4.2965328   -2729.1899   -4115.9731   -7558.1489    3486.5522    29143.747   -6415.3858   -25359.658     79.31483 
   21700    937.66256   -121.47408   0.84841679   -120.62566   -18105.405    4.2979039    4.2979039    4.2979039   -18105.405   -10650.288   -11592.176   -32073.751   -19009.579   -19271.487   -21223.133    79.390783 
   21800     1362.197   -121.85398    1.2325445   -120.62143    21469.424    4.2757167    4.2757167    4.2757167    21469.424     12820.55      35723.8    15863.922   -23576.109   -10516.667    8334.7866    78.167596 
   21900    1483.5954   -121.97109    1.3423883    -120.6287    12153.933    4.2815096    4.2815096    4.2815096    12153.933    8319.1747    6948.5041    21194.119    15588.296    7269.2173    5732.6956     78.48574 
   22000    789.30934   -121.34721   0.71418368   -120.63303     -17579.5     4.304902     4.304902     4.304902     -17579.5    -1952.708   -17423.838   -33361.954     24849.91   -4986.6678   -21748.731    79.779223 
   22100    767.48056    -121.3231   0.69443254   -120.62866   -11803.141    4.2897932    4.2897932    4.2897932   -11803.141    11101.195   -10576.394   -35934.225   -3924.3627   -26055.872   -31866.948    78.942169 
   22200    1224.8815   -121.72915    1.1082985   -120.62085    7586.7917    4.2810905    4.2810905    4.2810905    7586.7917   -7482.3591    16157.468    14085.267   -15540.218   -15121.894    636.01764    78.462698 
   22300    1349.7886   -121.84211    1.2213171   -120.62079   -2782.4585    4.2915034    4.2915034    4.2915034   -2782.4585   -16626.895   -4204.1837    12483.704    11062.244    11330.536    4491.6803    79.036622 
   22400    785.83755   -121.34131   0.71104233   -120.63027    3373.2106    4.2921923    4.2921923    4.2921923    3373.2106      12834.7   -16428.241    13713.173    20239.187    3971.1236   -29528.058    79.074693 
   22500     713.9695   -121.27842   0.64601461   -120.63241    -14168.75    4.2968114    4.2968114    4.2968114    -14168.75   -18758.795    -2370.697   -21376.759   -4071.9459   -31016.473     -27474.8     79.33026 
   22600    1357.4193    -121.8514    1.2282215   -120.62318     214.0108    4.2852483    4.2852483    4.2852483     214.0108   -15857.916    30214.623   -13714.674   -4493.0291   -16874.105    6392.0546     78.69153 
   22700    1531.9159   -122.00717    1.3861097   -120.62106    14652.531    4.2797962    4.2797962    4.2797962    14652.531    6622.8098    23924.932    13409.851    7030.0254    27022.604    5327.7615    78.391555 
   22800    941.88197   -121.48249    0.8522346   -120.63026   -25383.279    4.3025402    4.3025402    4.3025402   -25383.279    489.99469   -28642.505   -47997.326    8279.9812    5832.1253   -36518.329    79.647987 
   22900    1026.6868   -121.55527   0.92896776    -120.6263   -7949.6241    4.2939081    4.2939081    4.2939081   -7949.6241    10225.173    -10313.67   -23760.374    5182.7005   -29507.189   -30857.498    79.169562 
   23000    1466.7081   -121.94259    1.3271083   -120.61548    15776.812     4.283959     4.283959     4.283959    15776.812     5046.313    23395.792    18888.331   -9269.4787   -12366.289    12315.696    78.620522 
   23100    1116.2224   -121.63215    1.0099814   -120.62217   -6507.8064    4.2918857    4.2918857    4.2918857   -6507.8064   -8824.2515   -4187.2892   -6511.8786   -1946.9402     24822.88    6737.9275    79.057748 
   23200    541.55662   -121.12324   0.49001181   -120.63322    3849.5956    4.2866604    4.2866604    4.2866604    3849.5956     30488.45   -18801.264   -138.39913    11399.322    15317.502   -37478.731    78.769347 
   23300    1016.3143    -121.5525   0.91958254   -120.63292   -5097.3417    4.2942887    4.2942887    4.2942887   -5097.3417    19758.995   -5431.2478   -29619.773    7116.6658   -10160.188   -34518.924    79.190613 
   23400    1633.1174   -122.09633     1.477679   -120.61865   -5734.8617    4.2960103    4.2960103    4.2960103   -5734.8617   -7448.4301   -325.59511     -9430.56   -5789.1106   -6127.7947    10067.216    79.285899 
   23500    933.16851   -121.47289   0.84435047   -120.62854    3363.6738    4.2836505    4.2836505    4.2836505    3363.6738    18030.119    10802.874   -18741.971   -7745.2251    18003.133   -3396.5177     78.60354 
   23600    487.52222    -121.0776   0.44112035   -120.63648    -14118.44    4.2930491    4.2930491    4.2930491    -14118.44     13902.99   -21502.871   -34755.441    11825.938    17636.791   -48617.721    79.122056 
   23700    1290.8745   -121.79364    1.1680104   -120.62563   -6066.9373    4.2966857    4.2966857    4.2966857   -6066.9373   -1176.0953   -4289.9874   -12734.729    8005.5633   -4937.4415   -17899.497    79.323297 
   23800      1731.08   -122.18193    1.5663175   -120.61561    15420.472    4.2852585    4.2852585    4.2852585    15420.472   -9919.4252    21850.991     34329.85   -14354.395   -9070.7089    17501.014    78.692088 
   23900    1030.6656   -121.56189   0.93256787   -120.62932   -4672.4814     4.290757     4.290757     4.290757   -4672.4814   -16859.984   -11344.247    14186.787   -6619.2562     7886.284   -19862.474    78.995395 
   24000    803.62069   -121.36057   0.72713289   -120.63343   -13830.288     4.291819     4.291819     4.291819   -13830.288   -642.50102   -12307.333   -28541.031    4943.0474    24778.416   -41003.476    79.054065 
   24100    1215.1456   -121.72512    1.0994893   -120.62563    5227.3383    4.2918703    4.2918703    4.2918703    5227.3383    1655.7759    17231.695   -3205.4558    2288.6469   -2060.7506   -17817.935    79.056898 
   24200    1407.6412   -121.89315    1.2736634   -120.61948   -14725.638    4.3004747    4.3004747    4.3004747   -14725.638   -33791.728   -1990.4015   -8394.7845   -14025.966    -26979.85    11803.482    79.533332 
   24300    1001.9632    -121.5315   0.90659735    -120.6249    3961.4264    4.2815788    4.2815788    4.2815788    3961.4264    5493.0082     339.5457    6051.7252   -14740.841    2585.5018   -18834.311    78.489548 
   24400     580.4095   -121.15774   0.52516671   -120.63257    13641.842    4.2839162    4.2839162    4.2839162    13641.842    30783.488   -13703.705    23845.744    4695.1673    29187.417   -47726.317    78.618166 
   24500    1088.5729   -121.61111   0.98496368   -120.62615   -18763.253    4.3056533    4.3056533    4.3056533   -18763.253   -2699.2168   -33569.891   -20020.651    3548.9227    7443.5273   -3240.1561    79.821002 
   24600    1598.8078    -122.0613    1.4466349   -120.61466    16438.637    4.2845918    4.2845918    4.2845918    16438.637    15644.776    2797.4433    30873.691   -8539.4459   -22751.951    18605.533    78.655367 
   24700    1199.2345   -121.70842    1.0850926   -120.62333    3978.5239    4.2826993    4.2826993    4.2826993    3978.5239    21777.554   -1497.3563   -8344.6263   -847.78059   -1722.9988   -31866.327    78.551186 
   24800    706.16123   -121.27395   0.63894952     -120.635   -20364.687    4.2923322    4.2923322    4.2923322   -20364.687    12717.288   -32416.577   -41394.773    3820.0939    21401.976   -51401.861    79.082427 
   24900    1030.2454   -121.56297   0.93218773   -120.63078    18645.399    4.2845477    4.2845477    4.2845477    18645.399     20187.39   -3292.8374    39041.645    3968.9781    15072.451    13021.562    78.652939 
   25000    1521.1926   -121.99855     1.376407   -120.62214    6144.2648    4.2934971    4.2934971    4.2934971    6144.2648    7184.2265    4809.8879      6438.68    1754.6591   -4357.4375    26631.626    79.146831 
   25100    1050.8355   -121.57648   0.95081806   -120.62566    6796.8437    4.2888758    4.2888758    4.2888758    6796.8437    6999.6351   -8319.7386    21710.635   -4285.6909   -6850.7104   -40393.559    78.891537 
   25200     788.9471   -121.34342   0.71385592   -120.62957   -9643.2915    4.2847796    4.2847796    4.2847796   -9643.2915    12477.292   -9881.5769   -31525.589    2317.8983    18343.033   -54697.737     78.66571 
   25300    965.38985   -121.50304   0.87350503   -120.62954   -5113.5932    4.2867704    4.2867704    4.2867704   -5113.5932    2221.7354    7763.9326   -25326.448    3721.7104    26155.658    16412.277    78.775411 
   25400    1274.8648   -121.78037    1.1535245   -120.62684   -1624.9197    4.2915502    4.2915502    4.2915502   -1624.9197    2362.6999   -3583.5436   -3653.9156    954.61124     5040.919    26274.177     79.03921 
   25500    1171.3617   -121.68845    1.0598726   -120.62858   -11559.245    4.2946327    4.2946327    4.2946327   -11559.245    20482.453   -34589.585   -20570.604    3915.7925   -9503.7084   -38708.554     79.20965 
   25600    1161.8138   -121.67924    1.0512336     -120.628    14226.197    4.2759515    4.2759515    4.2759515    14226.197    29656.891    9197.2397    3824.4612    -2646.371    12262.455    -38293.97    78.180476 
   25700    1084.8709   -121.61501   0.98161403    -120.6334    2947.4638    4.2868712    4.2868712    4.2868712    2947.4638   -17345.999      6673.36     19515.03   -3257.9556    30328.815    10874.592    78.780967 
   25800    1084.8833    -121.6083   0.98162518   -120.62668   -26810.732    4.3033309    4.3033309    4.3033309   -26810.732   -21116.908   -36397.432   -22917.857    3918.7031    9565.3462    21480.243    79.691908 
   25900    1261.6446   -121.76207    1.1415625   -120.62051    8696.7215    4.2814221    4.2814221    4.2814221    8696.7215    41282.385   -11228.972   -3963.2493   -1069.0563    -15180.42   -12411.153    78.480931 
   26000    1304.9914   -121.80106    1.1807837   -120.62028     6052.863    4.2857397    4.2857397    4.2857397     6052.863    16114.297    10819.551   -8775.2594    843.85063    13044.996   -27854.348    78.718604 
   26100    911.72527   -121.44854   0.82494818    -120.6236   -11445.267    4.2974601    4.2974601    4.2974601   -11445.267   -22091.301   -6045.8597   -6198.6397    4122.7968    25809.741    7293.6743    79.366198 
   26200    668.76785   -121.23017    0.6051152   -120.62505    4190.7954    4.2885957    4.2885957    4.2885957    4190.7954    20605.647   -14429.212    6395.9509   -703.15315    9515.6829     23784.38    78.876079 
   26300    1134.1376   -121.65131    1.0261916   -120.62512    195.39537    4.2884525    4.2884525    4.2884525    195.39537    13169.526   -18957.186    6373.8469    4912.8713   -12271.203    3340.0001    78.868181 
   26400    1421.2075    -121.9072    1.2859384   -120.62127    18769.471    4.2825582    4.2825582    4.2825582    18769.471    17577.724    24435.887    14294.802   -1440.8864   -14020.038   -8678.3814    78.543423 
   26500    1051.7155   -121.58395    0.9516143   -120.63234   -3648.9715    4.2909943    4.2909943    4.2909943   -3648.9715   -18132.936   -10165.062    17351.083   -4221.0244    7086.5718    1157.8223      79.0085 
   26600    781.59503   -121.33611   0.70720361    -120.6289   -26078.417    4.3016127    4.3016127    4.3016127   -26078.417   -22618.878    -47693.91   -7922.4631    4478.8448     16796.19    36323.597    79.596489 
   26700    1276.0496   -121.77268    1.1545965   -120.61808    3020.6272    4.2825384    4.2825384    4.2825384    3020.6272    14093.085   -3083.9556   -1947.2478    230.70844   -11915.602    24433.656    78.542336 
   26800    1256.3577   -121.75584    1.1367789   -120.61906    298.76743      4.28543      4.28543      4.28543    298.76743    5525.7075    14401.287   -19030.692    2279.8114    -35613.84   -13139.853    78.701539 
   26900    1044.2441   -121.56978     0.944854   -120.62492   -11105.136    4.2928979    4.2928979    4.2928979   -11105.136    -12669.17   -12913.045   -7733.1931   -5031.5692   -6897.9533    5833.7655    79.113696 
   27000    970.60328   -121.50287   0.87822224   -120.62465     24272.44    4.2845579    4.2845579    4.2845579     24272.44    37839.713   -3426.7133    38404.319   -3220.9871    23465.377    27697.312    78.653501 
   27100    904.82894   -121.44344   0.81870824   -120.62473    3718.9107    4.2976352    4.2976352    4.2976352    3718.9107    20920.639   -9535.6827   -228.22413    4541.1994   -23736.595    3757.0869    79.375897 
   27200    1038.7844   -121.55904   0.93991393   -120.61912   -3399.0936    4.2956505    4.2956505    4.2956505   -3399.0936   -15967.004    2181.5657    3588.1574   -993.60901   -49853.159   -13874.104    79.265976 
   27300      1397.35   -121.87875    1.2643517    -120.6144    17923.244    4.2779002    4.2779002    4.2779002    17923.244    30537.013    18330.399    4902.3194   -4848.2867   -2100.1338    5387.3409    78.287413 
   27400    1385.1851   -121.87633    1.2533446   -120.62299     863.2127    4.2854335    4.2854335    4.2854335     863.2127    9281.9412    8832.7422   -15525.045    -7690.775    31700.589    21484.787    78.701732 
   27500     891.1488   -121.43816   0.80633016   -120.63183   -15007.239    4.2972991    4.2972991    4.2972991   -15007.239   -19172.219   -3795.5838   -22053.914   -2335.7827   -23172.897    3918.5505    79.357274 
   27600    950.03435   -121.48854   0.85961104   -120.62893   -1108.2239     4.294243     4.294243     4.294243   -1108.2239   -7996.7777    6419.9787   -1747.8729    7698.7878   -52586.551   -17019.249    79.188084 
   27700    1463.1656   -121.94179     1.323903   -120.61788    8930.3369    4.2884321    4.2884321    4.2884321    8930.3369    24947.262   -7662.0944    9505.8435    11324.011    10116.094    4272.4133    78.867052 
   27800    1217.7281   -121.72037     1.101826   -120.61855    11472.355    4.2847908    4.2847908    4.2847908    11472.355    34642.801   -13577.992    13352.256   -193.39258    6791.6403    22099.749    78.666327 
   27900    753.81306   -121.31079    0.6820659   -120.62873   -1453.3646    4.2914625    4.2914625    4.2914625   -1453.3646    31528.671   -2912.9706   -32975.794   -12035.072   -41743.451    7254.8803    79.034363 
   28000    784.45181   -121.33848   0.70978848    -120.6287   -11092.597    4.2950718    4.2950718    4.2950718   -11092.597   -5882.2504   -8649.5623   -18745.979    6999.5481   -34981.651    -5725.131    79.233946 
   28100    1207.3178   -121.71298    1.0924065   -120.62058    6742.5714    4.2831189    4.2831189    4.2831189    6742.5714    14195.169   -24485.669    30518.215    23283.393    8950.3557    3731.8433    78.574279 
   28200    1172.3528   -121.68367    1.0607695    -120.6229   -2076.0972    4.2895839    4.2895839    4.2895839   -2076.0972    29098.849   -22201.621    -13125.52    12723.554   -3931.2845    19215.466    78.930618 
   28300    1016.3342    -121.5432   0.91960051    -120.6236   -21966.774    4.2972647    4.2972647    4.2972647   -21966.774   -21520.464    56.090858   -44435.948    -2238.288   -46331.972    4863.2348     79.35537 
   28400    1034.6654   -121.55735   0.93618699   -120.62116    6745.7659    4.2837141    4.2837141    4.2837141    6745.7659   -4254.4007    8201.6877    16290.011    4361.0921   -22566.316   -10025.747    78.607037 
   28500     1292.559   -121.79074    1.1695345   -120.62121   -721.67262    4.2884443    4.2884443    4.2884443   -721.67262    11565.707   -37850.544    24119.819    25738.593    16729.827   -491.79245    78.867725 
   28600    1244.3631   -121.74791    1.1259259   -120.62198   -10806.089    4.2949335    4.2949335    4.2949335   -10806.089   -12267.649   -26447.562    6296.9443    7197.1573   -10620.772    11945.931    79.226291 
   28700    1295.8684   -121.79419    1.1725289   -120.62166    9794.7533    4.2829181    4.2829181    4.2829181    9794.7533    17458.945    15145.215   -3219.8998   -10376.061   -33507.262     5256.047    78.563223 
   28800    1159.8123   -121.67436    1.0494226   -120.62494   -9241.8642    4.2915415    4.2915415    4.2915415   -9241.8642    11698.612    -30683.12   -8741.0848    18141.485   -8138.0961   -14330.583    79.038728 
   28900    905.26209   -121.44472   0.81910016   -120.62562   -19599.314    4.2957702    4.2957702    4.2957702   -19599.314   -9522.7219   -65998.567    16723.348    20189.145    5718.3028   -14735.726    79.272603 
   29000    1116.3509   -121.63211    1.0100978   -120.62202     12306.32    4.2823375    4.2823375    4.2823375     12306.32    10487.561   -9356.8496    35788.248   -4173.5367   -1862.5167    5131.0353    78.531279 
   29100    1374.2993   -121.86242    1.2434949   -120.61892   -3552.5473    4.2939187    4.2939187    4.2939187   -3552.5473     7729.092   -9444.6825   -8942.0514   -13764.045   -29828.965    1521.4729    79.170149 
   29200    958.04026   -121.48961   0.86685496   -120.62275   -16764.662    4.2958047    4.2958047    4.2958047   -16764.662   -1153.1821   -28099.992   -21040.812    18020.009   -15325.868   -19459.507    79.274513 
   29300    569.35804   -121.14228   0.51516712   -120.62712    5983.8491    4.2811304    4.2811304    4.2811304    5983.8491    17400.051   -15165.716    15717.213    27669.569    13027.726    -15294.98    78.464888 
   29400    1045.2634   -121.57692    0.9457763   -120.63115   -293.34413    4.2892242    4.2892242    4.2892242   -293.34413    7066.6815   -23319.862    15373.148   -11971.493    389.07818   -282.76032    78.910764 
   29500     1667.839   -122.13147    1.5090958   -120.62237    8941.7868    4.2886915    4.2886915    4.2886915    8941.7868    9911.0492    19841.509   -2927.1973   -18361.231    1812.1972    3610.8079    78.881365 
   29600    1173.9568   -121.69481    1.0622208   -120.63259    10821.843    4.2846207    4.2846207    4.2846207    10821.843    41484.354   -1427.4575   -7591.3677     17807.42   -4143.5512    163.39134    78.656955 
   29700    752.59921   -121.31755   0.68096758   -120.63658   -19336.102    4.2956159    4.2956159    4.2956159   -19336.102    49.243022   -44960.619   -13096.928    43306.879   -188.77972   -20176.361    79.264059 
   29800     1354.503   -121.85211    1.2255828   -120.62652    449.31657     4.290709     4.290709     4.290709    449.31657   -4287.6971    3826.8199    1808.8269    4967.5196    12428.641   -11705.016    78.992739 
   29900    1883.5048   -122.32037    1.7042348   -120.61613    5701.9841    4.2886703    4.2886703    4.2886703    5701.9841    8496.9284      25243.1   -16634.077    -19046.49   -1937.3731    11483.031    78.880196 
   30000    879.94011   -121.42727    0.7961883   -120.63109   -6671.2534    4.2915543    4.2915543    4.2915543   -6671.2534    8059.2379   -13909.566   -14163.432    28855.119   -274.99921   -4730.6584    79.039434 
   30100    512.40799   -121.10168   0.46363752   -120.63804   -4721.0202    4.2866486    4.2866486    4.2866486   -4721.0202    16486.157   -15246.305   -15402.913    37305.887   -6.5627031   -17698.329    78.768696 
   30200    1300.6932   -121.80631    1.1768945   -120.62942   -2988.3535    4.2919949    4.2919949    4.2919949   -2988.3535    8832.5451    2620.7231   -20418.329   -838.53975    4804.0669   -5503.3871    79.063781 
   30300    1479.7634   -121.96101     1.338921   -120.62209    6103.9517    4.2891164    4.2891164    4.2891164    6103.9517    5357.1515    14323.926   -1369.2222   -23982.107    5568.8287     2598.283    78.904816 
   30400    755.18392   -121.31638   0.68330628   -120.63307   -1581.8578    4.2846395    4.2846395    4.2846395   -1581.8578    11884.132   -33620.845    16991.139    14614.409   -7289.5644   -2158.9006    78.657996 
   30500    700.88509   -121.26758   0.63417556    -120.6334   -13035.419    4.2898014    4.2898014    4.2898014   -13035.419    12314.814   -45715.269   -5705.8015    50142.505    1693.2341   -12579.771    78.942627 
   30600    1247.1124   -121.75411    1.1284135    -120.6257    4076.9798    4.2891179    4.2891179    4.2891179    4076.9798     20213.18   -8628.6926    646.45183   -4601.6451   -3849.4656   -11654.103    78.904897 
   30700    1349.3317   -121.84387    1.2209037   -120.62297    6565.2838    4.2899205    4.2899205    4.2899205    6565.2838    23551.974   -20017.485    16161.363   -34888.452    -2561.495    8470.8737      78.9492 
   30800    967.28854   -121.50463     0.875223   -120.62941   -9474.5856    4.2889163    4.2889163    4.2889163   -9474.5856   -10448.325   -44798.903    26823.471    18188.899    3920.2114    1589.7933    78.893773 
   30900    854.75102   -121.40481   0.77339669   -120.63141    4994.7412    4.2828839    4.2828839    4.2828839    4994.7412    11095.585   -21824.906    25713.544     43308.41   -8718.6947   -15494.525    78.561342 
   31000    1336.8745    -121.8353    1.2096322   -120.62566   -286.40716    4.2930535    4.2930535    4.2930535   -286.40716    13676.438   -7042.0056   -7493.6537    2555.9182    5913.6981   -16231.872    79.122297 
   31100    1438.1563   -121.91966    1.3012741   -120.61838   -14741.615    4.2976749    4.2976749    4.2976749   -14741.615   -3183.8718   -28800.597   -12240.376   -22814.858      3549.02   -1483.5989    79.378098 
   31200    746.11192   -121.29955   0.67509775   -120.62445   -1192.3583     4.283176     4.283176     4.283176   -1192.3583   -1883.8769   -44127.217    42434.019    34702.033   -4516.6446    4194.7227    78.577417 
   31300     911.4977   -121.45372   0.82474227   -120.62897   -5550.0939    4.2808391    4.2808391    4.2808391   -5550.0939    3085.0201   -43148.758    23413.456    44273.719    3686.1803   -16725.409    78.448872 
   31400    1588.7802    -122.0612    1.4375618   -120.62364   -5987.7144    4.2944501    4.2944501    4.2944501   -5987.7144    35089.473   -23641.066    -29411.55   -11853.423   -3649.6784   -18395.187    79.199545 
   31500    1373.6164   -121.86483     1.242877   -120.62195   -18070.816    4.2976226    4.2976226    4.2976226   -18070.816   -312.17525   -42348.101   -11552.172    19696.977    9402.7059   -911.99139    79.375201 
   31600    581.94782   -121.15517   0.52655862   -120.62861   -8599.1678    4.2849992    4.2849992    4.2849992   -8599.1678   -17570.523   -53775.162    45548.181    49881.409    3957.4107    9738.4593    78.677806 
   31700    1028.0715   -121.55908    0.9302207   -120.62886   -3184.1909    4.2811943    4.2811943    4.2811943   -3184.1909    966.81939   -43671.669    33152.277    -2746.295   -7163.6293   -3943.7404    78.468405 
   31800    1619.2998   -122.08683    1.4651765   -120.62165   -3523.2509    4.2919079    4.2919079    4.2919079   -3523.2509    20869.509   -28300.289   -3138.9726   -26654.305    508.10699   -7732.6609    79.058976 
   31900      1189.34   -121.70047    1.0761398   -120.62433   -5798.7229    4.2935687    4.2935687    4.2935687   -5798.7229    7440.0017   -45998.957    21162.787    37398.298   -10309.345    6856.9054    79.150787 
   32000    604.57766   -121.17545   0.54703457   -120.62842   -6168.5623    4.2869765    4.2869765    4.2869765   -6168.5623     879.4067   -58787.842    39402.748    32590.911    6296.0048    9844.5419    78.786772 
   32100    933.40157   -121.46884   0.84456136   -120.62428   -7591.2515    4.2880071    4.2880071    4.2880071   -7591.2515    1813.0231   -49016.942    24430.165   -35706.821     5989.154    4327.1858    78.843609 
   32200    1393.6922   -121.87807     1.261042   -120.61702   -3838.5262     4.291909     4.291909     4.291909   -3838.5262    1885.3746   -25804.877    12403.924   -18242.714   -15778.745   -7203.6512    79.059036 
   32300    1209.4836   -121.71445    1.0943662   -120.62008   -13000.596    4.2918974    4.2918974    4.2918974   -13000.596   -2389.2028   -27919.672    -8692.914     30888.52   -12829.731    5063.6282    79.058394 
   32400    854.85956   -121.39874    0.7734949   -120.62525    -8430.481    4.2873477    4.2873477    4.2873477    -8430.481   -8821.9982   -37083.991    20614.546    4193.5892   -6456.6418    13748.481     78.80724 
   32500    1211.7606   -121.71946    1.0964264   -120.62303    389.38117    4.2858444    4.2858444    4.2858444    389.38117    9841.0133   -30409.753    21736.883   -33327.983    11263.528    7565.7077    78.724369 
   32600    1389.4197   -121.87791    1.2571761   -120.62073    229.89232    4.2929354    4.2929354    4.2929354    229.89232     2678.806   -7464.8293    5475.7003   -13598.721   -7476.0436   -13761.975    79.115771 
   32700    1035.9396   -121.56238   0.93733988   -120.62504   -3578.0424    4.2914445    4.2914445    4.2914445   -3578.0424   -2134.9513   -1396.2976   -7202.8783    17084.587   -22458.955    -19920.61    79.033372 
   32800    959.94083   -121.49294   0.86857464   -120.62436    8801.5519    4.2858379    4.2858379    4.2858379    8801.5519    9112.5847   -14051.975    31344.046    3242.1614   -3999.9132    10874.915    78.724014 
   32900    1330.3085   -121.82383    1.2036911   -120.62014    2589.0118    4.2887691    4.2887691    4.2887691    2589.0118   -7599.0786    -23375.66    38741.773   -16693.404    2229.9485    5222.4427    78.885645 
   33000    1123.8069   -121.64071    1.0168441   -120.62387    2670.6595    4.2876435    4.2876435    4.2876435    2670.6595    2484.6154    9019.2097   -3491.8467    -8893.594    11441.504   -26263.108     78.82355 
   33100    711.67275   -121.27355   0.64393646   -120.62962   -7059.0539    4.2895426    4.2895426    4.2895426   -7059.0539    1576.3658   -10745.266   -12008.261     11552.34   -5667.8084   -29649.557    78.928335 
   33200    1095.2124   -121.61719   0.99097123   -120.62621   -9086.8884    4.2886806    4.2886806    4.2886806   -9086.8884   -18635.254   -27414.271     18788.86    25674.902   -13890.684   -3536.1037    78.880766 
   33300    1450.1177   -121.93256     1.312097   -120.62046    2884.7763    4.2854702    4.2854702    4.2854702    2884.7763   -6309.0905   -16725.049    31688.469    7138.1819    540.85821    13480.889    78.703754 
   33400    1072.1093   -121.59352   0.97006701   -120.62345   -7141.5588    4.2926814    4.2926814    4.2926814   -7141.5588    14896.208   -10510.656   -25810.228    -6499.656    10446.924   -22160.327    79.101729 
   33500    869.56569   -121.41232   0.78680131   -120.62552   -11358.813    4.2919846    4.2919846    4.2919846   -11358.813   -5264.0249   -14308.998   -14503.417    5724.8201     7580.212   -29485.746    79.063215 
   33600    1212.1552   -121.71667    1.0967835   -120.61988     1353.344    4.2866033    4.2866033    4.2866033     1353.344   -24734.219    154.30013    28639.951    29577.772   -11283.774    3854.1359      78.7662 
   33700    1467.8283   -121.94509    1.3281219   -120.61697    1513.5794    4.2876946    4.2876946    4.2876946    1513.5794    1779.1293   -2992.3407    5753.9496    13827.745   -3446.5385    7324.2119    78.826373 
   33800     1087.292   -121.61019   0.98380466   -120.62639    3061.0302    4.2852329    4.2852329    4.2852329    3061.0302    29208.977    12777.905   -32803.792    -13195.38    14809.456   -5505.0282     78.69068 
   33900    817.49768   -121.37123   0.73968908   -120.63154   -11974.945    4.2892096    4.2892096    4.2892096   -11974.945   -19329.384    6291.8841   -22887.337    21774.935    19360.828   -23189.749    78.909957 
   34000    1239.1866   -121.74825     1.121242   -120.62701   -9173.6284    4.2928622    4.2928622    4.2928622   -9173.6284   -38941.108    6628.1214    4792.1013      31618.5    5427.9717   -2460.8717    79.111722 
   34100    1536.0108   -122.00591    1.3898148    -120.6161    2047.2136    4.2881891    4.2881891    4.2881891    2047.2136   -395.33052    14450.626   -7913.6547   -2130.0174    -9891.414    13504.946    78.853645 
   34200    864.37207   -121.40483   0.78210201   -120.62272   -14669.243    4.2918574    4.2918574    4.2918574   -14669.243    1115.5374    3404.4992   -48527.766   -6646.8303    10017.309   -11579.975    79.056183 
   34300    694.12716   -121.25175   0.62806084   -120.62369   -10713.191    4.2961459    4.2961459    4.2961459   -10713.191    -14171.26    21937.677    -39905.99    5759.1503    20365.816   -19424.983    79.293405 
   34400    1483.9121   -121.95621    1.3426748   -120.61354    -721.0164     4.286823     4.286823     4.286823    -721.0164    -17072.88    13602.731       1307.1    19385.687   -6849.5601   -1395.3419    78.778311 
   34500     1135.113   -121.64644    1.0270741   -120.61936    4424.7054    4.2837578    4.2837578    4.2837578    4424.7054   -2160.0176    18731.792   -3297.6585   -5692.0768   -29144.862    5717.9721    78.609443 
   34600    712.24398   -121.27413   0.64445332   -120.62968   -10928.877    4.2919544    4.2919544    4.2919544   -10928.877   -344.20704   -10050.456   -22391.968   -16310.423   -998.99439   -21127.889    79.061544 
   34700    935.34715     -121.476   0.84632175   -120.62967    3425.4533    4.2870106    4.2870106    4.2870106    3425.4533    22231.786   -1091.9992   -10863.427    4752.6139    25663.783   -17896.513    78.788651 
   34800    1259.8173    -121.7624    1.1399092   -120.62249    7741.9242    4.2871423    4.2871423    4.2871423    7741.9242    3878.9587    20684.354   -1337.5403   -2935.9275   -20518.829    3458.7534    78.795914 
   34900    989.24918   -121.51893   0.89509345   -120.62384   -7954.4484     4.296454     4.296454     4.296454   -7954.4484   -20887.894    19797.121   -22772.572   -1551.0177   -48373.899   -5267.0414    79.310468 
   35000    1070.4248   -121.58719   0.96854285   -120.61865    1957.4208    4.2899735    4.2899735    4.2899735    1957.4208     13381.28    18797.947   -26306.964   -4750.9803   -4953.7198   -22426.302    78.952124 
   35100    1339.1079   -121.82651     1.211653   -120.61486    4633.3947    4.2840116    4.2840116    4.2840116    4633.3947    42436.347   -2793.4068   -25742.756   -9672.7819    9659.9681   -20118.341    78.623417 
   35200    976.04669   -121.50709   0.88314756   -120.62394   -8753.3381    4.2895215    4.2895215    4.2895215   -8753.3381   -8497.4238    40354.248   -58116.838     9834.065    -46404.01    11628.887    78.927172 
[...]
   91200    893.30305   -121.44889   0.80827937   -120.64061   -1935.3317     4.282543     4.282543     4.282543   -1935.3317    10676.458   -24291.858    7809.4055   -19495.716   -6200.9485    32429.186    78.542584 
   91300     817.6714   -121.38166   0.73984626   -120.64182   -5599.4935    4.2829128    4.2829128    4.2829128   -5599.4935    2204.2752   -36170.945     17168.19   -41992.026   -7618.5016    14005.328    78.562933 
   91400    1518.9144   -122.00633    1.3743457   -120.63198    6174.0944    4.2833383    4.2833383    4.2833383    6174.0944    3452.9994   -8918.0962     23987.38   -8297.2348    7457.5083   -12600.211    78.586351 
   91500    1627.8328   -122.09923    1.4728973   -120.62633    5262.8471    4.2847023    4.2847023    4.2847023    5262.8471    2827.5602    16865.267   -3904.2856    20668.674    9357.9707   -5021.6699    78.661451 
   91600    914.55043   -121.46148   0.82750445   -120.63397   -11040.298    4.2852437    4.2852437    4.2852437   -11040.298    1480.8639   -18091.191   -16510.566   -20337.948   -3726.5181    25508.599    78.691274 
   91700    694.42195   -121.26505   0.62832758   -120.63672   -6706.5427    4.2809424    4.2809424    4.2809424   -6706.5427    9675.9512   -23749.919   -6045.6603   -49308.443   -10788.685    23605.254    78.454552 
   91800    1236.0294    -121.7489    1.1183853   -120.63052   -992.66887     4.284347     4.284347     4.284347   -992.66887   -1636.2289    5000.3901   -6342.1679   -3132.0993     1011.106    2130.0076    78.641887 
   91900    1455.4179   -121.94165    1.3168927   -120.62476   -4467.5175     4.286162     4.286162     4.286162   -4467.5175   -3318.2853    12299.802    -22384.07    28454.498    12611.186    -5728.154    78.741872 
   92000    830.20194   -121.38665   0.75118417   -120.63547   -3416.1761    4.2797636    4.2797636    4.2797636   -3416.1761     2497.497    3417.4635   -16163.489   -15680.548   -3364.6757    13030.777    78.389761 
   92100    396.97118   -121.00285   0.35918787   -120.64366   -13770.125    4.2839373    4.2839373    4.2839373   -13770.125   -6975.5423   -19348.489   -14986.343   -44442.523   -12660.638    28300.611    78.619325 
   92200    1061.2116   -121.59972   0.96020656   -120.63951   -4802.1272    4.2854873    4.2854873    4.2854873   -4802.1272    4975.1751     -7964.66   -11416.897   -10719.904   -1397.7033    3285.0879    78.704693 
   92300    1778.7075   -122.23483    1.6094119   -120.62542    9002.9037    4.2823238    4.2823238    4.2823238    9002.9037     7653.251    18548.334    807.12588     14948.84    7153.0806   -13626.346    78.530527 
   92400    1203.0169   -121.72276    1.0885149   -120.63425   -7542.8767    4.2861608    4.2861608    4.2861608   -7542.8767   -13114.507   -15362.759    5848.6357   -19928.432    1439.3071    13236.479    78.741807 
   92500    408.62487   -121.01323   0.36973237   -120.64349   -7751.4543    4.2811386    4.2811386    4.2811386   -7751.4543    2107.7046   -26053.806    691.73853   -40467.589   -13319.488    28144.264     78.46534 
   92600    787.64414   -121.35386   0.71267697   -120.64118    1425.5257    4.2833537    4.2833537    4.2833537    1425.5257    20562.904   -658.78081   -15627.546   -13791.197   -16396.419    7620.6428      78.5872 
   92700    1670.7217   -122.13605    1.5117041   -120.62435   -2212.1571    4.2900656    4.2900656    4.2900656   -2212.1571    7460.5893     1175.186   -15272.247    14961.357    149.54832   -10298.666    78.957211 
   92800    1276.2833   -121.78491    1.1548079   -120.63011    8725.4455    4.2798315    4.2798315    4.2798315    8725.4455    13564.002    -9907.137    22519.471   -6109.5617    4023.8389    3502.5601    78.393491 
   92900    679.64579   -121.25413   0.61495779   -120.63918   -6732.6043    4.2808508    4.2808508    4.2808508   -6732.6043    8214.5459   -30534.805    2122.4458   -33236.048   -6060.9113     28349.52    78.449517 
   93000    1084.8037   -121.61934    0.9815532   -120.63779   -9841.7293    4.2868963    4.2868963    4.2868963   -9841.7293    11464.699   -16233.086   -24756.801   -17115.669   -15601.568    26019.856    78.782349 
   93100    1852.5449   -122.30296    1.6762215   -120.62674    13511.975    4.2808518    4.2808518    4.2808518    13511.975     30026.06    15033.496   -4523.6303    11591.336   -7303.4517   -6426.9478    78.449575 
   93200    1416.7332   -121.91374    1.2818899   -120.63185    3171.9406    4.2845055    4.2845055    4.2845055    3171.9406    11277.988   -14910.178    13148.012   -5484.2118    8522.6493   -6297.0074    78.650616 
   93300    638.22571    -121.2173   0.57748004   -120.63982    -12743.39    4.2864539    4.2864539    4.2864539    -12743.39    155.66326   -46673.146     8287.311   -32784.696    2392.6395    30759.263     78.75796 
   93400    875.11057   -121.42683   0.79181844   -120.63501    3525.5002    4.2813861    4.2813861    4.2813861    3525.5002    24012.468   -26454.491    13018.523   -16493.909   -5040.7938    27899.245     78.47895 
   93500    1401.0599   -121.89086    1.2677084   -120.62315    275.11282     4.286575     4.286575     4.286575    275.11282    15039.104    -8744.699   -5469.0667    9158.4539    2756.7824   -15162.101    78.764636 
   93600    950.00923   -121.48802   0.85958832   -120.62843   -4266.4087    4.2843912    4.2843912    4.2843912   -4266.4087    622.27083   -16308.754    2887.2573    -9009.403    5374.3723   -21424.244    78.644318 
   93700    632.33491   -121.20666   0.57214992   -120.63451   -3386.9447    4.2793165    4.2793165    4.2793165   -3386.9447    2099.2234   -30633.427    18373.369   -31392.247    6796.6547    28317.762    78.365198 
   93800    1015.9042   -121.55209   0.91921146   -120.63288   -6189.5598    4.2850155    4.2850155    4.2850155   -6189.5598    10572.192   -35241.046    6100.1746   -16316.728   -133.66883    34726.099    78.678704 
   93900    1451.4257    -121.9411    1.3132805   -120.62782    2848.4253    4.2843374    4.2843374    4.2843374    2848.4253    28836.883   -11088.425    -9203.182    6775.6329   -3718.9274   -25270.489    78.641359 
   94000    1302.5278   -121.80762    1.1785545   -120.62906    2748.9105     4.282861     4.282861     4.282861    2748.9105     20075.68     -10158.3   -1670.6485   -7625.2628    7123.7673   -35817.829    78.560083 
   94100    994.09832   -121.52982   0.89948105   -120.63034   -8635.4648    4.2867566    4.2867566    4.2867566   -8635.4648   -6861.9827   -18317.161    -727.2501   -30341.253    9348.8301    18601.512    78.774651 
   94200    1026.0227   -121.55626    0.9283669   -120.62789   -3058.5995    4.2853736    4.2853736    4.2853736   -3058.5995    1633.2325   -1659.9438   -9149.0872   -15378.088    4903.2725    33845.715    78.698429 
   94300     1250.293   -121.75541    1.1312914   -120.62412    3352.2416    4.2823478    4.2823478    4.2823478    3352.2416    17289.338    143.39561   -7376.0093    12783.944   -3747.4132   -13100.454    78.531849 
   94400    1235.6807   -121.74382    1.1180698   -120.62575    3780.4831    4.2808931    4.2808931    4.2808931    3780.4831   -5826.4862    11104.478    6063.4576   -3594.8795   -1869.8875   -34468.042    78.451844 
   94500    693.12115   -121.26327   0.62715058   -120.63612   -5173.5483    4.2828691    4.2828691    4.2828691   -5173.5483   -20611.897    1689.8213     3401.431   -31423.589    15509.108    10428.331    78.560531 
   94600    581.85059   -121.16754   0.52647065   -120.64107    -7548.715    4.2863403    4.2863403    4.2863403    -7548.715    537.80236    -19954.32   -3229.6269   -16291.066    7862.3344    37376.253      78.7517 
   94700    1484.6281   -121.97216    1.3433227   -120.62884    2932.1099    4.2867031    4.2867031    4.2867031    2932.1099    7995.0797   -2946.0658    3747.3158    16443.051   -7168.5494    11085.159    78.771699 
   94800     1834.324   -122.27961    1.6597349   -120.61987    4764.7438    4.2867913    4.2867913    4.2867913    4764.7438    2159.2925    6694.1649     5440.774    -1315.167   -1852.4237   -12153.228    78.776564 
   94900    968.28646   -121.50839   0.87612594   -120.63226   -630.16557    4.2857096    4.2857096    4.2857096   -630.16557   -6345.4215   -1955.0976    6410.0224   -34455.287    14742.017    9803.8545    78.716943 
   95000    706.74696   -121.27277    0.6394795   -120.63329   -6561.4352    4.2861693    4.2861693    4.2861693   -6561.4352    8049.7169   -7828.8474   -19905.175   -18217.885    13407.708    39254.587    78.742275 
   95100    1358.8612   -121.85771    1.2295261   -120.62818    2434.7558    4.2848104    4.2848104    4.2848104    2434.7558    20769.178    7539.8563   -21004.767    15120.451   -5541.6933    15224.234    78.667404 
   95200    1477.7074    -121.9609    1.3370607   -120.62384    9168.7416    4.2802166    4.2802166    4.2802166    9168.7416    7223.5234    19727.846    554.85507   -1758.7909    299.37467   -23595.181    78.414656 
   95300    684.11825   -121.25661   0.61900457   -120.63761    -6415.541    4.2829065    4.2829065    4.2829065    -6415.541     -9935.06   -5780.8506   -3530.7123   -28478.045    10994.582    4645.7228    78.562589 
   95400    504.44137   -121.09733   0.45642915    -120.6409   -16470.865    4.2882984    4.2882984    4.2882984   -16470.865    -8402.251   -23219.139   -17791.205   -18184.334    13072.977    45937.774    78.859675 
   95500    1367.8572   -121.86613    1.2376659   -120.62847    2856.5484    4.2850402    4.2850402    4.2850402    2856.5484    12094.173    1265.2608   -4789.7882    2288.7575    3952.2508    19350.235    78.680064 
   95600     1785.355   -122.23726    1.6154267   -120.62183    9531.7133    4.2838398    4.2838398    4.2838398    9531.7133    10903.054    1368.5266     16323.56    5460.5401   -5232.3287   -26313.673     78.61396 
   95700    1017.8138   -121.55356   0.92093932   -120.63262   -8818.5326    4.2880157    4.2880157    4.2880157   -8818.5326   -3472.8158   -31598.016    8615.2336   -23566.897    10735.274    4827.1039    78.844083 
   95800    667.35243   -121.24139   0.60383451   -120.63756   -6693.8608    4.2829538    4.2829538    4.2829538   -6693.8608    7745.8886   -24309.953   -3517.5179   -27009.422    12760.613    42689.663    78.565191 
   95900    1208.8005    -121.7272    1.0937481   -120.63345    -185.8438    4.2830489    4.2830489    4.2830489    -185.8438    7785.9843   -10627.142    2283.6267    9102.1952   -95.233024    13689.053    78.570427 
   96000    1483.5462   -121.96782    1.3423438   -120.62548    695.78762    4.2854863    4.2854863    4.2854863    695.78762   -3597.0978   -7734.4574    13418.918    16761.663   -5713.6879   -15937.888    78.704637 
   96100    915.14473   -121.46223   0.82804218   -120.63419    6827.8796    4.2810339    4.2810339    4.2810339    6827.8796    17805.292   -3210.2205    5888.5673   -16953.625     2704.999    12599.689    78.459586 
   96200    457.66278   -121.05305    0.4141029   -120.63895    -8298.279    4.2867541    4.2867541    4.2867541    -8298.279    5540.4297   -14929.383   -15505.883   -33043.615    16943.882    38404.391    78.774513 
   96300    1037.1515   -121.57034   0.93843649   -120.63191   -4410.8042    4.2898649    4.2898649    4.2898649   -4410.8042   -3212.1647   -7016.1801   -3004.0677     7647.412    1921.9799    11138.021    78.946131 
   96400    1825.8572   -122.26989     1.652074   -120.61782    11651.925    4.2831607    4.2831607    4.2831607    11651.925    2573.2223    17682.145    14700.409    26115.733   -12138.052   -12830.671     78.57658 
   96500    1303.9379   -121.80906    1.1798304   -120.62922     1051.279    4.2830848    4.2830848    4.2830848     1051.279    1869.0939   -5365.8093    6650.5525    -14183.35    2734.2041    10853.082    78.572399 
   96600    534.87663   -121.12616   0.48396762   -120.64219   -9694.7079     4.284251     4.284251     4.284251   -9694.7079     5011.455    -21436.68   -12658.899    -32781.79    14536.153    36958.975    78.636596 
   96700    1018.0873   -121.56319   0.92118675     -120.642    627.58334    4.2843133    4.2843133    4.2843133    627.58334   -1401.9467    11530.998   -8246.3008   -12033.527    10255.556    16992.612     78.64003 
   96800    1737.4436   -122.19771    1.5720754   -120.62563    4133.2874    4.2867366    4.2867366    4.2867366    4133.2874   -8641.6187    20274.514    766.96625    10602.215   -3592.8489    -13140.53    78.773544 
   96900    892.21061   -121.44318   0.80729091   -120.63588   -3112.9428    4.2860374    4.2860374    4.2860374   -3112.9428    439.74582    483.68427   -10262.258   -5951.9455   -661.27632    13335.516    78.735005 
   97000    262.96913   -120.87736   0.23793999   -120.63942    -14041.73    4.2877662    4.2877662    4.2877662    -14041.73     4322.852   -23176.395   -23271.648   -32728.874    15757.813    33382.192     78.83032 
   97100     1130.981    -121.6511    1.0233354   -120.62777   -8688.6806    4.2881735    4.2881735    4.2881735   -8688.6806   -4365.7039   -11997.976   -9702.3623   -8440.9792    14288.676    7096.0899    78.852786 
   97200    1803.5608   -122.24958    1.6318997   -120.61768    7037.0538    4.2834068    4.2834068    4.2834068    7037.0538    976.89515    7372.3875    12761.879    25720.422   -583.65234   -7015.3688    78.590121 
   97300    1315.0509   -121.81801    1.1898857   -120.62812   -1887.8673    4.2833106    4.2833106    4.2833106   -1887.8673    5470.7948   -11994.352     859.9549    3251.9483   -2934.5839    16284.842    78.584825 
   97400    864.88572   -121.41743   0.78256678   -120.63486   -5501.9262    4.2835332    4.2835332    4.2835332   -5501.9262    7187.7031   -12744.273   -10949.208   -33978.836    11746.039    33950.229    78.597082 
   97500    1043.5972   -121.57765   0.94426868   -120.63338   -1051.1419     4.285866     4.285866     4.285866   -1051.1419   -9475.5572    8691.8404   -2369.7089   -13059.508    9901.3165    8514.1773    78.725564 
   97600    1350.7863   -121.84599    1.2222199   -120.62377   -2644.9022       4.2872       4.2872       4.2872   -2644.9022   -17743.648    3475.7683    6333.1737    29772.227   -4325.1015   -14120.662    78.799095 
   97700    1057.3944   -121.58324   0.95675266   -120.62648    3748.8725    4.2805335    4.2805335    4.2805335    3748.8725    5528.8549    -9820.441    15538.204    8429.1666   -2847.2241    14073.048    78.432074 
   97800    474.72706   -121.06623   0.42954302   -120.63668   -4451.8694    4.2838022    4.2838022    4.2838022   -4451.8694    1433.4466   -23443.306    8654.2512   -33805.385    8095.0434    36112.282    78.611887 
   97900    837.99245     -121.394   0.75823318   -120.63576   -10071.893    4.2898945    4.2898945    4.2898945   -10071.893       -11353   -19013.661    150.98218   -21801.452    12352.801    10353.318    78.947767 
   98000    1772.1988   -122.22647    1.6035227   -120.62295    9659.4832    4.2843027    4.2843027    4.2843027    9659.4832     9446.935    5851.1188    13680.396    14334.043   -2286.5042   -16194.572    78.639443 
   98100    1593.0884   -122.06708    1.4414599   -120.62562    6469.0679      4.28475      4.28475      4.28475    6469.0679    23609.444   -6966.5627    2764.3226    3867.2495   -7949.4957    15134.557    78.664081 
   98200    667.88657   -121.24193   0.60431781   -120.63761   -9775.6994    4.2867721    4.2867721    4.2867721   -9775.6994    17666.451   -31550.093   -15443.456   -29462.091    7008.2098    40937.931    78.775504 
   98300    718.44027   -121.28897   0.65005985   -120.63891    103.59609    4.2814049    4.2814049    4.2814049    103.59609    8568.1759   -3771.8154   -4485.5723   -28037.216    15474.222    4510.0143    78.479982 
   98400    1416.1767   -121.90909    1.2813865    -120.6277    3497.7025    4.2845089    4.2845089    4.2845089    3497.7025    662.23791    15697.749   -5866.8795    4444.4259    6188.9398   -17858.603    78.650799 
   98500    1169.8711   -121.68643     1.058524    -120.6279   -8858.8062    4.2882778    4.2882778    4.2882778   -8858.8062    5401.0817   -6447.6581   -25529.842      11843.2   -7469.4854    16659.736    78.858539 
   98600    491.52861   -121.08162   0.44474541   -120.63687   -12399.041    4.2834309    4.2834309    4.2834309   -12399.041    -828.7817   -18052.888   -18315.453   -26212.165    1845.6641    36555.799    78.591448 
   98700    856.20811   -121.40935   0.77471509   -120.63463    -9469.865    4.2845024    4.2845024    4.2845024    -9469.865   -23488.689   -4890.3205   -30.585583   -40962.784    14142.063    9247.9705    78.650443 
   98800     1726.093   -122.18409    1.5618052   -120.62229    -1556.484    4.2880695    4.2880695    4.2880695    -1556.484   -13942.837    4638.5556    4634.8295   -295.69225    10214.636   -10309.915    78.847051 
   98900    1595.3721   -122.06796    1.4435262   -120.62443    2443.2516    4.2852608    4.2852608    4.2852608    2443.2516    8516.0143   -570.55191   -615.70758    18451.335   -1737.6461    18433.235    78.692214 
   99000    913.62553   -121.46099   0.82666758   -120.63432   -6664.1277    4.2827045    4.2827045    4.2827045   -6664.1277   -7578.6217   -21668.761         9255   -22233.914    1409.3322    35337.655    78.551472 
   99100    917.05863   -121.46665   0.82977392   -120.63687   -5062.9053     4.282189     4.282189     4.282189   -5062.9053   -18690.685   -11881.101     15383.07   -40441.375    8654.4383    7184.6532     78.52311 
   99200    1349.9821   -121.85061    1.2214922   -120.62912    400.44088    4.2856379    4.2856379    4.2856379    400.44088    -1130.442    11027.587   -8695.8222   -777.50295    2754.3473   -25194.728     78.71299 
   99300    1202.3976   -121.71363    1.0879546   -120.62567    -5610.105    4.2878859    4.2878859    4.2878859    -5610.105    6830.1755   -5085.8388   -18574.652    15387.088   -2299.2802   -7860.0987    78.836921 
   99400    724.88666   -121.28595   0.65589269   -120.63006   -1541.5202    4.2803708    4.2803708    4.2803708   -1541.5202   -2511.4672   -11817.412    9704.3181   -25080.777   -491.07157    28426.765    78.423132 
   99500    666.34267   -121.23479   0.60292085   -120.63187   -1191.8579    4.2817199    4.2817199    4.2817199   -1191.8579   -6820.8206    1234.7114    2010.5356   -35955.051    3346.6145    15214.998     78.49731 
   99600      1024.56   -121.55531   0.92704344   -120.62827   -7056.8355    4.2892537    4.2892537    4.2892537   -7056.8355    6556.5546   -1168.6987   -26558.362   -2931.0918    5951.9571   -34191.779    78.912393 
   99700     1324.546   -121.82281    1.1984771   -120.62433    4656.8514    4.2831851    4.2831851    4.2831851    4656.8514    25243.706   -1754.3339   -9518.8173    9634.9971   -393.09837   -28228.268    78.577919 
   99800    1301.5824   -121.80364    1.1776991   -120.62594    3389.9793    4.2830194    4.2830194    4.2830194    3389.9793    5847.2523   -8576.1397    12898.825   -20053.954   -3470.3864    22424.348    78.568802 
   99900    1112.0582   -121.63627    1.0062137   -120.63006   -8750.7107    4.2866677    4.2866677    4.2866677   -8750.7107   -3816.3346   -26596.955    4161.1573   -32592.432    3360.9626    19176.095    78.769747 
  100000    1071.6856   -121.60183   0.96968369   -120.63214    4654.3201    4.2790324    4.2790324    4.2790324    4654.3201     27065.39   -4810.9768   -8291.4532   -5525.4211    9714.6119   -30032.182    78.349591 
Loop time of 22.5283 on 1 procs for 100000 steps with 8 atoms

Pair  time (%) = 7.40706 (32.8789)
Kspce time (%) = 5.31932 (23.6117)
Neigh time (%) = 0 (0)
Comm  time (%) = 1.06761 (4.73898)
Outpt time (%) = 0.0216062 (0.0959068)
Other time (%) = 8.71273 (38.6746)

Nlocal:    8 ave 8 max 8 min
Histogram: 1 0 0 0 0 0 0 0 0 0
Nghost:    2189 ave 2189 max 2189 min
Histogram: 1 0 0 0 0 0 0 0 0 0
Neighs:    2344 ave 2344 max 2344 min
Histogram: 1 0 0 0 0 0 0 0 0 0

Total # of neighbors = 2344
Ave neighs/atom = 293
Neighbor list builds = 0
Dangerous builds = 0
seeds:7847560
