LAMMPS (10 Feb 2015)
# ---- initialize simulations
clear
units metal
dimension 3
boundary p p p
atom_style atomic
atom_modify map array
# ---- create atoms
read_data /Users/eugeneragasa/repos/pypospack/dev/cluster_sampling/dev__cluster_sampling/rank_0/Ni_fcc.lmps_min_all/lammps.structure
  triclinic box = (0 0 0) to (3.5167 3.5167 3.5167) with tilt (0 -0 0)
  1 by 1 by 1 MPI processor grid
  reading atoms ...
  4 atoms
# ---- define interatomic potential
include potential.mod
mass 1 58.6934

group Ni type 1
4 atoms in group Ni

pair_style eam/alloy
pair_coeff * * /Users/eugeneragasa/repos/pypospack/dev/cluster_sampling/dev__cluster_sampling/rank_0/Ni_fcc.lmps_min_all/Ni.eam.alloy Ni

neighbor 1.0 bin
neigh_modify every 1 delay 0 check yes
# ---- define settings
compute eng all pe/atom
compute eatoms all reduce sum c_eng
# ---- run minimization
reset_timestep 0
fix 1 all box/relax aniso 0.0 vmax 0.001
thermo 10
thermo_style custom step pe xhi xlo yhi ylo zhi xy xz yz press pxx pyy pzz pxy pxz pyz c_eatoms
min_style cg
minimize 1e-25 1e-25 5000 10000
Neighbor list info ...
  1 neighbor list requests
  update every 1 steps, delay 0 steps, check yes
  master list distance cutoff = 5.64464
Memory usage per processor = 3.38644 Mbytes
Step PotEng Xhi Xlo Yhi Ylo Zhi Xy Xz Yz Press Pxx Pyy Pzz Pxy Pxz Pyz eatoms 
       0   -16.635818       3.5167            0       3.5167            0       3.5167            0           -0            0     146695.7     146695.7     146695.7     146695.7 -1.0224796e-11 -1.9938351e-11 -1.7893392e-12   -16.635818 
      10   -16.736345    3.5342835   -0.0175835    3.5342835   -0.0175835    3.5342835            0           -0            0    98944.147    98944.147    98944.147    98944.147 -7.6167358e-11 -6.128123e-11 -6.5747068e-11   -16.736345 
      20   -16.801377     3.551867    -0.035167     3.551867    -0.035167     3.551867            0           -0            0    57163.721    57163.721    57163.721    57163.721 -2.1197117e-11 -1.445258e-12 -2.4087633e-13   -16.801377 
      30   -16.834295    3.5694505   -0.0527505    3.5694505   -0.0527505    3.5694505            0           -0            0    20749.106    20749.106    20749.106    20749.106 -1.3567848e-11 1.7076774e-11 -5.6142818e-12   -16.834295 
      40   -16.839969    3.5807073 -0.064007306    3.5807073 -0.064007306    3.5807073            0           -0            0 4.4555497e-06 4.4555639e-06 4.4555735e-06 4.4555118e-06 1.412164e-11 4.5924033e-12 -1.5040121e-11   -16.839969 
      43   -16.839969    3.5807073 -0.064007306    3.5807073 -0.064007306    3.5807073            0           -0            0 -6.8962589e-11 -7.5430224e-11 -8.7370472e-11 -4.4087071e-11 -3.1802393e-11 3.4443024e-13 -1.446607e-11   -16.839969 
Loop time of 0.000813007 on 1 procs for 43 steps with 4 atoms

Minimization stats:
  Stopping criterion = energy tolerance
  Energy initial, next-to-last, final = 
        -16.6358179774     -16.8399687909     -16.8399687909
  Force two-norm initial, final = 6.89721 4.00976e-15
  Force max component initial, final = 3.98211 2.54751e-15
  Final line search alpha, max atom move = 1 2.54751e-15
  Iterations, force evaluations = 43 50

Pair  time (%) = 0.000405312 (49.8534)
Neigh time (%) = 0 (0)
Comm  time (%) = 9.15527e-05 (11.261)
Outpt time (%) = 2.7895e-05 (3.43109)
Other time (%) = 0.000288248 (35.4545)

Nlocal:    4 ave 4 max 4 min
Histogram: 1 0 0 0 0 0 0 0 0 0
Nghost:    360 ave 360 max 360 min
Histogram: 1 0 0 0 0 0 0 0 0 0
Neighs:    156 ave 156 max 156 min
Histogram: 1 0 0 0 0 0 0 0 0 0

Total # of neighbors = 156
Ave neighs/atom = 39
Neighbor list builds = 0
Dangerous builds = 0
# ---- define output variables ----
variable natoms equal "count(all)"
variable tot_energy equal "c_eatoms"
variable a11 equal "xhi-xlo"
variable a22 equal "yhi-ylo"
variable a33 equal "zhi-zlo"
variable tilt_xy equal "xy"
variable tilt_xz equal "xz"
variable tilt_yz equal "yz"
variable tot_press equal "press"
variable press_xx equal "pxx"
variable press_yy equal "pyy"
variable press_zz equal "pzz"
variable press_xy equal "pxy"
variable press_xz equal "pxz"
variable press_yz equal "pyz"

# ---- output ----
print "pypospack:output_section:begin"
pypospack:output_section:begin
print "tot_energy = ${tot_energy}"
tot_energy = -16.8399687909292
print "num_atoms = ${natoms}"
num_atoms = 4
print "a11 = ${a11}"
a11 = 3.64471461167831
print "a22 = ${a22}"
a22 = 3.64471461167831
print "a33 = ${a33}"
a33 = 3.64471461167831
print "a12 = ${tilt_xy}"
a12 = 0
print "a13 = ${tilt_xz}"
a13 = -0
print "a23 = ${tilt_yz}"
a23 = 0
print "tot_press = ${tot_press}"
tot_press = -6.89625889615478e-11
print "pxx = ${press_xx}"
pxx = -7.54302235533911e-11
print "pyy = ${press_yy}"
pyy = -8.73704720306402e-11
print "pzz = ${press_zz}"
pzz = -4.40870713006122e-11
print "pxy = ${press_xy}"
pxy = -3.1802392578827e-11
print "pxz = ${press_xz}"
pxz = 3.44430244536032e-13
print "pyz = ${press_yz}"
pyz = -1.44660702705134e-11
print "pypospack:output_section:done"
pypospack:output_section:done
print "pypospack:lammps_sim:done"
pypospack:lammps_sim:done
