# ['Ni']

20 atoms
1 atom types

    0.0000     3.5902 xlo xhi
    0.0000     3.5902 ylo yhi
    0.0000    35.9025 zlo zhi

    0.0000    -0.0000     0.0000 xy xz yz

Atoms

1 1     0.0000     0.0000     0.0000
2 1     1.7951     1.7951     0.0000
3 1     1.7951     0.0000     1.7951
4 1     0.0000     1.7951     1.7951
5 1     0.0000     0.0000     3.5902
6 1     1.7951     1.7951     3.5902
7 1     1.7951     0.0000     5.3854
8 1     0.0000     1.7951     5.3854
9 1     0.0000     0.0000     7.1805
10 1     1.7951     1.7951     7.1805
11 1     1.7951     0.0000     8.9756
12 1     0.0000     1.7951     8.9756
13 1     0.0000     0.0000    10.7707
14 1     1.7951     1.7951    10.7707
15 1     1.7951     0.0000    12.5659
16 1     0.0000     1.7951    12.5659
17 1     0.0000     0.0000    14.3610
18 1     1.7951     1.7951    14.3610
19 1     1.7951     0.0000    16.1561
20 1     0.0000     1.7951    16.1561
