# ['Ni']

28 atoms
1 atom types

    0.0000     2.2601 xlo xhi
    0.0000     3.9147 ylo yhi
    0.0000    25.8355 zlo zhi

    0.0000     0.0000     0.0000 xy xz yz

Atoms

1 1     0.0000     0.0000     0.0000
2 1     1.1301     1.9573     0.0000
3 1     1.1301     0.6524     1.8454
4 1     0.0000     2.6098     1.8454
5 1     0.0000     1.3049     3.6908
6 1     1.1301     3.2622     3.6908
7 1     0.0000     0.0000     5.5362
8 1     1.1301     1.9573     5.5362
9 1     1.1301     0.6524     7.3816
10 1     0.0000     2.6098     7.3816
11 1     0.0000     1.3049     9.2270
12 1     1.1301     3.2622     9.2270
13 1     0.0000     0.0000    11.0723
14 1     1.1301     1.9573    11.0723
15 1     0.0000     1.3049    12.9177
16 1     1.1301     3.2622    12.9177
17 1     0.0000     0.0000    14.7631
18 1     1.1301     1.9573    14.7631
19 1     1.1301     0.6524    16.6085
20 1     0.0000     2.6098    16.6085
21 1     0.0000     1.3049    18.4539
22 1     1.1301     3.2622    18.4539
23 1     0.0000     0.0000    20.2993
24 1     1.1301     1.9573    20.2993
25 1     1.1301     0.6524    22.1447
26 1     0.0000     2.6098    22.1447
27 1     0.0000     1.3049    23.9901
28 1     1.1301     3.2622    23.9901
