    4    4   40    2
  0.1079242E+02  0.3508000E-09  0.3508000E-09  0.3508000E-09  0.5000000E-15
  1.000000000000000E-004
  CAR 
 automatically generated by pyflamestk   
     40      4     32
 
  0.1250000E+00  0.1250000E+00  0.1250000E+00  0.1250000E+00
    1        1.119922      1.119912   1.000000   1.000000
    2        5.330888      5.331254   1.000000   1.000000
    3        5.330888      5.331254   1.000000   1.000000
    4        5.330888      5.331254   1.000000   1.000000
    5        5.900827      5.901401   1.000000   1.000000
    6        5.900827      5.901401   1.000000   1.000000
    7        5.900827      5.901401   1.000000   1.000000
    8        7.437229      7.437911   1.000000   1.000000
    9        7.721827      7.722530   1.000000   1.000000
   10        7.721827      7.722530   1.000000   1.000000
   11        8.699170      8.699796   1.000000   1.000000
   12        8.699170      8.699796   1.000000   1.000000
   13        8.722163      8.722774   1.000000   1.000000
   14        8.722163      8.722774   1.000000   1.000000
   15        8.722163      8.722774   1.000000   1.000000
   16        9.202407      9.203075   1.021566   1.021719
   17        9.202407      9.203075   1.021566   1.021719
   18        9.202407      9.203075   1.021566   1.021719
   19        9.604733      9.605502   0.203340   0.200798
   20        9.604733      9.605502   0.203340   0.200798
   21        9.604733      9.605502   0.203340   0.200798
   22       12.351993     12.352233  -0.000000  -0.000000
   23       12.351993     12.352233  -0.000000  -0.000000
   24       12.351993     12.352233  -0.000000  -0.000000
   25       20.704404     20.704620   0.000000   0.000000
   26       20.704404     20.704620   0.000000   0.000000
   27       20.704404     20.704620   0.000000   0.000000
   28       22.018269     22.018373   0.000000   0.000000
   29       22.018269     22.018373   0.000000   0.000000
   30       22.018269     22.018373   0.000000   0.000000
   31       25.665079     25.665119   0.000000   0.000000
   32       25.665079     25.665119   0.000000   0.000000
 
  0.3750000E+00  0.1250000E+00  0.1250000E+00  0.3750000E+00
    1        2.637893      2.637897   1.000000   1.000000
    2        4.783765      4.783911   1.000000   1.000000
    3        5.994838      5.995251   1.000000   1.000000
    4        5.994838      5.995251   1.000000   1.000000
    5        6.347808      6.348406   1.000000   1.000000
    6        6.356999      6.357541   1.000000   1.000000
    7        6.356999      6.357541   1.000000   1.000000
    8        6.997667      6.998310   1.000000   1.000000
    9        7.397343      7.397910   1.000000   1.000000
   10        7.397343      7.397910   1.000000   1.000000
   11        7.809736      7.810271   1.000000   1.000000
   12        7.879994      7.880644   1.000000   1.000000
   13        8.030301      8.030997   1.000000   1.000000
   14        8.550203      8.550852   1.000000   1.000000
   15        8.618100      8.618793   1.000000   1.000000
   16        8.750872      8.751488   1.000000   1.000000
   17        8.750872      8.751488   1.000000   1.000000
   18        9.009837      9.010493   1.000748   1.000760
   19        9.398644      9.399346   0.941744   0.940346
   20        9.518247      9.519032   0.545103   0.541796
   21        9.518247      9.519032   0.545103   0.541796
   22        9.620492      9.621089   0.153925   0.152168
   23       14.676320     14.676583  -0.000000  -0.000000
   24       14.676320     14.676583  -0.000000  -0.000000
   25       17.986275     17.986473   0.000000   0.000000
   26       17.986275     17.986473   0.000000   0.000000
   27       21.716324     21.716497   0.000000   0.000000
   28       21.716324     21.716497   0.000000   0.000000
   29       23.818224     23.818352   0.000000   0.000000
   30       23.988115     23.988225   0.000000   0.000000
   31       23.988115     23.988225   0.000000   0.000000
   32       26.937048     26.937163   0.000000   0.000000
 
  0.3750000E+00  0.3750000E+00  0.1250000E+00  0.3750000E+00
    1        3.907868      3.907929   1.000000   1.000000
    2        5.534313      5.534587   1.000000   1.000000
    3        5.534313      5.534587   1.000000   1.000000
    4        6.043584      6.044060   1.000000   1.000000
    5        6.637031      6.637449   1.000000   1.000000
    6        6.744459      6.744962   1.000000   1.000000
    7        6.744459      6.744962   1.000000   1.000000
    8        7.022274      7.022857   1.000000   1.000000
    9        7.207640      7.208226   1.000000   1.000000
   10        7.207640      7.208226   1.000000   1.000000
   11        7.326085      7.326655   1.000000   1.000000
   12        7.645266      7.645883   1.000000   1.000000
   13        7.981543      7.982190   1.000000   1.000000
   14        8.332734      8.333353   1.000000   1.000000
   15        8.333486      8.334115   1.000000   1.000000
   16        8.333486      8.334115   1.000000   1.000000
   17        8.640712      8.641396   1.000000   1.000000
   18        9.168584      9.169307   1.014367   1.014506
   19        9.168584      9.169307   1.014367   1.014506
   20        9.236481      9.237236   1.029299   1.029459
   21        9.582119      9.582795   0.283493   0.280957
   22       11.106503     11.107015  -0.000000  -0.000000
   23       11.106503     11.107015  -0.000000  -0.000000
   24       13.421811     13.422129  -0.000000  -0.000000
   25       16.965680     16.965948   0.000000   0.000000
   26       19.795936     19.796137   0.000000   0.000000
   27       19.795936     19.796137   0.000000   0.000000
   28       22.810276     22.810444   0.000000   0.000000
   29       22.935015     22.935160   0.000000   0.000000
   30       25.409736     25.409847   0.000000   0.000000
   31       25.409736     25.409847   0.000000   0.000000
   32       28.288739     28.288825   0.000000   0.000000
 
  0.3750000E+00  0.3750000E+00  0.3750000E+00  0.1250000E+00
    1        4.523874      4.524110   1.000000   1.000000
    2        5.278606      5.279020   1.000000   1.000000
    3        5.278606      5.279020   1.000000   1.000000
    4        5.278606      5.279020   1.000000   1.000000
    5        7.244587      7.245097   1.000000   1.000000
    6        7.244587      7.245097   1.000000   1.000000
    7        7.244587      7.245097   1.000000   1.000000
    8        7.648729      7.649358   1.000000   1.000000
    9        7.648729      7.649358   1.000000   1.000000
   10        7.806342      7.806968   1.000000   1.000000
   11        7.806342      7.806968   1.000000   1.000000
   12        7.806342      7.806968   1.000000   1.000000
   13        7.867099      7.867389   1.000000   1.000000
   14        7.897958      7.898432   1.000000   1.000000
   15        7.897958      7.898432   1.000000   1.000000
   16        7.897958      7.898432   1.000000   1.000000
   17        9.276435      9.277154   1.035250   1.035287
   18        9.276435      9.277154   1.035250   1.035287
   19        9.513406      9.514146   0.565439   0.562338
   20        9.513406      9.514146   0.565439   0.562338
   21        9.513406      9.514146   0.565439   0.562338
   22       11.123361     11.123731  -0.000000  -0.000000
   23       11.123361     11.123731  -0.000000  -0.000000
   24       11.123361     11.123731  -0.000000  -0.000000
   25       16.314622     16.314961   0.000000   0.000000
   26       16.314622     16.314961   0.000000   0.000000
   27       16.314622     16.314961   0.000000   0.000000
   28       18.753579     18.753832   0.000000   0.000000
   29       29.330300     29.330348   0.000000   0.000000
   30       29.330300     29.330348   0.000000   0.000000
   31       29.330300     29.330348   0.000000   0.000000
   32       31.694807     31.694893   0.000000   0.000000
