# ['Ni']

107 atoms
1 atom types

    0.0000    11.0374 xlo xhi
    0.0000    11.0374 ylo yhi
    0.0000    11.0374 zlo zhi

    0.0000    -0.0000    -0.0000 xy xz yz

Atoms

1 1     1.8396     1.8396     0.0000
2 1     1.8396     0.0000     1.8396
3 1     0.0000     1.8396     1.8396
4 1     0.0000     0.0000     3.6791
5 1     1.8396     1.8396     3.6791
6 1     1.8396     0.0000     5.5187
7 1     0.0000     1.8396     5.5187
8 1     0.0000     0.0000     7.3583
9 1     1.8396     1.8396     7.3583
10 1     1.8396     0.0000     9.1978
11 1     0.0000     1.8396     9.1978
12 1     0.0000     3.6791     0.0000
13 1     1.8396     5.5187     0.0000
14 1     1.8396     3.6791     1.8396
15 1     0.0000     5.5187     1.8396
16 1     0.0000     3.6791     3.6791
17 1     1.8396     5.5187     3.6791
18 1     1.8396     3.6791     5.5187
19 1     0.0000     5.5187     5.5187
20 1     0.0000     3.6791     7.3583
21 1     1.8396     5.5187     7.3583
22 1     1.8396     3.6791     9.1978
23 1     0.0000     5.5187     9.1978
24 1     0.0000     7.3583     0.0000
25 1     1.8396     9.1978     0.0000
26 1     1.8396     7.3583     1.8396
27 1     0.0000     9.1978     1.8396
28 1     0.0000     7.3583     3.6791
29 1     1.8396     9.1978     3.6791
30 1     1.8396     7.3583     5.5187
31 1     0.0000     9.1978     5.5187
32 1     0.0000     7.3583     7.3583
33 1     1.8396     9.1978     7.3583
34 1     1.8396     7.3583     9.1978
35 1     0.0000     9.1978     9.1978
36 1     3.6791     0.0000     0.0000
37 1     5.5187     1.8396     0.0000
38 1     5.5187     0.0000     1.8396
39 1     3.6791     1.8396     1.8396
40 1     3.6791     0.0000     3.6791
41 1     5.5187     1.8396     3.6791
42 1     5.5187     0.0000     5.5187
43 1     3.6791     1.8396     5.5187
44 1     3.6791     0.0000     7.3583
45 1     5.5187     1.8396     7.3583
46 1     5.5187     0.0000     9.1978
47 1     3.6791     1.8396     9.1978
48 1     3.6791     3.6791     0.0000
49 1     5.5187     5.5187     0.0000
50 1     5.5187     3.6791     1.8396
51 1     3.6791     5.5187     1.8396
52 1     3.6791     3.6791     3.6791
53 1     5.5187     5.5187     3.6791
54 1     5.5187     3.6791     5.5187
55 1     3.6791     5.5187     5.5187
56 1     3.6791     3.6791     7.3583
57 1     5.5187     5.5187     7.3583
58 1     5.5187     3.6791     9.1978
59 1     3.6791     5.5187     9.1978
60 1     3.6791     7.3583     0.0000
61 1     5.5187     9.1978     0.0000
62 1     5.5187     7.3583     1.8396
63 1     3.6791     9.1978     1.8396
64 1     3.6791     7.3583     3.6791
65 1     5.5187     9.1978     3.6791
66 1     5.5187     7.3583     5.5187
67 1     3.6791     9.1978     5.5187
68 1     3.6791     7.3583     7.3583
69 1     5.5187     9.1978     7.3583
70 1     5.5187     7.3583     9.1978
71 1     3.6791     9.1978     9.1978
72 1     7.3583     0.0000     0.0000
73 1     9.1978     1.8396     0.0000
74 1     9.1978     0.0000     1.8396
75 1     7.3583     1.8396     1.8396
76 1     7.3583     0.0000     3.6791
77 1     9.1978     1.8396     3.6791
78 1     9.1978     0.0000     5.5187
79 1     7.3583     1.8396     5.5187
80 1     7.3583     0.0000     7.3583
81 1     9.1978     1.8396     7.3583
82 1     9.1978     0.0000     9.1978
83 1     7.3583     1.8396     9.1978
84 1     7.3583     3.6791     0.0000
85 1     9.1978     5.5187     0.0000
86 1     9.1978     3.6791     1.8396
87 1     7.3583     5.5187     1.8396
88 1     7.3583     3.6791     3.6791
89 1     9.1978     5.5187     3.6791
90 1     9.1978     3.6791     5.5187
91 1     7.3583     5.5187     5.5187
92 1     7.3583     3.6791     7.3583
93 1     9.1978     5.5187     7.3583
94 1     9.1978     3.6791     9.1978
95 1     7.3583     5.5187     9.1978
96 1     7.3583     7.3583     0.0000
97 1     9.1978     9.1978     0.0000
98 1     9.1978     7.3583     1.8396
99 1     7.3583     9.1978     1.8396
100 1     7.3583     7.3583     3.6791
101 1     9.1978     9.1978     3.6791
102 1     9.1978     7.3583     5.5187
103 1     7.3583     9.1978     5.5187
104 1     7.3583     7.3583     7.3583
105 1     9.1978     9.1978     7.3583
106 1     9.1978     7.3583     9.1978
107 1     7.3583     9.1978     9.1978
