LAMMPS (10 Feb 2015)
Reading data file ...
  triclinic box = (0 0 0) to (4.2565 4.2565 4.2565) with tilt (0 0 0)
  1 by 1 by 1 MPI processor grid
  reading atoms ...
  8 atoms
4 atoms in group Mg
4 atoms in group O
Setting atom values ...
  4 settings made for charge
Setting atom values ...
  4 settings made for charge
PPPM initialization ...
  G vector (1/distance) = 0.352384
  grid = 8 8 8
  stencil order = 5
  estimated absolute RMS force accuracy = 3.76636e-05
  estimated relative force accuracy = 2.6156e-06
  using double precision FFTs
  3d grid and FFT values/proc = 3375 512
Neighbor list info ...
  1 neighbor list requests
  update every 1 steps, delay 0 steps, check yes
  master list distance cutoff = 11
Setting up minimization ...
Memory usage per processor = 4.06549 Mbytes
Step PotEng Lx Ly Lz Xy Xz Yz Press Pxx Pyy Pzz Pxy Pxz Pyz eatoms 
       0   -105.40733       4.2565       4.2565       4.2565            0            0            0    42357.047    42357.047    42357.047    42357.047 -5.4591187e-11 1.2697943e-10 -3.1158894e-11   -105.40733 
      10   -105.43209    4.2922445    4.2922445    4.2922445            0            0            0   -4.9211524   -4.9211524   -4.9211524   -4.9211524 1.7090498e-11 -3.1779622e-11 -1.1443831e-10   -105.43209 
      12   -105.43209    4.2922402    4.2922402    4.2922402            0            0            0  -0.19512063  -0.19512063  -0.19512063  -0.19512063 3.2638439e-11 -8.1058727e-11 1.6032595e-10   -105.43209 
Loop time of 0.00850987 on 1 procs for 12 steps with 8 atoms

Minimization stats:
  Stopping criterion = linesearch alpha is zero
  Energy initial, next-to-last, final = 
        -105.407331285      -105.43208818      -105.43208818
  Force two-norm initial, final = 6.11638 6.94804e-05
  Force max component initial, final = 6.11638 2.86507e-05
  Final line search alpha, max atom move = 0.5 1.43253e-05
  Iterations, force evaluations = 12 25

Pair  time (%) = 0.00227737 (26.7615)
Kspce time (%) = 0.00137162 (16.118)
Neigh time (%) = 0 (0)
Comm  time (%) = 0.000253439 (2.97817)
Outpt time (%) = 1.19209e-05 (0.140083)
Other time (%) = 0.00459552 (54.0022)

Nlocal:    8 ave 8 max 8 min
Histogram: 1 0 0 0 0 0 0 0 0 0
Nghost:    2189 ave 2189 max 2189 min
Histogram: 1 0 0 0 0 0 0 0 0 0
Neighs:    2344 ave 2344 max 2344 min
Histogram: 1 0 0 0 0 0 0 0 0 0

Total # of neighbors = 2344
Ave neighs/atom = 293
Neighbor list builds = 0
Dangerous builds = 0
pypospack:output_section:begin
tot_energy = -105.432088180201
num_atoms = 8
xx = 4.29224022422512
yy = 4.29224022422512
zz = 4.29224022422512
xy = 0
xz = 0
yz = 0
tot_press = -0.195120630166908
pxx = -0.195120630011552
pyy = -0.195120630547228
pzz = -0.195120629941943
pxy = 3.26384388476247e-11
pxz = -8.10587270505021e-11
pyz = 1.60325951029016e-10
pypospack:output_section:done
pypospack:lammps_sim:done
PPPM initialization ...
  G vector (1/distance) = 0.352034
  grid = 8 8 8
  stencil order = 5
  estimated absolute RMS force accuracy = 3.82705e-05
  estimated relative force accuracy = 2.65774e-06
  using double precision FFTs
  3d grid and FFT values/proc = 3375 512
Setting up run ...
Memory usage per processor = 3.06549 Mbytes
Step Temp PotEng KinEng TotEng Press Lx Ly Lz Press Pxx Pyy Pzz Pxy Pxz Pyz Volume 
       0          900   -105.43209   0.81433891   -104.61776    10998.197    4.2922402    4.2922402    4.2922402    10998.197    6319.8907    11382.747    15291.953   -3649.9687    178.04134   -3337.6402    79.077342 
     100    247.95563   -104.73245   0.22435546    -104.5081   -4701.6738    4.3113424    4.3113424    4.3113424   -4701.6738   -5548.0504     973.1443   -9530.1152    2428.4122    4066.1347   -279.26749    80.137825 
     200    585.29463    -104.8072   0.52958688   -104.27762    -10851.76    4.3177627    4.3177627    4.3177627    -10851.76   -12802.983   -7419.2981       -12333    506.35494    4183.0323    4042.3001    80.496375 
     300    704.40045   -104.73266   0.63735633    -104.0953    14600.754    4.3102193    4.3102193    4.3102193    14600.754    12759.518    14046.653    16996.091    3568.9837   -2622.2057   -6545.5182    80.075215 
     400    946.44014   -104.79722   0.85635893   -103.94086   -10149.091    4.3163273    4.3163273    4.3163273   -10149.091   -16060.217    -7608.542   -6778.5139    3677.8863    13339.414    10979.215    80.416116 
     500    1048.7554    -104.7851    0.9489359   -103.83617    3572.2001    4.3258101    4.3258101    4.3258101    3572.2001    6975.9724    14637.162   -10896.534    780.50669     -5502.77   -6533.8897    80.947296 
     600    444.89316   -104.19898   0.40254868   -103.79643   -25292.471    4.3242855    4.3242855    4.3242855   -25292.471    -17560.05   -8491.5493   -49825.814   -380.80621    8676.4616    2547.7457    80.861737 
     700    1086.8439   -104.76236   0.98339922   -103.77896    23572.201     4.309215     4.309215     4.309215    23572.201    18649.675    37335.064    14731.863    6132.1375    1768.3251   -760.61951    80.019254 
     800    1180.2923   -104.85301    1.0679533   -103.78505   -14675.295    4.3318524    4.3318524    4.3318524   -14675.295   -15628.962   -9367.3506   -19029.572   -3474.2866   -3119.5173    -9004.422    81.286974 
     900    618.35187   -104.34667   0.55949777   -103.78717    11063.887    4.3196356    4.3196356    4.3196356    11063.887    10187.995    15691.301    7312.3633   -3195.9096    16605.683   -2211.5239     80.60117 
    1000    960.85422   -104.65067   0.86940109   -103.78126    5538.5465    4.3167857    4.3167857    4.3167857    5538.5465     5551.828   -1361.4405    12425.252     2506.015   -10099.544    2181.1097    80.441744 
    1100    864.48583   -104.57189   0.78220495   -103.78968   -6655.8296    4.3222847    4.3222847    4.3222847   -6655.8296    -18858.81    6899.1487   -8007.8271   -5859.5906    5675.4063    -4138.464    80.749549 
    1200    1165.8471   -104.83857    1.0548829   -103.78368    7262.4365    4.3221241    4.3221241    4.3221241    7262.4365    16833.212        11576   -6621.9029    6070.3756    5556.5192     7069.224    80.740548 
    1300    719.15326   -104.44118   0.65070498   -103.79048    -9946.626    4.3213529    4.3213529    4.3213529    -9946.626   -12466.355    17979.916   -35353.439    1800.3933   -17398.035   -5601.8196    80.697336 
    1400    755.23053   -104.47617   0.68334846   -103.79283    21178.174    4.3171935    4.3171935    4.3171935    21178.174    19995.614    13337.125    30201.782    2821.2194    16678.712    11613.133    80.464544 
    1500    1264.4615    -104.9336    1.1441113   -103.78949   -20725.444    4.3339377    4.3339377    4.3339377   -20725.444   -39629.096   -4756.6197   -17790.615   -27.786942   -24937.072    509.35245     81.40442 
    1600     737.7709   -104.45576   0.66755061   -103.78821    27384.505    4.3114325    4.3114325    4.3114325    27384.505    26348.997     11673.31    44131.209    5184.4442    4372.0652    -1830.346     80.14285 
    1700     887.8127   -104.59198   0.80331159   -103.78867   -8509.0165    4.3231019    4.3231019    4.3231019   -8509.0165   -5888.1802   -1354.2376   -18284.632   -3819.5944    8687.0174    2511.5145    80.795359 
    1800    795.38115   -104.51039   0.71967758   -103.79071   -10426.737    4.3246936    4.3246936    4.3246936   -10426.737   -11716.978   -6164.2098   -13399.022    8419.4536    -20839.52   -10466.049    80.884634 
    1900    1147.4392   -104.82904    1.0382271   -103.79081    2365.0224    4.3140432    4.3140432    4.3140432    2365.0224   -12270.619    15465.614    3900.0725    -6753.154    23146.794    150.04609    80.288526 
    2000    915.22202   -104.62215   0.82811211   -103.79404   -2548.9186    4.3204268    4.3204268    4.3204268   -2548.9186   -817.89695    9523.8985   -16352.757    4404.2893   -23511.907   -4997.9623    80.645468 
    2100    720.07616   -104.44416   0.65154004   -103.79262   -1243.4096    4.3232038    4.3232038    4.3232038   -1243.4096   -5393.7387    1399.8492    263.66065   -2427.6829    4338.9111   -545.99061    80.801073 
    2200    922.79062   -104.62461   0.83496035   -103.78965   -9908.0229    4.3220678    4.3220678    4.3220678   -9908.0229   -16844.842   -6556.7835   -6322.4434    4094.3883    9304.2948   -4425.6349    80.737392 
    2300    1094.6501    -104.7782   0.99046242   -103.78774    -4185.708     4.312393     4.312393     4.312393    -4185.708   -20692.937    5847.1711    2288.6419    1666.9291   -31816.279    2013.8904    80.196421 
    2400    798.74594   -104.51176   0.72272211   -103.78904   -10780.642    4.3267043    4.3267043    4.3267043   -10780.642    5771.6242    712.24544   -38825.797    726.89751    30304.493    6670.9991    80.997505 
    2500    803.81373   -104.51346   0.72730756   -103.78615   -2912.1242    4.3182921    4.3182921    4.3182921   -2912.1242   -18921.147    17169.747   -6984.9727   -5768.7219   -25578.594    611.21561    80.525985 
    2600    897.09681   -104.59711   0.81171204    -103.7854    4490.2028    4.3179292    4.3179292    4.3179292    4490.2028     8340.892    6085.7126   -955.99607   -2207.6662    9766.0938    6342.5834    80.505683 
    2700     1067.107   -104.75165   0.96554084   -103.78611   -6011.2031    4.3219244    4.3219244    4.3219244   -6011.2031   -20954.255    9198.1947   -6277.5487   -2167.1544    6596.6754    1080.0663     80.72936 
    2800      743.266   -104.46264    0.6725227   -103.79012    9140.9065     4.319612     4.319612     4.319612    9140.9065    29071.328    5689.9071   -7338.5151     -1024.58   -20162.311   -4071.3496    80.599846 
    2900    1004.3046   -104.69573   0.90871593   -103.78702   -3942.4432     4.316785     4.316785     4.316785   -3942.4432   -13164.482   -5471.5191    6808.6712    5625.2202    25518.025    2857.9306    80.441701 
    3000     854.9349   -104.56401   0.77356307   -103.79045   -878.14163     4.317284     4.317284     4.317284   -878.14163    9207.1898   -8795.8941   -3045.7206   -3715.1274   -28111.482   -163.88011      80.4696 
    3100    1070.2589   -104.75734   0.96839271   -103.78895   -13017.434    4.3254196    4.3254196    4.3254196   -13017.434   -4803.2198   -9864.5158   -24384.567    4983.3032    2086.5703    1044.4043    80.925379 
    3200    738.74402   -104.45618   0.66843111   -103.78775    18604.781    4.3131068    4.3131068    4.3131068    18604.781    30133.986    16765.881    8914.4762    4028.3199    6158.4114      -3995.4    80.236252 
    3300    905.63632   -104.60939   0.81943878   -103.78995   -655.28048    4.3161148    4.3161148    4.3161148   -655.28048   -5260.2031   -1217.8415    4512.2031     2772.428   -29358.634   -4815.7977    80.404243 
    3400    908.96068   -104.61018   0.82244672   -103.78773     8701.773    4.3217257    4.3217257    4.3217257     8701.773    10274.989    8666.2013     7164.129   -6481.7663    24523.525   -2645.6898    80.718222 
    3500    894.35702   -104.59807   0.80923303   -103.78883   -8959.6923    4.3202642    4.3202642    4.3202642   -8959.6923    2539.8972     3992.301   -33411.275      291.927   -20371.833    1543.6077    80.636363 
    3600    925.55667   -104.62452   0.83746313   -103.78706    1103.3436    4.3155712    4.3155712    4.3155712    1103.3436   -2049.7355    13072.372   -7712.6059   -2690.4428    5131.3899   -5021.4222    80.373867 
    3700    792.87779   -104.51044   0.71741249   -103.79303   -866.64001    4.3168961    4.3168961    4.3168961   -866.64001    441.09834   -3482.8255     441.8071    5626.3553     4253.609   -260.31319    80.447913 
    3800    975.72153   -104.67642   0.88285335   -103.79357   -19742.714    4.3258833    4.3258833    4.3258833   -19742.714   -6046.2681   -21574.756   -31607.118   -679.86247   -30959.949   -296.04117    80.951405 
    3900    1009.1135   -104.70115   0.91306708   -103.78809    6663.2443    4.3170249    4.3170249    4.3170249    6663.2443    35571.167    -5648.997   -9932.4372   -180.43766    22256.452   -5642.9616    80.455116 
    4000    796.70733   -104.51081   0.72087753   -103.78993   -6900.4104    4.3153847    4.3153847    4.3153847   -6900.4104   -34156.415    6827.6014    6627.5828   -3270.0833   -32953.083    5392.5002    80.363448 
    4100    959.73154   -104.65697   0.86838526   -103.78858   -1517.4125      4.32583      4.32583      4.32583   -1517.4125    16051.255    -14778.43   -5825.0627   -2526.8724    4043.3045    2682.7959    80.948415 
    4200    914.49322   -104.61712   0.82745268   -103.78966   -3599.2533    4.3195689    4.3195689    4.3195689   -3599.2533    1033.2306    11103.492   -22934.482    2120.8939    527.12889    6809.3023    80.597437 
    4300    777.33321   -104.49678   0.70334743   -103.79343       3922.3    4.3165806    4.3165806    4.3165806       3922.3    34872.158    7179.6995   -30284.957   -5395.5504   -18131.367   -441.80308    80.430277 
    4400    1081.9901   -104.76853   0.97900742   -103.78952    7730.0639    4.3172164    4.3172164    4.3172164    7730.0639    7929.2133    6477.5692    8783.4093    6152.0198    13074.723    1991.2107     80.46582 
    4500    592.16313   -104.33192   0.53580164   -103.79612   -9410.2142    4.3234668    4.3234668    4.3234668   -9410.2142    5998.5494   -1912.8336   -32316.358    -7447.069   -26780.693    427.62035     80.81582 
    4600      1203.87   -104.87404    1.0892869   -103.78475    289.88992      4.31784      4.31784      4.31784    289.88992    17418.445   -11290.282   -5258.4933     6212.382   -854.24743    3105.9805    80.500697 
    4700    775.13041   -104.48949   0.70135428   -103.78814      7086.13    4.3117779    4.3117779    4.3117779      7086.13    17582.219    16455.435   -12779.264   -707.47593   -12519.829    5300.9199    80.162114 
    4800    854.69765   -104.56464    0.7733484    -103.7913    -9617.946    4.3263291    4.3263291    4.3263291    -9617.946   -17091.256   -9992.2765   -1770.3051   -42.810384   -28841.556   -474.05392    80.976434 
    4900    1165.7686   -104.83864    1.0548119   -103.78383    6675.1634    4.3167463    4.3167463    4.3167463    6675.1634    33470.316   -5084.6653   -8360.1604    983.01968    6180.7718    16.547027    80.439539 
    5000    441.13427   -104.19793   0.39914756   -103.79878   -11212.173    4.3175656    4.3175656    4.3175656   -11212.173    8029.9753    14567.076   -56233.571    3228.3367   -28870.285   -1349.5426    80.485348 
    5100    1310.8448   -104.97537    1.1860799   -103.78929   -4482.3727    4.3212149    4.3212149    4.3212149   -4482.3727     1128.744   -2833.8847   -11741.977    6940.3792    12083.893    4609.7421    80.689607 
    5200    723.81273   -104.45014   0.65492097   -103.79522   -15000.427    4.3270727    4.3270727    4.3270727   -15000.427   -23859.317    5773.3936   -26915.359   -1916.4932   -27559.033   -4549.4207    81.018196 
    5300    800.51074   -104.51433   0.72431894   -103.79001   -1210.7998    4.3114184    4.3114184    4.3114184   -1210.7998    12808.462   -148.07711   -16292.785    4289.8136   -9512.9537    3009.1598    80.142063 
    5400    895.22356   -104.60153   0.81001709   -103.79152    9754.4366    4.3207284    4.3207284    4.3207284    9754.4366    33334.705    5822.1364   -9893.5312   -5060.4992   -4038.3932   -2332.4451    80.662355 
    5500    913.65291   -104.62125   0.82669235   -103.79456   -25901.116    4.3288134    4.3288134    4.3288134   -25901.116   -39608.476   -877.16701   -37217.704   -1318.2911   -34413.427   -2962.4047    81.116011 
    5600    1072.7283   -104.75487   0.97062707   -103.78424    16724.553    4.3129862    4.3129862    4.3129862    16724.553    34703.977    3569.8376    11899.845   -10701.888    17946.253   -7877.0505    80.229524 
    5700    662.10003   -104.38919   0.59908202   -103.79011   -7335.1237    4.3232631    4.3232631    4.3232631   -7335.1237    6266.6387    6111.9982   -34384.008   -304.06202    -30836.16    1612.1918    80.804398 
    5800    974.19244   -104.67169   0.88146979   -103.79022   -2728.5028    4.3223415    4.3223415    4.3223415   -2728.5028    15949.804    1140.4617   -25275.774   -4382.9498    2680.5203   -4726.7644    80.752735 
    5900    1081.7462   -104.76505   0.97878667   -103.78626    14848.633    4.3166697    4.3166697    4.3166697    14848.633    24735.911    15658.291    4151.6976     4154.632   -1430.8536   -4641.0236    80.435259 
    6000    818.62614   -104.53234   0.74071014   -103.79163   -8919.3739    4.3212332    4.3212332    4.3212332   -8919.3739    6202.5405    4850.6598   -37811.322   -3138.0428   -23035.055     1546.972     80.69063 
    6100     810.0553   -104.52161   0.73295506   -103.78866    7036.5213    4.3233551    4.3233551    4.3233551    7036.5213    14274.406    -8642.564    15477.722   -468.29775    13107.635   -6777.3112    80.809558 
    6200    931.29958   -104.63302   0.84265943   -103.79036   -5100.7939    4.3206118    4.3206118    4.3206118   -5100.7939    1882.6197   -8087.6461   -9097.3551    3065.1614   -25688.813     3112.052    80.655823 
    6300    910.69607   -104.61594   0.82401694   -103.79193    15095.018    4.3183072    4.3183072    4.3183072    15095.018    22061.543    9556.8142    13666.698   -3219.1285    9503.2597   -3953.7558    80.526831 
    6400    1041.0777   -104.73132   0.94198902   -103.78933   -17463.669    4.3255118    4.3255118    4.3255118   -17463.669   -8094.6125   -4536.4804   -39759.915    6310.3036    594.91986   -2370.8235    80.930554 
    6500     613.6376   -104.34768    0.5552322   -103.79245    5525.9056    4.3193591    4.3193591    4.3193591    5525.9056    17116.608    18591.463   -19130.354     3292.799   -16467.275     674.9124    80.585692 
    6600    1140.4112   -104.81984     1.031868   -103.78797   -2238.1909    4.3187686    4.3187686    4.3187686   -2238.1909   -20325.187    7346.9138    6263.7008    7389.5337    23703.603   -4212.1164    80.552647 
    6700    825.17182   -104.53687    0.7466328   -103.79023   -3938.1294    4.3254241    4.3254241    4.3254241   -3938.1294   -14139.845    13650.172   -11324.715     2924.809   -19699.585   -3071.6553    80.925628 
    6800    915.16237   -104.61218   0.82805814   -103.78412   -736.99785    4.3193949    4.3193949    4.3193949   -736.99785    3009.2391    8064.2102   -13284.443    6214.6814    9245.7096    5213.1819    80.587697 
    6900    834.43095   -104.53964   0.75501066   -103.78463   -2022.6167    4.3207101    4.3207101    4.3207101   -2022.6167    18925.632   -12086.973   -12906.509   -2432.8495    -4261.478   -1018.8621    80.661332 
    7000    956.99461   -104.65496   0.86590884   -103.78905     1464.907    4.3219606    4.3219606    4.3219606     1464.907   -3834.9212    6915.3202     1314.322   -4741.5072    -19566.82    4159.4359    80.731384 
    7100    987.63694   -104.68386   0.89363466   -103.79023    1282.0407    4.3243115    4.3243115    4.3243115    1282.0407    11778.275    13712.969   -21645.121     1915.679    17984.587    3882.6861    80.863199 
    7200    831.44022   -104.54324   0.75230458   -103.79093    8477.8807    4.3154844    4.3154844    4.3154844    8477.8807    2438.4569    28070.666   -5075.4805   -6790.1764   -21863.067   -1684.8007    80.369017 
    7300    801.76963   -104.51829   0.72545801   -103.79283    1027.5068    4.3214854    4.3214854    4.3214854    1027.5068    19790.526    1266.0554   -17974.061   -815.24391    7131.2554    3768.6785    80.704761 
    7400    1023.8803   -104.71671   0.92642839   -103.79028   -4158.9789    4.3236813    4.3236813    4.3236813   -4158.9789   -19688.329    8723.4804   -1512.0879    2082.0582    6625.7747   -1795.2082    80.827849 
    7500    875.96749   -104.58214    0.7925938   -103.78955    16822.856    4.3122851    4.3122851    4.3122851    16822.856    41329.388    17653.758   -8514.5784   -8701.3847   -8430.1929    -6325.057    80.190402 
    7600    849.10878   -104.55862   0.76829147   -103.79033   -9190.3002    4.3206366    4.3206366    4.3206366   -9190.3002    6017.2361   -27854.742   -5733.3946    6527.1757    15494.723   -1829.5362    80.657216 
    7700    848.81969   -104.55963   0.76802989   -103.79161    2444.4347    4.3201322    4.3201322    4.3201322    2444.4347    8225.6798    3464.7679   -4357.1437   -2739.7258    -17716.36   -5821.0203    80.628967 
    7800    1099.9363   -104.78614   0.99524551   -103.79089    -11829.97    4.3248737    4.3248737    4.3248737    -11829.97   -19552.421    8805.4128   -24742.902   -436.05176   -381.45839   -5289.3033    80.894743 
    7900    872.81941   -104.57713   0.78974534   -103.78738    24717.599    4.3103308    4.3103308    4.3103308    24717.599    39706.298    23548.463    10898.037   -123.26388    2052.3493   -5819.6935    80.081425 
    8000    777.10097     -104.496   0.70313729   -103.79286   -14471.994    4.3231916    4.3231916    4.3231916   -14471.994   -19277.794    396.12004   -24534.307   -1263.9147   -22168.548     5820.664    80.800389 
    8100    830.80947   -104.54167   0.75173387   -103.78994    5770.2466    4.3235739    4.3235739    4.3235739    5770.2466    35111.198   -29001.609    11201.151    2415.5888    11420.734   -10262.466    80.821826 
    8200    1234.4565   -104.90326    1.1169622    -103.7863    945.11029    4.3166474    4.3166474    4.3166474    945.11029   -6063.8784    21068.328   -12169.118    -8755.106   -7728.2447    5257.2759    80.434012 
    8300    780.21663   -104.49533   0.70595641   -103.78937   -9189.4266    4.3228065    4.3228065    4.3228065   -9189.4266     12366.63   -29547.897   -10387.013   -2385.0544   -3055.5186    6789.2718    80.778801 
    8400    782.67562   -104.49594   0.70818135   -103.78776    -3786.772    4.3213406    4.3213406    4.3213406    -3786.772    10064.933   -26434.039    5008.7897   -1198.4633    11360.901   -10979.002    80.696645 
    8500     939.2888   -104.64002   0.84988824   -103.79013    9875.9996     4.317346     4.317346     4.317346    9875.9996    17407.935    15963.209   -3743.1456   -7989.7369   -15139.991      13922.9    80.473067 
    8600    1103.1742   -104.79083   0.99817516   -103.79265    -5256.384    4.3199819    4.3199819    4.3199819    -5256.384   -5907.8019   -8298.7092   -1562.6409    288.78471    5266.7624   -8664.7257    80.620556 
    8700    780.70243   -104.49803   0.70639596   -103.79163    6518.6576    4.3208663    4.3208663    4.3208663    6518.6576    34432.945   -2585.6531   -12291.319   -515.72448    -5827.946   -7724.4203    80.670079 
    8800    702.66475   -104.42768   0.63578583    -103.7919    -14471.24    4.3230826    4.3230826    4.3230826    -14471.24   -13979.472   -29646.502    212.25294   -3266.6864    -9877.251    259.08765    80.794276 
    8900    1176.2962   -104.85109    1.0643375   -103.78675    2953.8072    4.3159995    4.3159995    4.3159995    2953.8072    15241.387    1053.7872   -7433.7525    4170.3107    5493.3503   -18691.683    80.397796 
    9000     1009.362   -104.70111   0.91329191   -103.78781    3855.3586    4.3194085    4.3194085    4.3194085    3855.3586    205.48922   -3434.7121    14795.299   -5471.0233   -6332.7214   -1206.1224    80.588457 
    9100    512.49705    -104.2581    0.4637181   -103.79438   -25822.351    4.3268488    4.3268488    4.3268488   -25822.351    5129.8224    -50501.94   -32094.935    12158.612   -837.61027   -7915.3617    81.005619 
    9200    1041.1066   -104.73259   0.94201515   -103.79057    13937.736    4.3157928    4.3157928    4.3157928    13937.736    17208.661    483.98917    24120.556   -3949.1026    6357.7009   -7039.2514     80.38625 
    9300    1125.9331   -104.81603    1.0187679   -103.79726   -9894.0381    4.3219917    4.3219917    4.3219917   -9894.0381   -5148.9743   -7902.4002    -16630.74    4749.1938   -4307.0558    9833.6068     80.73313 
    9400    595.82709   -104.33676   0.53911687   -103.79764    7510.5235    4.3161688    4.3161688    4.3161688    7510.5235    12408.952   -2147.3999    12270.018    2931.3789    2626.1176   -12635.404    80.407258 
    9500     1056.019   -104.74219   0.95550822   -103.78668   -5123.0562    4.3246164    4.3246164    4.3246164   -5123.0562   -1186.2583   -5487.5901   -8695.3204   -3249.3245    -2979.626    7593.0466    80.880305 
    9600    703.57163   -104.43082   0.63660639   -103.79421    9766.5917    4.3160612    4.3160612    4.3160612    9766.5917    13804.373    5036.7548    10458.648    7415.2025    2862.9047   -15912.277    80.401247 
    9700    1253.8968   -104.92525    1.1345522    -103.7907    3502.8654    4.3126611    4.3126611    4.3126611    3502.8654    9034.6303    12044.214   -10570.248   -789.86756    1055.5399   -7650.2973    80.211382 
    9800    670.23628   -104.39854   0.60644387   -103.79209    -5584.857    4.3284438    4.3284438    4.3284438    -5584.857   -1560.0567   -31219.657    16025.143   -3748.7483   -1397.5779    -3343.582    81.095236 
    9900    798.41166   -104.51384   0.72241965   -103.79142   -10605.292    4.3199194    4.3199194    4.3199194   -10605.292    4532.0405    2301.0969   -38649.012     10470.24    1185.1748    -17255.56    80.617057 
   10000    1248.3258   -104.91591    1.1295114    -103.7864    17592.267    4.3147444    4.3147444    4.3147444    17592.267   -1695.5036    30919.135     23553.17    -3357.283   -1334.9189    7402.3353    80.327682 
   10100    729.54006   -104.45519   0.66010317   -103.79509    6909.3383     4.320676     4.320676     4.320676    6909.3383    13639.351    21546.517   -14457.853    10659.916      1419.41   -10592.492     80.65942 
   10200    718.75983   -104.44432     0.650349   -103.79397   -13601.077    4.3254638    4.3254638    4.3254638   -13601.077    -10866.71   -18586.087   -11350.435    2808.8505    822.14485    2547.3871    80.927858 
   10300    1074.8095   -104.75845   0.97251024   -103.78594    13886.519    4.3132128    4.3132128    4.3132128    13886.519    21106.905    34700.082   -14147.429     4226.726   -1204.5639    1554.8214    80.242167 
   10400    878.28385   -104.58746   0.79468969   -103.79277   -17558.991    4.3193763    4.3193763    4.3193763   -17558.991   -6173.6758   -27548.058    -18955.24    606.10888   -2330.4148    -9784.629    80.586656 
   10500    864.55006   -104.57184   0.78226307   -103.78958   -11168.985    4.3225572    4.3225572    4.3225572   -11168.985   -7102.4059   -18470.533   -7934.0154   -845.08781    3439.6493    10037.423    80.764825 
   10600    903.13215   -104.60571   0.81717295   -103.78854    4510.4642    4.3192687    4.3192687    4.3192687    4510.4642    22606.651    10925.893   -20001.151   -1752.1074   -3101.8594   -14910.899    80.580634 
   10700    816.81323   -104.52993   0.73906978   -103.79086   -9381.7181    4.3197216    4.3197216    4.3197216   -9381.7181   -12261.757   -576.66263   -15306.735    2979.3147    1797.7209    4446.4096    80.605982 
   10800    941.14511   -104.64117   0.85156787    -103.7896    14870.554    4.3193239    4.3193239    4.3193239    14870.554    17400.727    39072.178   -11861.243    2578.1848    2988.1588   -1864.3965    80.583718 
   10900    881.16514   -104.58767   0.79729673   -103.79037   -15232.744    4.3244085    4.3244085    4.3244085   -15232.744     1914.316   -30158.594   -17453.955    3903.3653   -5012.2651   -8605.6394    80.868641 
   11000    822.21643   -104.53432   0.74395871   -103.79036    3136.6184      4.31594      4.31594      4.31594    3136.6184    32478.866    9903.9819   -32972.993    6526.5376    145.40329    11531.855    80.394476 
   11100    1116.2286   -104.79662    1.0099871   -103.78664   -6344.2554    4.3238166    4.3238166    4.3238166   -6344.2554   -7802.5013    5204.6742   -16434.939    3539.1718    188.57505   -13656.148    80.835439 
   11200    675.99383   -104.40417   0.61165343   -103.79252    -840.8705    4.3148407    4.3148407    4.3148407    -840.8705    24827.486   -15538.501   -11811.597     4871.815   -2304.6537    11805.313     80.33306 
   11300    980.51317   -104.67959   0.88718892    -103.7924    2291.6442    4.3208882    4.3208882    4.3208882    2291.6442     8144.019    23585.534    -24854.62   -1303.6725   -1944.0621   -4226.7668    80.671306 
   11400    1034.7749   -104.72727   0.93628605   -103.79098    4382.5403    4.3178881    4.3178881    4.3178881    4382.5403    35047.123    1564.5636   -23464.065   -2632.7819    2758.1087   -1983.8298    80.503386 
   11500    658.12566    -104.3926   0.59548593   -103.79712   -1243.8479    4.3171306    4.3171306    4.3171306   -1243.8479     3886.117    20800.356   -28418.017   -1521.4641   -4702.2943    14942.746    80.461026 
   11600    1112.4977   -104.79429    1.0066113   -103.78768   -7153.3854    4.3246558    4.3246558    4.3246558   -7153.3854    13313.259   -17024.479   -17748.936   -6978.0409    8883.9721   -4856.4773    80.882517 
   11700    864.03596    -104.5742   0.78179789    -103.7924   -972.63403    4.3143816    4.3143816    4.3143816   -972.63403    20658.081   -2629.7112   -20946.271    1647.0427   -4962.8323    15401.752    80.307416 
   11800    774.78198   -104.49844   0.70103902    -103.7974     -11999.5    4.3238507    4.3238507    4.3238507     -11999.5    8455.1075   -2996.3072     -41457.3    749.48094   -2535.1151     7207.173    80.837352 
   11900    1088.0391   -104.77183   0.98448066   -103.78735    1369.0143    4.3149898    4.3149898    4.3149898    1369.0143   -4909.1998   -5369.0085    14385.251    6953.8425    5030.6533    7252.3817    80.341384 
   12000    581.08075   -104.32212   0.52577408   -103.79634   -15330.243    4.3218695    4.3218695    4.3218695   -15330.243    509.83507   -8266.7308   -38233.834    3645.9893   -12056.453    14668.638    80.726279 
   12100    1153.3662   -104.82922    1.0435899   -103.78563     5856.668    4.3142721    4.3142721    4.3142721     5856.668     12241.21     11125.67   -5796.8764    7870.3727    8864.0898   -1805.8647    80.301306 
   12200     773.3108   -104.49177   0.69970786   -103.79206   -3347.1035    4.3252389    4.3252389    4.3252389   -3347.1035    27773.074   -8393.6656   -29420.719    4792.4799   -6522.2602    16480.735    80.915234 
   12300    729.15404   -104.45033    0.6597539   -103.79058   -12101.062    4.3203982    4.3203982    4.3203982   -12101.062   -24741.652   -2828.4732   -8733.0619    -849.7014    1780.2392   -2640.2783    80.643864 
   12400    1004.1703   -104.69337   0.90859442   -103.78478    17024.449     4.309184     4.309184     4.309184    17024.449    57090.439    3869.6838    -9886.776    6377.7886    1076.1136    5898.0158    80.017525 
   12500    961.72888   -104.66017    0.8701925   -103.78998   -22937.212    4.3276275    4.3276275    4.3276275   -22937.212    -5572.649   -21927.391   -41311.597   -6890.2217   -509.82993    8058.9019    81.049367 
   12600    783.11415   -104.49704   0.70857814   -103.78846    12893.246    4.3143638    4.3143638    4.3143638    12893.246    29429.378    2040.8986     7209.461    810.62418   -5152.0477   -9494.4263    80.306425 
   12700    989.86822    -104.6831   0.89565356   -103.78744   -6028.2041    4.3212886    4.3212886    4.3212886   -6028.2041    4219.4364   -18581.237   -3722.8113   -6466.6208   -1276.0287    7647.7587    80.693734 
   12800    752.94302   -104.47271   0.68127866   -103.79144    10729.504    4.3157699    4.3157699    4.3157699    10729.504    29280.692    14424.919   -11517.099   -4626.5944   -2246.0869   -7419.1145    80.384971 
   12900    1149.1194    -104.8284    1.0397474   -103.78865   -1647.3698    4.3209269    4.3209269    4.3209269   -1647.3698     27600.98   -9328.2014   -23214.888   -5384.9025   -6672.2767   -7323.1936    80.673476 
   13000    770.57013    -104.4873   0.69722805   -103.79008    6084.4028     4.317399     4.317399     4.317399    6084.4028   -3636.8033    19188.572    2701.4394   -3376.7401    3061.2633    3960.0095    80.476033 
   13100    778.58488   -104.49876   0.70447996   -103.79428    1375.1906    4.3143268    4.3143268    4.3143268    1375.1906    25549.303   -3336.5339   -18087.197   -430.74015    36.782984   -12875.665    80.304358 
   13200    1192.9876   -104.86904    1.0794403    -103.7896   -4592.2475    4.3249987    4.3249987    4.3249987   -4592.2475    7897.6514    9108.8375   -30783.231    9280.1156    2407.6628    2149.2225    80.901757 
   13300    670.14686   -104.40083   0.60636296   -103.79447   -1444.0515    4.3182173    4.3182173    4.3182173   -1444.0515    29302.005   -17549.162   -16084.997    1560.6282    -8097.611   -6750.7755      80.5218 
   13400    867.45792   -104.57921   0.78489416   -103.79432   -14624.241    4.3225055    4.3225055    4.3225055   -14624.241    -22104.51    1072.8831   -22841.096    6916.1259    6830.7616   -8379.8277    80.761925 
   13500    1143.3951   -104.82302    1.0345679   -103.78845    7887.4671    4.3129347    4.3129347    4.3129347    7887.4671    8152.9497    13217.881    2291.5709   -2075.1338   -4303.8858    5259.0887    80.226648 
   13600    560.73179   -104.30543   0.50736191   -103.79807   -19076.446    4.3268487    4.3268487    4.3268487   -19076.446   -11079.729   -1438.8792   -44710.731    18.631244      3823.21   -15563.511    81.005616 
   13700    1176.7664   -104.85063     1.064763   -103.78587    7865.9641    4.3139618    4.3139618    4.3139618    7865.9641    11147.281    6742.4226     5708.189   -7716.6329   -4222.8075   -975.00814    80.283981 
   13800     715.2175   -104.44085   0.64714382   -103.79371    6757.9727    4.3161376    4.3161376    4.3161376    6757.9727    8208.4477    20982.684    -8917.214   -153.86501    3628.9232   -3864.3515    80.405519 
   13900    957.10996   -104.65784    0.8660132   -103.79183   -23952.711    4.3229017    4.3229017    4.3229017   -23952.711    -12616.36    -11675.26   -47566.513   -4988.1224    3076.7044   -15252.536    80.784137 
   14000    888.34386   -104.59225   0.80379219   -103.78846    19266.811    4.3125553    4.3125553    4.3125553    19266.811    20922.294    27815.643    9062.4959    1489.1971    1444.4771    11183.898    80.205478 
   14100    857.97283   -104.56967   0.77631184   -103.79335   -20658.358    4.3262968    4.3262968    4.3262968   -20658.358   -36918.612   -10643.857   -14412.607    5863.6656     232.9292    -15115.02    80.974623 
   14200    1010.5099   -104.70296   0.91433058   -103.78863    16529.538    4.3134849    4.3134849    4.3134849    16529.538    8952.5276    45193.906   -4557.8188    2132.2687    3594.3443    4962.6685    80.257358 
   14300    829.62523   -104.54228   0.75066234   -103.79162    1072.3997    4.3213785    4.3213785    4.3213785    1072.3997    484.76877    8332.6912   -5600.2608    2794.7871   -1502.0685   -1916.0724    80.698771 
   14400    846.72744   -104.55581   0.76613679   -103.78968   -2817.3857    4.3187505    4.3187505    4.3187505   -2817.3857   -10266.517    17229.877   -15415.518    1586.8633    2360.9248   -5119.0156    80.551631 
   14500    1022.3944   -104.71668   0.92508391   -103.79159     5396.592    4.3189052    4.3189052    4.3189052     5396.592    4525.1823   -7460.2764     19124.87   -4644.3645    713.38916    7339.6251    80.560289 
   14600    1048.0645   -104.73778   0.94831076   -103.78947   -9983.7521    4.3238275    4.3238275    4.3238275   -9983.7521    -21545.22    19953.287   -28359.323   -5644.8055   -5064.3369     -533.037    80.836047 
   14700    708.76313   -104.43145   0.64130377   -103.79015    16731.049    4.3130228    4.3130228    4.3130228    16731.049    25101.105     10097.54    14994.501   -782.29209    3275.4443    7004.3842    80.231565 
   14800    842.23952   -104.55431   0.76207602   -103.79223    -6932.488    4.3201833    4.3201833    4.3201833    -6932.488   -15761.323    3430.7663   -8466.9074   -5787.9143   -106.60896    8787.1132     80.63183 
   14900    945.71669   -104.64833   0.85570434   -103.79262     13981.43    4.3180234    4.3180234    4.3180234     13981.43   -8342.7361    30036.149    20250.878    3830.5236    7.8191782   -3776.0842    80.510956 
   15000    1079.4538   -104.76828   0.97671245   -103.79157   -11032.005    4.3172508    4.3172508    4.3172508   -11032.005   -5340.8045   -11476.696   -16278.513     582.4426    4149.3992    7540.0391    80.467747 
   15100    545.08195    -104.2861   0.49320161    -103.7929    1794.2796    4.3171736    4.3171736    4.3171736    1794.2796   -13990.333   -483.73563    19856.908   -1064.4225   -711.14361   -165.55705    80.463431 
   15200    1130.5405   -104.81301    1.0229368   -103.79008   -6140.1223    4.3191717    4.3191717    4.3191717   -6140.1223   -11092.243   -2787.2445   -4540.8794     6015.132    1767.2664   -2591.5603    80.575203 
   15300    893.69894   -104.60169   0.80863759   -103.79306    8894.6555    4.3167867    4.3167867    4.3167867    8894.6555   -8465.6698    29465.047    5684.5894    -3962.265    3747.4546    10387.496    80.441799 
   15400    993.96396   -104.69049   0.89935948   -103.79113    5410.4827    4.3200655    4.3200655    4.3200655    5410.4827   -934.58634    23997.526   -6831.4918    2281.2309    -3548.187    1603.7734    80.625236 
   15500    686.98187   -104.41085   0.62159563   -103.78926    6862.3915    4.3204587    4.3204587    4.3204587    6862.3915     1209.641    18618.815    758.71898    -9866.611   -1011.9202     8297.204     80.64725 
   15600     763.6923   -104.48304   0.69100484   -103.79204   -7672.8564    4.3159717    4.3159717    4.3159717   -7672.8564   -28706.159   -4888.1253    10575.715   -151.00562   -5599.1956    11067.311    80.396248 
   15700    1342.3117   -105.00223    1.2145519   -103.78767    934.09078    4.3157341    4.3157341    4.3157341    934.09078   -22802.024    19718.035    5886.2612    -3310.281    8411.3928    3901.4212    80.382965 
   15800    679.76785   -104.40822   0.61506824   -103.79316   -19717.137    4.3230653    4.3230653    4.3230653   -19717.137   -18764.895   -21117.128   -19269.388   -5804.6753   -6074.8286    3700.3073    80.793307 
   15900    724.62029   -104.44703   0.65565166   -103.79137   -1971.7109    4.3166123    4.3166123    4.3166123   -1971.7109   -30283.728    11853.454    12515.142      -955.12    5513.1237    60.685012     80.43205 
   16000    1058.1642    -104.7479   0.95744921   -103.79045    8287.8428    4.3152687    4.3152687    4.3152687    8287.8428   -2414.0198     21807.36    5470.1884    663.94201   -1759.9828    -4519.229    80.356967 
   16100    773.92092   -104.50013   0.70025991   -103.79987   -1787.0636    4.3243293    4.3243293    4.3243293   -1787.0636   -30606.368    14296.281    10948.896   -4877.9695    -2074.959   -457.99746    80.864198 
   16200    1140.7676   -104.82295    1.0321905   -103.79076   -4920.2844    4.3168399    4.3168399    4.3168399   -4920.2844   -2934.3068   -3791.6154   -8034.9309    12701.416    11662.365   -2375.9301     80.44477 
   16300    559.53487    -104.3021   0.50627891   -103.79582   -11081.746    4.3148142    4.3148142    4.3148142   -11081.746   -28449.037   -12836.221    8040.0207   -14585.484    -8646.082    1967.5348     80.33158 
   16400    983.71815   -104.68521   0.89008885   -103.79512   -3870.3674     4.322185     4.322185     4.322185   -3870.3674   -38349.128    21903.027    4834.9994    3142.6942    3929.9979    5664.6888    80.743963 
   16500    1311.2883   -104.97937    1.1864812   -103.79289   -9065.6979    4.3181702    4.3181702    4.3181702   -9065.6979   -8857.4748   -389.27344   -17950.346   -9174.9697   -5852.1437   -1634.8855    80.519167 
   16600    479.33088    -104.2309   0.43370866   -103.79719    16860.498    4.3139734    4.3139734    4.3139734    16860.498   -12949.378    37959.815    25571.058    -4538.343   -4447.4082    4071.3901    80.284624 
   16700    982.23281   -104.67986   0.88874489   -103.79111   -12356.465    4.3239003    4.3239003    4.3239003   -12356.465   -19209.753   -17987.097    127.45451    123.67277    7034.8606   -4053.3015    80.840131 
   16800    809.25287   -104.52636     0.732229   -103.79413    15283.594    4.3172026    4.3172026    4.3172026    15283.594   -7231.4076     24017.66    29064.531   -6791.2721   -8757.1376     2227.709     80.46505 
   16900    1184.0674   -104.86028    1.0713691   -103.78891    -10973.17     4.321592     4.321592     4.321592    -10973.17   -18098.208   -7182.7095   -7638.5913    2666.4877   -914.66063    1698.7322    80.710732 
   17000    821.47973   -104.53001   0.74329212   -103.78672    4399.0238    4.3145796    4.3145796    4.3145796    4399.0238    -1376.943    10691.526    3882.4889    6259.7249   -3432.6379   -6986.1422    80.318477 
   17100    673.21401   -104.40112   0.60913819   -103.79198   -4754.6599    4.3211571    4.3211571    4.3211571   -4754.6599   -38199.108     19147.76    4787.3675   -9611.8039   -7926.2931     4968.039     80.68637 
   17200    1172.6759   -104.84861    1.0610618   -103.78754     4136.263    4.3201054    4.3201054    4.3201054     4136.263   -6700.7778    3899.3169     15210.25    9459.4563    5471.4619   -3022.9961    80.627467 
   17300    896.47213   -104.60349   0.81114682   -103.79234    10603.103    4.3148831    4.3148831    4.3148831    10603.103    4414.6692    30260.567    -2865.928   -13646.838   -8661.5758   -8729.1814    80.335428 
   17400    714.11565   -104.43819   0.64614685   -103.79205   -13914.742    4.3239399    4.3239399    4.3239399   -13914.742   -33840.803   -12836.286    4932.8629    3566.2858   -4564.1451    7136.2535    80.842355 
   17500    949.88704   -104.64997   0.85947775   -103.79049   -4797.0499    4.3205904    4.3205904    4.3205904   -4797.0499   -20632.126    4378.9949    1861.9812   -2037.1822   -2614.0247    -14482.52    80.654626 
   17600    1056.9195   -104.74741   0.95632294   -103.79109    944.79789    4.3188481    4.3188481    4.3188481    944.79789   -12974.885    22008.742   -6199.4629   -7971.4253   -4455.5662    5787.6106    80.557095 
   17700    980.60308   -104.67685   0.88727027   -103.78958   -9303.1469    4.3207378    4.3207378    4.3207378   -9303.1469   -8058.3504   -12605.612   -7245.4784    3486.9754    5298.2891   -9139.6421    80.662883 
   17800    640.51399   -104.37054   0.57955052   -103.79099    5241.8998    4.3188573    4.3188573    4.3188573    5241.8998    3247.1318    31146.686   -18668.119    -177.1811   -6573.3215   -10070.149    80.557607 
   17900    928.62543   -104.63006    0.8402398   -103.78982   -299.07977    4.3204159    4.3204159    4.3204159   -299.07977   -29991.674     4499.757    24594.677    1418.9394    1541.2153    5614.7592    80.644857 
   18000    1008.8706   -104.70453   0.91284729   -103.79168    2128.7442    4.3204039    4.3204039    4.3204039    2128.7442    10926.179    7537.8901   -12077.837    7347.9236   -3360.5745   -16034.333    80.644184 
   18100    871.51316   -104.57926   0.78856342    -103.7907   -10215.276    4.3195965    4.3195965    4.3195965   -10215.276   -22499.061   -10481.037    2334.2695   -6703.2851   -7893.6406    -5503.826    80.598977 
   18200     780.4294   -104.49675   0.70614892    -103.7906   -17388.875    4.3189585    4.3189585    4.3189585   -17388.875   -30173.751   -11651.062   -10341.812    2172.0911    4519.1497    3025.4312    80.563271 
   18300    915.00174   -104.62032    0.8279128   -103.79241   -4269.2493    4.3216578    4.3216578    4.3216578   -4269.2493   -7906.6247    3230.3661   -8131.4891    165.34491   -5848.7243   -20836.684     80.71442 
   18400    1289.0881   -104.95279     1.166394    -103.7864   -6944.2745    4.3192686    4.3192686    4.3192686   -6944.2745   -5587.2068   -6147.7526    -9097.864   -7078.6577   -7683.5079    13605.245    80.580624 
   18500     431.8422   -104.18392    0.3907399   -103.79318    10623.146    4.3202998    4.3202998    4.3202998    10623.146    12114.222    8921.1447    10834.072    3866.6589    2940.5391   -17756.439    80.638355 
   18600    1042.9161   -104.73249   0.94365238   -103.78884   -3947.2402    4.3187193    4.3187193    4.3187193   -3947.2402   -11872.885    7495.8907   -7464.7267   -7109.2464    -9313.128    2204.0164    80.549887 
   18700    832.62019   -104.54579   0.75337224   -103.79242    13269.549    4.3222809    4.3222809    4.3222809    13269.549   -4442.5048    15094.631    29156.522   -3329.8747    8897.0717    -2629.996    80.749334 
   18800    1027.1195   -104.72074   0.92935935   -103.79138   -15263.554    4.3185172    4.3185172    4.3185172   -15263.554    6159.9946   -27863.134   -24087.523    6198.9633     920.7384   -11937.376    80.538581 
   18900    932.77939    -104.6348   0.84399839   -103.79081   -6794.5698    4.3198005    4.3198005    4.3198005   -6794.5698   -32083.021    2419.0136    9280.2982   -7679.3314   -4319.7298   -909.56457    80.610399 
   19000    730.12231   -104.45762   0.66063001   -103.79699   -1662.8732    4.3235082    4.3235082    4.3235082   -1662.8732   -17361.037     8256.429    4115.9886    6736.3431    2031.3607    -9263.111    80.818144 
   19100    1253.1449   -104.93028    1.1338719    -103.7964   -7531.0582    4.3215664    4.3215664    4.3215664   -7531.0582   -1515.6035   -8833.1504   -12244.421   -5322.4428   -9061.3937   -7222.0085    80.709296 
   19200    841.64131   -104.55458   0.76153475   -103.79304    22560.574    4.3157443    4.3157443    4.3157443    22560.574    2867.2015    38805.063    26009.458    5142.1675    1894.0129    1768.7549     80.38354 
   19300    587.21977   -104.32771   0.53132879   -103.79638   -11193.613    4.3214313    4.3214313    4.3214313   -11193.613    13594.651   -24086.173   -23089.317    4920.4478   -4571.7284   -9650.6929    80.701729 
   19400    1177.0352   -104.85259    1.0650062   -103.78758   -4070.0859     4.324431     4.324431     4.324431   -4070.0859   -26394.145    24478.031   -10294.144    5412.4895   -11149.736    4598.3558    80.869901 
   19500    847.43518   -104.55552   0.76677716   -103.78874    11232.233    4.3121661    4.3121661    4.3121661    11232.233    23215.134   -17316.875    27798.441    6695.9637    1915.9616   -2065.1918    80.183767 
   19600    721.95324   -104.45005   0.65323846   -103.79682   -23603.472    4.3256614    4.3256614    4.3256614   -23603.472   -23286.942   -28105.471   -19418.004    4009.9881   -6740.8919   -7128.1427     80.93895 
   19700    1127.3812   -104.80871    1.0200782   -103.78863     3158.911    4.3220566    4.3220566    4.3220566     3158.911    -21383.28    27566.588    3293.4253    448.52539   -2046.3952    -5955.973    80.736766 
   19800    773.39443     -104.497   0.69978353   -103.79722   -7790.5168    4.3211641    4.3211641    4.3211641   -7790.5168    246.67675    -18779.17   -4839.0571   -1369.0039   -1510.8777   -11867.514    80.686761 
   19900    848.66121   -104.56021    0.7678865   -103.79232    2858.8582    4.3207393    4.3207393    4.3207393    2858.8582    8194.8183    16593.043   -16211.286   -6379.9005    -17054.84    -1608.038    80.662967 
   20000    905.68686   -104.61042    0.8194845   -103.79094   -93.186305    4.3235739    4.3235739    4.3235739   -93.186305    12125.978   -15645.201    3239.6643   -7089.9559     1452.827   -9470.5638    80.821824 
   20100    827.05446   -104.54344   0.74833626    -103.7951   -9630.1337    4.3210033    4.3210033    4.3210033   -9630.1337   -5242.3911    9225.4555   -32873.466   -1656.9318   -15586.982    1833.1389    80.677751 
   20200    1082.2059   -104.76831   0.97920263   -103.78911     4133.025    4.3134799    4.3134799    4.3134799     4133.025     1233.185   -4294.6329    15460.523   -5615.7755    547.90213    855.74155    80.257077 
   20300    701.08895   -104.42976   0.63436001    -103.7954   -11732.604    4.3240146    4.3240146    4.3240146   -11732.604    7292.1115   -30018.841   -12471.081    9276.0513   -8021.7475   -2479.1645     80.84654 
   20400    877.03338   -104.58517   0.79355824   -103.79161   -3276.1921     4.323125     4.323125     4.323125   -3276.1921   -9942.4214    25846.741   -25732.896    2897.2069   -8682.5558    9385.2915    80.796656 
   20500    1171.3392    -104.8461    1.0598523   -103.78624    3110.7239    4.3202735    4.3202735    4.3202735    3110.7239    5615.4808    18442.324   -14725.633    10053.751    5906.9357   -5933.8922     80.63688 
   20600    776.29581   -104.49358   0.70240876   -103.79117    36.263134    4.3168944    4.3168944    4.3168944    36.263134      10367.6    5720.7923   -15979.603   -1567.1256   -7702.8023    498.35559    80.447817 
   20700     691.1151   -104.41985   0.62533547   -103.79452   -3370.2785    4.3261251    4.3261251    4.3261251   -3370.2785   -1281.9162   -1108.9859   -7719.9333    3963.1242    3912.6537    4345.2232    80.964981 
   20800    1189.4111   -104.86532    1.0762042   -103.78912   -972.94404    4.3214978    4.3214978    4.3214978   -972.94404    17679.202    925.25644   -21523.291   -1707.0668     1668.894   -10966.435    80.705455 
   20900    834.21366   -104.54761   0.75481405    -103.7928     12095.13     4.314629     4.314629     4.314629     12095.13    14065.566    27134.329   -4914.5045   -3364.6897   -7443.5797   -925.14422    80.321237 
   21000    927.21712   -104.63003   0.83896554   -103.79106    -9197.801    4.3199837    4.3199837    4.3199837    -9197.801   -9071.7342   -8137.0883   -10384.581   -6070.6819    19203.364   -3770.6149    80.620653 
   21100    838.02629   -104.54979    0.7582638   -103.79152    13264.485     4.318784     4.318784     4.318784    13264.485    33815.574    10955.474    -4977.593    6967.5841   -14114.259   -5306.9244    80.553506 
   21200    892.99005   -104.60245   0.80799617   -103.79446   -19758.412    4.3300369    4.3300369    4.3300369   -19758.412   -30238.114    8098.0608   -37135.184     -125.178    16197.722    4494.7161    81.184814 
   21300    1135.8862   -104.81468    1.0277737   -103.78691    8199.6596     4.309331     4.309331     4.309331    8199.6596    24134.465    12500.628   -12036.114    3764.0977    5500.1115    1202.1131    80.025714 
   21400    641.55691   -104.37663   0.58049417   -103.79614   -6716.3501    4.3247213    4.3247213    4.3247213   -6716.3501    12260.521   -27745.945   -4663.6262   -3369.0673    3817.6424    6050.3536    80.886188 
   21500    859.41836   -104.57116   0.77761979   -103.79354   -20640.211    4.3264945    4.3264945    4.3264945   -20640.211   -16573.895   -1529.5458   -43817.192    2427.2823    22827.119    4851.3632    80.985725 
   21600    1230.1022   -104.89654    1.1130223   -103.78351    25578.503    4.3090609    4.3090609    4.3090609    25578.503    40397.555    25663.706    10674.247   -7690.8011   -807.10239    7991.0271    80.010669 
   21700    630.52054   -104.36459   0.57050823   -103.79408   -14273.896    4.3300523    4.3300523    4.3300523   -14273.896   -479.05048   -14268.087   -28074.552    6729.6001    17241.794    2489.0494    81.185676 
   21800    940.06718    -104.6387   0.85059254   -103.78811   -4139.2231     4.317393     4.317393     4.317393   -4139.2231     8082.237   -5423.6339   -15076.272   -8491.5497    8186.2086      1547.49    80.475698 
   21900    933.08547    -104.6322   0.84427534   -103.78793     6070.877    4.3184288    4.3184288    4.3184288     6070.877    30504.659   -2442.1487   -9849.8793    5974.4975    1958.9581    6524.6565     80.53363 
   22000    874.05181   -104.58449   0.79086045   -103.79363   -11384.099     4.324181     4.324181     4.324181   -11384.099    5207.7642    10711.763   -50071.824   -2673.5578    19444.438   -7054.9802    80.855878 
   22100    1093.7942   -104.77908     0.989688   -103.78939   -34.164151    4.3218812    4.3218812    4.3218812   -34.164151    25542.283   -23286.684   -2358.0908    262.98372   -6320.3652      2345.04    80.726938 
   22200    685.91822   -104.41617   0.62063322   -103.79554   -432.37946    4.3195794    4.3195794    4.3195794   -432.37946    35207.843   -16920.659   -19584.323    4328.2708    15047.834   -633.10772    80.598025 
   22300    870.57702   -104.58652   0.78771639    -103.7988   -544.28351     4.318268     4.318268     4.318268   -544.28351    2281.4751    20614.944    -24529.27   -989.72561     7738.018   -6108.0506    80.524635 
   22400    1234.1082   -104.90932     1.116647   -103.79267   -2185.1619    4.3225964    4.3225964    4.3225964   -2185.1619    13058.557   -13549.732   -6064.3111    6691.2834    -181.3195    3964.0113    80.767019 
   22500    585.45495   -104.32955   0.52973194   -103.79982    -4605.694    4.3194871    4.3194871    4.3194871    -4605.694    7376.8156    3175.8697   -24369.767   -3038.1255    18855.795   -642.40795    80.592854 
   22600    840.23328   -104.55616   0.76026073   -103.79589    13028.999    4.3171491    4.3171491    4.3171491    13028.999    61408.914   -10693.334   -11628.584     7549.443   -7082.7408   -3704.2975    80.462061 
   22700    1119.6613   -104.80614    1.0130931   -103.79305   -14121.291    4.3269365    4.3269365    4.3269365   -14121.291   -6000.0603   -1576.1609    -34787.65    -7824.225    14672.421    6192.4007    81.010545 
   22800    735.09144   -104.45889   0.66512618   -103.79377    10423.784    4.3125632    4.3125632    4.3125632    10423.784    41069.253    2084.9042   -11882.806    3888.8931    4236.6863    5348.1568    80.205916 
   22900    940.26888   -104.64496   0.85077505   -103.79418   -8751.5644    4.3214967    4.3214967    4.3214967   -8751.5644    12903.888    -36940.15   -2218.4317   -4855.1109   -6761.2243    2039.0056    80.705391 
   23000    912.50304   -104.62096   0.82565193    -103.7953   -9292.5426    4.3242065    4.3242065    4.3242065   -9292.5426    3164.0429   -3268.6274   -27773.043    7981.3905    21263.297     4484.603    80.857307 
   23100    860.20243   -104.57486   0.77832923   -103.79653    5300.8016    4.3171985    4.3171985    4.3171985    5300.8016    9384.6784     17014.94   -10497.213   -24.125088   -19638.109    4322.5964    80.464823 
   23200    1056.6951   -104.74856   0.95611994   -103.79244    1491.4564    4.3161797    4.3161797    4.3161797    1491.4564    24393.782   -13198.823   -6720.5904   -2358.8538    9877.3599   -4470.3857    80.407868 
   23300    714.87943   -104.44265   0.64683793   -103.79582   -12976.052    4.3241277    4.3241277    4.3241277   -12976.052    -9953.575   -2454.4725   -26520.108   -5922.2296   -2468.4975    1874.5308    80.852886 
   23400    816.58934   -104.53184    0.7388672   -103.79298   -5130.6616    4.3254916    4.3254916    4.3254916   -5130.6616    15775.709   -3705.3567   -27462.337    1500.3169   -12067.226    297.83572    80.929419 
   23500    1139.6963   -104.82208    1.0312212   -103.79086    14260.719    4.3120596    4.3120596    4.3120596    14260.719    35589.935    12117.805   -4925.5829    2133.1551    10690.206    -9640.784    80.177822 
   23600    691.19076   -104.42433   0.62540393   -103.79892   -7643.9222    4.3262412    4.3262412    4.3262412   -7643.9222    3721.1848   -9254.1084   -17398.843   -2796.9418   -8540.3203    606.29021    80.971503 
   23700    920.69944   -104.62265    0.8330682   -103.78958   -66.459318    4.3235864    4.3235864    4.3235864   -66.459318    38243.869   -30587.345   -7855.9021    8819.0132    822.46339   -992.85758    80.822528 
   23800    972.10341   -104.66832    0.8795796   -103.78874    14957.814    4.3089704    4.3089704    4.3089704    14957.814    23672.724    27857.265   -6656.5481   -1905.7653    5595.2614    -5041.243    80.005625 
   23900    885.90413   -104.59954   0.80158468   -103.79796   -11205.841    4.3276825    4.3276825    4.3276825   -11205.841    11146.764   -14420.096   -30344.192    3413.7692   -16843.935     6483.749    81.052453 
   24000     1094.532   -104.77957   0.99035558   -103.78921   -4408.8482    4.3255602    4.3255602    4.3255602   -4408.8482    20158.995   -26815.742   -6569.7979   -4052.0331    3567.5152    2984.8597    80.933269 
   24100    524.77361   -104.27139   0.47482619   -103.79656    1043.5738    4.3149907    4.3149907    4.3149907    1043.5738     23812.47    5613.9184   -26295.667   -517.01346   -19066.047    286.12039    80.341435 
   24200    1223.2537   -104.90306    1.1068257   -103.79623    2197.6133    4.3167313    4.3167313    4.3167313    2197.6133    9211.3893    3155.6182   -5774.1677    5186.1855   -4453.8427    6429.3607    80.438703 
   24300    916.52633   -104.62497   0.82929228   -103.79568   -7817.9578     4.329728     4.329728     4.329728   -7817.9578    16418.376   -19873.562   -19998.688   -5949.0503   -5626.4173   -368.60931    81.167441 
   24400    608.45653   -104.34631   0.55054426   -103.79576   -385.13677    4.3114208    4.3114208    4.3114208   -385.13677    19713.754   -12582.964   -8286.1996     3381.214   -11174.902    3073.1764    80.142195 
   24500    1107.9254   -104.79595    1.0024741   -103.79347    4338.3742     4.319197     4.319197     4.319197    4338.3742    35033.238   -8388.5907   -13629.524   -7496.3672   -1206.8949    2131.6343    80.576619 
   24600    1047.0291   -104.74276   0.94737396   -103.79538    4030.9045    4.3192338    4.3192338    4.3192338    4030.9045    12933.329    23047.408   -23888.023   -6359.3804    -4307.901   -3418.4656    80.578677 
   24700    750.33004   -104.47844   0.67891438   -103.79953   -7208.5023    4.3231031    4.3231031    4.3231031   -7208.5023    21682.223   -27157.087   -16150.642     5574.937   -11660.845   -2343.6852    80.795429 
   24800     938.8983   -104.64133   0.84953491    -103.7918    439.68852    4.3208906    4.3208906    4.3208906    439.68852    20712.762   -1937.8109   -17455.886   -2863.7571    5268.5013    -645.4028    80.671442 
   24900    955.51405   -104.66029   0.86456919   -103.79572    9947.6354    4.3154274    4.3154274    4.3154274    9947.6354    21985.106    19521.959   -11664.158   -665.26771   -16883.142     -3697.51     80.36583 
   25000    810.95259   -104.52944   0.73376694   -103.79567   -19425.227    4.3330507    4.3330507    4.3330507   -19425.227   -5544.1077   -25089.691   -27641.883    5234.2153     12094.57    7051.5772    81.354449 
   25100    1089.2303   -104.76913   0.98555845   -103.78357    17921.387    4.3052573    4.3052573    4.3052573    17921.387    25112.206    13759.064     14892.89   -8040.0322   -4369.1683   -2959.1736    79.798979 
   25200     625.4755   -104.36376   0.56594338   -103.79782    -19995.59    4.3249002    4.3249002    4.3249002    -19995.59   -10433.675   -15169.965   -34383.131    6614.4207     618.6296    8487.0046    80.896227 
   25300    997.57661   -104.69681   0.90262829   -103.79418   -17341.135    4.3212181    4.3212181    4.3212181   -17341.135   -10482.775    438.07358   -41978.704   -4626.9432     7703.256    978.60629    80.689788 
   25400     1120.691   -104.80445    1.0140248   -103.79042    7217.9693    4.3167643    4.3167643    4.3167643    7217.9693   -10464.531    32822.196   -703.75642    792.94117   -1065.7055    8132.3158    80.440545 
   25500    566.40731   -104.31075   0.51249724   -103.79825    -15683.37    4.3238781    4.3238781    4.3238781    -15683.37    2548.4672   -18427.939   -31170.639    3179.7077    9469.3808   -285.32556    80.838885 
   25600    1016.0967   -104.71093   0.91938562   -103.79154    12699.121    4.3111287    4.3111287    4.3111287    12699.121    -2138.609    47574.501   -7338.5297    1824.9046    1536.4018     230.7915    80.125906 
   25700    953.61433   -104.65542   0.86285028   -103.79257   -2460.1215    4.3264611    4.3264611    4.3264611   -2460.1215    -24707.33    23683.045   -6356.0794   -3285.7852    3328.5626    1836.5361     80.98385 
   25800    793.91839   -104.51588   0.71835405   -103.79753   -2593.7472    4.3162137    4.3162137    4.3162137   -2593.7472   -747.35006    21105.405   -28139.297     -915.222    4538.3044   -9114.0639     80.40977 
   25900    1262.9134   -104.94014    1.1427106   -103.79743   -4082.2025    4.3218267    4.3218267    4.3218267   -4082.2025    746.96033   -8093.2079     -4900.36   -915.67902    1950.3563   -4690.3054    80.723881 
   26000    642.51134    -104.3795   0.58135776   -103.79814    5478.4238    4.3245384    4.3245384    4.3245384    5478.4238   -25832.944    74640.398   -32372.183   -1162.7807    7723.0993    1255.6657    80.875928 
   26100    664.11236   -104.40082   0.60090282   -103.79992   -13962.442     4.324855     4.324855     4.324855   -13962.442   -27111.656    10111.525   -24887.195    1301.6659    3543.2258   -6425.0955    80.893689 
   26200    1321.6342   -104.98571    1.1958424   -103.78987    7632.8942    4.3160559    4.3160559    4.3160559    7632.8942   -1137.8767    33933.593   -9897.0334    -6240.405    6940.8075     5011.028    80.400952 
   26300    736.08394   -104.46643   0.66602422   -103.80041   -21709.622     4.327409     4.327409     4.327409   -21709.622   -5338.9292   -8612.6147   -51177.323    6929.9321     8298.141   -8217.8076    81.037088 
   26400    703.57908   -104.43277   0.63661314   -103.79616    12624.917    4.3176921    4.3176921    4.3176921    12624.917    9697.4387    33094.459    -4917.147   -4439.4545   -2720.5777     4696.016    80.492423 
   26500    1039.6391    -104.7352   0.94068727   -103.79451    -13249.18    4.3249082    4.3249082    4.3249082    -13249.18   -24566.212    11831.725   -27013.054    1976.1874    8987.5476   -6299.4617    80.896674 
   26600    870.01217    -104.5864    0.7872053   -103.79919     3936.942    4.3162232    4.3162232    4.3162232     3936.942    35802.317    -9742.593   -14248.898   -8839.4762    2482.0123    -4813.207    80.410299 
   26700    1068.9458   -104.76453   0.96720467   -103.79733    1486.3101    4.3213412    4.3213412    4.3213412    1486.3101    3584.2979     31408.03   -30533.398   -205.82012   -7142.7772     2056.308    80.696681 
   26800    721.56806   -104.45023   0.65288994   -103.79734   -14157.864    4.3248031    4.3248031    4.3248031   -14157.864    -17459.62   -14876.179   -10137.792   -6834.6052    5985.1843   -11192.232    80.890777 
   26900    697.99837   -104.42754    0.6315636   -103.79598    21460.043    4.3080769    4.3080769    4.3080769    21460.043    44945.808    33696.801   -14262.479   -756.48716   -5251.4015    7224.7648     79.95587 
   27000    1227.1137   -104.90307    1.1103183   -103.79275    -14240.64    4.3335174    4.3335174    4.3335174    -14240.64    4577.7959   -14409.645   -32890.069   -4564.1569   -10413.743   -3228.3316    81.380737 
   27100      902.166   -104.60811   0.81629875   -103.79181    8386.4033    4.3142136    4.3142136    4.3142136    8386.4033    40581.619    712.50792   -16134.917    5551.5173    6583.2086   -1413.0721    80.298035 
   27200    681.82274   -104.41294   0.61692754   -103.79601   -3486.2935    4.3199274    4.3199274    4.3199274   -3486.2935   -1695.6193    7154.3902   -15917.652   -1720.6319   -12980.461    4493.7571    80.617502 
   27300    937.59261   -104.63912    0.8483535   -103.79077    6441.5257    4.3246839    4.3246839    4.3246839    6441.5257    31274.627    -13799.89    1849.8408    4042.4681   -5689.8592   -4422.3479    80.884093 
   27400    928.05041   -104.63421   0.83971951   -103.79449     1945.698    4.3181623    4.3181623    4.3181623     1945.698    40492.407   -3804.9023   -30850.411     7069.881    7473.8199    8006.0804    80.518725 
   27500     1056.413   -104.74576   0.95586469    -103.7899    8068.7338    4.3206732    4.3206732    4.3206732    8068.7338    28912.345    5992.9032   -10699.047   -11535.565   -7402.1473   -2816.4013    80.659264 
   27600    746.35793   -104.46697   0.67532034   -103.79165   -8889.0101    4.3185715    4.3185715    4.3185715   -8889.0101   -2038.7179    -7098.189   -17530.123   -1125.0697    1572.0877    3298.2545    80.541616 
   27700     832.5436    -104.5475   0.75330294   -103.79419    282.27303    4.3177819    4.3177819    4.3177819    282.27303    2762.5962    17510.251   -19426.028   -3871.0633   -3881.6711   -150.68714    80.497447 
   27800    1091.6754   -104.78089   0.98777088   -103.79312     1414.014    4.3218967    4.3218967    4.3218967     1414.014    38732.178   -15629.378   -18860.758   -4429.8206   -1530.8488   -696.52147    80.727808 
   27900    798.45557   -104.51903   0.72245938   -103.79657    26063.901    4.3079846    4.3079846    4.3079846    26063.901    70785.959    18436.245   -11030.501   -4710.6819   -3580.0146    3822.9819     79.95073 
   28000    1042.1708   -104.73611   0.94297802   -103.79313   -11827.078    4.3240995    4.3240995    4.3240995   -11827.078   -27192.304   -2175.4554   -6113.4743    11165.363   -13635.623    -2945.831    80.851305 
   28100    593.14869    -104.3308    0.5366934   -103.79411   -6933.0071    4.3208223    4.3208223    4.3208223   -6933.0071    6689.1578   -8118.5437   -19369.635   -9585.7005    2398.4989    7578.1882    80.667617 
   28200     1134.473   -104.81475     1.026495   -103.78825    18524.647    4.3071426    4.3071426    4.3071426    18524.647    42770.923      17553.2   -4750.1803    10717.471   -9886.8056   -2783.5041    79.903858 
   28300    998.67005   -104.69477   0.90361765   -103.79115   -15628.322    4.3290229    4.3290229    4.3290229   -15628.322   -7520.2714    -9425.448   -29939.248   -2746.5919    4294.6837    5260.3704    81.127789 
   28400    536.15635   -104.27903   0.48512554   -103.79391    19863.604    4.3173269    4.3173269    4.3173269    19863.604    57515.214     19112.39   -17036.791   -7177.6245     2344.165    2639.5788       80.472 
   28500     1118.347   -104.80471    1.0119038    -103.7928   -6068.4054    4.3188294    4.3188294    4.3188294   -6068.4054   -3907.6867    50.378192   -14347.908    -2998.106   -4576.3805   -300.21797    80.556045 
   28600    833.91759   -104.55746   0.75454616   -103.80291    16411.773    4.3166296    4.3166296    4.3166296    16411.773     51213.32    15804.728   -17782.728    4962.6662    12228.046    5024.3656    80.433017 
   28700    1127.7885   -104.81538    1.0204468   -103.79493    -16030.74    4.3311402    4.3311402    4.3311402    -16030.74   -11557.225   -15560.464   -20974.531   -8018.6051   -3486.9972   -3078.6524    81.246884 
   28800     757.6703   -104.47566   0.68555601    -103.7901    11479.942    4.3114905    4.3114905    4.3114905    11479.942    6172.0503    15087.381    13180.395    11975.373   -552.75237    3857.9335    80.146083 
   28900    613.54521   -104.35498    0.5551486   -103.79983    12160.994    4.3115221    4.3115221    4.3115221    12160.994     48126.45    3358.6071   -15002.076   -1197.6507     2053.424   -992.00927    80.147847 
   29000    1400.3126   -105.05618    1.2670323   -103.78915   -11127.986    4.3330348    4.3330348    4.3330348   -11127.986    18165.893   -20528.308   -31021.543    6494.3514   -4992.7573   -3333.6175    81.353556 
   29100     797.8413   -104.51467   0.72190358   -103.79277    6290.2359    4.3141808    4.3141808    4.3141808    6290.2359    36190.972    -8963.367   -8356.8976   -4732.7893    5173.8642    4512.9466    80.296204 
   29200     563.0108   -104.30623     0.509424   -103.79681    -7090.768    4.3181458    4.3181458    4.3181458    -7090.768    1857.2457    2724.1666   -25853.716   -890.50637    609.39415   -5616.1738    80.517802 
   29300    1260.2774   -104.93043    1.1403254    -103.7901   -5182.5729    4.3227074    4.3227074    4.3227074   -5182.5729    7399.5435   -8850.0467   -14097.216   -11926.379   -6678.8313    2190.5823    80.773242 
   29400    631.35077   -104.36825   0.57125944     -103.797    4059.4267    4.3194613    4.3194613    4.3194613    4059.4267    22884.207    1482.1551   -12188.082    773.92708    11389.085   -3480.2989    80.591414 
   29500    1085.2763   -104.76978   0.98198083    -103.7878    7037.8344    4.3139089    4.3139089    4.3139089    7037.8344    38321.247   -9739.8425   -7467.9018   -5959.6872    144.41387   -1805.6885    80.281027 
   29600    841.11489   -104.55335   0.76105843    -103.7923    14684.589    4.3158538    4.3158538    4.3158538    14684.589    31641.041    12959.938   -547.21292    12435.554   -22.581719   -304.22206    80.389659 
   29700     809.6112   -104.52567   0.73255322   -103.79312   -14474.454    4.3255196    4.3255196    4.3255196   -14474.454    8868.8547   -12921.201   -39371.015    -658.3504    2552.6695   -4756.1598    80.930992 
   29800    1130.7733   -104.81022    1.0231475   -103.78707   -5569.4239    4.3152467    4.3152467    4.3152467   -5569.4239    10358.866    -27670.28    603.14318    17096.005   -5520.5823     2679.262    80.355738 
   29900    761.14372   -104.48652   0.68869884   -103.79782    11648.952    4.3151573    4.3151573    4.3151573    11648.952    35244.226    12889.875   -13187.244    2070.6485    6679.9215    -5961.006    80.350743 
   30000    888.94797   -104.60158    0.8043388   -103.79724   -3037.8598    4.3298568    4.3298568    4.3298568   -3037.8598    29499.366    -8576.345     -30036.6    5736.9057    869.21874   -5664.9686    81.174681 
   30100    908.15274   -104.61382   0.82171569    -103.7921    2462.8745    4.3172815    4.3172815    4.3172815    2462.8745    3894.3373    5711.0714   -2216.7853    2493.4104   -8867.6388    -2635.319    80.469463 
   30200    822.32999    -104.5387   0.74406146   -103.79464    3902.8372    4.3237073    4.3237073    4.3237073    3902.8372    50955.576    -21323.82   -17923.244   -10021.259    5999.2802   -7455.9706    80.829305 
   30300    1028.9192   -104.72075   0.93098768   -103.78976   -4838.1834    4.3286958    4.3286958    4.3286958   -4838.1834    165.74998   -2481.1914   -12199.109    242.14591   -11509.153   -414.13158    81.109404 
   30400    1043.9255   -104.73719   0.94456575   -103.79263   -8385.3039    4.3183774    4.3183774    4.3183774   -8385.3039    4185.1524   -9750.6705   -19590.394   -1229.3538    4134.9451   -9990.9495     80.53076 
   30500    852.86821   -104.57058   0.77169308   -103.79889    4415.7595    4.3250803    4.3250803    4.3250803    4415.7595    44731.073   -22313.376   -9170.4187   -1606.3695   -1613.1346   -2561.4067    80.906336 
   30600    618.50828    -104.3653   0.55963929   -103.80566    -8397.623    4.3332911    4.3332911    4.3332911    -8397.623    24644.621   -16073.508   -33763.982    9001.0729   -8224.1693   -7405.8726    81.367994 
   30700    1298.5779   -104.96745    1.1749805   -103.79247   -3083.5131     4.322638     4.322638     4.322638   -3083.5131    14318.296   -9251.5332   -14317.303    6478.5778    1860.0134   -4904.3366     80.76935 
   30800    1015.9996   -104.72087   0.91929782   -103.80157   -18049.508    4.3254901    4.3254901    4.3254901   -18049.508   -4040.9681   -13237.059   -36870.498    1123.0138    -12688.38    1039.3259    80.929337 
   30900    775.67204    -104.5144   0.70184437   -103.81256    1274.6384    4.3284897    4.3284897    4.3284897    1274.6384    36729.229   -19557.974    -13347.34   -3242.4132    1355.3499   -3431.1452    81.097817 
   31000    1120.0257   -104.81752    1.0134227    -103.8041    15934.823    4.3242984    4.3242984    4.3242984    15934.823    60329.992     2192.341   -14717.863   -2069.7708   -3385.7242    5812.1558     80.86246 
   31100    806.02066   -104.53306   0.72930444   -103.80376   -5793.9573     4.324113     4.324113     4.324113   -5793.9573    2860.9969     -1798.87   -18443.999    8191.1606   -12862.306   -5001.9993    80.852063 
   31200    937.07026   -104.64128   0.84788086    -103.7934   -22166.586    4.3355658    4.3355658    4.3355658   -22166.586    -17958.34   -35052.678   -13488.741    2910.5931    1821.4302    1001.6519      81.4962 
   31300    705.45232   -104.43141   0.63830808    -103.7931    17951.369    4.3211378    4.3211378    4.3211378    17951.369    75757.792   -5636.4662   -16267.218   -582.42604    587.28815   -3159.6151    80.685286 
   31400    921.72743   -104.63331   0.83399835   -103.79931    13377.036    4.3244268    4.3244268    4.3244268    13377.036    47373.608     6583.994   -13826.492    11474.433    -2422.901   -4031.8846    80.869668 
   31500    1147.0891   -104.83375    1.0379103   -103.79584   -20609.585    4.3365734    4.3365734    4.3365734   -20609.585   -6149.8442   -24741.834   -30937.078   -14921.871     1519.605   -379.09034    81.553031 
   31600    583.54396   -104.32255   0.52800284   -103.79454    20507.206    4.3212008    4.3212008    4.3212008    20507.206    60091.674    19548.481   -18118.536    8776.9352   -6154.1718   -2339.3827    80.688814 
   31700    1037.3471   -104.73673   0.93861341   -103.79812   -845.86841    4.3256618    4.3256618    4.3256618   -845.86841    21964.888   -8449.8007   -16052.693   -140.92743    -3704.252    1680.0669    80.938973 
   31800     905.1279   -104.62085   0.81897875   -103.80187   -980.03979    4.3352969    4.3352969    4.3352969   -980.03979    27066.546    5812.6641    -35819.33   -3254.8941    10020.505   -3282.6818    81.481037 
   31900     893.5524   -104.60271   0.80850499   -103.79421   -14922.214    4.3322687    4.3322687    4.3322687   -14922.214   -2303.2236   -25731.927   -16731.491    15571.573   -2031.9142   -5008.3458    81.310408 
   32000    769.26211   -104.48512   0.69604453   -103.78907    11639.474    4.3199129    4.3199129    4.3199129    11639.474    42801.906   -7234.8099   -648.67413   -3144.3389    14698.664    829.71453     80.61669 
   32100    1126.7283   -104.80909    1.0194875    -103.7896   -2465.4711    4.3329624    4.3329624    4.3329624   -2465.4711   -4503.6377    9751.7558   -12644.531    14548.247   -1218.5901   -4343.2161    81.349476 
   32200    817.50807   -104.52982   0.73969848   -103.79012   -12633.692    4.3380198    4.3380198    4.3380198   -12633.692   -4179.3123   -24785.662    -8936.102    1463.8505    783.79463   -144.91514     81.63466 
   32300    531.05944   -104.27012   0.48051374    -103.7896     32183.09     4.317946     4.317946     4.317946     32183.09    59620.172    45197.805   -8268.7073    1290.1671    10206.304   -4066.1875    80.506625 
   32400    1270.4372   -104.94651    1.1495183   -103.79699   -19796.443    4.3316855    4.3316855    4.3316855   -19796.443   -14567.505     -27709.4   -17112.423    1484.5125    2657.3874    584.97316    81.277578 
   32500    818.68487   -104.53276   0.74076327     -103.792    5277.3151    4.3374515    4.3374515    4.3374515    5277.3151    21474.068    12765.321   -18407.444    3599.1216    5675.6407   -3600.6989    81.602583 
   32600    901.78376    -104.6015   0.81595289   -103.78555     -10700.9    4.3220684    4.3220684    4.3220684     -10700.9    3014.7481   -8728.8803   -26388.569    499.46783   -2321.4977    5599.8974    80.737429 
   32700    877.52035   -104.58386   0.79399886   -103.78986   -15137.818    4.3279596    4.3279596    4.3279596   -15137.818   -22239.514   -26577.574    3403.6327    23333.144    2104.7386   -5130.1862    81.068025 
   32800    898.96288   -104.60009    0.8134005   -103.78669    11881.988    4.3339648    4.3339648    4.3339648    11881.988     30961.39    25334.501   -20649.927    -2997.372   -3056.8674     544.1542    81.405946 
   32900    1068.4331   -104.75761   0.96674068   -103.79087   -16917.707    4.3312302    4.3312302    4.3312302   -16917.707   -6544.3162   -29826.138   -14382.667    29634.818    390.50372    2908.7491    81.251952 
   33000    825.38592   -104.53743   0.74682653    -103.7906    17790.438    4.3162029    4.3162029    4.3162029    17790.438    8263.5981    37341.256    7766.4594    124.62463    886.64681   -3972.7578    80.409165 
   33100    637.98627   -104.38051   0.57726339   -103.80325    -9092.612    4.3279279    4.3279279    4.3279279    -9092.612    14962.848   -33689.761   -8550.9227    3823.3005   -3569.3158    4104.9368    81.066242 
   33200    1023.8777   -104.72406   0.92642602   -103.79763   -10734.372    4.3289026    4.3289026    4.3289026   -10734.372   -12618.892    -18047.11   -1537.1148      24700.5   -7856.2445    2980.2169    81.121027 
   33300    1133.3872   -104.81192    1.0255126    -103.7864    6849.7816    4.3176384    4.3176384    4.3176384    6849.7816    23752.684    2854.5069   -6057.8459   -6481.0891    6878.3963    2628.9523     80.48942 
   33400    412.45115   -104.17064   0.37319447   -103.79745   -8680.9332    4.3263753    4.3263753    4.3263753   -8680.9332    27510.908   -39661.168    -13892.54    29250.708   -2006.7053   -1302.7669    80.979032 
   33500    1125.6112   -104.81099    1.0184767   -103.79251    1251.4745    4.3277447    4.3277447    4.3277447    1251.4745    19367.727    2561.3088   -18174.613     1238.946   -942.36913    3297.6522    81.055948 
   33600    1128.2015   -104.81459    1.0208204   -103.79377   -9429.6323    4.3256243    4.3256243    4.3256243   -9429.6323   -8822.0105    -3720.876   -15746.011    18507.128    754.02881    479.44732    80.936866 
   33700    629.11578   -104.36555   0.56923718   -103.79632     4528.461    4.3254053    4.3254053    4.3254053     4528.461    32764.856    876.02564   -20055.498    12312.967   -3537.7439   -640.02806    80.924572 
   33800    1006.3113   -104.70103   0.91053162    -103.7905    500.70993    4.3321968    4.3321968    4.3321968    500.70993    16399.666   -3657.4283   -11240.108   -4009.3989    3654.2819    5769.9311     81.30636 
   33900     986.5546   -104.68529   0.89265533   -103.79263   -6734.9853     4.324037     4.324037     4.324037   -6734.9853   -9445.5812   -6303.1918   -4456.1829    25453.187   -6324.5347   -519.57487    80.847801 
   34000     918.8894   -104.62289   0.83143044   -103.79146    24041.593    4.3231592    4.3231592    4.3231592    24041.593    57996.835    23151.395   -9023.4504   -7454.2267    1629.3912   -1447.5302    80.798574 
   34100    847.61931   -104.55981   0.76694376   -103.79287   -28063.421    4.3333784    4.3333784    4.3333784   -28063.421   -32702.404   -40603.655   -10884.204    20180.317    360.28448   -2268.7443    81.372908 
   34200    742.66252   -104.46147   0.67197666   -103.78949    8074.5865    4.3211387    4.3211387    4.3211387    8074.5865   -12149.274    30992.855    5380.1784     13437.28   -3880.3968      -5341.8    80.685336 
   34300    1153.7411   -104.83149    1.0439292   -103.78756    4532.8511    4.3259016    4.3259016    4.3259016    4532.8511        34021   -12067.948   -8354.4986   -1839.6823     7885.811   -5739.5017    80.952435 
   34400    736.16024   -104.45862   0.66609325   -103.79253    947.85353     4.323509     4.323509     4.323509    947.85353   -2606.0785    2445.6416    3003.9975     19455.82    2224.6387   -1146.5407    80.818188 
   34500     882.2539   -104.58945   0.79828187   -103.79117   -7456.8055    4.3330614    4.3330614    4.3330614   -7456.8055    33111.639    -32497.02   -22985.035    -10257.52    1568.2161   -2237.3046    81.355051 
   34600    833.99335   -104.54689   0.75461471   -103.79228    15088.749      4.32101      4.32101      4.32101    15088.749    25813.021    11446.406    8006.8209    11441.082    6385.5298   -701.68337    80.678131 
   34700    1129.7888    -104.8211    1.0222567   -103.79885   -22489.103    4.3292128    4.3292128    4.3292128   -22489.103   -8909.5232   -30096.341   -28461.443    4378.9334    -8986.683    1255.2435    81.138467 
   34800    830.61241   -104.54769   0.75155557   -103.79614   -4117.8322    4.3329244    4.3329244    4.3329244   -4117.8322    16342.932   -7116.6531   -21579.775    109.92937   -3152.9398    481.81494    81.347338 
   34900    685.70089   -104.41945   0.62043658   -103.79902      3817.07    4.3234138    4.3234138    4.3234138      3817.07    38554.636   -21126.659   -5976.7673    20084.304    1373.8191   -704.12192    80.812848 
   35000     943.0641     -104.653   0.85330421    -103.7997   -8066.1244    4.3329606    4.3329606    4.3329606   -8066.1244    5939.1851   -7756.2343   -22381.324   -4642.6882   -4412.9058    2887.0217    81.349375 
[...]
   91200    919.88865   -104.62568   0.83233458   -103.79335    -10232.47    4.3230829    4.3230829    4.3230829    -10232.47    -24346.75   -14699.615    8348.9539    5326.1886    8413.2811    2224.4234    80.794293 
   91300      1149.29   -104.82854    1.0399018   -103.78864    4719.8958    4.3212291    4.3212291    4.3212291    4719.8958    2408.9696   -13291.774    25042.491   -6646.4903   -4208.9501   -7447.1595    80.690401 
   91400    710.15219    -104.4331   0.64256062   -103.79054     5675.761    4.3175918    4.3175918    4.3175918     5675.761   -1540.8625   -3517.8532    22085.999    8430.0147    9737.4487   -9882.9043    80.486812 
   91500     908.1374    -104.6073    0.8217018   -103.78559   -14123.781    4.3279757    4.3279757    4.3279757   -14123.781   -41442.699   -11706.764     10778.12   -15327.339   -2748.9187   -4770.5363    81.068933 
   91600    829.87144   -104.53752   0.75088511   -103.78663    14905.965    4.3151556    4.3151556    4.3151556    14905.965    34921.934     3416.726    6379.2335    4567.9249    9527.1463   -11076.941    80.350648 
   91700    1078.6478    -104.7697   0.97598322   -103.79372   -17277.224    4.3282592    4.3282592    4.3282592   -17277.224   -25125.353   -22633.913   -4072.4074   -6305.3783    1918.0197    2777.3125    81.084864 
   91800    768.51066   -104.48413   0.69536459   -103.78876    7572.5007    4.3229589    4.3229589    4.3229589    7572.5007    10610.686   -12706.998    24813.813   -6907.7033      3252.33   -5937.5102    80.787341 
   91900    831.54929   -104.54078   0.75240327   -103.78837   -10639.553    4.3190347    4.3190347    4.3190347   -10639.553   -23060.905   -3515.4423   -5342.3128    5390.5592    7107.5361    2438.1027    80.567534 
   92000    1044.9915    -104.7327    0.9455303   -103.78717   -9538.0915    4.3249998    4.3249998    4.3249998   -9538.0915   -15316.814   -19164.912    5867.4509   -16130.752    8762.0045   -413.34155    80.901817 
   92100    818.09144   -104.53096   0.74022633   -103.79074     6544.908    4.3173092    4.3173092    4.3173092     6544.908    14060.239   -14586.423    20160.908    5460.9898   -1884.8544   -3292.7479    80.471009 
   92200    807.09111   -104.52437     0.730273   -103.79409   -18802.979    4.3228356    4.3228356    4.3228356   -18802.979   -53117.997   -7652.2835    4361.3442   -2091.8926    10653.766   -525.17459    80.780428 
   92300    942.54572   -104.64177   0.85283518   -103.78894    14098.084    4.3167292    4.3167292    4.3167292    14098.084    25105.375   -7551.2168    24740.095   -10145.356   -10515.737   -10091.235    80.438582 
   92400    1008.9617   -104.70341   0.91292972   -103.79048    -13015.34    4.3249536    4.3249536    4.3249536    -13015.34   -4880.6346   -12680.514   -21484.871    13016.803    7743.6008   -3360.3999    80.899225 
   92500    785.87259   -104.49948   0.71107403    -103.7884     5905.766    4.3166775    4.3166775    4.3166775     5905.766   -1761.7963   -20595.985     40075.08   -8300.0998    814.64178   -4052.7016    80.435693 
   92600     983.6498   -104.67898   0.89002701   -103.78896   -4455.1961     4.321597     4.321597     4.321597   -4455.1961   -8693.8244    2095.9766   -6767.7405    3008.0685   -4186.0135   -1004.3192    80.711012 
   92700    956.22289    -104.6566   0.86521057   -103.79139   -2370.3414    4.3217061    4.3217061    4.3217061   -2370.3414   -13948.947    -9296.607    16134.529    9593.3654    3569.3502    3329.9514    80.717126 
   92800    815.74068   -104.52903   0.73809931   -103.79093    1161.9239    4.3196121    4.3196121    4.3196121    1161.9239    20556.107   -11916.547    -5153.789    -13678.01   -4680.8529    -2599.002    80.599853 
   92900     902.6445   -104.60484   0.81673171   -103.78811   -11539.095    4.3228518    4.3228518    4.3228518   -11539.095   -31210.577    5285.0764   -8691.7846     5429.235   -172.14897   -6681.6654     80.78134 
   93000    938.78574   -104.63818   0.84943306   -103.78875     11040.04    4.3136824    4.3136824    4.3136824     11040.04    5618.4972    10631.144    16870.479    -11516.49     3384.282    3204.9479    80.268378 
   93100    1009.0825    -104.7038   0.91303909   -103.79076   -8769.7968    4.3235766    4.3235766    4.3235766   -8769.7968   -2359.9676   -654.01147   -23295.411   -5844.9402    -9004.856   -16232.135    80.821979 
   93200    774.33331   -104.48746   0.70063305   -103.78683    7054.8618    4.3173296    4.3173296    4.3173296    7054.8618    20605.892   -9807.4527    10366.146   -7626.4572   -6542.0768   -156.13544    80.472155 
   93300    822.49603   -104.53522    0.7442117   -103.79101   -19373.567    4.3230289    4.3230289    4.3230289   -19373.567   -30581.389   -11491.001   -16048.312   -7651.2265   -3178.4478    -8760.864    80.791267 
   93400    924.29447   -104.62625   0.83632106   -103.78993   -5480.1125    4.3208771    4.3208771    4.3208771   -5480.1125   -14018.874    1763.0807   -4184.5443    -3868.234   -16604.144   -13467.497    80.670685 
   93500    1102.0679   -104.78488   0.99717423    -103.7877    1698.7223    4.3136511    4.3136511    4.3136511    1698.7223    5720.7835   -4389.7085    3765.0917   -2174.6972    10832.569    7964.4194    80.266632 
   93600    515.70152   -104.25875   0.46661757   -103.79213   -27384.054    4.3290879    4.3290879    4.3290879   -27384.054   -24802.436   -18008.437   -39341.288   -1606.3157   -26850.187   -11859.217    81.131444 
   93700    1084.0921    -104.7664   0.98090933   -103.78549    17870.407    4.3079323    4.3079323    4.3079323    17870.407     13066.95    21339.022    19205.249    3298.0276    5412.6861    8816.2616    79.947815 
   93800    975.31048   -104.67465   0.88248142   -103.79217   -12575.805    4.3265643    4.3265643    4.3265643   -12575.805    -22578.38   -8123.5192   -7025.5149   -7687.6104   -11468.372   -5354.4796    80.989642 
   93900     819.1924   -104.53209    0.7412225   -103.79086   -3056.4255    4.3165985    4.3165985    4.3165985   -3056.4255    18277.774   -5239.4472   -22207.603    4853.4636   -11762.144   -6694.1572    80.431276 
   94000     810.0309   -104.52167   0.73293299   -103.78874    3390.5037    4.3155556    4.3155556    4.3155556    3390.5037    -5806.414   -11456.162    27434.087   -4710.1559   -6601.3826    1000.8668    80.372995 
   94100    888.34428   -104.59674   0.80379257   -103.79295   -21133.147    4.3223444    4.3223444    4.3223444   -21133.147     -37205.3    325.04175   -26519.184   -5727.5662   -13998.683   -11666.864    80.752894 
   94200    1009.2411   -104.70263   0.91318258   -103.78944    24937.436     4.312477     4.312477     4.312477    24937.436    37367.925    1160.5619    36283.822   -4022.5824   -3621.4331   -1453.2998     80.20111 
   94300    900.81525   -104.60504   0.81507657   -103.78997   -21161.715    4.3286346    4.3286346    4.3286346   -21161.715   -11760.929   -31826.226   -19897.989   -2877.9549   -5244.2552   -1511.5818    81.105961 
   94400    631.42178   -104.36069   0.57132369   -103.78936    15968.757    4.3123312    4.3123312    4.3123312    15968.757     28442.23    10799.906    8664.1363   -476.18262   -18134.531   -10858.409    80.192973 
   94500    1219.5273   -104.89129     1.103454   -103.78784   -2008.5614    4.3217695    4.3217695    4.3217695   -2008.5614   -9596.0914   -5279.2007    8849.6079     656.1697    8872.7459    5583.8569    80.720679 
   94600    890.92039   -104.59749   0.80612349   -103.79136    6750.9319    4.3152797    4.3152797    4.3152797    6750.9319    9811.8335    2790.7935    7650.1688    802.31131   -18094.313    2190.4702    80.357579 
   94700    814.92879   -104.52971    0.7373647   -103.79234   -5618.2404    4.3172354    4.3172354    4.3172354   -5618.2404     10891.45   -18022.605   -9723.5665   -5145.4667    1816.5853   -5582.7225    80.466882 
   94800    858.98954   -104.56838   0.77723179   -103.79115   -11661.468    4.3240727    4.3240727    4.3240727   -11661.468   -12924.929   -21380.041   -679.43467   -3383.9068   -4186.6801     10276.76      80.8498 
   94900    927.52138   -104.63201   0.83924084   -103.79277    16830.645    4.3133628    4.3133628    4.3133628    16830.645    43182.004    3833.8849    3476.0463   -3756.1513   -12935.671   -13694.524    80.250542 
   95000    1081.3732    -104.7705   0.97844916   -103.79205   -9863.0845    4.3214344    4.3214344    4.3214344   -9863.0845    8427.4438    -28059.85   -9956.8468   -13204.237    8755.4919    6628.6438    80.701903 
   95100    698.46937   -104.42374   0.63198976   -103.79175   -267.88678    4.3163797    4.3163797    4.3163797   -267.88678    29671.885   -19732.221   -10743.324   -2379.7287    -17803.67     2218.572    80.419047 
   95200     925.5456   -104.62774   0.83745311   -103.79029   -5930.3868    4.3204068    4.3204068    4.3204068   -5930.3868    3152.5862   -4043.3767    -16900.37   -3768.5868    608.79074     -10062.9    80.644346 
   95300    1128.5037   -104.80836    1.0210939   -103.78726    5810.1131     4.314824     4.314824     4.314824    5810.1131    12484.631    6434.7209   -1489.0127    1609.6061    6190.4592    11226.205    80.332123 
   95400    718.13525    -104.4393   0.64978387   -103.78951   -1059.6878    4.3209002    4.3209002    4.3209002   -1059.6878    9934.6604   -7574.6997    -5539.024    5570.7444   -17482.714   -12983.067     80.67198 
   95500    879.88404   -104.58352   0.79613757   -103.78738   -19196.942    4.3211942    4.3211942    4.3211942   -19196.942    3110.3283   -32834.566   -27866.589    2811.3766    12427.152     13105.82    80.688446 
   95600    878.70768   -104.58522   0.79507317   -103.79015    16532.013     4.311528     4.311528     4.311528    16532.013    36930.867   -1255.1251    13920.298   -1545.2825   -10982.008   -1643.8295    80.148176 
   95700    1093.6444   -104.77994   0.98955246   -103.79039   -17611.279     4.324223     4.324223     4.324223   -17611.279   -3163.1165   -27892.469   -21778.252    7738.9721   -10722.203   -3143.5984    80.858235 
   95800    742.23042   -104.45926   0.67158568   -103.78768   -8986.9014    4.3185274    4.3185274    4.3185274   -8986.9014    11291.018   -33903.556   -4348.1664   -1575.2072    8768.4153    10585.525     80.53915 
   95900    753.43039   -104.47006   0.68171965   -103.78834    397.65172    4.3150422    4.3150422    4.3150422    397.65172    2333.7061   -3591.2995    2450.5485    259.25947   -21927.992   -10789.145    80.344313 
   96000    1195.6316   -104.87115    1.0818326   -103.78932   -24.003967     4.316547     4.316547     4.316547   -24.003967    13215.591   -1540.9833    -11746.62   -8502.4598    6375.5333     10673.61    80.428396 
   96100    760.43052   -104.47988   0.68805352   -103.79183    6092.3769    4.3236415    4.3236415    4.3236415    6092.3769    14372.796   -12973.138    16877.473   -301.12125    2403.5928   -3735.7416    80.825615 
   96200    771.59524   -104.48779   0.69815559   -103.78963   -9298.0485    4.3178737    4.3178737    4.3178737   -9298.0485    23818.402   -25209.139   -26503.408   -4248.6821   -12947.374   -5004.4594    80.502581 
   96300    953.38882   -104.65461   0.86264624   -103.79196    13249.962    4.3105104    4.3105104    4.3105104    13249.962    18391.893   -15988.229    37346.221    6902.2315      17527.8    9316.1271    80.091438 
   96400    1151.7084   -104.83511    1.0420899   -103.79302    1493.0515    4.3243239    4.3243239    4.3243239    1493.0515     30790.18   -8918.3913   -17392.634   -2917.1233   -3175.1553   -2823.5367    80.863892 
   96500     750.0484   -104.46943   0.67865955   -103.79077   -2845.4294     4.320889     4.320889     4.320889   -2845.4294    12638.081   -46400.198    25225.829    -1021.858   -8721.7286    4535.3203    80.671352 
   96600    711.34752   -104.43477   0.64364218   -103.79113    3495.5581    4.3129164    4.3129164    4.3129164    3495.5581    37347.001    -17932.59   -8927.7373   -3164.2986    6887.3757    8749.9948    80.225627 
   96700     1039.038   -104.73694   0.94014338    -103.7968    11374.509    4.3150698    4.3150698    4.3150698    11374.509    5280.8434    3447.2863    25395.396    995.15601   -11475.515   -5486.9061    80.345857 
   96800    1100.2084   -104.79324   0.99549164   -103.79775   -15629.394    4.3256424    4.3256424    4.3256424   -15629.394   -879.91686   -28784.237   -17224.029    6594.0431     8368.486    8950.3772    80.937883 
   96900    606.84131   -104.34207   0.54908277   -103.79299   -3662.8541    4.3189022    4.3189022    4.3189022   -3662.8541    13054.558   -12202.208   -11840.913    2870.5892    11470.832    3428.9207     80.56012 
   97000    846.34673   -104.55418   0.76579231   -103.78839    14101.653    4.3039084    4.3039084    4.3039084    14101.653    19483.156   -5272.0578    28093.862    4566.4018   -11326.856     1118.142    79.723998 
   97100    1077.8581   -104.77049   0.97526869   -103.79523   -15336.085    4.3277957    4.3277957    4.3277957   -15336.085   -7167.6946   -15439.389   -23401.169    3504.7505    26780.982    11490.626    81.058814 
   97200    1010.2208   -104.70232   0.91406903   -103.78825   -1841.7562    4.3177573    4.3177573    4.3177573   -1841.7562   -12296.318   -10350.663    17121.712    3630.7972   -2579.0244   -1540.5054    80.496068 
   97300    603.41432   -104.33463   0.54598195   -103.78865   -10191.422    4.3120563    4.3120563    4.3120563   -10191.422      28854.1   -42152.532   -17275.834    2524.9066    1217.8041    7697.4111    80.177639 
   97400    851.73542   -104.56315   0.77066811   -103.79248   -6375.8366    4.3184896    4.3184896    4.3184896   -6375.8366   -7336.0113   -5174.6826   -6616.8159    598.51335    15921.407    5190.2518    80.537037 
   97500    1265.2201   -104.93445    1.1447977   -103.78965   -2394.3435    4.3183227    4.3183227    4.3183227   -2394.3435    160.47056   -7971.6122     628.1111    6340.7735   -13829.221    2859.0028    80.527696 
   97600    746.11016   -104.46598   0.67509615   -103.79089    -11748.11    4.3191675    4.3191675    4.3191675    -11748.11    13707.194   -27245.847   -21705.676   -5184.5934    16364.755    8537.9814    80.574967 
   97700    614.59465   -104.34761   0.55609816   -103.79151    20281.264    4.3091665    4.3091665    4.3091665    20281.264    4812.2633     10947.92     45083.61    5635.8003     3412.968   -6140.4802    80.016549 
   97800    1089.1592   -104.78034   0.98549411   -103.79485   -3601.3397    4.3231927    4.3231927    4.3231927   -3601.3397    14508.914   -25381.094     68.16128    2875.1089   -6238.1231    11701.026    80.800452 
   97900    1088.8239    -104.7779    0.9851907   -103.79271   -4810.2851    4.3246943    4.3246943    4.3246943   -4810.2851   -20729.819    2961.9178    3337.0457    1355.1036    25785.776    894.76827    80.884673 
   98000    813.01819   -104.52502   0.73563594   -103.78938    1401.8375    4.3150866    4.3150866    4.3150866    1401.8375    13889.751   -26739.721    17055.483    4897.5566   -398.47524    5732.8728    80.346795 
   98100    684.63011   -104.41222   0.61946771   -103.79275    5028.7133    4.3148152    4.3148152    4.3148152    5028.7133    14539.378   -19180.933    19727.695   -4449.2161    7188.9942   -1261.5975    80.331637 
   98200     853.9484   -104.56617   0.77267046    -103.7935    1199.0979    4.3249839    4.3249839    4.3249839    1199.0979   -5136.8516    5040.5505    3693.5947   -452.47557     13642.44   -3718.4454    80.900925 
   98300    1304.9337   -104.96681    1.1807314   -103.78608    5200.2871    4.3136654    4.3136654    4.3136654    5200.2871    10196.344   -12705.145    18109.662    1969.9633   -6722.2512    2789.3677    80.267432 
   98400    716.08537   -104.43968   0.64792909   -103.79175    6396.6936    4.3123875    4.3123875    4.3123875    6396.6936    9416.7708   -5706.7401     15480.05    -3900.653     12069.08   -2103.3331    80.196117 
   98500    782.51142   -104.49632   0.70803278   -103.78829   -13955.186    4.3247591    4.3247591    4.3247591   -13955.186   -4815.3465   -12798.445   -24251.765    9987.9842    3631.7945    771.50836    80.888311 
   98600    1026.3426   -104.71555   0.92865633    -103.7869    8265.9582    4.3178152    4.3178152    4.3178152    8265.9582    20039.657   -2332.8157    7091.0338   -8764.4745   -5504.4944    3573.1988    80.499306 
   98700    959.58536   -104.65733     0.868253   -103.78908    4315.0519    4.3173079    4.3173079    4.3173079    4315.0519   -10650.939    11758.785     11837.31    9955.2058     15943.57   -1206.9891    80.470939 
   98800    876.71397   -104.58046   0.79326923   -103.78719    1702.9521    4.3167183    4.3167183    4.3167183    1702.9521    14630.929   -21066.271    11544.198    4245.7158   -4877.0941    13198.797    80.437974 
   98900    763.98686   -104.47863   0.69127137   -103.78736    2427.4636    4.3195682    4.3195682    4.3195682    2427.4636    2556.1062   -2299.9406    7026.2252   -363.62927    12259.937   -1898.8418    80.597398 
   99000    951.44749   -104.65252   0.86088968   -103.79163    2357.1925    4.3160019    4.3160019    4.3160019    2357.1925    2367.2692   -6369.9425    11074.251     17955.15    3294.6855    7792.5222    80.397934 
   99100    1207.9742   -104.88661    1.0930004   -103.79361    692.83184    4.3172332    4.3172332    4.3172332    692.83184    6563.7836   -7937.6654    3452.3773   -5912.5096   -4728.6744   -3405.0623     80.46676 
   99200    652.13405   -104.38476   0.59006459    -103.7947   -4755.9805    4.3233309    4.3233309    4.3233309   -4755.9805   -8118.2365   -2995.4874   -3154.2177    2276.6268    12278.197   -1704.0478    80.808198 
   99300     746.4077   -104.46912   0.67536537   -103.79375   -4533.7556    4.3168456    4.3168456    4.3168456   -4533.7556    7698.1893   -673.91269   -20625.543    10890.882   -753.66811    5756.2408     80.44509 
   99400    1114.6322   -104.79854    1.0085427      -103.79    6441.6935    4.3209841    4.3209841    4.3209841    6441.6935   -7225.9423   -820.47303    27371.496   -8681.6353   -2422.8582     6394.939    80.676677 
   99500    927.55351   -104.63404   0.83926991   -103.79477    2171.6756    4.3204024    4.3204024    4.3204024    2171.6756   -1230.7787     -20012.3    27758.105    11015.492    11819.178    5849.0962    80.644098 
   99600    781.86854   -104.50148   0.70745109   -103.79402   -6229.9345    4.3179596    4.3179596    4.3179596   -6229.9345    15018.185   -18034.331   -15673.658   -2146.9268   -10803.263    14881.178    80.507388 
   99700    836.78693   -104.54883    0.7571424   -103.79169    -11077.54    4.3250524    4.3250524    4.3250524    -11077.54    1512.0214   -5203.1961   -29541.445    -648.5782    10955.877     -6657.26    80.904768 
   99800    912.71722   -104.61995   0.82584572    -103.7941    2506.3086    4.3131292    4.3131292    4.3131292    2506.3086    8287.5876   -8751.7543    7983.0924    11859.987    1419.6692     17699.45    80.237503 
   99900     1097.512   -104.78349   0.99305189   -103.79044   -2148.9482     4.322826     4.322826     4.322826   -2148.9482    3906.1162   -10930.302    577.34156   -1139.8481   -7824.3355   -6499.5011    80.779891 
  100000    797.88914   -104.51048   0.72194686   -103.78853   -4790.0838    4.3209234    4.3209234    4.3209234   -4790.0838    878.77501    -14488.06   -760.96666    7250.9369    1671.5355    2924.4318    80.673277 
Loop time of 23.0391 on 1 procs for 100000 steps with 8 atoms

Pair  time (%) = 7.30769 (31.7187)
Kspce time (%) = 5.61223 (24.3596)
Neigh time (%) = 0 (0)
Comm  time (%) = 1.14645 (4.97609)
Outpt time (%) = 0.0320683 (0.139191)
Other time (%) = 8.94066 (38.8065)

Nlocal:    8 ave 8 max 8 min
Histogram: 1 0 0 0 0 0 0 0 0 0
Nghost:    2189 ave 2189 max 2189 min
Histogram: 1 0 0 0 0 0 0 0 0 0
Neighs:    2344 ave 2344 max 2344 min
Histogram: 1 0 0 0 0 0 0 0 0 0

Total # of neighbors = 2344
Ave neighs/atom = 293
Neighbor list builds = 0
Dangerous builds = 0
seeds:992449
