    2    2    1    1
  0.9639684E+01  0.3009788E-09  0.3009788E-09  0.3009788E-09  0.5000000E-15
  1.000000000000000E-004
  CAR 
 automatically generated by pyflamestk   
      8     28     16
 
  0.8333333E-01  0.8333333E-01  0.8333333E-01  0.9259259E-02
    1      -13.685198   1.000000
    2        2.887589   1.000000
    3        3.310806   1.000000
    4        3.310806   1.000000
    5        8.238458   0.000000
    6       18.027181   0.000000
    7       19.140840   0.000000
    8       19.140843   0.000000
    9       23.949328   0.000000
   10       23.949328   0.000000
   11       24.047884   0.000000
   12       26.996835   0.000000
   13       27.890482   0.000000
   14       27.890483   0.000000
   15       39.684027   0.000000
   16       40.899564   0.000000
 
  0.2500000E+00  0.8333333E-01  0.8333333E-01  0.2777778E-01
    1      -13.347289   1.000000
    2        1.395165   1.000000
    3        2.904962   1.000000
    4        3.166971   1.000000
    5        9.812645   0.000000
    6       16.054435   0.000000
    7       19.348045   0.000000
    8       19.945704   0.000000
    9       22.045283   0.000000
   10       23.775162   0.000000
   11       25.968187   0.000000
   12       29.041768   0.000000
   13       30.014696   0.000000
   14       30.789027   0.000000
   15       37.138699   0.000000
   16       39.848855   0.000000
 
  0.4166667E+00  0.8333333E-01  0.8333333E-01  0.2777778E-01
    1      -12.763413   1.000000
    2       -0.423992   1.000000
    3        2.543301   1.000000
    4        2.853165   1.000000
    5       11.199113   0.000000
    6       15.323820   0.000000
    7       18.827652   0.000000
    8       19.766706   0.000000
    9       23.538918   0.000000
   10       24.643731   0.000000
   11       25.209470   0.000000
   12       32.323658   0.000000
   13       32.802181   0.000000
   14       33.220722   0.000000
   15       35.716337   0.000000
   16       38.995813   0.000000
 
 -0.4166667E+00  0.8333333E-01  0.8333333E-01  0.2777778E-01
    1      -12.536110   1.000000
    2       -1.006432   1.000000
    3        2.502796   1.000000
    4        2.684781   1.000000
    5       11.374202   0.000000
    6       15.527947   0.000000
    7       18.563925   0.000000
    8       19.517879   0.000000
    9       24.377514   0.000000
   10       25.087748   0.000000
   11       25.676210   0.000000
   12       31.999283   0.000000
   13       33.053704   0.000000
   14       33.485798   0.000000
   15       35.583215   0.000000
   16       36.500098   0.000000
 
 -0.2500000E+00  0.8333333E-01  0.8333333E-01  0.2777778E-01
    1      -12.951737   1.000000
    2        0.098098   1.000000
    3        2.795491   1.000000
    4        2.810853   1.000000
    5       10.900102   0.000000
    6       15.282018   0.000000
    7       19.151556   0.000000
    8       19.795692   0.000000
    9       22.500042   0.000000
   10       24.696168   0.000000
   11       25.433905   0.000000
   12       32.060790   0.000000
   13       32.256481   0.000000
   14       32.296634   0.000000
   15       37.110200   0.000000
   16       37.207540   0.000000
 
 -0.8333333E-01  0.8333333E-01  0.8333333E-01  0.2777778E-01
    1      -13.509007   1.000000
    2        2.074810   1.000000
    3        3.120766   1.000000
    4        3.149580   1.000000
    5        9.172127   0.000000
    6       16.659701   0.000000
    7       19.486701   0.000000
    8       19.497286   0.000000
    9       21.982431   0.000000
   10       24.495976   0.000000
   11       25.898546   0.000000
   12       27.948139   0.000000
   13       28.487696   0.000000
   14       29.628904   0.000000
   15       38.432485   0.000000
   16       40.193169   0.000000
 
  0.2500000E+00  0.2500000E+00  0.8333333E-01  0.2777778E-01
    1      -13.198704   1.000000
    2        1.111364   1.000000
    3        2.794614   1.000000
    4        2.814372   1.000000
    5       10.506115   0.000000
    6       15.169825   0.000000
    7       19.263254   0.000000
    8       20.085339   0.000000
    9       20.570045   0.000000
   10       25.512308   0.000000
   11       28.015214   0.000000
   12       29.721371   0.000000
   13       30.404363   0.000000
   14       30.843662   0.000000
   15       37.416600   0.000000
   16       38.860004   0.000000
 
  0.4166667E+00  0.2500000E+00  0.8333333E-01  0.5555556E-01
    1      -12.740433   1.000000
    2        0.076379   1.000000
    3        2.082665   1.000000
    4        2.560195   1.000000
    5       12.124885   0.000000
    6       14.383847   0.000000
    7       17.411252   0.000000
    8       20.419520   0.000000
    9       21.606837   0.000000
   10       26.149209   0.000000
   11       29.194112   0.000000
   12       31.008429   0.000000
   13       31.853833   0.000000
   14       34.816123   0.000000
   15       35.686064   0.000000
   16       38.666411   0.000000
 
 -0.4166667E+00  0.2500000E+00  0.8333333E-01  0.5555556E-01
    1      -12.411312   1.000000
    2       -0.499354   1.000000
    3        1.485437   1.000000
    4        2.410948   1.000000
    5       12.801311   0.000000
    6       15.178509   0.000000
    7       16.485664   0.000000
    8       19.992687   0.000000
    9       22.980168   0.000000
   10       25.664473   0.000000
   11       29.039237   0.000000
   12       31.484574   0.000000
   13       32.294074   0.000000
   14       34.359830   0.000000
   15       37.487521   0.000000
   16       38.910074   0.000000
 
 -0.2500000E+00  0.2500000E+00  0.8333333E-01  0.5555556E-01
    1      -12.591910   1.000000
    2       -0.157819   1.000000
    3        1.578713   1.000000
    4        2.628414   1.000000
    5       12.562169   0.000000
    6       14.864195   0.000000
    7       16.998287   0.000000
    8       20.220067   0.000000
    9       22.930528   0.000000
   10       24.634278   0.000000
   11       28.672611   0.000000
   12       31.760912   0.000000
   13       32.126550   0.000000
   14       34.457697   0.000000
   15       36.127154   0.000000
   16       40.992458   0.000000
 
 -0.8333333E-01  0.2500000E+00  0.8333333E-01  0.5555556E-01
    1      -13.065812   1.000000
    2        0.641380   1.000000
    3        2.523198   1.000000
    4        2.935378   1.000000
    5       10.887891   0.000000
    6       15.191042   0.000000
    7       18.777278   0.000000
    8       20.336979   0.000000
    9       21.309140   0.000000
   10       24.750349   0.000000
   11       27.113842   0.000000
   12       30.261820   0.000000
   13       31.675118   0.000000
   14       32.506691   0.000000
   15       35.950328   0.000000
   16       38.870215   0.000000
 
  0.4166667E+00  0.4166667E+00  0.8333333E-01  0.2777778E-01
    1      -12.510448   1.000000
    2       -0.246145   1.000000
    3        2.059189   1.000000
    4        2.232519   1.000000
    5       12.795797   0.000000
    6       13.168006   0.000000
    7       16.377380   0.000000
    8       21.330362   0.000000
    9       21.422700   0.000000
   10       28.348171   0.000000
   11       29.284728   0.000000
   12       32.381036   0.000000
   13       32.867649   0.000000
   14       36.722916   0.000000
   15       36.936272   0.000000
   16       39.336946   0.000000
 
 -0.4166667E+00  0.4166667E+00  0.8333333E-01  0.5555556E-01
    1      -12.301322   1.000000
    2       -0.274902   1.000000
    3        1.375860   1.000000
    4        2.007198   1.000000
    5       13.238939   0.000000
    6       13.995202   0.000000
    7       15.801325   0.000000
    8       20.366994   0.000000
    9       22.281352   0.000000
   10       28.565670   0.000000
   11       29.493543   0.000000
   12       30.828479   0.000000
   13       33.236693   0.000000
   14       37.714300   0.000000
   15       38.912720   0.000000
   16       41.442262   0.000000
 
 -0.2500000E+00  0.4166667E+00  0.8333333E-01  0.5555556E-01
    1      -12.332808   1.000000
    2       -0.009774   1.000000
    3        0.734035   1.000000
    4        2.279057   1.000000
    5       13.573037   0.000000
    6       15.150439   0.000000
    7       15.632677   0.000000
    8       19.928071   0.000000
    9       22.788546   0.000000
   10       25.706598   0.000000
   11       30.512419   0.000000
   12       30.987356   0.000000
   13       31.870117   0.000000
   14       36.266166   0.000000
   15       38.111080   0.000000
   16       40.684995   0.000000
 
 -0.8333333E-01  0.4166667E+00  0.8333333E-01  0.5555556E-01
    1      -12.564185   1.000000
    2       -0.652346   1.000000
    3        2.119966   1.000000
    4        2.645569   1.000000
    5       11.887152   0.000000
    6       15.273371   0.000000
    7       17.712117   0.000000
    8       19.840332   0.000000
    9       23.516613   0.000000
   10       25.216236   0.000000
   11       26.755383   0.000000
   12       32.252507   0.000000
   13       32.782579   0.000000
   14       34.061223   0.000000
   15       34.926964   0.000000
   16       39.014169   0.000000
 
 -0.4166667E+00 -0.4166667E+00  0.8333333E-01  0.2777778E-01
    1      -12.322513   1.000000
    2       -0.504316   1.000000
    3        1.867513   1.000000
    4        2.090671   1.000000
    5       12.665934   0.000000
    6       13.202329   0.000000
    7       16.062020   0.000000
    8       21.637647   0.000000
    9       21.683616   0.000000
   10       28.469492   0.000000
   11       29.687847   0.000000
   12       32.484609   0.000000
   13       33.196250   0.000000
   14       38.261181   0.000000
   15       38.848572   0.000000
   16       39.988861   0.000000
 
 -0.2500000E+00 -0.4166667E+00  0.8333333E-01  0.5555556E-01
    1      -12.460751   1.000000
    2       -0.208920   1.000000
    3        1.664290   1.000000
    4        2.209055   1.000000
    5       13.125725   0.000000
    6       13.889602   0.000000
    7       16.224139   0.000000
    8       20.475398   0.000000
    9       22.019716   0.000000
   10       27.437767   0.000000
   11       30.162540   0.000000
   12       31.259633   0.000000
   13       32.400121   0.000000
   14       35.969688   0.000000
   15       36.451852   0.000000
   16       41.254827   0.000000
 
 -0.2500000E+00 -0.2500000E+00  0.8333333E-01  0.2777778E-01
    1      -12.832861   1.000000
    2        0.296857   1.000000
    3        2.394314   1.000000
    4        2.490637   1.000000
    5       11.847525   0.000000
    6       13.960340   0.000000
    7       17.559295   0.000000
    8       20.745918   0.000000
    9       20.979913   0.000000
   10       26.851494   0.000000
   11       30.165731   0.000000
   12       30.509950   0.000000
   13       31.499842   0.000000
   14       34.037772   0.000000
   15       37.363719   0.000000
   16       37.372514   0.000000
 
  0.2500000E+00  0.2500000E+00  0.2500000E+00  0.9259259E-02
    1      -13.201539   1.000000
    2        0.753811   1.000000
    3        3.032203   1.000000
    4        3.032203   1.000000
    5       10.157329   0.000000
    6       15.730892   0.000000
    7       19.748662   0.000000
    8       19.748664   0.000000
    9       23.145557   0.000000
   10       23.145560   0.000000
   11       24.833102   0.000000
   12       30.721709   0.000000
   13       31.255203   0.000000
   14       31.255205   0.000000
   15       36.915384   0.000000
   16       39.631506   0.000000
 
  0.4166667E+00  0.2500000E+00  0.2500000E+00  0.2777778E-01
    1      -12.840725   1.000000
    2        0.130174   1.000000
    3        2.068823   1.000000
    4        2.899066   1.000000
    5       11.604402   0.000000
    6       15.086993   0.000000
    7       18.048017   0.000000
    8       20.467550   0.000000
    9       22.147245   0.000000
   10       24.396317   0.000000
   11       27.255553   0.000000
   12       31.089845   0.000000
   13       32.479774   0.000000
   14       33.887729   0.000000
   15       35.384278   0.000000
   16       39.378280   0.000000
 
 -0.4166667E+00  0.2500000E+00  0.2500000E+00  0.2777778E-01
    1      -12.441646   1.000000
    2       -0.200235   1.000000
    3        1.070769   1.000000
    4        2.567028   1.000000
    5       13.037957   0.000000
    6       15.135916   0.000000
    7       16.297461   0.000000
    8       20.420641   0.000000
    9       22.978384   0.000000
   10       24.663081   0.000000
   11       28.971696   0.000000
   12       31.683784   0.000000
   13       32.226086   0.000000
   14       35.139277   0.000000
   15       36.792578   0.000000
   16       41.279348   0.000000
 
 -0.2500000E+00  0.2500000E+00  0.2500000E+00  0.2777778E-01
    1      -12.436172   1.000000
    2       -0.347876   1.000000
    3        1.506654   1.000000
    4        2.374907   1.000000
    5       12.834072   0.000000
    6       14.657839   0.000000
    7       16.330097   0.000000
    8       20.610970   0.000000
    9       21.742166   0.000000
   10       27.433524   0.000000
   11       29.568641   0.000000
   12       30.801256   0.000000
   13       32.268312   0.000000
   14       34.852348   0.000000
   15       36.815775   0.000000
   16       40.968755   0.000000
 
  0.4166667E+00  0.4166667E+00  0.2500000E+00  0.2777778E-01
    1      -12.670303   1.000000
    2       -0.301720   1.000000
    3        2.222277   1.000000
    4        2.570994   1.000000
    5       11.907423   0.000000
    6       14.863558   0.000000
    7       17.639781   0.000000
    8       20.128245   0.000000
    9       22.188234   0.000000
   10       26.249043   0.000000
   11       27.426594   0.000000
   12       31.452553   0.000000
   13       33.547558   0.000000
   14       33.560270   0.000000
   15       35.007987   0.000000
   16       39.427625   0.000000
 
 -0.4166667E+00  0.4166667E+00  0.2500000E+00  0.5555556E-01
    1      -12.389661   1.000000
    2       -0.127633   1.000000
    3        1.145663   1.000000
    4        2.205078   1.000000
    5       13.592474   0.000000
    6       14.677828   0.000000
    7       15.966834   0.000000
    8       19.695571   0.000000
    9       23.368409   0.000000
   10       25.218227   0.000000
   11       30.678126   0.000000
   12       31.198065   0.000000
   13       31.984183   0.000000
   14       35.814001   0.000000
   15       36.927314   0.000000
   16       41.787540   0.000000
 
 -0.2500000E+00  0.4166667E+00  0.2500000E+00  0.5555556E-01
    1      -12.279962   1.000000
    2        0.133762   1.000000
    3        0.796982   1.000000
    4        1.846735   1.000000
    5       14.162396   0.000000
    6       14.868393   0.000000
    7       15.329531   0.000000
    8       19.024114   0.000000
    9       23.648548   0.000000
   10       25.928649   0.000000
   11       29.565707   0.000000
   12       31.583168   0.000000
   13       33.526412   0.000000
   14       36.783596   0.000000
   15       39.422189   0.000000
   16       40.898803   0.000000
 
 -0.4166667E+00 -0.4166667E+00  0.2500000E+00  0.2777778E-01
    1      -12.306564   1.000000
    2       -0.107469   1.000000
    3        0.863770   1.000000
    4        2.267064   1.000000
    5       13.252563   0.000000
    6       14.745888   0.000000
    7       15.669522   0.000000
    8       20.989106   0.000000
    9       21.289265   0.000000
   10       28.038800   0.000000
   11       30.033376   0.000000
   12       31.168432   0.000000
   13       31.243785   0.000000
   14       37.097329   0.000000
   15       39.643016   0.000000
   16       39.963589   0.000000
 
  0.4166667E+00  0.4166667E+00  0.4166667E+00  0.9259259E-02
    1      -12.645044   1.000000
    2       -0.887445   1.000000
    3        2.774745   1.000000
    4        2.774745   1.000000
    5       11.009820   0.000000
    6       15.504396   0.000000
    7       19.429851   0.000000
    8       19.429852   0.000000
    9       23.909288   0.000000
   10       24.949252   0.000000
   11       24.949255   0.000000
   12       31.628395   0.000000
   13       33.544189   0.000000
   14       33.544193   0.000000
   15       36.047458   0.000000
   16       36.047461   0.000000
 
 -0.4166667E+00  0.4166667E+00  0.4166667E+00  0.2777778E-01
    1      -12.468563   1.000000
    2       -0.732919   1.000000
    3        1.835059   1.000000
    4        2.608824   1.000000
    5       12.189181   0.000000
    6       15.388378   0.000000
    7       17.219889   0.000000
    8       19.941858   0.000000
    9       23.623604   0.000000
   10       25.353653   0.000000
   11       27.036346   0.000000
   12       32.466388   0.000000
   13       32.535979   0.000000
   14       33.695246   0.000000
   15       36.286726   0.000000
   16       38.099534   0.000000
