# ['Ni']

28 atoms
1 atom types

    0.0000     2.1404 xlo xhi
    0.0000     3.7073 ylo yhi
    0.0000    24.4672 zlo zhi

    0.0000     0.0000     0.0000 xy xz yz

Atoms

1 1     0.0000     0.0000     0.0000
2 1     1.0702     1.8537     0.0000
3 1     1.0702     0.6179     1.7477
4 1     0.0000     2.4716     1.7477
5 1     0.0000     1.2358     3.4953
6 1     1.0702     3.0894     3.4953
7 1     0.0000     0.0000     5.2430
8 1     1.0702     1.8537     5.2430
9 1     1.0702     0.6179     6.9906
10 1     0.0000     2.4716     6.9906
11 1     0.0000     1.2358     8.7383
12 1     1.0702     3.0894     8.7383
13 1     0.0000     0.0000    10.4859
14 1     1.0702     1.8537    10.4859
15 1     0.0000     1.2358    12.2336
16 1     1.0702     3.0894    12.2336
17 1     0.0000     0.0000    13.9812
18 1     1.0702     1.8537    13.9812
19 1     1.0702     0.6179    15.7289
20 1     0.0000     2.4716    15.7289
21 1     0.0000     1.2358    17.4766
22 1     1.0702     3.0894    17.4766
23 1     0.0000     0.0000    19.2242
24 1     1.0702     1.8537    19.2242
25 1     1.0702     0.6179    20.9719
26 1     0.0000     2.4716    20.9719
27 1     0.0000     1.2358    22.7195
28 1     1.0702     3.0894    22.7195
