   2   2   0   0
  0.9563318E+01  0.3001819E-09  0.3001820E-09  0.3001819E-09  0.5000000E-15
  1.000000000000000E-004
  CAR 
 automatically generated by pyflamestk   
     44.12968671    -16.66044218  301      3.62826334      1.00000000
    -16.660  0.0000E+00  0.0000E+00
    -16.458  0.0000E+00  0.0000E+00
    -16.255  0.0000E+00  0.0000E+00
    -16.053  0.0000E+00  0.0000E+00
    -15.850  0.0000E+00  0.0000E+00
    -15.647  0.0000E+00  0.0000E+00
    -15.445  0.0000E+00  0.0000E+00
    -15.242  0.0000E+00  0.0000E+00
    -15.039  0.0000E+00  0.0000E+00
    -14.837  0.0000E+00  0.0000E+00
    -14.634  0.0000E+00  0.0000E+00
    -14.431  0.0000E+00  0.0000E+00
    -14.229  0.0000E+00  0.0000E+00
    -14.026  0.4088E-04  0.8284E-05
    -13.824  0.3027E+00  0.6134E-01
    -13.621  0.1878E-01  0.6514E-01
    -13.418  0.9121E+00  0.2500E+00
    -13.216  0.8444E+00  0.4211E+00
    -13.013  0.1059E+01  0.6357E+00
    -12.810  0.2839E+01  0.1211E+01
    -12.608  0.3533E+01  0.1927E+01
    -12.405  0.3606E+00  0.2000E+01
    -12.202  0.0000E+00  0.2000E+01
    -12.000  0.0000E+00  0.2000E+01
    -11.797  0.0000E+00  0.2000E+01
    -11.595  0.0000E+00  0.2000E+01
    -11.392  0.0000E+00  0.2000E+01
    -11.189  0.0000E+00  0.2000E+01
    -10.987  0.0000E+00  0.2000E+01
    -10.784  0.0000E+00  0.2000E+01
    -10.581  0.0000E+00  0.2000E+01
    -10.379  0.0000E+00  0.2000E+01
    -10.176  0.0000E+00  0.2000E+01
     -9.974  0.0000E+00  0.2000E+01
     -9.771  0.0000E+00  0.2000E+01
     -9.568  0.0000E+00  0.2000E+01
     -9.366  0.0000E+00  0.2000E+01
     -9.163  0.0000E+00  0.2000E+01
     -8.960  0.0000E+00  0.2000E+01
     -8.758  0.0000E+00  0.2000E+01
     -8.555  0.0000E+00  0.2000E+01
     -8.352  0.0000E+00  0.2000E+01
     -8.150  0.0000E+00  0.2000E+01
     -7.947  0.0000E+00  0.2000E+01
     -7.745  0.0000E+00  0.2000E+01
     -7.542  0.0000E+00  0.2000E+01
     -7.339  0.0000E+00  0.2000E+01
     -7.137  0.0000E+00  0.2000E+01
     -6.934  0.0000E+00  0.2000E+01
     -6.731  0.0000E+00  0.2000E+01
     -6.529  0.0000E+00  0.2000E+01
     -6.326  0.0000E+00  0.2000E+01
     -6.123  0.0000E+00  0.2000E+01
     -5.921  0.0000E+00  0.2000E+01
     -5.718  0.0000E+00  0.2000E+01
     -5.516  0.0000E+00  0.2000E+01
     -5.313  0.0000E+00  0.2000E+01
     -5.110  0.0000E+00  0.2000E+01
     -4.908  0.0000E+00  0.2000E+01
     -4.705  0.0000E+00  0.2000E+01
     -4.502  0.0000E+00  0.2000E+01
     -4.300  0.0000E+00  0.2000E+01
     -4.097  0.0000E+00  0.2000E+01
     -3.895  0.0000E+00  0.2000E+01
     -3.692  0.0000E+00  0.2000E+01
     -3.489  0.0000E+00  0.2000E+01
     -3.287  0.0000E+00  0.2000E+01
     -3.084  0.0000E+00  0.2000E+01
     -2.881  0.0000E+00  0.2000E+01
     -2.679  0.0000E+00  0.2000E+01
     -2.476  0.0000E+00  0.2000E+01
     -2.273  0.0000E+00  0.2000E+01
     -2.071  0.0000E+00  0.2000E+01
     -1.868  0.0000E+00  0.2000E+01
     -1.666  0.0000E+00  0.2000E+01
     -1.463  0.0000E+00  0.2000E+01
     -1.260  0.0000E+00  0.2000E+01
     -1.058  0.0000E+00  0.2000E+01
     -0.855  0.3279E-02  0.2001E+01
     -0.652  0.9210E+00  0.2187E+01
     -0.450  0.3001E+00  0.2248E+01
     -0.247  0.9795E+00  0.2447E+01
     -0.044  0.2733E+01  0.3000E+01
      0.158  0.2291E+01  0.3465E+01
      0.361  0.1236E+01  0.3715E+01
      0.563  0.1723E+00  0.3750E+01
      0.766  0.1438E-14  0.3750E+01
      0.969  0.2319E-01  0.3755E+01
      1.171  0.2461E+01  0.4253E+01
      1.374  0.1217E+01  0.4500E+01
      1.577  0.1233E-03  0.4500E+01
      1.779  0.7925E+00  0.4661E+01
      1.982  0.1983E+01  0.5063E+01
      2.184  0.1662E+01  0.5399E+01
      2.387  0.2621E+01  0.5930E+01
      2.590  0.2786E+01  0.6495E+01
      2.792  0.3158E+01  0.7135E+01
      2.995  0.1738E+01  0.7487E+01
      3.198  0.1915E+01  0.7875E+01
      3.400  0.6119E+00  0.7999E+01
      3.603  0.4791E-02  0.8000E+01
      3.806  0.0000E+00  0.8000E+01
      4.008  0.0000E+00  0.8000E+01
      4.211  0.0000E+00  0.8000E+01
      4.413  0.0000E+00  0.8000E+01
      4.616  0.0000E+00  0.8000E+01
      4.819  0.0000E+00  0.8000E+01
      5.021  0.0000E+00  0.8000E+01
      5.224  0.0000E+00  0.8000E+01
      5.427  0.0000E+00  0.8000E+01
      5.629  0.0000E+00  0.8000E+01
      5.832  0.0000E+00  0.8000E+01
      6.035  0.0000E+00  0.8000E+01
      6.237  0.0000E+00  0.8000E+01
      6.440  0.0000E+00  0.8000E+01
      6.642  0.0000E+00  0.8000E+01
      6.845  0.0000E+00  0.8000E+01
      7.048  0.0000E+00  0.8000E+01
      7.250  0.0000E+00  0.8000E+01
      7.453  0.0000E+00  0.8000E+01
      7.656  0.0000E+00  0.8000E+01
      7.858  0.0000E+00  0.8000E+01
      8.061  0.0000E+00  0.8000E+01
      8.264  0.0000E+00  0.8000E+01
      8.466  0.1472E-13  0.8000E+01
      8.669  0.1330E-01  0.8003E+01
      8.871  0.2951E+00  0.8062E+01
      9.074  0.9141E-05  0.8062E+01
      9.277  0.0000E+00  0.8062E+01
      9.479  0.0000E+00  0.8062E+01
      9.682  0.0000E+00  0.8062E+01
      9.885  0.0000E+00  0.8062E+01
     10.087  0.0000E+00  0.8062E+01
     10.290  0.1240E-02  0.8063E+01
     10.492  0.9211E+00  0.8249E+01
     10.695  0.2939E-02  0.8250E+01
     10.898  0.1238E-02  0.8250E+01
     11.100  0.3072E+00  0.8312E+01
     11.303  0.9155E+00  0.8498E+01
     11.506  0.9851E-02  0.8500E+01
     11.708  0.3911E-02  0.8501E+01
     11.911  0.9205E+00  0.8687E+01
     12.114  0.9016E-03  0.8688E+01
     12.316  0.4708E-01  0.8697E+01
     12.519  0.8782E+00  0.8875E+01
     12.721  0.7002E+00  0.9017E+01
     12.924  0.1343E+01  0.9289E+01
     13.127  0.7470E+00  0.9440E+01
     13.329  0.9108E+00  0.9625E+01
     13.532  0.3573E-03  0.9625E+01
     13.735  0.9125E+00  0.9810E+01
     13.937  0.1474E+01  0.1011E+02
     14.140  0.1313E+01  0.1037E+02
     14.343  0.8470E-03  0.1038E+02
     14.545  0.0000E+00  0.1038E+02
     14.748  0.9290E-12  0.1038E+02
     14.950  0.1975E+00  0.1042E+02
     15.153  0.3504E+01  0.1112E+02
     15.356  0.3368E-01  0.1113E+02
     15.558  0.1729E+01  0.1148E+02
     15.761  0.1694E+01  0.1183E+02
     15.964  0.2404E+01  0.1231E+02
     16.166  0.4061E-04  0.1231E+02
     16.369  0.1616E+01  0.1264E+02
     16.571  0.2343E+00  0.1269E+02
     16.774  0.0000E+00  0.1269E+02
     16.977  0.2296E-04  0.1269E+02
     17.179  0.1731E+01  0.1304E+02
     17.382  0.7880E+00  0.1320E+02
     17.585  0.5659E+00  0.1331E+02
     17.787  0.3395E-05  0.1331E+02
     17.990  0.3814E-02  0.1331E+02
     18.193  0.9206E+00  0.1350E+02
     18.395  0.9279E-03  0.1350E+02
     18.598  0.7545E-09  0.1350E+02
     18.800  0.3537E+00  0.1357E+02
     19.003  0.5716E+00  0.1369E+02
     19.206  0.2581E-07  0.1369E+02
     19.408  0.8638E-01  0.1371E+02
     19.611  0.1184E+01  0.1394E+02
     19.814  0.2722E+01  0.1450E+02
     20.016  0.9670E+00  0.1469E+02
     20.219  0.9014E+00  0.1488E+02
     20.422  0.2004E+01  0.1528E+02
     20.624  0.1031E+01  0.1549E+02
     20.827  0.6658E+00  0.1562E+02
     21.029  0.5489E+00  0.1574E+02
     21.232  0.5902E+00  0.1586E+02
     21.435  0.7532E+00  0.1601E+02
     21.637  0.8842E+00  0.1619E+02
     21.840  0.1744E+01  0.1654E+02
     22.043  0.1056E+00  0.1656E+02
     22.245  0.1403E+00  0.1659E+02
     22.448  0.7850E+00  0.1675E+02
     22.651  0.4553E+00  0.1684E+02
     22.853  0.7265E+00  0.1699E+02
     23.056  0.1594E+01  0.1731E+02
     23.258  0.1467E+01  0.1761E+02
     23.461  0.3833E+00  0.1769E+02
     23.664  0.8568E-01  0.1770E+02
     23.866  0.6346E+00  0.1783E+02
     24.069  0.8219E+00  0.1800E+02
     24.272  0.1067E+00  0.1802E+02
     24.474  0.2374E+00  0.1807E+02
     24.677  0.1302E+01  0.1833E+02
     24.879  0.2051E+00  0.1838E+02
     25.082  0.7021E+00  0.1852E+02
     25.285  0.5317E+00  0.1862E+02
     25.487  0.2440E-01  0.1863E+02
     25.690  0.1966E+01  0.1903E+02
     25.893  0.7857E+00  0.1919E+02
     26.095  0.5294E-03  0.1919E+02
     26.298  0.1815E+01  0.1956E+02
     26.501  0.3471E-01  0.1956E+02
     26.703  0.2582E+01  0.2009E+02
     26.906  0.1940E+00  0.2013E+02
     27.108  0.5859E+00  0.2024E+02
     27.311  0.1097E+01  0.2047E+02
     27.514  0.3923E+00  0.2055E+02
     27.716  0.8440E-01  0.2056E+02
     27.919  0.0000E+00  0.2056E+02
     28.122  0.0000E+00  0.2056E+02
     28.324  0.0000E+00  0.2056E+02
     28.527  0.0000E+00  0.2056E+02
     28.730  0.2113E-09  0.2056E+02
     28.932  0.2040E+00  0.2060E+02
     29.135  0.2910E+01  0.2119E+02
     29.337  0.9627E+00  0.2139E+02
     29.540  0.2697E+00  0.2144E+02
     29.743  0.8968E+00  0.2162E+02
     29.945  0.5224E-04  0.2163E+02
     30.148  0.2077E+00  0.2167E+02
     30.351  0.2724E+01  0.2222E+02
     30.553  0.1685E+01  0.2256E+02
     30.756  0.9290E+00  0.2275E+02
     30.958  0.5672E-02  0.2275E+02
     31.161  0.3363E-04  0.2275E+02
     31.364  0.1685E+01  0.2309E+02
     31.566  0.1653E+00  0.2313E+02
     31.769  0.1785E+01  0.2349E+02
     31.972  0.2163E+01  0.2392E+02
     32.174  0.1564E+01  0.2424E+02
     32.377  0.9025E+00  0.2442E+02
     32.580  0.3769E+01  0.2519E+02
     32.782  0.1226E+01  0.2544E+02
     32.985  0.2758E+01  0.2600E+02
     33.187  0.2997E+00  0.2606E+02
     33.390  0.7902E+00  0.2622E+02
     33.593  0.2214E+01  0.2667E+02
     33.795  0.1093E+00  0.2669E+02
     33.998  0.0000E+00  0.2669E+02
     34.201  0.0000E+00  0.2669E+02
     34.403  0.0000E+00  0.2669E+02
     34.606  0.0000E+00  0.2669E+02
     34.809  0.2213E-11  0.2669E+02
     35.011  0.1108E+00  0.2671E+02
     35.214  0.2649E+01  0.2725E+02
     35.416  0.1568E-01  0.2725E+02
     35.619  0.3648E+00  0.2732E+02
     35.822  0.3048E+01  0.2794E+02
     36.024  0.3010E+00  0.2800E+02
     36.227  0.9124E+00  0.2819E+02
     36.430  0.3512E-03  0.2819E+02
     36.632  0.1819E+01  0.2856E+02
     36.835  0.9565E+00  0.2875E+02
     37.038  0.1725E+00  0.2878E+02
     37.240  0.4445E+00  0.2887E+02
     37.443  0.3469E+00  0.2895E+02
     37.645  0.1504E+01  0.2925E+02
     37.848  0.9184E+00  0.2944E+02
     38.051  0.7587E+00  0.2959E+02
     38.253  0.1098E+01  0.2981E+02
     38.456  0.8415E+00  0.2998E+02
     38.659  0.8384E-01  0.3000E+02
     38.861  0.4982E-14  0.3000E+02
     39.064  0.4409E-01  0.3001E+02
     39.266  0.3127E+01  0.3064E+02
     39.469  0.8389E+00  0.3081E+02
     39.672  0.9464E-07  0.3081E+02
     39.874  0.0000E+00  0.3081E+02
     40.077  0.5137E-15  0.3081E+02
     40.280  0.1039E-01  0.3081E+02
     40.482  0.9147E+00  0.3100E+02
     40.685  0.2604E-03  0.3100E+02
     40.888  0.0000E+00  0.3100E+02
     41.090  0.2573E-03  0.3100E+02
     41.293  0.2036E+01  0.3141E+02
     41.495  0.2899E+01  0.3200E+02
     41.698  0.2482E-03  0.3200E+02
     41.901  0.0000E+00  0.3200E+02
     42.103  0.0000E+00  0.3200E+02
     42.306  0.0000E+00  0.3200E+02
     42.509  0.0000E+00  0.3200E+02
     42.711  0.0000E+00  0.3200E+02
     42.914  0.0000E+00  0.3200E+02
     43.117  0.0000E+00  0.3200E+02
     43.319  0.0000E+00  0.3200E+02
     43.522  0.0000E+00  0.3200E+02
     43.724  0.0000E+00  0.3200E+02
     43.927  0.0000E+00  0.3200E+02
     44.130  0.0000E+00  0.3200E+02
