    2    2    1    1
  0.9563318E+01  0.3001819E-09  0.3001820E-09  0.3001819E-09  0.5000000E-15
  1.000000000000000E-004
  CAR 
 automatically generated by pyflamestk   
      8     10     16
 
  0.1250000E+00  0.1250000E+00  0.1250000E+00  0.3125000E-01
    1      -13.897255   1.000000
    2        2.492573   1.000000
    3        3.314751   1.000000
    4        3.314753   1.000000
    5        8.729436   0.000000
    6       17.434636   0.000000
    7       19.446558   0.000000
    8       19.446561   0.000000
    9       23.702046   0.000000
   10       23.702050   0.000000
   11       25.036858   0.000000
   12       27.492439   0.000000
   13       28.947643   0.000000
   14       28.947646   0.000000
   15       39.287403   0.000000
   16       41.201450   0.000000
 
  0.3750000E+00  0.1250000E+00  0.1250000E+00  0.9375000E-01
    1      -13.263592   1.000000
    2        0.329262   1.000000
    3        2.499953   1.000000
    4        3.062386   1.000000
    5       11.221602   0.000000
    6       15.419199   0.000000
    7       18.811056   0.000000
    8       20.452494   0.000000
    9       22.281639   0.000000
   10       24.536730   0.000000
   11       26.643047   0.000000
   12       31.325369   0.000000
   13       32.691226   0.000000
   14       33.427845   0.000000
   15       35.780922   0.000000
   16       39.137060   0.000000
 
 -0.3750000E+00  0.1250000E+00  0.1250000E+00  0.9375000E-01
    1      -12.842612   1.000000
    2       -0.759805   1.000000
    3        2.371736   1.000000
    4        2.771937   1.000000
    5       11.801390   0.000000
    6       15.793808   0.000000
    7       18.083338   0.000000
    8       19.905345   0.000000
    9       23.909354   0.000000
   10       26.211366   0.000000
   11       26.231570   0.000000
   12       32.471327   0.000000
   13       33.205846   0.000000
   14       33.469141   0.000000
   15       36.102282   0.000000
   16       37.761044   0.000000
 
 -0.1250000E+00  0.1250000E+00  0.1250000E+00  0.9375000E-01
    1      -13.543352   1.000000
    2        1.245062   1.000000
    3        2.988116   1.000000
    4        3.006849   1.000000
    5       10.395997   0.000000
    6       15.623999   0.000000
    7       19.592936   0.000000
    8       20.084333   0.000000
    9       21.258075   0.000000
   10       25.085768   0.000000
   11       27.096421   0.000000
   12       30.212782   0.000000
   13       30.471908   0.000000
   14       31.301795   0.000000
   15       37.482004   0.000000
   16       39.281553   0.000000
 
  0.3750000E+00  0.3750000E+00  0.1250000E+00  0.9375000E-01
    1      -13.035803   1.000000
    2        0.159648   1.000000
    3        2.324657   1.000000
    4        2.550586   1.000000
    5       12.374039   0.000000
    6       14.029709   0.000000
    7       17.363594   0.000000
    8       21.021101   0.000000
    9       21.494656   0.000000
   10       27.278963   0.000000
   11       30.384552   0.000000
   12       30.667309   0.000000
   13       32.562851   0.000000
   14       35.052904   0.000000
   15       36.709014   0.000000
   16       38.113857   0.000000
 
 -0.3750000E+00  0.3750000E+00  0.1250000E+00  0.1875000E+00
    1      -12.640110   1.000000
    2        0.058940   1.000000
    3        1.047906   1.000000
    4        2.139776   1.000000
    5       13.909034   0.000000
    6       15.019064   0.000000
    7       15.796656   0.000000
    8       19.733534   0.000000
    9       23.229545   0.000000
   10       26.654119   0.000000
   11       30.194181   0.000000
   12       31.705144   0.000000
   13       32.901155   0.000000
   14       36.562581   0.000000
   15       39.141300   0.000000
   16       41.366499   0.000000
 
 -0.1250000E+00  0.3750000E+00  0.1250000E+00  0.1875000E+00
    1      -12.886070   1.000000
    2       -0.159205   1.000000
    3        1.794831   1.000000
    4        2.647187   1.000000
    5       12.732408   0.000000
    6       14.999956   0.000000
    7       17.125837   0.000000
    8       20.342228   0.000000
    9       22.891562   0.000000
   10       25.565895   0.000000
   11       29.084887   0.000000
   12       31.957781   0.000000
   13       32.488082   0.000000
   14       35.129373   0.000000
   15       35.775068   0.000000
   16       41.254691   0.000000
 
 -0.3750000E+00 -0.3750000E+00  0.1250000E+00  0.9375000E-01
    1      -12.674978   1.000000
    2       -0.314628   1.000000
    3        1.809314   1.000000
    4        2.288797   1.000000
    5       12.952812   0.000000
    6       13.656619   0.000000
    7       16.305602   0.000000
    8       21.752166   0.000000
    9       21.796166   0.000000
   10       29.097069   0.000000
   11       29.606182   0.000000
   12       32.162620   0.000000
   13       32.892183   0.000000
   14       38.023847   0.000000
   15       38.408670   0.000000
   16       41.335708   0.000000
 
  0.3750000E+00  0.3750000E+00  0.3750000E+00  0.3125000E-01
    1      -13.070837   1.000000
    2       -0.515822   1.000000
    3        2.941917   1.000000
    4        2.941917   1.000000
    5       10.991471   0.000000
    6       15.738237   0.000000
    7       19.686781   0.000000
    8       19.686783   0.000000
    9       24.285600   0.000000
   10       24.661521   0.000000
   11       24.661524   0.000000
   12       32.099553   0.000000
   13       33.559929   0.000000
   14       33.559931   0.000000
   15       37.058176   0.000000
   16       37.058182   0.000000
 
 -0.3750000E+00  0.3750000E+00  0.3750000E+00  0.9375000E-01
    1      -12.720282   1.000000
    2       -0.193149   1.000000
    3        1.156118   1.000000
    4        2.604214   1.000000
    5       13.202927   0.000000
    6       15.518020   0.000000
    7       16.341127   0.000000
    8       20.644729   0.000000
    9       22.651217   0.000000
   10       25.726454   0.000000
   11       29.314760   0.000000
   12       31.909344   0.000000
   13       32.368565   0.000000
   14       35.628557   0.000000
   15       37.467598   0.000000
   16       40.360342   0.000000
