 running on   16 total cores
 distrk:  each k-point on   16 cores,    1 groups
 distr:  one band on    1 cores,   16 groups
 using from now: INCAR     
 vasp.5.4.1 24Jun15 (build Jun 05 2017 10:38:15) complex                        
  
 POSCAR found type information on POSCAR  O  Mg
 POSCAR found :  2 types and       2 ions
 scaLAPACK will be used

 ----------------------------------------------------------------------------- 
|                                                                             |
|           W    W    AA    RRRRR   N    N  II  N    N   GGGG   !!!           |
|           W    W   A  A   R    R  NN   N  II  NN   N  G    G  !!!           |
|           W    W  A    A  R    R  N N  N  II  N N  N  G       !!!           |
|           W WW W  AAAAAA  RRRRR   N  N N  II  N  N N  G  GGG   !            |
|           WW  WW  A    A  R   R   N   NN  II  N   NN  G    G                |
|           W    W  A    A  R    R  N    N  II  N    N   GGGG   !!!           |
|                                                                             |
|      For optimal performance we recommend to set                            |
|        NCORE= 4 - approx SQRT( number of cores)                             |
|      NCORE specifies how many cores store one orbital (NPAR=cpu/NCORE).     |
|      This setting can  greatly improve the performance of VASP for DFT.     |
|      The default, NPAR=number of cores might be grossly inefficient         |
|      on modern multi-core architectures or massively parallel machines.     |
|      Do your own testing !!!!                                               |
|      Unfortunately you need to use the default for GW and RPA calculations. |
|      (for HF NCORE is supported but not extensively tested yet)             |
|                                                                             |
 ----------------------------------------------------------------------------- 

 LDA part: xc-table for Pade appr. of Perdew
 POSCAR, INCAR and KPOINTS ok, starting setup
 FFT: planning ...
 WAVECAR not read
 initial charge from wavefunction
 entering main loop
       N       E                     dE             d eps       ncg     rms          rms(c)
DAV:   1    -0.276438349620E+03   -0.27644E+03   -0.88663E+03   480   0.452E+02
DAV:   2    -0.290792155043E+03   -0.14354E+02   -0.14354E+02   352   0.818E+01
DAV:   3    -0.290871769715E+03   -0.79615E-01   -0.79615E-01   592   0.533E+00
DAV:   4    -0.290871804147E+03   -0.34431E-04   -0.34431E-04   352   0.705E-02
DAV:   5    -0.290871804199E+03   -0.52417E-07   -0.52417E-07   608   0.216E-03    0.866E+01
DAV:   6    -0.668270243135E+02    0.22404E+03   -0.22319E+02   320   0.797E+01    0.377E+01
DAV:   7    -0.238544415585E+02    0.42973E+02   -0.44232E+02   464   0.727E+01    0.268E+01
DAV:   8    -0.220350319375E+02    0.18194E+01   -0.22657E+02   320   0.461E+01    0.171E+01
DAV:   9    -0.117092294101E+02    0.10326E+02   -0.34069E+01   320   0.185E+01    0.304E+00
DAV:  10    -0.116493154635E+02    0.59914E-01   -0.28223E+00   416   0.655E+00    0.166E+00
DAV:  11    -0.116195786547E+02    0.29737E-01   -0.70936E-01   352   0.277E+00    0.712E-01
DAV:  12    -0.116076496813E+02    0.11929E-01   -0.64234E-02   384   0.847E-01    0.109E-01
DAV:  13    -0.116076222248E+02    0.27457E-04   -0.44993E-03   336   0.290E-01    0.633E-02
DAV:  14    -0.116075644496E+02    0.57775E-04   -0.40350E-04   400   0.700E-02    0.304E-03
DAV:  15    -0.116075646946E+02   -0.24495E-06   -0.29395E-06   368   0.120E-02
   1 F= -.11607565E+02 E0= -.11607565E+02  d E =-.148483E-19
