# ['Ni']

107 atoms
1 atom types

    0.0000     9.9796 xlo xhi
    0.0000     9.9796 ylo yhi
    0.0000     9.9796 zlo zhi

    0.0000    -0.0000    -0.0000 xy xz yz

Atoms

1 1     1.6633     1.6633     0.0000
2 1     1.6633     0.0000     1.6633
3 1     0.0000     1.6633     1.6633
4 1     0.0000     0.0000     3.3265
5 1     1.6633     1.6633     3.3265
6 1     1.6633     0.0000     4.9898
7 1     0.0000     1.6633     4.9898
8 1     0.0000     0.0000     6.6530
9 1     1.6633     1.6633     6.6530
10 1     1.6633     0.0000     8.3163
11 1     0.0000     1.6633     8.3163
12 1     0.0000     3.3265     0.0000
13 1     1.6633     4.9898     0.0000
14 1     1.6633     3.3265     1.6633
15 1     0.0000     4.9898     1.6633
16 1     0.0000     3.3265     3.3265
17 1     1.6633     4.9898     3.3265
18 1     1.6633     3.3265     4.9898
19 1     0.0000     4.9898     4.9898
20 1     0.0000     3.3265     6.6530
21 1     1.6633     4.9898     6.6530
22 1     1.6633     3.3265     8.3163
23 1     0.0000     4.9898     8.3163
24 1     0.0000     6.6530     0.0000
25 1     1.6633     8.3163     0.0000
26 1     1.6633     6.6530     1.6633
27 1     0.0000     8.3163     1.6633
28 1     0.0000     6.6530     3.3265
29 1     1.6633     8.3163     3.3265
30 1     1.6633     6.6530     4.9898
31 1     0.0000     8.3163     4.9898
32 1     0.0000     6.6530     6.6530
33 1     1.6633     8.3163     6.6530
34 1     1.6633     6.6530     8.3163
35 1     0.0000     8.3163     8.3163
36 1     3.3265     0.0000     0.0000
37 1     4.9898     1.6633     0.0000
38 1     4.9898     0.0000     1.6633
39 1     3.3265     1.6633     1.6633
40 1     3.3265     0.0000     3.3265
41 1     4.9898     1.6633     3.3265
42 1     4.9898     0.0000     4.9898
43 1     3.3265     1.6633     4.9898
44 1     3.3265     0.0000     6.6530
45 1     4.9898     1.6633     6.6530
46 1     4.9898     0.0000     8.3163
47 1     3.3265     1.6633     8.3163
48 1     3.3265     3.3265     0.0000
49 1     4.9898     4.9898     0.0000
50 1     4.9898     3.3265     1.6633
51 1     3.3265     4.9898     1.6633
52 1     3.3265     3.3265     3.3265
53 1     4.9898     4.9898     3.3265
54 1     4.9898     3.3265     4.9898
55 1     3.3265     4.9898     4.9898
56 1     3.3265     3.3265     6.6530
57 1     4.9898     4.9898     6.6530
58 1     4.9898     3.3265     8.3163
59 1     3.3265     4.9898     8.3163
60 1     3.3265     6.6530     0.0000
61 1     4.9898     8.3163     0.0000
62 1     4.9898     6.6530     1.6633
63 1     3.3265     8.3163     1.6633
64 1     3.3265     6.6530     3.3265
65 1     4.9898     8.3163     3.3265
66 1     4.9898     6.6530     4.9898
67 1     3.3265     8.3163     4.9898
68 1     3.3265     6.6530     6.6530
69 1     4.9898     8.3163     6.6530
70 1     4.9898     6.6530     8.3163
71 1     3.3265     8.3163     8.3163
72 1     6.6530     0.0000     0.0000
73 1     8.3163     1.6633     0.0000
74 1     8.3163     0.0000     1.6633
75 1     6.6530     1.6633     1.6633
76 1     6.6530     0.0000     3.3265
77 1     8.3163     1.6633     3.3265
78 1     8.3163     0.0000     4.9898
79 1     6.6530     1.6633     4.9898
80 1     6.6530     0.0000     6.6530
81 1     8.3163     1.6633     6.6530
82 1     8.3163     0.0000     8.3163
83 1     6.6530     1.6633     8.3163
84 1     6.6530     3.3265     0.0000
85 1     8.3163     4.9898     0.0000
86 1     8.3163     3.3265     1.6633
87 1     6.6530     4.9898     1.6633
88 1     6.6530     3.3265     3.3265
89 1     8.3163     4.9898     3.3265
90 1     8.3163     3.3265     4.9898
91 1     6.6530     4.9898     4.9898
92 1     6.6530     3.3265     6.6530
93 1     8.3163     4.9898     6.6530
94 1     8.3163     3.3265     8.3163
95 1     6.6530     4.9898     8.3163
96 1     6.6530     6.6530     0.0000
97 1     8.3163     8.3163     0.0000
98 1     8.3163     6.6530     1.6633
99 1     6.6530     8.3163     1.6633
100 1     6.6530     6.6530     3.3265
101 1     8.3163     8.3163     3.3265
102 1     8.3163     6.6530     4.9898
103 1     6.6530     8.3163     4.9898
104 1     6.6530     6.6530     6.6530
105 1     8.3163     8.3163     6.6530
106 1     8.3163     6.6530     8.3163
107 1     6.6530     8.3163     8.3163
