 vasp.5.4.1 24Jun15 (build Jun 05 2017 10:38:15) complex                        
  
 executed on           IFC91_ompi date 2017.08.29  21:13:52
 running on   16 total cores
 distrk:  each k-point on   16 cores,    1 groups
 distr:  one band on NCORES_PER_BAND=   1 cores,   16 groups


--------------------------------------------------------------------------------------------------------


 INCAR:
 POTCAR:    PAW_PBE O_h 06Feb2004                 
 POTCAR:    PAW_PBE Mg 13Apr2007                  

 ----------------------------------------------------------------------------- 
|                                                                             |
|           W    W    AA    RRRRR   N    N  II  N    N   GGGG   !!!           |
|           W    W   A  A   R    R  NN   N  II  NN   N  G    G  !!!           |
|           W    W  A    A  R    R  N N  N  II  N N  N  G       !!!           |
|           W WW W  AAAAAA  RRRRR   N  N N  II  N  N N  G  GGG   !            |
|           WW  WW  A    A  R   R   N   NN  II  N   NN  G    G                |
|           W    W  A    A  R    R  N    N  II  N    N   GGGG   !!!           |
|                                                                             |
|      For optimal performance we recommend to set                            |
|        NCORE= 4 - approx SQRT( number of cores)                             |
|      NCORE specifies how many cores store one orbital (NPAR=cpu/NCORE).     |
|      This setting can  greatly improve the performance of VASP for DFT.     |
|      The default, NPAR=number of cores might be grossly inefficient         |
|      on modern multi-core architectures or massively parallel machines.     |
|      Do your own testing !!!!                                               |
|      Unfortunately you need to use the default for GW and RPA calculations. |
|      (for HF NCORE is supported but not extensively tested yet)             |
|                                                                             |
 ----------------------------------------------------------------------------- 

 POTCAR:    PAW_PBE O_h 06Feb2004                 
   VRHFIN =O: s2p4                                                              
   LEXCH  = PE                                                                  
   EATOM  =   432.3788 eV,   31.7789 Ry                                         
                                                                                
   TITEL  = PAW_PBE O_h 06Feb2004                                               
   LULTRA =        F    use ultrasoft PP ?                                      
   IUNSCR =        1    unscreen: 0-lin 1-nonlin 2-no                           
   RPACOR =     .800    partial core radius                                     
   POMASS =   16.000; ZVAL   =    6.000    mass and valenz                      
   RCORE  =    1.100    outmost cutoff radius                                   
   RWIGS  =    1.400; RWIGS  =     .741    wigner-seitz radius (au A)           
   ENMAX  =  700.000; ENMIN  =  500.000 eV                                      
   ICORE  =        2    local potential                                         
   LCOR   =        T    correct aug charges                                     
   LPAW   =        T    paw PP                                                  
   EAUG   =  888.804                                                            
   DEXC   =     .000                                                            
   RMAX   =    1.666    core radius for proj-oper                               
   RAUG   =    1.300    factor for augmentation sphere                          
   RDEP   =    1.125    radius for radial grids                                 
   QCUT   =   -7.501; QGAM   =   15.002    optimization parameters              
                                                                                
   Description                                                                  
     l     E      TYP  RCUT    TYP  RCUT                                        
     0   .000     23  1.100                                                     
     0   .000     23  1.100                                                     
     1   .000     23  1.100                                                     
     1   .000     23  1.100                                                     
     2   .000      7  1.100                                                     
  local pseudopotential read in
  partial core-charges read in
  atomic valenz-charges read in
  non local Contribution for L=           0  read in
    real space projection operators read in
  non local Contribution for L=           0  read in
    real space projection operators read in
  non local Contribution for L=           1  read in
    real space projection operators read in
  non local Contribution for L=           1  read in
    real space projection operators read in
    PAW grid and wavefunctions read in
 
   number of l-projection  operators is LMAX  =           4
   number of lm-projection operators is LMMAX =           8
 
 POTCAR:    PAW_PBE Mg 13Apr2007                  
   VRHFIN =Mg: s2p0                                                             
   LEXCH  = PE                                                                  
   EATOM  =    23.0369 eV,    1.6932 Ry                                         
                                                                                
   TITEL  = PAW_PBE Mg 13Apr2007                                                
   LULTRA =        F    use ultrasoft PP ?                                      
   IUNSCR =        1    unscreen: 0-lin 1-nonlin 2-no                           
   RPACOR =    1.500    partial core radius                                     
   POMASS =   24.305; ZVAL   =    2.000    mass and valenz                      
   RCORE  =    2.000    outmost cutoff radius                                   
   RWIGS  =    2.880; RWIGS  =    1.524    wigner-seitz radius (au A)           
   ENMAX  =  126.143; ENMIN  =   94.607 eV                                      
   RCLOC  =    1.506    cutoff for local pot                                    
   LCOR   =        T    correct aug charges                                     
   LPAW   =        T    paw PP                                                  
   EAUG   =  454.734                                                            
   DEXC   =     .000                                                            
   RMAX   =    4.105    core radius for proj-oper                               
   RAUG   =    1.300    factor for augmentation sphere                          
   RDEP   =    2.025    radius for radial grids                                 
   QCUT   =   -3.045; QGAM   =    6.090    optimization parameters              
                                                                                
   Description                                                                  
     l     E      TYP  RCUT    TYP  RCUT                                        
     0   .000     23  2.000                                                     
     0  2.000     23  2.000                                                     
     1   .100     23  2.000                                                     
     1  2.000     23  2.000                                                     
     2   .000     23  2.000                                                     
  local pseudopotential read in
  partial core-charges read in
  atomic valenz-charges read in
  non local Contribution for L=           0  read in
    real space projection operators read in
  non local Contribution for L=           0  read in
    real space projection operators read in
  non local Contribution for L=           1  read in
    real space projection operators read in
  non local Contribution for L=           1  read in
    real space projection operators read in
  non local Contribution for L=           2  read in
    real space projection operators read in
    PAW grid and wavefunctions read in
 
   number of l-projection  operators is LMAX  =           5
   number of lm-projection operators is LMMAX =          13
 
  PAW_PBE O_h 06Feb2004                 :
 energy of atom  1       EATOM= -432.3788
 kinetic energy error for atom=    0.0500 (will be added to EATOM!!)
  PAW_PBE Mg 13Apr2007                  :
 energy of atom  2       EATOM=  -23.0369
 kinetic energy error for atom=    0.0000 (will be added to EATOM!!)
 
 
 POSCAR: Mg1 O1                                  
  positions in direct lattice
  No initial velocities read in
 exchange correlation table for  LEXCH =        8
   RHO(1)=    0.500       N(1)  =     2000
   RHO(2)=  100.500       N(2)  =     4000
 


--------------------------------------------------------------------------------------------------------


 ion  position               nearest neighbor table
   1  0.500  0.500  0.500-   2 2.13   2 2.13   2 2.13   2 2.13   2 2.13   2 2.13
   2  0.000  0.000  0.000-   1 2.13   1 2.13   1 2.13   1 2.13   1 2.13   1 2.13
 
  LATTYP: Found a face centered cubic cell.
 ALAT       =     4.2564834762
  
  Lattice vectors:
  
 A1 = (   3.0097880000,   0.0000000000,   0.0000000000)
 A2 = (   1.5048940000,   2.6065530000,   0.0000000000)
 A3 = (   1.5048940000,   0.8688510000,   2.4574820000)


Analysis of symmetry for initial positions (statically):
=====================================================================
 Subroutine PRICEL returns:
 Original cell was already a primitive cell.
 

 Routine SETGRP: Setting up the symmetry group for a 
 face centered cubic supercell.


 Subroutine GETGRP returns: Found 48 space group operations
 (whereof 48 operations were pure point group operations)
 out of a pool of 48 trial point group operations.


The static configuration has the point symmetry O_h .


Analysis of symmetry for dynamics (positions and initial velocities):
=====================================================================
 Subroutine PRICEL returns:
 Original cell was already a primitive cell.
 

 Routine SETGRP: Setting up the symmetry group for a 
 face centered cubic supercell.


 Subroutine GETGRP returns: Found 48 space group operations
 (whereof 48 operations were pure point group operations)
 out of a pool of 48 trial point group operations.


The dynamic configuration has the point symmetry O_h .


 Subroutine INISYM returns: Found 48 space group operations
 (whereof 48 operations are pure point group operations),
 and found     1 'primitive' translations

 
 
 KPOINTS: Automatic Mesh                          

Automatic generation of k-mesh.
Space group operators:
 irot       det(A)        alpha          n_x          n_y          n_z        tau_x        tau_y        tau_z
    1     1.000000     0.000000     1.000000     0.000000     0.000000     0.000000     0.000000     0.000000
    2    -1.000000     0.000000     1.000000     0.000000     0.000000     0.000000     0.000000     0.000000
    3     1.000000   120.000000    -0.816497    -0.471404    -0.333333     0.000000     0.000000     0.000000
    4    -1.000000   120.000000    -0.816497    -0.471404    -0.333333     0.000000     0.000000     0.000000
    5     1.000000   120.000000     0.816497     0.471405     0.333333     0.000000     0.000000     0.000000
    6    -1.000000   120.000000     0.816497     0.471405     0.333333     0.000000     0.000000     0.000000
    7     1.000000    90.000000    -0.707107    -0.408248     0.577350     0.000000     0.000000     0.000000
    8    -1.000000    90.000000    -0.707107    -0.408248     0.577350     0.000000     0.000000     0.000000
    9     1.000000   180.000000     1.000000    -0.000000     0.000000     0.000000     0.000000     0.000000
   10    -1.000000   180.000000     1.000000    -0.000000     0.000000     0.000000     0.000000     0.000000
   11     1.000000    90.000000     0.707107    -0.408248     0.577350     0.000000     0.000000     0.000000
   12    -1.000000    90.000000     0.707107    -0.408248     0.577350     0.000000     0.000000     0.000000
   13     1.000000   180.000000     0.707107     0.408248    -0.577350     0.000000     0.000000     0.000000
   14    -1.000000   180.000000     0.707107     0.408248    -0.577350     0.000000     0.000000     0.000000
   15     1.000000   120.000000     0.816497    -0.471405    -0.333333     0.000000     0.000000     0.000000
   16    -1.000000   120.000000     0.816497    -0.471405    -0.333333     0.000000     0.000000     0.000000
   17     1.000000   120.000000     0.000000    -0.942809     0.333333     0.000000     0.000000     0.000000
   18    -1.000000   120.000000     0.000000    -0.942809     0.333333     0.000000     0.000000     0.000000
   19     1.000000    90.000000     0.707107     0.408248    -0.577350     0.000000     0.000000     0.000000
   20    -1.000000    90.000000     0.707107     0.408248    -0.577350     0.000000     0.000000     0.000000
   21     1.000000    90.000000    -0.000000    -0.816497    -0.577350     0.000000     0.000000     0.000000
   22    -1.000000    90.000000    -0.000000    -0.816497    -0.577350     0.000000     0.000000     0.000000
   23     1.000000   180.000000     0.500000     0.866025    -0.000000     0.000000     0.000000     0.000000
   24    -1.000000   180.000000     0.500000     0.866025    -0.000000     0.000000     0.000000     0.000000
   25     1.000000   120.000000     0.000000     0.942809    -0.333333     0.000000     0.000000     0.000000
   26    -1.000000   120.000000     0.000000     0.942809    -0.333333     0.000000     0.000000     0.000000
   27     1.000000   120.000000     0.000000     0.000000    -1.000000     0.000000     0.000000     0.000000
   28    -1.000000   120.000000     0.000000     0.000000    -1.000000     0.000000     0.000000     0.000000
   29     1.000000   180.000000     0.000000    -0.816497    -0.577350     0.000000     0.000000     0.000000
   30    -1.000000   180.000000     0.000000    -0.816497    -0.577350     0.000000     0.000000     0.000000
   31     1.000000    90.000000    -0.707107     0.408248    -0.577350     0.000000     0.000000     0.000000
   32    -1.000000    90.000000    -0.707107     0.408248    -0.577350     0.000000     0.000000     0.000000
   33     1.000000   180.000000     0.500000     0.288675     0.816497     0.000000     0.000000     0.000000
   34    -1.000000   180.000000     0.500000     0.288675     0.816497     0.000000     0.000000     0.000000
   35     1.000000    90.000000    -0.000000     0.816497     0.577350     0.000000     0.000000     0.000000
   36    -1.000000    90.000000    -0.000000     0.816497     0.577350     0.000000     0.000000     0.000000
   37     1.000000   120.000000    -0.816497     0.471404     0.333333     0.000000     0.000000     0.000000
   38    -1.000000   120.000000    -0.816497     0.471404     0.333333     0.000000     0.000000     0.000000
   39     1.000000   180.000000    -0.707107     0.408248    -0.577350     0.000000     0.000000     0.000000
   40    -1.000000   180.000000    -0.707107     0.408248    -0.577350     0.000000     0.000000     0.000000
   41     1.000000   120.000000     0.000000     0.000000     1.000000     0.000000     0.000000     0.000000
   42    -1.000000   120.000000     0.000000     0.000000     1.000000     0.000000     0.000000     0.000000
   43     1.000000   180.000000     0.000000    -0.577350     0.816497     0.000000     0.000000     0.000000
   44    -1.000000   180.000000     0.000000    -0.577350     0.816497     0.000000     0.000000     0.000000
   45     1.000000   180.000000    -0.500000     0.866025    -0.000000     0.000000     0.000000     0.000000
   46    -1.000000   180.000000    -0.500000     0.866025    -0.000000     0.000000     0.000000     0.000000
   47     1.000000   180.000000    -0.500000     0.288675     0.816497     0.000000     0.000000     0.000000
   48    -1.000000   180.000000    -0.500000     0.288675     0.816497     0.000000     0.000000     0.000000
 
 Subroutine IBZKPT returns following result:
 ===========================================
 
 Found     84 irreducible k-points:
 
 Following reciprocal coordinates:
            Coordinates               Weight
  0.000000  0.000000  0.000000      1.000000
  0.076923  0.000000 -0.000000      8.000000
  0.153846  0.000000  0.000000      8.000000
  0.230769  0.000000  0.000000      8.000000
  0.307692  0.000000  0.000000      8.000000
  0.384615  0.000000 -0.000000      8.000000
  0.461538  0.000000  0.000000      8.000000
  0.076923  0.076923  0.000000      6.000000
  0.153846  0.076923  0.000000     24.000000
  0.230769  0.076923  0.000000     24.000000
  0.307692  0.076923  0.000000     24.000000
  0.384615  0.076923  0.000000     24.000000
  0.461538  0.076923  0.000000     24.000000
 -0.461538  0.076923 -0.000000     24.000000
 -0.384615  0.076923  0.000000     24.000000
 -0.307692  0.076923  0.000000     24.000000
 -0.230769  0.076923 -0.000000     24.000000
 -0.153846  0.076923  0.000000     24.000000
 -0.076923  0.076923  0.000000     12.000000
  0.153846  0.153846  0.000000      6.000000
  0.230769  0.153846  0.000000     24.000000
  0.307692  0.153846  0.000000     24.000000
  0.384615  0.153846  0.000000     24.000000
  0.461538  0.153846  0.000000     24.000000
 -0.461538  0.153846  0.000000     24.000000
 -0.384615  0.153846  0.000000     24.000000
 -0.307692  0.153846  0.000000     24.000000
 -0.230769  0.153846 -0.000000     24.000000
 -0.153846  0.153846  0.000000     12.000000
  0.230769  0.230769  0.000000      6.000000
  0.307692  0.230769  0.000000     24.000000
  0.384615  0.230769  0.000000     24.000000
  0.461538  0.230769  0.000000     24.000000
 -0.461538  0.230769  0.000000     24.000000
 -0.384615  0.230769  0.000000     24.000000
 -0.307692  0.230769  0.000000     24.000000
 -0.230769  0.230769  0.000000     12.000000
  0.307692  0.307692  0.000000      6.000000
  0.384615  0.307692 -0.000000     24.000000
  0.461538  0.307692  0.000000     24.000000
 -0.461538  0.307692 -0.000000     24.000000
 -0.384615  0.307692  0.000000     24.000000
 -0.307692  0.307692  0.000000     12.000000
  0.384615  0.384615 -0.000000      6.000000
  0.461538  0.384615  0.000000     24.000000
 -0.461538  0.384615  0.000000     24.000000
 -0.384615  0.384615  0.000000     12.000000
  0.461538  0.461538  0.000000      6.000000
 -0.461538  0.461538  0.000000     12.000000
  0.230769  0.153846  0.076923     24.000000
  0.307692  0.153846  0.076923     48.000000
  0.384615  0.153846  0.076923     48.000000
  0.461538  0.153846  0.076923     48.000000
 -0.461538  0.153846  0.076923     48.000000
  0.307692  0.230769  0.076923     24.000000
  0.384615  0.230769  0.076923     48.000000
  0.461538  0.230769  0.076923     48.000000
 -0.461538  0.230769  0.076923     48.000000
 -0.384615  0.230769  0.076923     48.000000
 -0.307692  0.230769  0.076923     48.000000
 -0.230769  0.230769  0.076923     48.000000
 -0.153846  0.230769  0.076923     24.000000
  0.384615  0.307692  0.076923     24.000000
  0.461538  0.307692  0.076923     48.000000
 -0.461538  0.307692  0.076923     48.000000
 -0.384615  0.307692  0.076923     48.000000
 -0.307692  0.307692  0.076923     48.000000
 -0.230769  0.307692  0.076923     24.000000
  0.461538  0.384615  0.076923     24.000000
 -0.461538  0.384615  0.076923     48.000000
 -0.384615  0.384615  0.076923     48.000000
 -0.307692  0.384615  0.076923     24.000000
 -0.461538  0.461538  0.076923     24.000000
 -0.384615  0.461538  0.076923     24.000000
  0.461538  0.307692  0.153846     24.000000
 -0.461538  0.307692  0.153846     48.000000
 -0.384615  0.307692  0.153846     48.000000
 -0.461538  0.384615  0.153846     24.000000
 -0.384615  0.384615  0.153846     48.000000
 -0.307692  0.384615  0.153846     48.000000
 -0.230769  0.384615  0.153846     24.000000
 -0.384615  0.461538  0.153846     24.000000
 -0.307692  0.461538  0.153846     24.000000
 -0.307692  0.461538  0.230769     24.000000
 
 Following cartesian coordinates:
            Coordinates               Weight
  0.000000  0.000000  0.000000      1.000000
  0.025558 -0.014756 -0.010434      8.000000
  0.051115 -0.029511 -0.020868      8.000000
  0.076673 -0.044267 -0.031302      8.000000
  0.102231 -0.059023 -0.041735      8.000000
  0.127788 -0.073779 -0.052169      8.000000
  0.153346 -0.088534 -0.062603      8.000000
  0.025558  0.014756 -0.020868      6.000000
  0.051115 -0.000000 -0.031302     24.000000
  0.076673 -0.014756 -0.041735     24.000000
  0.102231 -0.029511 -0.052169     24.000000
  0.127788 -0.044267 -0.062603     24.000000
  0.153346 -0.059023 -0.073037     24.000000
 -0.153346  0.118046  0.052169     24.000000
 -0.127788  0.103290  0.041735     24.000000
 -0.102231  0.088534  0.031302     24.000000
 -0.076673  0.073779  0.020868     24.000000
 -0.051115  0.059023  0.010434     24.000000
 -0.025558  0.044267  0.000000     12.000000
  0.051115  0.029511 -0.041735      6.000000
  0.076673  0.014756 -0.052169     24.000000
  0.102231  0.000000 -0.062603     24.000000
  0.127788 -0.014756 -0.073037     24.000000
  0.153346 -0.029511 -0.083471     24.000000
 -0.153346  0.147557  0.041735     24.000000
 -0.127788  0.132801  0.031302     24.000000
 -0.102231  0.118046  0.020868     24.000000
 -0.076673  0.103290  0.010434     24.000000
 -0.051115  0.088534 -0.000000     12.000000
  0.076673  0.044267 -0.062603      6.000000
  0.102231  0.029511 -0.073037     24.000000
  0.127788  0.014756 -0.083471     24.000000
  0.153346  0.000000 -0.093905     24.000000
 -0.153346  0.177069  0.031302     24.000000
 -0.127788  0.162313  0.020868     24.000000
 -0.102231  0.147557  0.010434     24.000000
 -0.076673  0.132801  0.000000     12.000000
  0.102231  0.059023 -0.083471      6.000000
  0.127788  0.044267 -0.093905     24.000000
  0.153346  0.029511 -0.104339     24.000000
 -0.153346  0.206580  0.020868     24.000000
 -0.127788  0.191824  0.010434     24.000000
 -0.102231  0.177069  0.000000     12.000000
  0.127788  0.073779 -0.104339      6.000000
  0.153346  0.059023 -0.114772     24.000000
 -0.153346  0.236091  0.010434     24.000000
 -0.127788  0.221336  0.000000     12.000000
  0.153346  0.088534 -0.125206      6.000000
 -0.153346  0.265603  0.000000     12.000000
  0.076673  0.014756 -0.020868     24.000000
  0.102231  0.000000 -0.031302     48.000000
  0.127788 -0.014756 -0.041735     48.000000
  0.153346 -0.029511 -0.052169     48.000000
 -0.153346  0.147557  0.073037     48.000000
  0.102231  0.029511 -0.041735     24.000000
  0.127788  0.014756 -0.052169     48.000000
  0.153346  0.000000 -0.062603     48.000000
 -0.153346  0.177069  0.062603     48.000000
 -0.127788  0.162313  0.052169     48.000000
 -0.102231  0.147557  0.041735     48.000000
 -0.076673  0.132801  0.031302     48.000000
 -0.051115  0.118046  0.020868     24.000000
  0.127788  0.044267 -0.062603     24.000000
  0.153346  0.029511 -0.073037     48.000000
 -0.153346  0.206580  0.052169     48.000000
 -0.127788  0.191824  0.041735     48.000000
 -0.102231  0.177069  0.031302     48.000000
 -0.076673  0.162313  0.020868     24.000000
  0.153346  0.059023 -0.083471     24.000000
 -0.153346  0.236091  0.041735     48.000000
 -0.127788  0.221336  0.031302     48.000000
 -0.102231  0.206580  0.020868     24.000000
 -0.153346  0.265603  0.031302     24.000000
 -0.127788  0.250847  0.020868     24.000000
  0.153346  0.029511 -0.041735     24.000000
 -0.153346  0.206580  0.083471     48.000000
 -0.127788  0.191824  0.073037     48.000000
 -0.153346  0.236091  0.073037     24.000000
 -0.127788  0.221336  0.062603     48.000000
 -0.102231  0.206580  0.052169     48.000000
 -0.076673  0.191824  0.041735     24.000000
 -0.127788  0.250847  0.052169     24.000000
 -0.102231  0.236091  0.041735     24.000000
 -0.102231  0.236091  0.073037     24.000000
 


--------------------------------------------------------------------------------------------------------




 Dimension of arrays:
   k-points           NKPTS =     84   k-points in BZ     NKDIM =     84   number of bands    NBANDS=     16
   number of dos      NEDOS =    301   number of ions     NIONS =      2
   non local maximal  LDIM  =      5   non local SUM 2l+1 LMDIM =     13
   total plane-waves  NPLWV =  21952
   max r-space proj   IRMAX =      1   max aug-charges    IRDMAX=  17825
   dimension x,y,z NGX =    28 NGY =   28 NGZ =   28
   dimension x,y,z NGXF=    40 NGYF=   40 NGZF=   40
   support grid    NGXF=    40 NGYF=   40 NGZF=   40
   ions per type =               1   1
 NGX,Y,Z   is equivalent  to a cutoff of  15.47, 15.47, 15.47 a.u.
 NGXF,Y,Z  is equivalent  to a cutoff of  22.09, 22.09, 22.09 a.u.


 I would recommend the setting:
   dimension x,y,z NGX =    28 NGY =   28 NGZ =   28
 SYSTEM =  automatically generated by pyflamestk   
 POSCAR =  Mg1 O1                                  

 Startparameter for this run:
   NWRITE =      2    write-flag & timer
   PREC   = high      normal or accurate (medium, high low for compatibility)
   ISTART =      0    job   : 0-new  1-cont  2-samecut
   ICHARG =      0    charge: 1-file 2-atom 10-const
   ISPIN  =      1    spin polarized calculation?
   LNONCOLLINEAR =      F non collinear calculations
   LSORBIT =      F    spin-orbit coupling
   INIWAV =      1    electr: 0-lowe 1-rand  2-diag
   LASPH  =      F    aspherical Exc in radial PAW
   METAGGA=      F    non-selfconsistent MetaGGA calc.

 Electronic Relaxation 1
   ENCUT  =  800.0 eV  58.80 Ry    7.67 a.u.   6.94  6.94  6.94*2*pi/ulx,y,z
   ENINI  =  800.0     initial cutoff
   ENAUG  =  888.8 eV  augmentation charge cutoff
   NELM   =     40;   NELMIN=  2; NELMDL= -5     # of ELM steps 
   EDIFF  = 0.1E-05   stopping-criterion for ELM
   LREAL  =      F    real-space projection
   NLSPLINE    = F    spline interpolate recip. space projectors
   LCOMPAT=      F    compatible to vasp.4.4
   GGA_COMPAT  = T    GGA compatible to vasp.4.4-vasp.4.6
   LMAXPAW     = -100 max onsite density
   LMAXMIX     =    2 max onsite mixed and CHGCAR
   VOSKOWN=      0    Vosko Wilk Nusair interpolation
   ROPT   =    0.00000   0.00000
 Ionic relaxation
   EDIFFG = 0.1E-04   stopping-criterion for IOM
   NSW    =      0    number of steps for IOM
   NBLOCK =      1;   KBLOCK =      1    inner block; outer block 
   IBRION =     -1    ionic relax: 0-MD 1-quasi-New 2-CG
   NFREE  =      0    steps in history (QN), initial steepest desc. (CG)
   ISIF   =      2    stress and relaxation
   IWAVPR =     10    prediction:  0-non 1-charg 2-wave 3-comb
   ISYM   =      2    0-nonsym 1-usesym 2-fastsym
   LCORR  =      T    Harris-Foulkes like correction to forces

   POTIM  = 0.5000    time-step for ionic-motion
   TEIN   =    0.0    initial temperature
   TEBEG  =    0.0;   TEEND  =   0.0 temperature during run
   SMASS  =  -3.00    Nose mass-parameter (am)
   estimated Nose-frequenzy (Omega)   =  0.10E-29 period in steps =****** mass=  -0.207E-27a.u.
   SCALEE = 1.0000    scale energy and forces
   NPACO  =    256;   APACO  = 16.0  distance and # of slots for P.C.
   PSTRESS=    0.0 pullay stress

  Mass of Ions in am
   POMASS =  16.00 24.30
  Ionic Valenz
   ZVAL   =   6.00  2.00
  Atomic Wigner-Seitz radii
   RWIGS  =  -1.00 -1.00
  virtual crystal weights 
   VCA    =   1.00  1.00
   NELECT =       8.0000    total number of electrons
   NUPDOWN=      -1.0000    fix difference up-down

 DOS related values:
   EMIN   =  10.00;   EMAX   =-10.00  energy-range for DOS
   EFERMI =   0.00
   ISMEAR =     0;   SIGMA  =   0.05  broadening in eV -4-tet -1-fermi 0-gaus

 Electronic relaxation 2 (details)
   IALGO  =     38    algorithm
   LDIAG  =      T    sub-space diagonalisation (order eigenvalues)
   LSUBROT=      F    optimize rotation matrix (better conditioning)
   TURBO    =      0    0=normal 1=particle mesh
   IRESTART =      0    0=no restart 2=restart with 2 vectors
   NREBOOT  =      0    no. of reboots
   NMIN     =      0    reboot dimension
   EREF     =   0.00    reference energy to select bands
   IMIX   =      4    mixing-type and parameters
     AMIX     =   0.40;   BMIX     =  1.00
     AMIX_MAG =   1.60;   BMIX_MAG =  1.00
     AMIN     =   0.10
     WC   =   100.;   INIMIX=   1;  MIXPRE=   1;  MAXMIX= -45

 Intra band minimization:
   WEIMIN = 0.0000     energy-eigenvalue tresh-hold
   EBREAK =  0.16E-07  absolut break condition
   DEPER  =   0.30     relativ break condition  

   TIME   =   0.40     timestep for ELM

  volume/ion in A,a.u.               =       9.64        65.05
  Fermi-wavevector in a.u.,A,eV,Ry     =   1.221070  2.307488 20.286449  1.491012
  Thomas-Fermi vector in A             =   2.356265
 
 Write flags
   LWAVE  =      F    write WAVECAR
   LCHARG =      F    write CHGCAR
   LVTOT  =      F    write LOCPOT, total local potential
   LVHAR  =      F    write LOCPOT, Hartree potential only
   LELF   =      F    write electronic localiz. function (ELF)
   LORBIT =      0    0 simple, 1 ext, 2 COOP (PROOUT)


 Dipole corrections
   LMONO  =      F    monopole corrections only (constant potential shift)
   LDIPOL =      F    correct potential (dipole corrections)
   IDIPOL =      0    1-x, 2-y, 3-z, 4-all directions 
   EPSILON=  1.0000000 bulk dielectric constant

 Exchange correlation treatment:
   GGA     =    --    GGA type
   LEXCH   =     8    internal setting for exchange type
   VOSKOWN=      0    Vosko Wilk Nusair interpolation
   LHFCALC =     F    Hartree Fock is set to
   LHFONE  =     F    Hartree Fock one center treatment
   AEXX    =    0.0000 exact exchange contribution

 Linear response parameters
   LEPSILON=     F    determine dielectric tensor
   LRPA    =     F    only Hartree local field effects (RPA)
   LNABLA  =     F    use nabla operator in PAW spheres
   LVEL    =     F    velocity operator in full k-point grid
   LINTERFAST=   F  fast interpolation
   KINTER  =     0    interpolate to denser k-point grid
   CSHIFT  =0.1000    complex shift for real part using Kramers Kronig
   OMEGAMAX=  -1.0    maximum frequency
   DEG_THRESHOLD= 0.2000000E-02 threshold for treating states as degnerate
   RTIME   =    0.100 relaxation time in fs

 Orbital magnetization related:
   ORBITALMAG=     F  switch on orbital magnetization
   LCHIMAG   =     F  perturbation theory with respect to B field
   DQ        =  0.001000  dq finite difference perturbation B field



--------------------------------------------------------------------------------------------------------


 Static calculation
 charge density and potential will be updated during run
 non-spin polarized calculation
 Variant of blocked Davidson
 Davidson routine will perform the subspace rotation
 perform sub-space diagonalisation
    after iterative eigenvector-optimisation
 modified Broyden-mixing scheme, WC =      100.0
 initial mixing is a Kerker type mixing with AMIX =  0.4000 and BMIX =      1.0000
 Hartree-type preconditioning will be used
 using additional bands           12
 reciprocal scheme for non local part
 use partial core corrections
 calculate Harris-corrections to forces 
   (improved forces if not selfconsistent)
 use gradient corrections 
 use of overlap-Matrix (Vanderbilt PP)
 Gauss-broadening in eV      SIGMA  =   0.05


--------------------------------------------------------------------------------------------------------


  energy-cutoff  :      800.00
  volume of cell :       19.28
      direct lattice vectors                 reciprocal lattice vectors
     3.009788000  0.000000000  0.000000000     0.332249315 -0.191824221 -0.135640193
     1.504894000  2.606553000  0.000000000     0.000000000  0.383648443 -0.135640193
     1.504894000  0.868851000  2.457482000     0.000000000  0.000000000  0.406920580

  length of vectors
     3.009788000  3.009788114  3.009788330     0.406920632  0.406920619  0.406920580


 
 k-points in units of 2pi/SCALE and weight: Automatic Mesh                          
   0.00000000  0.00000000  0.00000000       0.000
   0.02555764 -0.01475571 -0.01043386       0.004
   0.05111528 -0.02951142 -0.02086772       0.004
   0.07667292 -0.04426713 -0.03130158       0.004
   0.10223056 -0.05902284 -0.04173544       0.004
   0.12778820 -0.07377855 -0.05216931       0.004
   0.15334584 -0.08853426 -0.06260317       0.004
   0.02555764  0.01475571 -0.02086772       0.003
   0.05111528 -0.00000000 -0.03130158       0.011
   0.07667292 -0.01475571 -0.04173544       0.011
   0.10223056 -0.02951142 -0.05216931       0.011
   0.12778820 -0.04426713 -0.06260317       0.011
   0.15334584 -0.05902284 -0.07303703       0.011
  -0.15334584  0.11804567  0.05216931       0.011
  -0.12778820  0.10328997  0.04173544       0.011
  -0.10223056  0.08853426  0.03130158       0.011
  -0.07667292  0.07377855  0.02086772       0.011
  -0.05111528  0.05902284  0.01043386       0.011
  -0.02555764  0.04426713  0.00000000       0.005
   0.05111528  0.02951142 -0.04173544       0.003
   0.07667292  0.01475571 -0.05216931       0.011
   0.10223056  0.00000000 -0.06260317       0.011
   0.12778820 -0.01475571 -0.07303703       0.011
   0.15334584 -0.02951142 -0.08347089       0.011
  -0.15334584  0.14755709  0.04173544       0.011
  -0.12778820  0.13280138  0.03130158       0.011
  -0.10223056  0.11804567  0.02086772       0.011
  -0.07667292  0.10328997  0.01043386       0.011
  -0.05111528  0.08853426 -0.00000000       0.005
   0.07667292  0.04426713 -0.06260317       0.003
   0.10223056  0.02951142 -0.07303703       0.011
   0.12778820  0.01475571 -0.08347089       0.011
   0.15334584  0.00000000 -0.09390475       0.011
  -0.15334584  0.17706851  0.03130158       0.011
  -0.12778820  0.16231280  0.02086772       0.011
  -0.10223056  0.14755709  0.01043386       0.011
  -0.07667292  0.13280138  0.00000000       0.005
   0.10223056  0.05902284 -0.08347089       0.003
   0.12778820  0.04426713 -0.09390475       0.011
   0.15334584  0.02951142 -0.10433861       0.011
  -0.15334584  0.20657993  0.02086772       0.011
  -0.12778820  0.19182422  0.01043386       0.011
  -0.10223056  0.17706851 -0.00000000       0.005
   0.12778820  0.07377855 -0.10433861       0.003
   0.15334584  0.05902284 -0.11477247       0.011
  -0.15334584  0.23609135  0.01043386       0.011
  -0.12778820  0.22133564  0.00000000       0.005
   0.15334584  0.08853426 -0.12520633       0.003
  -0.15334584  0.26560277  0.00000000       0.005
   0.07667292  0.01475571 -0.02086772       0.011
   0.10223056  0.00000000 -0.03130158       0.022
   0.12778820 -0.01475571 -0.04173544       0.022
   0.15334584 -0.02951142 -0.05216931       0.022
  -0.15334584  0.14755709  0.07303703       0.022
   0.10223056  0.02951142 -0.04173544       0.011
   0.12778820  0.01475571 -0.05216931       0.022
   0.15334584  0.00000000 -0.06260317       0.022
  -0.15334584  0.17706851  0.06260317       0.022
  -0.12778820  0.16231280  0.05216931       0.022
  -0.10223056  0.14755709  0.04173544       0.022
  -0.07667292  0.13280138  0.03130158       0.022
  -0.05111528  0.11804567  0.02086772       0.011
   0.12778820  0.04426713 -0.06260317       0.011
   0.15334584  0.02951142 -0.07303703       0.022
  -0.15334584  0.20657993  0.05216931       0.022
  -0.12778820  0.19182422  0.04173544       0.022
  -0.10223056  0.17706851  0.03130158       0.022
  -0.07667292  0.16231280  0.02086772       0.011
   0.15334584  0.05902284 -0.08347089       0.011
  -0.15334584  0.23609135  0.04173544       0.022
  -0.12778820  0.22133564  0.03130158       0.022
  -0.10223056  0.20657993  0.02086772       0.011
  -0.15334584  0.26560277  0.03130158       0.011
  -0.12778820  0.25084706  0.02086772       0.011
   0.15334584  0.02951142 -0.04173544       0.011
  -0.15334584  0.20657993  0.08347089       0.022
  -0.12778820  0.19182422  0.07303703       0.022
  -0.15334584  0.23609135  0.07303703       0.011
  -0.12778820  0.22133564  0.06260317       0.022
  -0.10223056  0.20657993  0.05216931       0.022
  -0.07667292  0.19182422  0.04173544       0.011
  -0.12778820  0.25084706  0.05216931       0.011
  -0.10223056  0.23609135  0.04173544       0.011
  -0.10223056  0.23609135  0.07303703       0.011
 
 k-points in reciprocal lattice and weights: Automatic Mesh                          
   0.00000000  0.00000000  0.00000000       0.000
   0.07692308  0.00000000 -0.00000000       0.004
   0.15384615  0.00000000  0.00000000       0.004
   0.23076923  0.00000000  0.00000000       0.004
   0.30769231  0.00000000  0.00000000       0.004
   0.38461538  0.00000000 -0.00000000       0.004
   0.46153846  0.00000000  0.00000000       0.004
   0.07692308  0.07692308  0.00000000       0.003
   0.15384615  0.07692308  0.00000000       0.011
   0.23076923  0.07692308  0.00000000       0.011
   0.30769231  0.07692308  0.00000000       0.011
   0.38461538  0.07692308  0.00000000       0.011
   0.46153846  0.07692308  0.00000000       0.011
  -0.46153846  0.07692308 -0.00000000       0.011
  -0.38461538  0.07692308  0.00000000       0.011
  -0.30769231  0.07692308  0.00000000       0.011
  -0.23076923  0.07692308 -0.00000000       0.011
  -0.15384615  0.07692308  0.00000000       0.011
  -0.07692308  0.07692308  0.00000000       0.005
   0.15384615  0.15384615  0.00000000       0.003
   0.23076923  0.15384615  0.00000000       0.011
   0.30769231  0.15384615  0.00000000       0.011
   0.38461538  0.15384615  0.00000000       0.011
   0.46153846  0.15384615  0.00000000       0.011
  -0.46153846  0.15384615  0.00000000       0.011
  -0.38461538  0.15384615  0.00000000       0.011
  -0.30769231  0.15384615  0.00000000       0.011
  -0.23076923  0.15384615 -0.00000000       0.011
  -0.15384615  0.15384615  0.00000000       0.005
   0.23076923  0.23076923  0.00000000       0.003
   0.30769231  0.23076923  0.00000000       0.011
   0.38461538  0.23076923  0.00000000       0.011
   0.46153846  0.23076923  0.00000000       0.011
  -0.46153846  0.23076923  0.00000000       0.011
  -0.38461538  0.23076923  0.00000000       0.011
  -0.30769231  0.23076923  0.00000000       0.011
  -0.23076923  0.23076923  0.00000000       0.005
   0.30769231  0.30769231  0.00000000       0.003
   0.38461538  0.30769231 -0.00000000       0.011
   0.46153846  0.30769231  0.00000000       0.011
  -0.46153846  0.30769231 -0.00000000       0.011
  -0.38461538  0.30769231  0.00000000       0.011
  -0.30769231  0.30769231  0.00000000       0.005
   0.38461538  0.38461538 -0.00000000       0.003
   0.46153846  0.38461538  0.00000000       0.011
  -0.46153846  0.38461538  0.00000000       0.011
  -0.38461538  0.38461538  0.00000000       0.005
   0.46153846  0.46153846  0.00000000       0.003
  -0.46153846  0.46153846  0.00000000       0.005
   0.23076923  0.15384615  0.07692308       0.011
   0.30769231  0.15384615  0.07692308       0.022
   0.38461538  0.15384615  0.07692308       0.022
   0.46153846  0.15384615  0.07692308       0.022
  -0.46153846  0.15384615  0.07692308       0.022
   0.30769231  0.23076923  0.07692308       0.011
   0.38461538  0.23076923  0.07692308       0.022
   0.46153846  0.23076923  0.07692308       0.022
  -0.46153846  0.23076923  0.07692308       0.022
  -0.38461538  0.23076923  0.07692308       0.022
  -0.30769231  0.23076923  0.07692308       0.022
  -0.23076923  0.23076923  0.07692308       0.022
  -0.15384615  0.23076923  0.07692308       0.011
   0.38461538  0.30769231  0.07692308       0.011
   0.46153846  0.30769231  0.07692308       0.022
  -0.46153846  0.30769231  0.07692308       0.022
  -0.38461538  0.30769231  0.07692308       0.022
  -0.30769231  0.30769231  0.07692308       0.022
  -0.23076923  0.30769231  0.07692308       0.011
   0.46153846  0.38461538  0.07692308       0.011
  -0.46153846  0.38461538  0.07692308       0.022
  -0.38461538  0.38461538  0.07692308       0.022
  -0.30769231  0.38461538  0.07692308       0.011
  -0.46153846  0.46153846  0.07692308       0.011
  -0.38461538  0.46153846  0.07692308       0.011
   0.46153846  0.30769231  0.15384615       0.011
  -0.46153846  0.30769231  0.15384615       0.022
  -0.38461538  0.30769231  0.15384615       0.022
  -0.46153846  0.38461538  0.15384615       0.011
  -0.38461538  0.38461538  0.15384615       0.022
  -0.30769231  0.38461538  0.15384615       0.022
  -0.23076923  0.38461538  0.15384615       0.011
  -0.38461538  0.46153846  0.15384615       0.011
  -0.30769231  0.46153846  0.15384615       0.011
  -0.30769231  0.46153846  0.23076923       0.011
 
 position of ions in fractional coordinates (direct lattice) 
   0.50000000  0.50000000  0.50000000
   0.00000000  0.00000000  0.00000000
 
 position of ions in cartesian coordinates  (Angst):
   3.00978800  1.73770200  1.22874100
   0.00000000  0.00000000  0.00000000
 


--------------------------------------------------------------------------------------------------------


 k-point  1 :   0.0000 0.0000 0.0000  plane waves:     965
 k-point  2 :   0.0769 0.0000-0.0000  plane waves:     956
 k-point  3 :   0.1538 0.0000 0.0000  plane waves:     980
 k-point  4 :   0.2308 0.0000 0.0000  plane waves:     983
 k-point  5 :   0.3077 0.0000 0.0000  plane waves:     980
 k-point  6 :   0.3846 0.0000-0.0000  plane waves:     990
 k-point  7 :   0.4615 0.0000 0.0000  plane waves:     987
 k-point  8 :   0.0769 0.0769 0.0000  plane waves:     957
 k-point  9 :   0.1538 0.0769 0.0000  plane waves:     975
 k-point 10 :   0.2308 0.0769 0.0000  plane waves:     977
 k-point 11 :   0.3077 0.0769 0.0000  plane waves:     982
 k-point 12 :   0.3846 0.0769 0.0000  plane waves:     986
 k-point 13 :   0.4615 0.0769 0.0000  plane waves:     993
 k-point 14 :  -0.4615 0.0769-0.0000  plane waves:     990
 k-point 15 :  -0.3846 0.0769 0.0000  plane waves:     989
 k-point 16 :  -0.3077 0.0769 0.0000  plane waves:     986
 k-point 17 :  -0.2308 0.0769-0.0000  plane waves:     973
 k-point 18 :  -0.1538 0.0769 0.0000  plane waves:     976
 k-point 19 :  -0.0769 0.0769 0.0000  plane waves:     969
 k-point 20 :   0.1538 0.1538 0.0000  plane waves:     974
 k-point 21 :   0.2308 0.1538 0.0000  plane waves:     981
 k-point 22 :   0.3077 0.1538 0.0000  plane waves:     988
 k-point 23 :   0.3846 0.1538 0.0000  plane waves:     995
 k-point 24 :   0.4615 0.1538 0.0000  plane waves:     995
 k-point 25 :  -0.4615 0.1538 0.0000  plane waves:     992
 k-point 26 :  -0.3846 0.1538 0.0000  plane waves:     986
 k-point 27 :  -0.3077 0.1538 0.0000  plane waves:     991
 k-point 28 :  -0.2308 0.1538-0.0000  plane waves:     984
 k-point 29 :  -0.1538 0.1538 0.0000  plane waves:     985
 k-point 30 :   0.2308 0.2308 0.0000  plane waves:     982
 k-point 31 :   0.3077 0.2308 0.0000  plane waves:     995
 k-point 32 :   0.3846 0.2308 0.0000  plane waves:     998
 k-point 33 :   0.4615 0.2308 0.0000  plane waves:     996
 k-point 34 :  -0.4615 0.2308 0.0000  plane waves:     989
 k-point 35 :  -0.3846 0.2308 0.0000  plane waves:     989
 k-point 36 :  -0.3077 0.2308 0.0000  plane waves:     994
 k-point 37 :  -0.2308 0.2308 0.0000  plane waves:     987
 k-point 38 :   0.3077 0.3077 0.0000  plane waves:    1010
 k-point 39 :   0.3846 0.3077-0.0000  plane waves:    1003
 k-point 40 :   0.4615 0.3077 0.0000  plane waves:     995
 k-point 41 :  -0.4615 0.3077-0.0000  plane waves:     997
 k-point 42 :  -0.3846 0.3077 0.0000  plane waves:     991
 k-point 43 :  -0.3077 0.3077 0.0000  plane waves:     991
 k-point 44 :   0.3846 0.3846-0.0000  plane waves:     998
 k-point 45 :   0.4615 0.3846 0.0000  plane waves:     994
 k-point 46 :  -0.4615 0.3846 0.0000  plane waves:     993
 k-point 47 :  -0.3846 0.3846 0.0000  plane waves:     991
 k-point 48 :   0.4615 0.4615 0.0000  plane waves:     990
 k-point 49 :  -0.4615 0.4615 0.0000  plane waves:     985
 k-point 50 :   0.2308 0.1538 0.0769  plane waves:     980
 k-point 51 :   0.3077 0.1538 0.0769  plane waves:     983
 k-point 52 :   0.3846 0.1538 0.0769  plane waves:     988
 k-point 53 :   0.4615 0.1538 0.0769  plane waves:     994
 k-point 54 :  -0.4615 0.1538 0.0769  plane waves:     991
 k-point 55 :   0.3077 0.2308 0.0769  plane waves:     989
 k-point 56 :   0.3846 0.2308 0.0769  plane waves:     995
 k-point 57 :   0.4615 0.2308 0.0769  plane waves:     997
 k-point 58 :  -0.4615 0.2308 0.0769  plane waves:     995
 k-point 59 :  -0.3846 0.2308 0.0769  plane waves:     989
 k-point 60 :  -0.3077 0.2308 0.0769  plane waves:     993
 k-point 61 :  -0.2308 0.2308 0.0769  plane waves:     989
 k-point 62 :  -0.1538 0.2308 0.0769  plane waves:     988
 k-point 63 :   0.3846 0.3077 0.0769  plane waves:     996
 k-point 64 :   0.4615 0.3077 0.0769  plane waves:    1000
 k-point 65 :  -0.4615 0.3077 0.0769  plane waves:     990
 k-point 66 :  -0.3846 0.3077 0.0769  plane waves:     991
 k-point 67 :  -0.3077 0.3077 0.0769  plane waves:     993
 k-point 68 :  -0.2308 0.3077 0.0769  plane waves:     999
 k-point 69 :   0.4615 0.3846 0.0769  plane waves:    1000
 k-point 70 :  -0.4615 0.3846 0.0769  plane waves:     996
 k-point 71 :  -0.3846 0.3846 0.0769  plane waves:     994
 k-point 72 :  -0.3077 0.3846 0.0769  plane waves:     992
 k-point 73 :  -0.4615 0.4615 0.0769  plane waves:     993
 k-point 74 :  -0.3846 0.4615 0.0769  plane waves:     986
 k-point 75 :   0.4615 0.3077 0.1538  plane waves:     993
 k-point 76 :  -0.4615 0.3077 0.1538  plane waves:     989
 k-point 77 :  -0.3846 0.3077 0.1538  plane waves:     989
 k-point 78 :  -0.4615 0.3846 0.1538  plane waves:     999
 k-point 79 :  -0.3846 0.3846 0.1538  plane waves:     995
 k-point 80 :  -0.3077 0.3846 0.1538  plane waves:     994
 k-point 81 :  -0.2308 0.3846 0.1538  plane waves:     996
 k-point 82 :  -0.3846 0.4615 0.1538  plane waves:     996
 k-point 83 :  -0.3077 0.4615 0.1538  plane waves:     996
 k-point 84 :  -0.3077 0.4615 0.2308  plane waves:     999

 maximum and minimum number of plane-waves per node :      1010      956

 maximum number of plane-waves:      1010
 maximum index in each direction: 
   IXMAX=    7   IYMAX=    6   IZMAX=    6
   IXMIN=   -7   IYMIN=   -7   IZMIN=   -7

 WARNING: aliasing errors must be expected set NGX to  30 to avoid them
 NGY is ok and might be reduce to  28
 NGZ is ok and might be reduce to  28
 aliasing errors are usually negligible using standard VASP settings
 and one can safely disregard these warnings

 serial   3D FFT for wavefunctions
 parallel 3D FFT for charge:
    minimum data exchange during FFTs selected (reduces bandwidth)


 total amount of memory used by VASP on root node    50795. kBytes
========================================================================

   base      :      30000. kBytes
   nonl-proj :      17924. kBytes
   fftplans  :        267. kBytes
   grid      :       1169. kBytes
   one-center:         16. kBytes
   wavefun   :       1419. kBytes
 
     INWAV:  cpu time    0.0000: real time    0.0002
 Broyden mixing: mesh for mixing (old mesh)
   NGX = 13   NGY = 13   NGZ = 13
  (NGX  = 40   NGY  = 40   NGZ  = 40)
  gives a total of   2197 points

 charge density for first step will be calculated from the start-wavefunctions


--------------------------------------------------------------------------------------------------------


 Maximum index for augmentation-charges         1435 (set IRDMAX)


--------------------------------------------------------------------------------------------------------


 initial charge from wavefunction
 First call to EWALD:  gamma=   0.661
 Maximum number of real-space cells 3x 3x 3
 Maximum number of reciprocal cells 3x 3x 3

 FEWALD executed in parallel
    FEWALD:  cpu time    0.0020: real time    0.0015


----------------------------------------- Iteration    1(   1)  ---------------------------------------


    POTLOK:  cpu time    0.0050: real time    0.0054
    SETDIJ:  cpu time    0.0030: real time    0.0028
     EDDAV:  cpu time    0.5279: real time    0.5288
       DOS:  cpu time    0.0000: real time    0.0004
    --------------------------------------------
      LOOP:  cpu time    0.5399: real time    0.5439

 eigenvalue-minimisations  :  3360
 total energy-change (2. order) :-0.2595506E+03  (-0.1034356E+04)
 number of electron       7.9999999 magnetization 
 augmentation part       -0.9785351 magnetization 

 Free energy of the ion-electron system (eV)
  ---------------------------------------------------
  alpha Z        PSCENC =        15.79325893
  Ewald energy   TEWEN  =      -354.45312954
  -Hartree energ DENC   =       -30.13565474
  -exchange      EXHF   =         0.00000000
  -V(xc)+E(xc)   XCENC  =       -30.15825134
  PAW double counting   =    152012.18841017  -151958.49425755
  entropy T*S    EENTRO =        -0.00000000
  eigenvalues    EBANDS =      -369.65668867
  atomic energy  EATOM  =       455.36566902
  Solvation  Ediel_sol  =         0.00000000
  ---------------------------------------------------
  free energy    TOTEN  =      -259.55064371 eV

  energy without entropy =     -259.55064371  energy(sigma->0) =     -259.55064371


--------------------------------------------------------------------------------------------------------




----------------------------------------- Iteration    1(   2)  ---------------------------------------


     EDDAV:  cpu time    0.5599: real time    0.5616
       DOS:  cpu time    0.0010: real time    0.0004
    --------------------------------------------
      LOOP:  cpu time    0.5619: real time    0.5654

 eigenvalue-minimisations  :  3520
 total energy-change (2. order) :-0.4552620E+02  (-0.4552620E+02)
 number of electron       7.9999999 magnetization 
 augmentation part       -0.9785351 magnetization 

 Free energy of the ion-electron system (eV)
  ---------------------------------------------------
  alpha Z        PSCENC =        15.79325893
  Ewald energy   TEWEN  =      -354.45312954
  -Hartree energ DENC   =       -30.13565474
  -exchange      EXHF   =         0.00000000
  -V(xc)+E(xc)   XCENC  =       -30.15825134
  PAW double counting   =    152012.18841017  -151958.49425755
  entropy T*S    EENTRO =        -0.00000000
  eigenvalues    EBANDS =      -415.18289026
  atomic energy  EATOM  =       455.36566902
  Solvation  Ediel_sol  =         0.00000000
  ---------------------------------------------------
  free energy    TOTEN  =      -305.07684530 eV

  energy without entropy =     -305.07684530  energy(sigma->0) =     -305.07684530


--------------------------------------------------------------------------------------------------------




----------------------------------------- Iteration    1(   3)  ---------------------------------------


     EDDAV:  cpu time    0.5429: real time    0.5435
       DOS:  cpu time    0.0000: real time    0.0003
    --------------------------------------------
      LOOP:  cpu time    0.5429: real time    0.5477

 eigenvalue-minimisations  :  3328
 total energy-change (2. order) :-0.2619925E+00  (-0.2619925E+00)
 number of electron       7.9999999 magnetization 
 augmentation part       -0.9785351 magnetization 

 Free energy of the ion-electron system (eV)
  ---------------------------------------------------
  alpha Z        PSCENC =        15.79325893
  Ewald energy   TEWEN  =      -354.45312954
  -Hartree energ DENC   =       -30.13565474
  -exchange      EXHF   =         0.00000000
  -V(xc)+E(xc)   XCENC  =       -30.15825134
  PAW double counting   =    152012.18841017  -151958.49425755
  entropy T*S    EENTRO =        -0.00000000
  eigenvalues    EBANDS =      -415.44488273
  atomic energy  EATOM  =       455.36566902
  Solvation  Ediel_sol  =         0.00000000
  ---------------------------------------------------
  free energy    TOTEN  =      -305.33883778 eV

  energy without entropy =     -305.33883778  energy(sigma->0) =     -305.33883778


--------------------------------------------------------------------------------------------------------




----------------------------------------- Iteration    1(   4)  ---------------------------------------


     EDDAV:  cpu time    0.8109: real time    0.8131
       DOS:  cpu time    0.0010: real time    0.0003
    --------------------------------------------
      LOOP:  cpu time    0.8129: real time    0.8171

 eigenvalue-minimisations  :  4624
 total energy-change (2. order) :-0.8333186E-03  (-0.8333186E-03)
 number of electron       7.9999999 magnetization 
 augmentation part       -0.9785351 magnetization 

 Free energy of the ion-electron system (eV)
  ---------------------------------------------------
  alpha Z        PSCENC =        15.79325893
  Ewald energy   TEWEN  =      -354.45312954
  -Hartree energ DENC   =       -30.13565474
  -exchange      EXHF   =         0.00000000
  -V(xc)+E(xc)   XCENC  =       -30.15825134
  PAW double counting   =    152012.18841017  -151958.49425755
  entropy T*S    EENTRO =        -0.00000000
  eigenvalues    EBANDS =      -415.44571605
  atomic energy  EATOM  =       455.36566902
  Solvation  Ediel_sol  =         0.00000000
  ---------------------------------------------------
  free energy    TOTEN  =      -305.33967109 eV

  energy without entropy =     -305.33967109  energy(sigma->0) =     -305.33967109


--------------------------------------------------------------------------------------------------------




----------------------------------------- Iteration    1(   5)  ---------------------------------------


     EDDAV:  cpu time    0.5649: real time    0.5659
       DOS:  cpu time    0.0010: real time    0.0003
    CHARGE:  cpu time    0.0310: real time    0.0315
    MIXING:  cpu time    0.0010: real time    0.0003
    --------------------------------------------
      LOOP:  cpu time    0.5979: real time    0.6017

 eigenvalue-minimisations  :  3424
 total energy-change (2. order) :-0.2850049E-06  (-0.2850055E-06)
 number of electron       7.9999985 magnetization 
 augmentation part        0.5779128 magnetization 

 Broyden mixing:
  rms(total) = 0.92984E+01    rms(broyden)= 0.92720E+01
  rms(prec ) = 0.28825E+02
  weight for this iteration     100.00

 Free energy of the ion-electron system (eV)
  ---------------------------------------------------
  alpha Z        PSCENC =        15.79325893
  Ewald energy   TEWEN  =      -354.45312954
  -Hartree energ DENC   =       -30.13565474
  -exchange      EXHF   =         0.00000000
  -V(xc)+E(xc)   XCENC  =       -30.15825134
  PAW double counting   =    152012.18841017  -151958.49425755
  entropy T*S    EENTRO =        -0.00000000
  eigenvalues    EBANDS =      -415.44571634
  atomic energy  EATOM  =       455.36566902
  Solvation  Ediel_sol  =         0.00000000
  ---------------------------------------------------
  free energy    TOTEN  =      -305.33967138 eV

  energy without entropy =     -305.33967138  energy(sigma->0) =     -305.33967138


--------------------------------------------------------------------------------------------------------




----------------------------------------- Iteration    1(   6)  ---------------------------------------


    POTLOK:  cpu time    0.0050: real time    0.0047
    SETDIJ:  cpu time    0.0020: real time    0.0027
     EDDAV:  cpu time    0.4299: real time    0.4300
       DOS:  cpu time    0.0000: real time    0.0004
    CHARGE:  cpu time    0.0310: real time    0.0314
    MIXING:  cpu time    0.0010: real time    0.0004
    --------------------------------------------
      LOOP:  cpu time    0.4689: real time    0.4737

 eigenvalue-minimisations  :  2752
 total energy-change (2. order) : 0.2383509E+03  (-0.2754331E+02)
 number of electron       7.9999994 magnetization 
 augmentation part        0.2526217 magnetization 

 Broyden mixing:
  rms(total) = 0.39508E+01    rms(broyden)= 0.39474E+01
  rms(prec ) = 0.13376E+02
  weight for this iteration     100.00

 eigenvalues of (default mixing * dielectric matrix)
  average eigenvalue GAMMA=   1.4760
  1.4760

 Free energy of the ion-electron system (eV)
  ---------------------------------------------------
  alpha Z        PSCENC =        15.79325893
  Ewald energy   TEWEN  =      -354.45312954
  -Hartree energ DENC   =       -67.07969392
  -exchange      EXHF   =         0.00000000
  -V(xc)+E(xc)   XCENC  =       -26.23019485
  PAW double counting   =    373385.64465796  -373335.81029439
  entropy T*S    EENTRO =        -0.00000000
  eigenvalues    EBANDS =      -140.21906825
  atomic energy  EATOM  =       455.36566902
  Solvation  Ediel_sol  =         0.00000000
  ---------------------------------------------------
  free energy    TOTEN  =       -66.98879503 eV

  energy without entropy =      -66.98879503  energy(sigma->0) =      -66.98879503


--------------------------------------------------------------------------------------------------------




----------------------------------------- Iteration    1(   7)  ---------------------------------------


    POTLOK:  cpu time    0.0050: real time    0.0046
    SETDIJ:  cpu time    0.0030: real time    0.0027
     EDDAV:  cpu time    0.6559: real time    0.6586
       DOS:  cpu time    0.0010: real time    0.0004
    CHARGE:  cpu time    0.0310: real time    0.0311
    MIXING:  cpu time    0.0000: real time    0.0003
    --------------------------------------------
      LOOP:  cpu time    0.6959: real time    0.8017

 eigenvalue-minimisations  :  3984
 total energy-change (2. order) : 0.4408070E+02  (-0.3913084E+02)
 number of electron       8.0000001 magnetization 
 augmentation part       -0.0157418 magnetization 

 Broyden mixing:
  rms(total) = 0.26146E+01    rms(broyden)= 0.26089E+01
  rms(prec ) = 0.70225E+01
  weight for this iteration     100.00

 eigenvalues of (default mixing * dielectric matrix)
  average eigenvalue GAMMA=   1.3217
  1.3217  1.3217

 Free energy of the ion-electron system (eV)
  ---------------------------------------------------
  alpha Z        PSCENC =        15.79325893
  Ewald energy   TEWEN  =      -354.45312954
  -Hartree energ DENC   =      -179.58320238
  -exchange      EXHF   =         0.00000000
  -V(xc)+E(xc)   XCENC  =       -18.75607622
  PAW double counting   =     53709.03299383   -53660.77645934
  entropy T*S    EENTRO =        -0.00000000
  eigenvalues    EBANDS =        10.46885223
  atomic energy  EATOM  =       455.36566902
  Solvation  Ediel_sol  =         0.00000000
  ---------------------------------------------------
  free energy    TOTEN  =       -22.90809347 eV

  energy without entropy =      -22.90809347  energy(sigma->0) =      -22.90809347


--------------------------------------------------------------------------------------------------------




----------------------------------------- Iteration    1(   8)  ---------------------------------------


    POTLOK:  cpu time    0.0050: real time    0.0046
    SETDIJ:  cpu time    0.0030: real time    0.0027
     EDDAV:  cpu time    0.4259: real time    0.4275
       DOS:  cpu time    0.0010: real time    0.0004
    CHARGE:  cpu time    0.0310: real time    0.0315
    MIXING:  cpu time    0.0010: real time    0.0003
    --------------------------------------------
      LOOP:  cpu time    0.4669: real time    0.4707

 eigenvalue-minimisations  :  2736
 total energy-change (2. order) : 0.1675720E+01  (-0.1842548E+02)
 number of electron       7.9999996 magnetization 
 augmentation part        0.1496479 magnetization 

 Broyden mixing:
  rms(total) = 0.16733E+01    rms(broyden)= 0.16723E+01
  rms(prec ) = 0.60341E+01
  weight for this iteration     100.00

 eigenvalues of (default mixing * dielectric matrix)
  average eigenvalue GAMMA=   1.5677
  2.6051  1.3358  0.7622

 Free energy of the ion-electron system (eV)
  ---------------------------------------------------
  alpha Z        PSCENC =        15.79325893
  Ewald energy   TEWEN  =      -354.45312954
  -Hartree energ DENC   =      -100.68575666
  -exchange      EXHF   =         0.00000000
  -V(xc)+E(xc)   XCENC  =       -24.05351825
  PAW double counting   =     64949.07841173   -64899.01546962
  entropy T*S    EENTRO =        -0.00000000
  eigenvalues    EBANDS =       -63.26183919
  atomic energy  EATOM  =       455.36566902
  Solvation  Ediel_sol  =         0.00000000
  ---------------------------------------------------
  free energy    TOTEN  =       -21.23237358 eV

  energy without entropy =      -21.23237358  energy(sigma->0) =      -21.23237358


--------------------------------------------------------------------------------------------------------




----------------------------------------- Iteration    1(   9)  ---------------------------------------


    POTLOK:  cpu time    0.0040: real time    0.0045
    SETDIJ:  cpu time    0.0030: real time    0.0028
     EDDAV:  cpu time    0.4439: real time    0.4454
       DOS:  cpu time    0.0000: real time    0.0004
    CHARGE:  cpu time    0.0310: real time    0.0308
    MIXING:  cpu time    0.0010: real time    0.0003
    --------------------------------------------
      LOOP:  cpu time    0.4829: real time    0.4878

 eigenvalue-minimisations  :  2832
 total energy-change (2. order) : 0.9271799E+01  (-0.3222398E+01)
 number of electron       7.9999998 magnetization 
 augmentation part        0.0782604 magnetization 

 Broyden mixing:
  rms(total) = 0.24685E+00    rms(broyden)= 0.24569E+00
  rms(prec ) = 0.68092E+00
  weight for this iteration     100.00

 eigenvalues of (default mixing * dielectric matrix)
  average eigenvalue GAMMA=   1.5151
  2.5832  1.3623  1.3623  0.7526

 Free energy of the ion-electron system (eV)
  ---------------------------------------------------
  alpha Z        PSCENC =        15.79325893
  Ewald energy   TEWEN  =      -354.45312954
  -Hartree energ DENC   =      -138.18394968
  -exchange      EXHF   =         0.00000000
  -V(xc)+E(xc)   XCENC  =       -20.93796834
  PAW double counting   =      1114.57283083    -1064.06091411
  entropy T*S    EENTRO =        -0.00000000
  eigenvalues    EBANDS =       -20.05637185
  atomic energy  EATOM  =       455.36566902
  Solvation  Ediel_sol  =         0.00000000
  ---------------------------------------------------
  free energy    TOTEN  =       -11.96057473 eV

  energy without entropy =      -11.96057473  energy(sigma->0) =      -11.96057473


--------------------------------------------------------------------------------------------------------




----------------------------------------- Iteration    1(  10)  ---------------------------------------


    POTLOK:  cpu time    0.0040: real time    0.0045
    SETDIJ:  cpu time    0.0030: real time    0.0027
     EDDAV:  cpu time    0.5279: real time    0.5295
       DOS:  cpu time    0.0010: real time    0.0004
    CHARGE:  cpu time    0.0310: real time    0.0315
    MIXING:  cpu time    0.0000: real time    0.0003
    --------------------------------------------
      LOOP:  cpu time    0.5669: real time    0.5724

 eigenvalue-minimisations  :  3296
 total energy-change (2. order) :-0.1828788E-01  (-0.2167290E+00)
 number of electron       7.9999999 magnetization 
 augmentation part        0.0587588 magnetization 

 Broyden mixing:
  rms(total) = 0.19159E+00    rms(broyden)= 0.19092E+00
  rms(prec ) = 0.60166E+00
  weight for this iteration     100.00

 eigenvalues of (default mixing * dielectric matrix)
  average eigenvalue GAMMA=   1.6445
  2.7110  2.5570  1.2183  0.9152  0.8209

 Free energy of the ion-electron system (eV)
  ---------------------------------------------------
  alpha Z        PSCENC =        15.79325893
  Ewald energy   TEWEN  =      -354.45312954
  -Hartree energ DENC   =      -145.37453684
  -exchange      EXHF   =         0.00000000
  -V(xc)+E(xc)   XCENC  =       -20.47345172
  PAW double counting   =       883.11447702     -832.78045163
  entropy T*S    EENTRO =        -0.00000000
  eigenvalues    EBANDS =       -13.17069785
  atomic energy  EATOM  =       455.36566902
  Solvation  Ediel_sol  =         0.00000000
  ---------------------------------------------------
  free energy    TOTEN  =       -11.97886261 eV

  energy without entropy =      -11.97886261  energy(sigma->0) =      -11.97886261


--------------------------------------------------------------------------------------------------------




----------------------------------------- Iteration    1(  11)  ---------------------------------------


    POTLOK:  cpu time    0.0030: real time    0.0046
    SETDIJ:  cpu time    0.0030: real time    0.0027
     EDDAV:  cpu time    0.4889: real time    0.4905
       DOS:  cpu time    0.0010: real time    0.0004
    CHARGE:  cpu time    0.0310: real time    0.0315
    MIXING:  cpu time    0.0000: real time    0.0004
    --------------------------------------------
      LOOP:  cpu time    0.5289: real time    0.5335

 eigenvalue-minimisations  :  3072
 total energy-change (2. order) : 0.5805396E-01  (-0.7075122E-01)
 number of electron       7.9999999 magnetization 
 augmentation part        0.0697349 magnetization 

 Broyden mixing:
  rms(total) = 0.42662E-01    rms(broyden)= 0.42552E-01
  rms(prec ) = 0.15449E+00
  weight for this iteration     100.00

 eigenvalues of (default mixing * dielectric matrix)
  average eigenvalue GAMMA=   1.5806
  2.8997  2.5374  1.3176  0.8307  0.9492  0.9492

 Free energy of the ion-electron system (eV)
  ---------------------------------------------------
  alpha Z        PSCENC =        15.79325893
  Ewald energy   TEWEN  =      -354.45312954
  -Hartree energ DENC   =      -140.69652079
  -exchange      EXHF   =         0.00000000
  -V(xc)+E(xc)   XCENC  =       -20.75786070
  PAW double counting   =       728.00126459     -677.59083665
  entropy T*S    EENTRO =        -0.00000000
  eigenvalues    EBANDS =       -17.58265351
  atomic energy  EATOM  =       455.36566902
  Solvation  Ediel_sol  =         0.00000000
  ---------------------------------------------------
  free energy    TOTEN  =       -11.92080864 eV

  energy without entropy =      -11.92080864  energy(sigma->0) =      -11.92080864


--------------------------------------------------------------------------------------------------------




----------------------------------------- Iteration    1(  12)  ---------------------------------------


    POTLOK:  cpu time    0.0040: real time    0.0046
    SETDIJ:  cpu time    0.0030: real time    0.0027
     EDDAV:  cpu time    0.5189: real time    0.5196
       DOS:  cpu time    0.0000: real time    0.0003
    CHARGE:  cpu time    0.0310: real time    0.0314
    MIXING:  cpu time    0.0010: real time    0.0004
    --------------------------------------------
      LOOP:  cpu time    0.5589: real time    0.5632

 eigenvalue-minimisations  :  3200
 total energy-change (2. order) : 0.4087370E-02  (-0.3045791E-02)
 number of electron       7.9999999 magnetization 
 augmentation part        0.0677273 magnetization 

 Broyden mixing:
  rms(total) = 0.47775E-02    rms(broyden)= 0.47605E-02
  rms(prec ) = 0.16598E-01
  weight for this iteration     100.00

 eigenvalues of (default mixing * dielectric matrix)
  average eigenvalue GAMMA=   1.5120
  2.8703  2.5375  1.4048  1.0723  1.0723  0.8136  0.8136

 Free energy of the ion-electron system (eV)
  ---------------------------------------------------
  alpha Z        PSCENC =        15.79325893
  Ewald energy   TEWEN  =      -354.45312954
  -Hartree energ DENC   =      -141.67964128
  -exchange      EXHF   =         0.00000000
  -V(xc)+E(xc)   XCENC  =       -20.68333175
  PAW double counting   =       657.41471208     -607.01806796
  entropy T*S    EENTRO =        -0.00000000
  eigenvalues    EBANDS =       -16.65619077
  atomic energy  EATOM  =       455.36566902
  Solvation  Ediel_sol  =         0.00000000
  ---------------------------------------------------
  free energy    TOTEN  =       -11.91672127 eV

  energy without entropy =      -11.91672127  energy(sigma->0) =      -11.91672127


--------------------------------------------------------------------------------------------------------




----------------------------------------- Iteration    1(  13)  ---------------------------------------


    POTLOK:  cpu time    0.0050: real time    0.0046
    SETDIJ:  cpu time    0.0030: real time    0.0027
     EDDAV:  cpu time    0.5839: real time    0.5859
       DOS:  cpu time    0.0010: real time    0.0004
    CHARGE:  cpu time    0.0310: real time    0.0315
    MIXING:  cpu time    0.0010: real time    0.0004
    --------------------------------------------
      LOOP:  cpu time    0.6249: real time    0.6297

 eigenvalue-minimisations  :  3552
 total energy-change (2. order) :-0.3323973E-04  (-0.1555167E-03)
 number of electron       7.9999999 magnetization 
 augmentation part        0.0671898 magnetization 

 Broyden mixing:
  rms(total) = 0.52661E-02    rms(broyden)= 0.52528E-02
  rms(prec ) = 0.14853E-01
  weight for this iteration     100.00

 eigenvalues of (default mixing * dielectric matrix)
  average eigenvalue GAMMA=   1.6816
  3.2945  2.6752  2.5243  1.2912  1.0075  0.8647  0.8976  0.8976

 Free energy of the ion-electron system (eV)
  ---------------------------------------------------
  alpha Z        PSCENC =        15.79325893
  Ewald energy   TEWEN  =      -354.45312954
  -Hartree energ DENC   =      -141.85641594
  -exchange      EXHF   =         0.00000000
  -V(xc)+E(xc)   XCENC  =       -20.67280617
  PAW double counting   =       674.74675803     -624.35390828
  entropy T*S    EENTRO =        -0.00000000
  eigenvalues    EBANDS =       -16.48618056
  atomic energy  EATOM  =       455.36566902
  Solvation  Ediel_sol  =         0.00000000
  ---------------------------------------------------
  free energy    TOTEN  =       -11.91675451 eV

  energy without entropy =      -11.91675451  energy(sigma->0) =      -11.91675451


--------------------------------------------------------------------------------------------------------




----------------------------------------- Iteration    1(  14)  ---------------------------------------


    POTLOK:  cpu time    0.0040: real time    0.0046
    SETDIJ:  cpu time    0.0030: real time    0.0027
     EDDAV:  cpu time    0.5559: real time    0.5564
       DOS:  cpu time    0.0000: real time    0.0004
    CHARGE:  cpu time    0.0310: real time    0.0313
    MIXING:  cpu time    0.0010: real time    0.0004
    --------------------------------------------
      LOOP:  cpu time    0.5949: real time    0.5991

 eigenvalue-minimisations  :  3408
 total energy-change (2. order) : 0.3971832E-04  (-0.3974687E-04)
 number of electron       7.9999999 magnetization 
 augmentation part        0.0674795 magnetization 

 Broyden mixing:
  rms(total) = 0.12651E-02    rms(broyden)= 0.12622E-02
  rms(prec ) = 0.34983E-02
  weight for this iteration     100.00

 eigenvalues of (default mixing * dielectric matrix)
  average eigenvalue GAMMA=   1.5809
  2.9557  2.6851  2.5207  1.2213  1.2213  0.8974  0.8974  0.8696  0.9600

 Free energy of the ion-electron system (eV)
  ---------------------------------------------------
  alpha Z        PSCENC =        15.79325893
  Ewald energy   TEWEN  =      -354.45312954
  -Hartree energ DENC   =      -141.76856013
  -exchange      EXHF   =         0.00000000
  -V(xc)+E(xc)   XCENC  =       -20.67815008
  PAW double counting   =       690.39292225     -639.99755131
  entropy T*S    EENTRO =        -0.00000000
  eigenvalues    EBANDS =       -16.57117394
  atomic energy  EATOM  =       455.36566902
  Solvation  Ediel_sol  =         0.00000000
  ---------------------------------------------------
  free energy    TOTEN  =       -11.91671479 eV

  energy without entropy =      -11.91671479  energy(sigma->0) =      -11.91671479


--------------------------------------------------------------------------------------------------------




----------------------------------------- Iteration    1(  15)  ---------------------------------------


    POTLOK:  cpu time    0.0050: real time    0.0048
    SETDIJ:  cpu time    0.0020: real time    0.0026
     EDDAV:  cpu time    0.5279: real time    0.5293
       DOS:  cpu time    0.0010: real time    0.0004
    CHARGE:  cpu time    0.0310: real time    0.0313
    MIXING:  cpu time    0.0000: real time    0.0005
    --------------------------------------------
      LOOP:  cpu time    0.5669: real time    0.5718

 eigenvalue-minimisations  :  3232
 total energy-change (2. order) : 0.1657690E-05  (-0.2500130E-05)
 number of electron       7.9999999 magnetization 
 augmentation part        0.0674147 magnetization 

 Broyden mixing:
  rms(total) = 0.28866E-03    rms(broyden)= 0.28808E-03
  rms(prec ) = 0.10761E-02
  weight for this iteration     100.00

 eigenvalues of (default mixing * dielectric matrix)
  average eigenvalue GAMMA=   1.6952
  3.2819  2.8200  2.5114  2.4582  1.2821  1.0118  0.8515  0.9561  0.8895  0.8895

 Free energy of the ion-electron system (eV)
  ---------------------------------------------------
  alpha Z        PSCENC =        15.79325893
  Ewald energy   TEWEN  =      -354.45312954
  -Hartree energ DENC   =      -141.79297182
  -exchange      EXHF   =         0.00000000
  -V(xc)+E(xc)   XCENC  =       -20.67684608
  PAW double counting   =       689.01973042     -638.62496195
  entropy T*S    EENTRO =        -0.00000000
  eigenvalues    EBANDS =       -16.54746211
  atomic energy  EATOM  =       455.36566902
  Solvation  Ediel_sol  =         0.00000000
  ---------------------------------------------------
  free energy    TOTEN  =       -11.91671314 eV

  energy without entropy =      -11.91671314  energy(sigma->0) =      -11.91671314


--------------------------------------------------------------------------------------------------------




----------------------------------------- Iteration    1(  16)  ---------------------------------------


    POTLOK:  cpu time    0.0040: real time    0.0046
    SETDIJ:  cpu time    0.0030: real time    0.0025
     EDDAV:  cpu time    0.3219: real time    0.3231
       DOS:  cpu time    0.0010: real time    0.0004
    --------------------------------------------
      LOOP:  cpu time    0.3309: real time    0.3349

 eigenvalue-minimisations  :  1792
 total energy-change (2. order) : 0.3818286E-08  (-0.4555540E-07)
 number of electron       7.9999999 magnetization 
 augmentation part        0.0674147 magnetization 

 Free energy of the ion-electron system (eV)
  ---------------------------------------------------
  alpha Z        PSCENC =        15.79325893
  Ewald energy   TEWEN  =      -354.45312954
  -Hartree energ DENC   =      -141.78932386
  -exchange      EXHF   =         0.00000000
  -V(xc)+E(xc)   XCENC  =       -20.67717469
  PAW double counting   =       687.10001560     -636.70523272
  entropy T*S    EENTRO =        -0.00000000
  eigenvalues    EBANDS =       -16.55079588
  atomic energy  EATOM  =       455.36566902
  Solvation  Ediel_sol  =         0.00000000
  ---------------------------------------------------
  free energy    TOTEN  =       -11.91671313 eV

  energy without entropy =      -11.91671313  energy(sigma->0) =      -11.91671313


--------------------------------------------------------------------------------------------------------




 average (electrostatic) potential at core
  the test charge radii are     0.5955  1.0714
  (the norm of the test charge is              1.0000)
       1-108.5459       2 -34.9634
 
 
 
 E-fermi :   3.7229     XC(G=0): -10.9347     alpha+bet :-13.1194


 k-point     1 :       0.0000    0.0000    0.0000
  band No.  band energies     occupation 
      1     -13.7550      2.00000
      2       3.3550      2.00000
      3       3.3550      2.00000
      4       3.3551      2.00000
      5       7.7791      0.00000
      6      18.9787      0.00000
      7      18.9787      0.00000
      8      18.9787      0.00000
      9      22.8147      0.00000
     10      24.5496      0.00000
     11      24.5496      0.00000
     12      26.9999      0.00000
     13      26.9999      0.00000
     14      26.9999      0.00000
     15      40.9532      0.00000
     16      40.9532      0.00000

 k-point     2 :       0.0769    0.0000   -0.0000
  band No.  band energies     occupation 
      1     -13.6954      2.00000
      2       2.9514      2.00000
      3       3.3173      2.00000
      4       3.3173      2.00000
      5       8.1768      0.00000
      6      18.1368      0.00000
      7      19.1179      0.00000
      8      19.1179      0.00000
      9      23.9057      0.00000
     10      24.0166      0.00000
     11      24.0166      0.00000
     12      26.9876      0.00000
     13      27.7799      0.00000
     14      27.7799      0.00000
     15      39.8021      0.00000
     16      40.9087      0.00000

 k-point     3 :       0.1538    0.0000    0.0000
  band No.  band energies     occupation 
      1     -13.5255      2.00000
      2       2.0386      2.00000
      3       3.2119      2.00000
      4       3.2119      2.00000
      5       9.0484      0.00000
      6      16.8461      0.00000
      7      19.4558      0.00000
      8      19.4558      0.00000
      9      23.2926      0.00000
     10      23.2926      0.00000
     11      25.1417      0.00000
     12      27.7856      0.00000
     13      29.2711      0.00000
     14      29.2711      0.00000
     15      38.3403      0.00000
     16      40.6830      0.00000

 k-point     4 :       0.2308    0.0000    0.0000
  band No.  band energies     occupation 
      1     -13.2726      2.00000
      2       1.0055      2.00000
      3       3.0693      2.00000
      4       3.0693      2.00000
      5       9.9594      0.00000
      6      15.8915      0.00000
      7      19.7282      0.00000
      8      19.7282      0.00000
      9      23.0788      0.00000
     10      23.0788      0.00000
     11      24.9560      0.00000
     12      30.1291      0.00000
     13      30.8717      0.00000
     14      30.8717      0.00000
     15      37.0869      0.00000
     16      39.9455      0.00000

 k-point     5 :       0.3077    0.0000    0.0000
  band No.  band energies     occupation 
      1     -12.9841      2.00000
      2       0.0551      2.00000
      3       2.9245      2.00000
      4       2.9246      2.00000
      5      10.6289      0.00000
      6      15.4489      0.00000
      7      19.6929      0.00000
      8      19.6929      0.00000
      9      23.6110      0.00000
     10      23.6110      0.00000
     11      24.4479      0.00000
     12      31.9058      0.00000
     13      32.3008      0.00000
     14      32.3008      0.00000
     15      37.2559      0.00000
     16      38.4135      0.00000

 k-point     6 :       0.3846    0.0000   -0.0000
  band No.  band energies     occupation 
      1     -12.7259      2.00000
      2      -0.6760      2.00000
      3       2.8087      2.00000
      4       2.8087      2.00000
      5      10.9528      0.00000
      6      15.4451      0.00000
      7      19.5007      0.00000
      8      19.5007      0.00000
      9      24.0279      0.00000
     10      24.5655      0.00000
     11      24.5655      0.00000
     12      31.8387      0.00000
     13      33.3053      0.00000
     14      33.3053      0.00000
     15      36.6357      0.00000
     16      36.6357      0.00000

 k-point     7 :       0.4615    0.0000    0.0000
  band No.  band energies     occupation 
      1     -12.5712      2.00000
      2      -1.0741      2.00000
      3       2.7443      2.00000
      4       2.7443      2.00000
      5      11.0465      0.00000
      6      15.5802      0.00000
      7      19.3637      0.00000
      8      19.3637      0.00000
      9      23.8069      0.00000
     10      25.3424      0.00000
     11      25.3424      0.00000
     12      31.4003      0.00000
     13      33.6892      0.00000
     14      33.6892      0.00000
     15      35.5337      0.00000
     16      35.5337      0.00000

 k-point     8 :       0.0769    0.0769    0.0000
  band No.  band energies     occupation 
[...]
      5      12.8148      0.00000
      6      13.8924      0.00000
      7      16.5820      0.00000
      8      20.5630      0.00000
      9      21.7892      0.00000
     10      27.1758      0.00000
     11      30.3154      0.00000
     12      30.8870      0.00000
     13      32.3104      0.00000
     14      35.8044      0.00000
     15      35.8596      0.00000
     16      39.9688      0.00000

 k-point    65 :      -0.4615    0.3077    0.0769
  band No.  band energies     occupation 
      1     -12.4107      2.00000
      2      -0.2548      2.00000
      3       1.4063      2.00000
      4       2.2565      2.00000
      5      13.1424      0.00000
      6      14.4936      0.00000
      7      16.1145      0.00000
      8      20.2626      0.00000
      9      22.1937      0.00000
     10      27.0059      0.00000
     11      30.4906      0.00000
     12      30.7059      0.00000
     13      32.1493      0.00000
     14      35.3967      0.00000
     15      37.0106      0.00000
     16      41.7225      0.00000

 k-point    66 :      -0.3846    0.3077    0.0769
  band No.  band energies     occupation 
      1     -12.3466      2.00000
      2      -0.2133      2.00000
      3       1.0206      2.00000
      4       2.2890      2.00000
      5      13.3349      0.00000
      6      15.0684      0.00000
      7      15.8485      0.00000
      8      20.0417      0.00000
      9      22.5459      0.00000
     10      26.2016      0.00000
     11      30.3206      0.00000
     12      30.9018      0.00000
     13      31.9338      0.00000
     14      35.5166      0.00000
     15      38.7287      0.00000
     16      39.5698      0.00000

 k-point    67 :      -0.3077    0.3077    0.0769
  band No.  band energies     occupation 
      1     -12.3839      2.00000
      2      -0.1060      2.00000
      3       0.9006      2.00000
      4       2.3991      2.00000
      5      13.3963      0.00000
      6      15.0844      0.00000
      7      15.9499      0.00000
      8      20.0652      0.00000
      9      23.1539      0.00000
     10      24.8752      0.00000
     11      30.0083      0.00000
     12      31.2506      0.00000
     13      32.0199      0.00000
     14      35.8227      0.00000
     15      37.1524      0.00000
     16      41.2359      0.00000

 k-point    68 :      -0.2308    0.3077    0.0769
  band No.  band energies     occupation 
      1     -12.5112      2.00000
      2      -0.0827      2.00000
      3       1.2123      2.00000
      4       2.5571      2.00000
      5      13.0289      0.00000
      6      14.8374      0.00000
      7      16.5233      0.00000
      8      20.2247      0.00000
      9      23.4791      0.00000
     10      24.0541      0.00000
     11      29.4742      0.00000
     12      31.4405      0.00000
     13      32.1200      0.00000
     14      34.7436      0.00000
     15      36.9489      0.00000
     16      40.9447      0.00000

 k-point    69 :       0.4615    0.3846    0.0769
  band No.  band energies     occupation 
      1     -12.4711      2.00000
      2      -0.2724      2.00000
      3       1.9852      2.00000
      4       2.1501      2.00000
      5      13.0290      0.00000
      6      13.1669      0.00000
      7      16.2603      0.00000
      8      21.0093      0.00000
      9      21.7602      0.00000
     10      28.2811      0.00000
     11      29.4160      0.00000
     12      32.1518      0.00000
     13      32.9481      0.00000
     14      36.8420      0.00000
     15      36.8566      0.00000
     16      40.1117      0.00000

 k-point    70 :      -0.4615    0.3846    0.0769
  band No.  band energies     occupation 
      1     -12.3554      2.00000
      2      -0.2919      2.00000
      3       1.5478      2.00000
      4       2.0732      2.00000
      5      13.1970      0.00000
      6      13.7921      0.00000
      7      15.9227      0.00000
      8      20.5643      0.00000
      9      22.1151      0.00000
     10      28.3034      0.00000
     11      29.6825      0.00000
     12      31.2042      0.00000
     13      33.0335      0.00000
     14      36.9149      0.00000
     15      37.8163      0.00000
     16      41.1588      0.00000

 k-point    71 :      -0.3846    0.3846    0.0769
  band No.  band energies     occupation 
      1     -12.2954      2.00000
      2      -0.0993      2.00000
      3       0.9552      2.00000
      4       2.1107      2.00000
      5      13.4315      0.00000
      6      14.6170      0.00000
      7      15.6252      0.00000
      8      20.0952      0.00000
      9      22.2748      0.00000
     10      27.7153      0.00000
     11      29.7618      0.00000
     12      31.1150      0.00000
     13      32.3311      0.00000
     14      37.2425      0.00000
     15      39.4998      0.00000
     16      40.6405      0.00000

 k-point    72 :      -0.3077    0.3846    0.0769
  band No.  band energies     occupation 
      1     -12.3062      2.00000
      2       0.3028      2.00000
      3       0.3766      2.00000
      4       2.2293      2.00000
      5      13.6623      0.00000
      6      15.2864      0.00000
      7      15.2959      0.00000
      8      19.9456      0.00000
      9      22.5190      0.00000
     10      26.2592      0.00000
     11      30.3532      0.00000
     12      31.3668      0.00000
     13      31.6066      0.00000
     14      37.5655      0.00000
     15      37.8661      0.00000
     16      41.1553      0.00000

 k-point    73 :      -0.4615    0.4615    0.0769
  band No.  band energies     occupation 
      1     -12.3139      2.00000
      2      -0.4662      2.00000
      3       1.8493      2.00000
      4       1.9798      2.00000
      5      12.8213      0.00000
      6      13.3199      0.00000
      7      16.0105      0.00000
      8      21.1242      0.00000
      9      22.0586      0.00000
     10      28.5314      0.00000
     11      29.8085      0.00000
     12      31.5124      0.00000
     13      33.7120      0.00000
     14      38.3082      0.00000
     15      38.6481      0.00000
     16      40.2104      0.00000

 k-point    74 :      -0.3846    0.4615    0.0769
  band No.  band energies     occupation 
      1     -12.2828      2.00000
      2      -0.3237      2.00000
      3       1.4225      2.00000
      4       1.9889      2.00000
      5      13.1231      0.00000
      6      13.8817      0.00000
      7      15.8366      0.00000
      8      20.5081      0.00000
      9      22.2416      0.00000
     10      28.9169      0.00000
     11      29.5487      0.00000
     12      30.5464      0.00000
     13      33.3677      0.00000
     14      38.6033      0.00000
     15      39.4176      0.00000
     16      41.3929      0.00000

 k-point    75 :       0.4615    0.3077    0.1538
  band No.  band energies     occupation 
      1     -12.6443      2.00000
      2       0.0013      2.00000
      3       1.7785      2.00000
      4       2.5071      2.00000
      5      12.5903      0.00000
      6      14.3505      0.00000
      7      16.9958      0.00000
      8      20.3033      0.00000
      9      22.0585      0.00000
     10      25.8228      0.00000
     11      29.9953      0.00000
     12      31.0200      0.00000
     13      31.5963      0.00000
     14      35.0194      0.00000
     15      36.1599      0.00000
     16      39.9134      0.00000

 k-point    76 :      -0.4615    0.3077    0.1538
  band No.  band energies     occupation 
      1     -12.4700      2.00000
      2      -0.1626      2.00000
      3       1.3796      2.00000
      4       2.3444      2.00000
      5      13.2075      0.00000
      6      14.5785      0.00000
      7      16.3494      0.00000
      8      19.9663      0.00000
      9      22.9407      0.00000
     10      25.3881      0.00000
     11      30.3165      0.00000
     12      31.2197      0.00000
     13      31.9088      0.00000
     14      35.4751      0.00000
     15      36.2793      0.00000
     16      41.5531      0.00000

 k-point    77 :      -0.3846    0.3077    0.1538
  band No.  band energies     occupation 
      1     -12.3682      2.00000
      2      -0.2398      2.00000
      3       1.1478      2.00000
      4       2.2416      2.00000
      5      13.4110      0.00000
      6      15.0237      0.00000
      7      15.9928      0.00000
      8      19.6802      0.00000
      9      23.5228      0.00000
     10      25.0123      0.00000
     11      30.4852      0.00000
     12      30.9822      0.00000
     13      32.1618      0.00000
     14      35.2185      0.00000
     15      37.7222      0.00000
     16      40.2895      0.00000

 k-point    78 :      -0.4615    0.3846    0.1538
  band No.  band energies     occupation 
      1     -12.4147      2.00000
      2      -0.1610      2.00000
      3       1.4767      2.00000
      4       2.0999      2.00000
      5      13.6301      0.00000
      6      13.8896      0.00000
      7      16.0155      0.00000
      8      20.0337      0.00000
      9      22.5794      0.00000
     10      26.7605      0.00000
     11      30.3320      0.00000
     12      31.3779      0.00000
     13      32.4562      0.00000
     14      36.4521      0.00000
     15      36.5394      0.00000
     16      40.7917      0.00000

 k-point    79 :      -0.3846    0.3846    0.1538
  band No.  band energies     occupation 
      1     -12.3192      2.00000
      2      -0.0401      2.00000
      3       1.0351      2.00000
      4       1.9687      2.00000
      5      13.9282      0.00000
      6      14.5845      0.00000
      7      15.5880      0.00000
      8      19.4247      0.00000
      9      23.2590      0.00000
     10      26.1222      0.00000
     11      29.9907      0.00000
     12      31.4625      0.00000
     13      32.9619      0.00000
     14      36.2984      0.00000
     15      38.1958      0.00000
     16      42.0031      0.00000

 k-point    80 :      -0.3077    0.3846    0.1538
  band No.  band energies     occupation 
      1     -12.2961      2.00000
      2       0.1616      2.00000
      3       0.6709      2.00000
      4       1.9896      2.00000
      5      14.0985      0.00000
      6      14.9921      0.00000
      7      15.4037      0.00000
      8      19.1501      0.00000
      9      23.8032      0.00000
     10      25.2585      0.00000
     11      29.9792      0.00000
     12      31.6980      0.00000
     13      32.6722      0.00000
     14      36.4645      0.00000
     15      38.9275      0.00000
     16      40.9005      0.00000

 k-point    81 :      -0.2308    0.3846    0.1538
  band No.  band energies     occupation 
      1     -12.3514      2.00000
      2       0.0401      2.00000
      3       0.8623      2.00000
      4       2.1361      2.00000
      5      13.9825      0.00000
      6      14.6837      0.00000
      7      15.7089      0.00000
      8      19.4697      0.00000
      9      24.0834      0.00000
     10      24.5092      0.00000
     11      30.5110      0.00000
     12      31.7903      0.00000
     13      31.8176      0.00000
     14      36.7997      0.00000
     15      36.8568      0.00000
     16      41.5686      0.00000

 k-point    82 :      -0.3846    0.4615    0.1538
  band No.  band energies     occupation 
      1     -12.2877      2.00000
      2      -0.1676      2.00000
      3       1.3155      2.00000
      4       1.8106      2.00000
      5      13.6450      0.00000
      6      14.1819      0.00000
      7      15.6516      0.00000
      8      19.7231      0.00000
      9      22.8589      0.00000
     10      27.7490      0.00000
     11      29.2924      0.00000
     12      31.0400      0.00000
     13      33.9858      0.00000
     14      37.5333      0.00000
     15      38.7681      0.00000
     16      41.3536      0.00000

 k-point    83 :      -0.3077    0.4615    0.1538
  band No.  band energies     occupation 
      1     -12.2666      2.00000
      2       0.0991      2.00000
      3       0.8529      2.00000
      4       1.8052      2.00000
      5      14.0132      0.00000
      6      14.8299      0.00000
      7      15.3484      0.00000
      8      19.0946      0.00000
      9      23.3864      0.00000
     10      26.6191      0.00000
     11      29.2678      0.00000
     12      31.4488      0.00000
     13      33.7802      0.00000
     14      37.5310      0.00000
     15      40.1639      0.00000
     16      40.1940      0.00000

 k-point    84 :      -0.3077    0.4615    0.2308
  band No.  band energies     occupation 
      1     -12.2671      2.00000
      2       0.2927      2.00000
      3       0.6770      2.00000
      4       1.7227      2.00000
      5      14.5851      0.00000
      6      14.8009      0.00000
      7      15.2123      0.00000
      8      18.6601      0.00000
      9      24.3516      0.00000
     10      25.2665      0.00000
     11      29.3542      0.00000
     12      31.6888      0.00000
     13      34.1010      0.00000
     14      37.0301      0.00000
     15      39.3181      0.00000
     16      41.1022      0.00000


--------------------------------------------------------------------------------------------------------


 soft charge-density along one line, spin component           1
         0         1         2         3         4         5         6         7         8         9
 total charge-density along one line
 
 pseudopotential strength for first ion, spin component:           1
 25.191  -0.005  -0.000  -0.000  -0.000   0.000   0.000   0.000
 -0.005   0.001  -0.000  -0.000  -0.000  -0.000  -0.000  -0.000
 -0.000  -0.000  -8.636   0.000   0.000   0.013   0.000   0.000
 -0.000  -0.000   0.000  -8.636   0.000   0.000   0.013   0.000
 -0.000  -0.000   0.000   0.000  -8.636   0.000   0.000   0.013
  0.000  -0.000   0.013   0.000   0.000   0.018   0.000   0.000
  0.000  -0.000   0.000   0.013   0.000   0.000   0.018   0.000
  0.000  -0.000   0.000   0.000   0.013   0.000   0.000   0.018
 total augmentation occupancy for first ion, spin component:           1
  1.788   2.136   0.000   0.000   0.000   0.000   0.000   0.000
  2.136   4.087   0.000   0.000   0.000   0.000   0.000   0.000
  0.000   0.000   1.496   0.000  -0.000  -1.129  -0.000   0.000
  0.000   0.000   0.000   1.496  -0.000  -0.000  -1.129   0.000
  0.000   0.000  -0.000  -0.000   1.496   0.000   0.000  -1.129
  0.000   0.000  -1.129  -0.000   0.000   0.909   0.000   0.000
  0.000   0.000  -0.000  -1.129   0.000   0.000   0.909  -0.000
  0.000   0.000   0.000   0.000  -1.129   0.000  -0.000   0.909


------------------------ aborting loop because EDIFF is reached ----------------------------------------


    CHARGE:  cpu time    0.0320: real time    0.0315
    FORLOC:  cpu time    0.0000: real time    0.0002
    FORNL :  cpu time    0.0200: real time    0.0191
    STRESS:  cpu time    0.3280: real time    0.3286
    FORCOR:  cpu time    0.0040: real time    0.0036
    FORHAR:  cpu time    0.0000: real time    0.0008
    MIXING:  cpu time    0.0010: real time    0.0006
    OFIELD:  cpu time    0.0000: real time    0.0000

  FORCE on cell =-STRESS in cart. coord.  units (eV):
  Direction    XX          YY          ZZ          XY          YZ          ZX
  --------------------------------------------------------------------------------------
  Alpha Z    15.79326    15.79326    15.79326
  Ewald    -118.15107  -118.15107  -118.15107    -0.00000    -0.00000     0.00000
  Hartree    47.25913    47.25913    47.25913     0.00000     0.00000     0.00000
  E(xc)     -36.93566   -36.93566   -36.93566    -0.00000    -0.00000    -0.00000
  Local     -89.25844   -89.25845   -89.25847    -0.00000     0.00000    -0.00000
  n-local    -8.64568   -10.10294   -10.82531    -0.03194     0.00310    -1.94752
  augment     0.80354     0.80354     0.80354    -0.00000    -0.00000    -0.00000
  Kinetic   183.21281   190.41158   195.98053     3.47150    -0.17676     7.85877
  Fock        0.00000     0.00000     0.00000     0.00000     0.00000     0.00000
  -------------------------------------------------------------------------------------
  Total      -0.47893    -0.47893    -0.47893    -0.00000     0.00000     0.00000
  in kB     -39.80048   -39.80048   -39.80049    -0.00000     0.00000     0.00000
  external pressure =      -39.80 kB  Pullay stress =        0.00 kB


 VOLUME and BASIS-vectors are now :
 -----------------------------------------------------------------------------
  energy-cutoff  :      800.00
  volume of cell :       19.28
      direct lattice vectors                 reciprocal lattice vectors
     3.009788000  0.000000000  0.000000000     0.332249315 -0.191824221 -0.135640193
     1.504894000  2.606553000  0.000000000     0.000000000  0.383648443 -0.135640193
     1.504894000  0.868851000  2.457482000     0.000000000  0.000000000  0.406920580

  length of vectors
     3.009788000  3.009788114  3.009788330     0.406920632  0.406920619  0.406920580


 FORCES acting on ions
    electron-ion (+dipol)            ewald-force                    non-local-force                 convergence-correction
 -----------------------------------------------------------------------------------------------
   0.752E-12 0.784E-12 0.376E-12   0.522E-15 -.592E-15 -.130E-15   -.316E-24 0.307E-24 -.790E-25   0.179E-14 0.453E-14 0.257E-14
   -.118E-14 -.691E-15 -.274E-15   -.124E-14 0.371E-15 0.144E-15   -.167E-24 -.774E-25 -.740E-25   -.376E-16 -.100E-16 -.261E-16
 -----------------------------------------------------------------------------------------------
   0.750E-12 0.783E-12 0.376E-12   -.716E-15 -.221E-15 0.145E-16   -.483E-24 0.229E-24 -.153E-24   0.175E-14 0.452E-14 0.255E-14
 
 
 POSITION                                       TOTAL-FORCE (eV/Angst)
 -----------------------------------------------------------------------------------
      3.00979      1.73770      1.22874        -0.000000      0.000000      0.000000
      0.00000      0.00000      0.00000         0.000000     -0.000000     -0.000000
 -----------------------------------------------------------------------------------
    total drift:                                0.000000      0.000000      0.000000


--------------------------------------------------------------------------------------------------------



  FREE ENERGIE OF THE ION-ELECTRON SYSTEM (eV)
  ---------------------------------------------------
  free  energy   TOTEN  =       -11.91671313 eV

  energy  without entropy=      -11.91671313  energy(sigma->0) =      -11.91671313
 


--------------------------------------------------------------------------------------------------------


    POTLOK:  cpu time    0.0070: real time    0.0072


--------------------------------------------------------------------------------------------------------


     LOOP+:  cpu time    9.3436: real time    9.5254
    4ORBIT:  cpu time    0.0000: real time    0.0000

 total amount of memory used by VASP on root node    50795. kBytes
========================================================================

   base      :      30000. kBytes
   nonl-proj :      17924. kBytes
   fftplans  :        267. kBytes
   grid      :       1169. kBytes
   one-center:         16. kBytes
   wavefun   :       1419. kBytes
 
  
  
 General timing and accounting informations for this job:
 ========================================================
  
                  Total CPU time used (sec):       10.578
                            User time (sec):        9.635
                          System time (sec):        0.944
                         Elapsed time (sec):       11.082
  
                   Maximum memory used (kb):       79976.
                   Average memory used (kb):           0.
  
                          Minor page faults:        43966
                          Major page faults:            5
                 Voluntary context switches:         1449
