LAMMPS (11 Aug 2017)
# ---- initialize simulations
clear
units metal
dimension 3
boundary p p p
atom_style atomic
atom_modify map array
# ---- create atoms
read_data /home/eragasa/repos/pypospack/examples/Ni__eam__born_exp_rose/preconditioning_3.5NN/rank_47/Ni_fcc.lmps_min_all/lammps.structure
  triclinic box = (0 0 0) to (3.5167 3.5167 3.5167) with tilt (0 -0 0)
  1 by 1 by 1 MPI processor grid
  reading atoms ...
  4 atoms
# ---- define interatomic potential
include potential.mod
mass 1 58.6934

group Ni type 1
4 atoms in group Ni

pair_style eam/alloy
pair_coeff * * /home/eragasa/repos/pypospack/examples/Ni__eam__born_exp_rose/preconditioning_3.5NN/rank_47/Ni_fcc.lmps_min_all/Ni.eam.alloy Ni

neighbor 1.0 bin
neigh_modify every 1 delay 0 check yes
# ---- define settings
compute eng all pe/atom
compute eatoms all reduce sum c_eng
# ---- run minimization
reset_timestep 0
fix 1 all box/relax aniso 0.0 vmax 0.001
thermo 10
thermo_style custom step pe xhi xlo yhi ylo zhi xy xz yz press pxx pyy pzz pxy pxz pyz c_eatoms
min_style cg
minimize 1e-25 1e-25 5000 10000
Neighbor list info ...
  update every 1 steps, delay 0 steps, check yes
  max neighbors/atom: 2000, page size: 100000
  master list distance cutoff = 5.64464
  ghost atom cutoff = 5.64464
  binsize = 2.82232, bins = 2 2 2
  1 neighbor lists, perpetual/occasional/extra = 1 0 0
  (1) pair eam/alloy, perpetual
      attributes: half, newton on
      pair build: half/bin/newton/tri
      stencil: half/bin/3d/newton/tri
      bin: standard
Per MPI rank memory allocation (min/avg/max) = 4.211 | 4.211 | 4.211 Mbytes
Step PotEng Xhi Xlo Yhi Ylo Zhi Xy Xz Yz Press Pxx Pyy Pzz Pxy Pxz Pyz c_eatoms 
       0   -17.828989       3.5167            0       3.5167            0       3.5167            0           -0            0    4264.5959    4264.5959    4264.5959    4264.5959 -3.8342983e-12 -9.4579359e-12 -5.2402077e-12   -17.828989 
      10   -17.829102    3.5181052 -0.0014051625    3.5181052 -0.0014051625    3.5181052            0           -0            0   -139.42753   -139.42753   -139.42753   -139.42753 -8.0837549e-10 1.3897938e-11 1.364293e-11   -17.829102 
      20   -17.829103    3.5181009 -0.0014008942    3.5181009 -0.0014008942    3.5181009            0           -0            0   -45.767935   -45.767935   -45.767935   -45.767935 -3.2373506e-10 -4.0903587e-10 3.3049283e-10   -17.829103 
      30   -17.829103    3.5180995 -0.0013995444    3.5180995 -0.0013995444    3.5180995            0           -0            0   -16.211612   -16.211612   -16.211612   -16.211612 8.173086e-11 -6.3752621e-12 -8.9253669e-13   -17.829103 
      40   -17.829103    3.5180962 -0.0013962221    3.5180962 -0.0013962221    3.5180962            0           -0            0    56.397835    56.397835    56.397835    56.397835 3.1876491e-12 4.2076968e-12 4.0457642e-10   -17.829103 
      50   -17.829103    3.5181009 -0.0014009346    3.5181009 -0.0014009346    3.5181009            0           -0            0   -46.651324   -46.651324   -46.651324   -46.651324 3.2105744e-10 -7.2677815e-12 -3.3929064e-10   -17.829103 
      60   -17.829103    3.5180995  -0.00139955    3.5180995  -0.00139955    3.5180995            0           -0            0   -16.333829   -16.333829   -16.333829   -16.333829 6.885283e-12 -3.9807136e-10 5.2277148e-12   -17.829103 
      70   -17.829103    3.5180962 -0.001396188    3.5180962 -0.001396188    3.5180962            0           -0            0    57.140087    57.140087    57.140087    57.140087 1.7850836e-12 3.9526851e-12 -6.4824036e-10   -17.829103 
      80   -17.829103    3.5181009 -0.0014009351    3.5181009 -0.0014009351    3.5181009            0           -0            0   -46.663861   -46.663861   -46.663861   -46.663861 4.0737828e-10 -7.1402766e-12 -4.080158e-10   -17.829103 
      90   -17.829103    3.5180996 -0.0013995501    3.5180996 -0.0013995501    3.5180996            0           -0            0   -16.335706   -16.335706   -16.335706   -16.335706 3.9526624e-12 4.0801677e-12 5.2277148e-12   -17.829103 
     100   -17.829103    3.5180962 -0.0013961875    3.5180962 -0.0013961875    3.5180962            0           -0            0    57.151345    57.151345    57.151345    57.151345 -9.7299806e-10 -5.616638e-10 -6.8853224e-12   -17.829103 
     110   -17.829103    3.5181009 -0.0014009351    3.5181009 -0.0014009351    3.5181009            0           -0            0    -46.66405    -46.66405    -46.66405    -46.66405 1.6843402e-10 -1.5300593e-12 -3.2603013e-10   -17.829103 
     120   -17.829103    3.5180996 -0.0013995501    3.5180996 -0.0013995501    3.5180996            0           -0            0   -16.335735   -16.335735   -16.335735   -16.335735 6.5180679e-10 3.2424583e-10 -1.2750524e-13   -17.829103 
     130   -17.829103    3.5180962 -0.0013961875    3.5180962 -0.0013961875    3.5180962            0           -0            0    57.151515    57.151515    57.151515    57.151515 4.0444894e-10 -1.0965514e-11 -5.7377687e-12   -17.829103 
     140   -17.829103    3.5181009 -0.0014009351    3.5181009 -0.0014009351    3.5181009            0           -0            0   -46.664053   -46.664053   -46.664053   -46.664053 -1.5300593e-12 5.9927321e-12 6.6646832e-10   -17.829103 
     150   -17.829103    3.5180996 -0.0013995501    3.5180996 -0.0013995501    3.5180996            0           -0            0   -16.335735   -16.335735   -16.335735   -16.335735 1.2750524e-13            0 -4.0291656e-10   -17.829103 
     160   -17.829103    3.5180962 -0.0013961875    3.5180962 -0.0013961875    3.5180962            0           -0            0    57.151518    57.151518    57.151518    57.151518 1.2750597e-12 1.1220525e-11 9.9454657e-12   -17.829103 
     170   -17.829103    3.5181009 -0.0014009351    3.5181009 -0.0014009351    3.5181009            0           -0            0   -46.664053   -46.664053   -46.664053   -46.664053 8.0914634e-10 3.2870773e-10 -4.8426376e-10   -17.829103 
     180   -17.829103    3.5180996 -0.0013995501    3.5180996 -0.0013995501    3.5180996            0           -0            0   -16.335735   -16.335735   -16.335735   -16.335735 2.5156784e-10 4.4626834e-12 4.113319e-10   -17.829103 
     190   -17.829103    3.5180962 -0.0013961875    3.5180962 -0.0013961875    3.5180962            0           -0            0    57.151518    57.151518    57.151518    57.151518 4.0763659e-10 4.0840163e-10 -4.1082424e-10   -17.829103 
     200   -17.829103    3.5181009 -0.0014009351    3.5181009 -0.0014009351    3.5181009            0           -0            0   -46.664053   -46.664053   -46.664053   -46.664053 -1.2750494e-13 3.8251482e-12 -5.1001976e-12   -17.829103 
     210   -17.829103    3.5180996 -0.0013995501    3.5180996 -0.0013995501    3.5180996            0           -0            0   -16.335735   -16.335735   -16.335735   -16.335735            0 -2.2950943e-12 -3.0601258e-12   -17.829103 
     220   -17.829103    3.5180962 -0.0013961875    3.5180962 -0.0013961875    3.5180962            0           -0            0    57.151518    57.151518    57.151518    57.151518 -1.7850836e-12 2.8051314e-12 8.0902539e-10   -17.829103 
     230   -17.829103    3.5181009 -0.0014009351    3.5181009 -0.0014009351    3.5181009            0           -0            0   -46.664053   -46.664053   -46.664053   -46.664053 1.2750494e-13 -1.7595682e-11 -1.7850691e-11   -17.829103 
     240   -17.829103    3.5180996 -0.0013995501    3.5180996 -0.0013995501    3.5180996            0           -0            0   -16.335735   -16.335735   -16.335735   -16.335735 1.2750524e-12            0 4.9306276e-10   -17.829103 
     250   -17.829103    3.5180962 -0.0013961875    3.5180962 -0.0013961875    3.5180962            0           -0            0    57.151518    57.151518    57.151518    57.151518 2.1676015e-12 -4.590215e-12 4.9281058e-10   -17.829103 
     260   -17.829103    3.5181009 -0.0014009351    3.5181009 -0.0014009351    3.5181009            0           -0            0   -46.664053   -46.664053   -46.664053   -46.664053 -5.3552074e-12 -8.415326e-12 -7.2677815e-12   -17.829103 
     270   -17.829103    3.5180996 -0.0013995501    3.5180996 -0.0013995501    3.5180996            0           -0            0   -16.335735   -16.335735   -16.335735   -16.335735 2.5501048e-13 -8.4153458e-12 3.5701467e-12   -17.829103 
     280   -17.829103    3.5180962 -0.0013961875    3.5180962 -0.0013961875    3.5180962            0           -0            0    57.151518    57.151518    57.151518    57.151518 4.0419393e-10 -1.0327984e-11 -8.1425313e-10   -17.829103 
     290   -17.829103    3.5181009 -0.0014009351    3.5181009 -0.0014009351    3.5181009            0           -0            0   -46.664053   -46.664053   -46.664053   -46.664053 -4.9675924e-10 4.9956435e-10 -4.9178655e-10   -17.829103 
     300   -17.829103    3.5180996 -0.0013995501    3.5180996 -0.0013995501    3.5180996            0           -0            0   -16.335735   -16.335735   -16.335735   -16.335735 -2.505478e-10            0 2.4034738e-10   -17.829103 
     310   -17.829103    3.5180962 -0.0013961875    3.5180962 -0.0013961875    3.5180962            0           -0            0    57.151518    57.151518    57.151518    57.151518 -3.8251791e-12 1.4025657e-12 7.6503583e-13   -17.829103 
     320   -17.829103    3.5181009 -0.0014009351    3.5181009 -0.0014009351    3.5181009            0           -0            0   -46.664053   -46.664053   -46.664053   -46.664053 -4.8885394e-10 -1.704741e-10 4.1031089e-10   -17.829103 
     330   -17.829103    3.5180996 -0.0013995501    3.5180996 -0.0013995501    3.5180996            0           -0            0   -16.335735   -16.335735   -16.335735   -16.335735 -4.8528494e-10 5.9927463e-12 1.0837945e-11   -17.829103 
     340   -17.829103    3.5180962 -0.0013961875    3.5180962 -0.0013961875    3.5180962            0           -0            0    57.151518    57.151518    57.151518    57.151518 4.8324763e-10 4.8312012e-10 -3.8251791e-12   -17.829103 
     350   -17.829103    3.5181009 -0.0014009351    3.5181009 -0.0014009351    3.5181009            0           -0            0   -46.664053   -46.664053   -46.664053   -46.664053 -4.8859893e-10 -1.4688569e-10 -1.6027371e-10   -17.829103 
     360   -17.829103    3.5180996 -0.0013995501    3.5180996 -0.0013995501    3.5180996            0           -0            0   -16.335735   -16.335735   -16.335735   -16.335735 1.6575681e-12 -8.6703563e-12 -4.1260696e-10   -17.829103 
     370   -17.829103    3.5180962 -0.0013961875    3.5180962 -0.0013961875    3.5180962            0           -0            0    57.151518    57.151518    57.151518    57.151518 -7.6503583e-13 -2.9326373e-12 -7.3953463e-12   -17.829103 
     380   -17.829103    3.5181009 -0.0014009351    3.5181009 -0.0014009351    3.5181009            0           -0            0   -46.664053   -46.664053   -46.664053   -46.664053 1.0200395e-12 -7.5227914e-12 -5.4827124e-12   -17.829103 
     390   -17.829103    3.5180996 -0.0013995501    3.5180996 -0.0013995501    3.5180996            0           -0            0   -16.335735   -16.335735   -16.335735   -16.335735 -4.0827178e-10 8.2878406e-12 9.9454087e-12   -17.829103 
     400   -17.829103    3.5180962 -0.0013961875    3.5180962 -0.0013961875    3.5180962            0           -0            0    57.151518    57.151518    57.151518    57.151518 -4.9459566e-10 -4.8822036e-10 -4.868178e-10   -17.829103 
     410   -17.829103    3.5181009 -0.0014009351    3.5181009 -0.0014009351    3.5181009            0           -0            0   -46.664053   -46.664053   -46.664053   -46.664053 3.4426334e-12 4.8706887e-10 -3.2488258e-10   -17.829103 
     420   -17.829103    3.5180996 -0.0013995501    3.5180996 -0.0013995501    3.5180996            0           -0            0   -16.335735   -16.335735   -16.335735   -16.335735 -1.5300629e-12 6.885283e-12 9.1803773e-12   -17.829103 
     430   -17.829103    3.5180962 -0.0013961875    3.5180962 -0.0013961875    3.5180962            0           -0            0    57.151518    57.151518    57.151518    57.151518 -3.0601433e-12 7.7778642e-12 -6.5028045e-12   -17.829103 
     440   -17.829103    3.5181009 -0.0014009351    3.5181009 -0.0014009351    3.5181009            0           -0            0   -46.664053   -46.664053   -46.664053   -46.664053 6.6302568e-12 8.1335401e-10 -3.4426334e-12   -17.829103 
     450   -17.829103    3.5180996 -0.0013995501    3.5180996 -0.0013995501    3.5180996            0           -0            0   -16.335735   -16.335735   -16.335735   -16.335735 -8.9253668e-13 -8.4153458e-12 8.7978616e-12   -17.829103 
     460   -17.829103    3.5180962 -0.0013961875    3.5180962 -0.0013961875    3.5180962            0           -0            0    57.151518    57.151518    57.151518    57.151518 1.9125896e-12 2.6776254e-12 1.0200478e-12   -17.829103 
     470   -17.829103    3.5181009 -0.0014009351    3.5181009 -0.0014009351    3.5181009            0           -0            0   -46.664053   -46.664053   -46.664053   -46.664053 2.5500988e-12 -1.6575642e-12 -3.2756019e-10   -17.829103 
     480   -17.829103    3.5180996 -0.0013995501    3.5180996 -0.0013995501    3.5180996            0           -0            0   -16.335735   -16.335735   -16.335735   -16.335735 -8.9712687e-10 -4.013865e-10            0   -17.829103 
     490   -17.829103    3.5180962 -0.0013961875    3.5180962 -0.0013961875    3.5180962            0           -0            0    57.151518    57.151518    57.151518    57.151518 -3.2730783e-10 7.0128284e-12 -5.4827568e-12   -17.829103 
     500   -17.829103    3.5181009 -0.0014009351    3.5181009 -0.0014009351    3.5181009            0           -0            0   -46.664053   -46.664053   -46.664053   -46.664053 7.1402766e-12 -2.040079e-12 4.0457317e-10   -17.829103 
     510   -17.829103    3.5180996 -0.0013995501    3.5180996 -0.0013995501    3.5180996            0           -0            0   -16.335735   -16.335735   -16.335735   -16.335735 -2.8051153e-12 -4.8375488e-10 5.865241e-12   -17.829103 
     520   -17.829103    3.5180962 -0.0013961875    3.5180962 -0.0013961875    3.5180962            0           -0            0    57.151518    57.151518    57.151518    57.151518 3.8251791e-12 -3.1876493e-12 1.2750597e-13   -17.829103 
     530   -17.829103    3.5181009 -0.0014009351    3.5181009 -0.0014009351    3.5181009            0           -0            0   -46.664053   -46.664053   -46.664053   -46.664053 4.8158615e-10 4.9433665e-10 3.3151284e-12   -17.829103 
     540   -17.829103    3.5180996 -0.0013995501    3.5180996 -0.0013995501    3.5180996            0           -0            0   -16.335735   -16.335735   -16.335735   -16.335735 -6.7577777e-12 -6.1202515e-12 -8.9253668e-13   -17.829103 
     550   -17.829103    3.5180962 -0.0013961875    3.5180962 -0.0013961875    3.5180962            0           -0            0    57.151518    57.151518    57.151518    57.151518 -3.2794536e-10 -4.207697e-12 -1.2113067e-11   -17.829103 
     560   -17.829103    3.5181009 -0.0014009351    3.5181009 -0.0014009351    3.5181009            0           -0            0   -46.664053   -46.664053   -46.664053   -46.664053 1.2750494e-13 5.6102173e-12 2.5500988e-13   -17.829103 
     570   -17.829103    3.5180996 -0.0013995501    3.5180996 -0.0013995501    3.5180996            0           -0            0   -16.335735   -16.335735   -16.335735   -16.335735 -4.9727044e-12 -4.3351782e-12 -3.4426415e-12   -17.829103 
     580   -17.829103    3.5180962 -0.0013961875    3.5180962 -0.0013961875    3.5180962            0           -0            0    57.151518    57.151518    57.151518    57.151518 1.1475537e-12 7.0128284e-12 8.1438064e-10   -17.829103 
     590   -17.829103    3.5181009 -0.0014009351    3.5181009 -0.0014009351    3.5181009            0           -0            0   -46.664053   -46.664053   -46.664053   -46.664053 1.2750494e-13 -8.0328112e-12 -1.0710415e-11   -17.829103 
     600   -17.829103    3.5180996 -0.0013995501    3.5180996 -0.0013995501    3.5180996            0           -0            0   -16.335735   -16.335735   -16.335735   -16.335735 -2.67761e-12 1.4408092e-11 -1.9125786e-12   -17.829103 
     610   -17.829103    3.5180962 -0.0013961875    3.5180962 -0.0013961875    3.5180962            0           -0            0    57.151518    57.151518    57.151518    57.151518 -1.2750597e-13 2.8051314e-12 -1.2495585e-11   -17.829103 
     620   -17.829103    3.5181009 -0.0014009351    3.5181009 -0.0014009351    3.5181009            0           -0            0   -46.664053   -46.664053   -46.664053   -46.664053 -8.5555814e-11 7.6120449e-11 -1.03279e-11   -17.829103 
     630   -17.829103    3.5180996 -0.0013995501    3.5180996 -0.0013995501    3.5180996            0           -0            0   -16.335735   -16.335735   -16.335735   -16.335735 4.7176939e-12 -4.0355408e-10 6.5027672e-12   -17.829103 
     640   -17.829103    3.5180962 -0.0013961875    3.5180962 -0.0013961875    3.5180962            0           -0            0    57.151518    57.151518    57.151518    57.151518 5.6599901e-10 2.4481146e-10 2.3894619e-10   -17.829103 
     650   -17.829103    3.5181009 -0.0014009351    3.5181009 -0.0014009351    3.5181009            0           -0            0   -46.664053   -46.664053   -46.664053   -46.664053 -1.1475445e-12 -5.6102173e-12 -7.6502963e-12   -17.829103 
     660   -17.829103    3.5180996 -0.0013995501    3.5180996 -0.0013995501    3.5180996            0           -0            0   -16.335735   -16.335735   -16.335735   -16.335735 -4.0699673e-10 2.5501048e-13 -4.8515744e-10   -17.829103 
     670   -17.829103    3.5180962 -0.0013961875    3.5180962 -0.0013961875    3.5180962            0           -0            0    57.151518    57.151518    57.151518    57.151518 -3.3151552e-12 1.2240573e-11 -8.5429001e-12   -17.829103 
     680   -17.829103    3.5181009 -0.0014009351    3.5181009 -0.0014009351    3.5181009            0           -0            0   -46.664053   -46.664053   -46.664053   -46.664053 2.5500988e-13 -1.3898038e-11 2.5500988e-12   -17.829103 
     690   -17.829103    3.5180996 -0.0013995501    3.5180996 -0.0013995501    3.5180996            0           -0            0   -16.335735   -16.335735   -16.335735   -16.335735 2.1675891e-12 -6.375262e-12 4.7342696e-10   -17.829103 
     700   -17.829103    3.5180962 -0.0013961875    3.5180962 -0.0013961875    3.5180962            0           -0            0    57.151518    57.151518    57.151518    57.151518 -2.5501194e-13 1.0200478e-11 -2.3524852e-10   -17.829103 
     710   -17.829103    3.5181009 -0.0014009351    3.5181009 -0.0014009351    3.5181009            0           -0            0   -46.664053   -46.664053   -46.664053   -46.664053 -3.3151284e-12 -4.3351679e-12 -2.5500988e-12   -17.829103 
     720   -17.829103    3.5180996 -0.0013995501    3.5180996 -0.0013995501    3.5180996            0           -0            0   -16.335735   -16.335735   -16.335735   -16.335735 -5.2277148e-12 1.6320671e-11 1.338805e-11   -17.829103 
     730   -17.829103    3.5180962 -0.0013961875    3.5180962 -0.0013961875    3.5180962            0           -0            0    57.151518    57.151518    57.151518    57.151518 4.590215e-12 3.6976732e-12 -5.2277448e-12   -17.829103 
     740   -17.829103    3.5181009 -0.0014009351    3.5181009 -0.0014009351    3.5181009            0           -0            0   -46.664053   -46.664053   -46.664053   -46.664053 5.4827124e-12 -4.0686826e-10 -2.167584e-12   -17.829103 
     750   -17.829103    3.5180996 -0.0013995501    3.5180996 -0.0013995501    3.5180996            0           -0            0   -16.335735   -16.335735   -16.335735   -16.335735 2.8051153e-12 5.3552201e-12 4.1260696e-10   -17.829103 
     760   -17.829103    3.5180962 -0.0013961875    3.5180962 -0.0013961875    3.5180962            0           -0            0    57.151518    57.151518    57.151518    57.151518 -3.4426612e-12 3.4426612e-12 6.1202866e-12   -17.829103 
     770   -17.829103    3.5181009 -0.0014009351    3.5181009 -0.0014009351    3.5181009            0           -0            0   -46.664053   -46.664053   -46.664053   -46.664053 -2.4225938e-12 5.9927321e-12 -3.9947297e-10   -17.829103 
     780   -17.829103    3.5180996 -0.0013995501    3.5180996 -0.0013995501    3.5180996            0           -0            0   -16.335735   -16.335735   -16.335735   -16.335735 -2.4430004e-10 -1.0200419e-11 -1.045543e-11   -17.829103 
     790   -17.829103    3.5180962 -0.0013961875    3.5180962 -0.0013961875    3.5180962            0           -0            0    57.151518    57.151518    57.151518    57.151518 -4.7177209e-12 2.9326373e-12 3.331731e-10   -17.829103 
     800   -17.829103    3.5181009 -0.0014009351    3.5181009 -0.0014009351    3.5181009            0           -0            0   -46.664053   -46.664053   -46.664053   -46.664053 -3.1876235e-12 2.8051087e-12 -4.207663e-12   -17.829103 
     810   -17.829103    3.5180996 -0.0013995501    3.5180996 -0.0013995501    3.5180996            0           -0            0   -16.335735   -16.335735   -16.335735   -16.335735 -3.8251572e-13 8.6703563e-12 1.581065e-11   -17.829103 
     820   -17.829103    3.5180962 -0.0013961875    3.5180962 -0.0013961875    3.5180962            0           -0            0    57.151518    57.151518    57.151518    57.151518 4.9434065e-10 1.9125896e-12 3.3151552e-12   -17.829103 
     830   -17.829103    3.5181009 -0.0014009351    3.5181009 -0.0014009351    3.5181009            0           -0            0   -46.664053   -46.664053   -46.664053   -46.664053 -2.5500988e-13 1.6384385e-10 -4.080158e-12   -17.829103 
     840   -17.829103    3.5180996 -0.0013995501    3.5180996 -0.0013995501    3.5180996            0           -0            0   -16.335735   -16.335735   -16.335735   -16.335735 -8.9393924e-10 -4.0482914e-10 2.0400838e-12   -17.829103 
     850   -17.829103    3.5180962 -0.0013961875    3.5180962 -0.0013961875    3.5180962            0           -0            0    57.151518    57.151518    57.151518    57.151518 -6.3752986e-13 -6.3752986e-13 -7.7396124e-11   -17.829103 
     860   -17.829103    3.5181009 -0.0014009351    3.5181009 -0.0014009351    3.5181009            0           -0            0   -46.664053   -46.664053   -46.664053   -46.664053 8.9253457e-13 -4.0865333e-10 -1.4025543e-12   -17.829103 
     870   -17.829103    3.5180996 -0.0013995501    3.5180996 -0.0013995501    3.5180996            0           -0            0   -16.335735   -16.335735   -16.335735   -16.335735 -2.5501048e-13 1.2750524e-13 -5.865241e-12   -17.829103 
     880   -17.829103    3.5180962 -0.0013961875    3.5180962 -0.0013961875    3.5180962            0           -0            0    57.151518    57.151518    57.151518    57.151518 2.1676015e-12 -1.2368079e-11 -8.925418e-12   -17.829103 
     890   -17.829103    3.5181009 -0.0014009351    3.5181009 -0.0014009351    3.5181009            0           -0            0   -46.664053   -46.664053   -46.664053   -46.664053 -4.9726926e-12 -6.8852667e-12 -5.1001976e-13   -17.829103 
     900   -17.829103    3.5180996 -0.0013995501    3.5180996 -0.0013995501    3.5180996            0           -0            0   -16.335735   -16.335735   -16.335735   -16.335735 2.5501048e-12 -3.8251572e-13 4.8247983e-10   -17.829103 
     910   -17.829103    3.5180962 -0.0013961875    3.5180962 -0.0013961875    3.5180962            0           -0            0    57.151518    57.151518    57.151518    57.151518 2.4889166e-10 3.3342811e-10 3.3483068e-10   -17.829103 
     920   -17.829103    3.5181009 -0.0014009351    3.5181009 -0.0014009351    3.5181009            0           -0            0   -46.664053   -46.664053   -46.664053   -46.664053 4.8094863e-10 9.5628704e-12 -4.7814352e-10   -17.829103 
     930   -17.829103    3.5180996 -0.0013995501    3.5180996 -0.0013995501    3.5180996            0           -0            0   -16.335735   -16.335735   -16.335735   -16.335735 1.9125786e-12 -3.8251572e-13 -6.375262e-13   -17.829103 
     940   -17.829103    3.5180962 -0.0013961875    3.5180962 -0.0013961875    3.5180962            0           -0            0    57.151518    57.151518    57.151518    57.151518 -3.3457567e-10 -4.0623402e-10 -4.1082424e-10   -17.829103 
     950   -17.829103    3.5181009 -0.0014009351    3.5181009 -0.0014009351    3.5181009            0           -0            0   -46.664053   -46.664053   -46.664053   -46.664053 2.8051087e-12 6.8852667e-12 -3.2156746e-10   -17.829103 
     960   -17.829103    3.5180996 -0.0013995501    3.5180996 -0.0013995501    3.5180996            0           -0            0   -16.335735   -16.335735   -16.335735   -16.335735 4.7980222e-10 -1.0327924e-11 -7.6503144e-13   -17.829103 
     970   -17.829103    3.5180962 -0.0013961875    3.5180962 -0.0013961875    3.5180962            0           -0            0    57.151518    57.151518    57.151518    57.151518 1.7850836e-12 -1.1475537e-12 -3.159598e-10   -17.829103 
     980   -17.829103    3.5181009 -0.0014009351    3.5181009 -0.0014009351    3.5181009            0           -0            0   -46.664053   -46.664053   -46.664053   -46.664053 4.9242407e-10 -3.4426334e-12 6.5665044e-10   -17.829103 
     990   -17.829103    3.5180996 -0.0013995501    3.5180996 -0.0013995501    3.5180996            0           -0            0   -16.335735   -16.335735   -16.335735   -16.335735 4.087818e-10 4.0623169e-10 3.9972893e-10   -17.829103 
    1000   -17.829103    3.5180962 -0.0013961875    3.5180962 -0.0013961875    3.5180962            0           -0            0    57.151518    57.151518    57.151518    57.151518 3.8251791e-13 6.3752986e-13 -4.8618027e-10   -17.829103 
    1010   -17.829103    3.5181009 -0.0014009351    3.5181009 -0.0014009351    3.5181009            0           -0            0   -46.664053   -46.664053   -46.664053   -46.664053 -2.2950889e-12 3.6976432e-12 4.4626729e-12   -17.829103 
    1020   -17.829103    3.5180996 -0.0013995501    3.5180996 -0.0013995501    3.5180996            0           -0            0   -16.335735   -16.335735   -16.335735   -16.335735 -3.4426415e-12 1.0200419e-11 4.2076729e-12   -17.829103 
    1030   -17.829103    3.5180962 -0.0013961875    3.5180962 -0.0013961875    3.5180962            0           -0            0    57.151518    57.151518    57.151518    57.151518 2.6776254e-12 -4.0674405e-10 -8.2878881e-12   -17.829103 
    1040   -17.829103    3.5181009 -0.0014009351    3.5181009 -0.0014009351    3.5181009            0           -0            0   -46.664053   -46.664053   -46.664053   -46.664053 -1.4025543e-12 -4.0980087e-10 -4.1273349e-10   -17.829103 
    1050   -17.829103    3.5180996 -0.0013995501    3.5180996 -0.0013995501    3.5180996            0           -0            0   -16.335735   -16.335735   -16.335735   -16.335735 1.4025576e-12 9.8179035e-12 -3.9883639e-10   -17.829103 
    1060   -17.829103    3.5180962 -0.0013961875    3.5180962 -0.0013961875    3.5180962            0           -0            0    57.151518    57.151518    57.151518    57.151518 5.1002388e-13 -4.462709e-12 -7.1403344e-12   -17.829103 
    1070   -17.829103    3.5181009 -0.0014009351    3.5181009 -0.0014009351    3.5181009            0           -0            0   -46.664053   -46.664053   -46.664053   -46.664053 3.1595724e-10 4.9127653e-10 -6.4479248e-10   -17.829103 
    1080   -17.829103    3.5180996 -0.0013995501    3.5180996 -0.0013995501    3.5180996            0           -0            0   -16.335735   -16.335735   -16.335735   -16.335735 4.4626834e-12 6.6302725e-12 5.865241e-12   -17.829103 
    1090   -17.829103    3.5180962 -0.0013961875    3.5180962 -0.0013961875    3.5180962            0           -0            0    57.151518    57.151518    57.151518    57.151518 -1.2750597e-12 1.2750597e-13 -3.2985795e-10   -17.829103 
    1100   -17.829103    3.5181009 -0.0014009351    3.5181009 -0.0014009351    3.5181009            0           -0            0   -46.664053   -46.664053   -46.664053   -46.664053 -2.4225938e-12 3.2845272e-10 3.2399005e-10   -17.829103 
    1110   -17.829103    3.5180996 -0.0013995501    3.5180996 -0.0013995501    3.5180996            0           -0            0   -16.335735   -16.335735   -16.335735   -16.335735 -4.0992935e-10 -4.0125899e-10 -8.0596062e-10   -17.829103 
    1115   -17.829103    3.5181009 -0.0014009351    3.5181009 -0.0014009351    3.5181009            0           -0            0   -46.664053   -46.664053   -46.664053   -46.664053 -3.9526531e-12 -8.9253457e-12 -9.6903754e-12   -17.829103 
Loop time of 0.167075 on 1 procs for 1115 steps with 4 atoms

99.9% CPU use with 1 MPI tasks x no OpenMP threads

Minimization stats:
  Stopping criterion = max force evaluations
  Energy initial, next-to-last, final = 
        -17.8289892065     -17.8291025053     -17.8291025065
  Force two-norm initial, final = 0.20093 0.00219751
  Force max component initial, final = 0.115764 0.00126873
  Final line search alpha, max atom move = 0.0201112 2.55157e-05
  Iterations, force evaluations = 1115 10002

MPI task timing breakdown:
Section |  min time  |  avg time  |  max time  |%varavg| %total
---------------------------------------------------------------
Pair    | 0.091028   | 0.091028   | 0.091028   |   0.0 | 54.48
Neigh   | 0          | 0          | 0          |   0.0 |  0.00
Comm    | 0.018047   | 0.018047   | 0.018047   |   0.0 | 10.80
Output  | 0.0012438  | 0.0012438  | 0.0012438  |   0.0 |  0.74
Modify  | 0          | 0          | 0          |   0.0 |  0.00
Other   |            | 0.05676    |            |       | 33.97

Nlocal:    4 ave 4 max 4 min
Histogram: 1 0 0 0 0 0 0 0 0 0
Nghost:    360 ave 360 max 360 min
Histogram: 1 0 0 0 0 0 0 0 0 0
Neighs:    156 ave 156 max 156 min
Histogram: 1 0 0 0 0 0 0 0 0 0

Total # of neighbors = 156
Ave neighs/atom = 39
Neighbor list builds = 0
Dangerous builds = 0
# ---- define output variables ----
variable natoms equal "count(all)"
variable tot_energy equal "c_eatoms"
variable a11 equal "xhi-xlo"
variable a22 equal "yhi-ylo"
variable a33 equal "zhi-zlo"
variable tilt_xy equal "xy"
variable tilt_xz equal "xz"
variable tilt_yz equal "yz"
variable tot_press equal "press"
variable press_xx equal "pxx"
variable press_yy equal "pyy"
variable press_zz equal "pzz"
variable press_xy equal "pxy"
variable press_xz equal "pxz"
variable press_yz equal "pyz"

# ---- output ----
print "pypospack:output_section:begin"
pypospack:output_section:begin
print "tot_energy = ${tot_energy}"
tot_energy = -17.8291025065038
print "num_atoms = ${natoms}"
num_atoms = 4
print "a11 = ${a11}"
a11 = 3.51950187029759
print "a22 = ${a22}"
a22 = 3.51950187029759
print "a33 = ${a33}"
a33 = 3.51950187029759
print "a12 = ${tilt_xy}"
a12 = 0
print "a13 = ${tilt_xz}"
a13 = -0
print "a23 = ${tilt_yz}"
a23 = 0
print "tot_press = ${tot_press}"
tot_press = -46.6640531429576
print "pxx = ${press_xx}"
pxx = -46.6640531428659
print "pyy = ${press_yy}"
pyy = -46.6640531431011
print "pzz = ${press_zz}"
pzz = -46.6640531429058
print "pxy = ${press_xy}"
pxy = -3.95265310989373e-12
print "pxz = ${press_xz}"
pxz = -8.92534573201811e-12
print "pyz = ${press_yz}"
pyz = -9.69037536619109e-12
print "pypospack:output_section:done"
pypospack:output_section:done
print "pypospack:lammps_sim:done"
pypospack:lammps_sim:done
Total wall time: 0:00:00
