# ['Ni']

20 atoms
1 atom types

    0.0000     3.2583 xlo xhi
    0.0000     3.2583 ylo yhi
    0.0000    32.5826 zlo zhi

    0.0000    -0.0000     0.0000 xy xz yz

Atoms

1 1     0.0000     0.0000     0.0000
2 1     1.6291     1.6291     0.0000
3 1     1.6291     0.0000     1.6291
4 1     0.0000     1.6291     1.6291
5 1     0.0000     0.0000     3.2583
6 1     1.6291     1.6291     3.2583
7 1     1.6291     0.0000     4.8874
8 1     0.0000     1.6291     4.8874
9 1     0.0000     0.0000     6.5165
10 1     1.6291     1.6291     6.5165
11 1     1.6291     0.0000     8.1457
12 1     0.0000     1.6291     8.1457
13 1     0.0000     0.0000     9.7748
14 1     1.6291     1.6291     9.7748
15 1     1.6291     0.0000    11.4039
16 1     0.0000     1.6291    11.4039
17 1     0.0000     0.0000    13.0331
18 1     1.6291     1.6291    13.0331
19 1     1.6291     0.0000    14.6622
20 1     0.0000     1.6291    14.6622
