LAMMPS (11 Aug 2017)
# ---- initialize simulations
clear
units metal
dimension 3
boundary p p p
atom_style atomic
atom_modify map array
# ---- create atoms
read_data /home/sullberg/repos/pypospack/dev/cluster_sampling/dev__cluster_sampling/rank_5/Ni_fcc_111_unit.lmps_min_all/lammps.structure
  triclinic box = (0 0 0) to (2.4819 4.2987 6.0783) with tilt (0 0 0)
  1 by 1 by 1 MPI processor grid
  reading atoms ...
  6 atoms
# ---- define interatomic potential
include potential.mod
mass 1 58.6934

group Ni type 1
6 atoms in group Ni

pair_style eam/alloy
pair_coeff * * /home/sullberg/repos/pypospack/dev/cluster_sampling/dev__cluster_sampling/rank_5/Ni_fcc_111_unit.lmps_min_all/Ni.eam.alloy Ni

neighbor 1.0 bin
neigh_modify every 1 delay 0 check yes
# ---- define settings
compute eng all pe/atom
compute eatoms all reduce sum c_eng
# ---- run minimization
reset_timestep 0
fix 1 all box/relax aniso 0.0 vmax 0.001
thermo 10
thermo_style custom step pe xhi xlo yhi ylo zhi xy xz yz press pxx pyy pzz pxy pxz pyz c_eatoms
min_style cg
minimize 1e-25 1e-25 5000 10000
Neighbor list info ...
  update every 1 steps, delay 0 steps, check yes
  max neighbors/atom: 2000, page size: 100000
  master list distance cutoff = 5.64464
  ghost atom cutoff = 5.64464
  binsize = 2.82232, bins = 1 2 3
  1 neighbor lists, perpetual/occasional/extra = 1 0 0
  (1) pair eam/alloy, perpetual
      attributes: half, newton on
      pair build: half/bin/newton/tri
      stencil: half/bin/3d/newton/tri
      bin: standard
Per MPI rank memory allocation (min/avg/max) = 4.212 | 4.212 | 4.212 Mbytes
Step PotEng Xhi Xlo Yhi Ylo Zhi Xy Xz Yz Press Pxx Pyy Pzz Pxy Pxz Pyz c_eatoms 
       0   -41.886685       2.4819            0       4.2987            0       6.0783            0            0            0    -550536.8   -550585.34    -550574.5   -550450.55 -0.0020665762 -0.0006640384   -1.9552658   -41.886685 
      10   -42.540086    2.4694905    0.0124095     4.277207  0.021493028    6.0479168            0            0            0   -535618.39   -535677.78   -535664.57   -535512.81 -0.0023463606 -0.00076360768   -2.4758817   -42.540086 
      20   -43.159343     2.457081     0.024819    4.2557141  0.042985936    6.0175358            0            0            0   -514604.75   -514675.65   -514659.91   -514478.67 -0.0026558092 -0.00087135236   -3.0401353   -43.159343 
      30   -43.737849    2.4446715    0.0372285    4.2342213  0.064478697    5.9871574            0            0            0   -486505.39   -486588.29   -486569.88   -486358.01 -0.0029894526 -0.00098503329   -3.6428245   -43.737849 
      40   -44.268245     2.432262     0.049638    4.2127287  0.085971277    5.9567821            0            0            0   -450185.63   -450280.67    -450259.5   -450016.72 -0.0033473737 -0.0011081124   -4.2734826   -44.268245 
      50   -44.742347    2.4198525    0.0620475    4.1912364   0.10746362    5.9264109            0            0            0   -404346.06   -404452.84   -404428.92   -404156.43 -0.0037255451 -0.0012366033   -4.9128649   -44.742347 
      60   -45.151051     2.407443     0.074457    4.1697444   0.12895565    5.8960451            0            0            0   -347499.34   -347616.52   -347590.02   -347291.46 -0.004115845 -0.0013666644   -5.5260867   -45.151051 
      70    -45.48468    2.3950335    0.0868665    4.1482527   0.15044727    5.8656861            0            0            0   -279461.69   -279580.32   -279553.19   -279251.56 -0.0044915685 -0.0014903175   -5.8356254    -45.48468 
      80   -45.734156     2.382624     0.099276    4.1267618    0.1719382    5.8353381            0            0            0   -198118.18   -198239.39   -198210.96   -197904.19 -0.0048348421 -0.0015856462   -6.1693019   -45.734156 
      90   -45.887315    2.3702145    0.1116855    4.1052724   0.19342755    5.8050143            0            0            0   -100071.33   -100181.67   -100154.48    -99877.84 -0.0050146555 -0.0016040099   -5.9511505   -45.887315 
     100    -45.93155    2.3594664   0.12243355    4.0866747   0.21202525    5.7789378            0            0            0    32.361676    28.251374     32.02403    36.809624 -0.0027838699 -0.00059373575   -0.8297572    -45.93155 
     110    -45.93155    2.3594683   0.12243175    4.0866805   0.21201954    5.7789489            0            0            0   0.01145473 -0.0021087355 -0.021825454  0.058298379 -7.3614911e-11 -9.5763753e-11 0.0043445225    -45.93155 
     120    -45.93155    2.3594683   0.12243175    4.0866804   0.21201956     5.778949            0            0            0 -1.1237404e-06 -8.3558133e-07 -1.2626172e-06 -1.2730225e-06 -1.5071161e-10 -1.9686722e-10 9.3950064e-08    -45.93155 
     126    -45.93155    2.3594683   0.12243175    4.0866804   0.21201956     5.778949            0            0            0 -1.1419991e-09 -5.3687536e-10 -1.9425442e-09 -9.4657774e-10 -5.0324979e-12 6.4954333e-11 2.6707349e-10    -45.93155 
Loop time of 0.00323701 on 1 procs for 126 steps with 6 atoms

99.2% CPU use with 1 MPI tasks x no OpenMP threads

Minimization stats:
  Stopping criterion = energy tolerance
  Energy initial, next-to-last, final = 
        -41.8866849228      -45.931549709      -45.931549709
  Force two-norm initial, final = 38.5958 8.4775e-14
  Force max component initial, final = 22.2853 6.3888e-14
  Final line search alpha, max atom move = 1 6.3888e-14
  Iterations, force evaluations = 126 154

MPI task timing breakdown:
Section |  min time  |  avg time  |  max time  |%varavg| %total
---------------------------------------------------------------
Pair    | 0.0020034  | 0.0020034  | 0.0020034  |   0.0 | 61.89
Neigh   | 2.3842e-05 | 2.3842e-05 | 2.3842e-05 |   0.0 |  0.74
Comm    | 0.00024009 | 0.00024009 | 0.00024009 |   0.0 |  7.42
Output  | 0.00012898 | 0.00012898 | 0.00012898 |   0.0 |  3.98
Modify  | 0          | 0          | 0          |   0.0 |  0.00
Other   |            | 0.0008407  |            |       | 25.97

Nlocal:    6 ave 6 max 6 min
Histogram: 1 0 0 0 0 0 0 0 0 0
Nghost:    336 ave 336 max 336 min
Histogram: 1 0 0 0 0 0 0 0 0 0
Neighs:    234 ave 234 max 234 min
Histogram: 1 0 0 0 0 0 0 0 0 0

Total # of neighbors = 234
Ave neighs/atom = 39
Neighbor list builds = 1
Dangerous builds = 0
# ---- define output variables ----
variable natoms equal "count(all)"
variable tot_energy equal "c_eatoms"
variable a11 equal "xhi-xlo"
variable a22 equal "yhi-ylo"
variable a33 equal "zhi-zlo"
variable tilt_xy equal "xy"
variable tilt_xz equal "xz"
variable tilt_yz equal "yz"
variable tot_press equal "press"
variable press_xx equal "pxx"
variable press_yy equal "pyy"
variable press_zz equal "pzz"
variable press_xy equal "pxy"
variable press_xz equal "pxz"
variable press_yz equal "pyz"

# ---- output ----
print "pypospack:output_section:begin"
pypospack:output_section:begin
print "tot_energy = ${tot_energy}"
tot_energy = -45.931549709038
print "num_atoms = ${natoms}"
num_atoms = 6
print "a11 = ${a11}"
a11 = 2.23703650444929
print "a22 = ${a22}"
a22 = 3.87466088409245
print "a33 = ${a33}"
a33 = 5.47959797188007
print "a12 = ${tilt_xy}"
a12 = 0
print "a13 = ${tilt_xz}"
a13 = 0
print "a23 = ${tilt_yz}"
a23 = 0
print "tot_press = ${tot_press}"
tot_press = -1.14199908883257e-09
print "pxx = ${press_xx}"
pxx = -5.36875356540903e-10
print "pyy = ${press_yy}"
pyy = -1.94254417327485e-09
print "pzz = ${press_zz}"
pzz = -9.4657773668195e-10
print "pxy = ${press_xy}"
pxy = -5.03249785822501e-12
print "pxz = ${press_xz}"
pxz = 6.49543328212763e-11
print "pyz = ${press_yz}"
pyz = 2.67073490987662e-10
print "pypospack:output_section:done"
pypospack:output_section:done
print "pypospack:lammps_sim:done"
pypospack:lammps_sim:done
Total wall time: 0:00:00
