LAMMPS (11 Aug 2017)
Reading data file ...
  triclinic box = (0 0 0) to (3.52 3.52 3.52) with tilt (0 0 0)
  1 by 1 by 1 MPI processor grid
  reading atoms ...
  4 atoms
4 atoms in group Ni
Neighbor list info ...
  update every 1 steps, delay 0 steps, check yes
  max neighbors/atom: 2000, page size: 100000
  master list distance cutoff = 4.916
  ghost atom cutoff = 4.916
  binsize = 2.458, bins = 2 2 2
  1 neighbor lists, perpetual/occasional/extra = 1 0 0
  (1) pair eam/alloy, perpetual
      attributes: half, newton on
      pair build: half/bin/newton/tri
      stencil: half/bin/3d/newton/tri
      bin: standard
Setting up cg style minimization ...
  Unit style    : metal
  Current step  : 0
WARNING: Energy due to 1 extra global DOFs will be included in minimizer energies
Per MPI rank memory allocation (min/avg/max) = 4.21 | 4.21 | 4.21 Mbytes
Step PotEng Lx Ly Lz Xy Xz Yz Press Pxx Pyy Pzz Pxy Pxz Pyz c_eatoms 
       0    512.12431         3.52         3.52         3.52            0            0            0     44755778     44755778     44755778     44755778 1.0440771e-09 -2.0881542e-09 -2.0881542e-09    512.12431 
      10    476.77009       3.5552       3.5552       3.5552            0            0            0     41033399     41033399     41033399     41033399 -2.0267419e-09 -4.5601692e-09 -6.0802256e-09    476.77009 
      20    443.70788       3.5904       3.5904       3.5904            0            0            0     37620793     37620793     37620793     37620793 2.9515715e-09 -1.4757857e-09 -1.4757857e-09    443.70788 
      30    412.79524       3.6256       3.6256       3.6256            0            0            0     34491482     34491482     34491482     34491482 4.7773922e-10 4.7773922e-10            0    412.79524 
      40    383.89866       3.6608       3.6608       3.6608            0            0            0     31621331     31621331     31621331     31621331 9.2818072e-10 1.3922711e-09 4.6409036e-10    383.89866 
      50    356.89295        3.696        3.696        3.696            0            0            0     28988335     28988335     28988335     28988335 3.1566956e-09 4.0586087e-09 2.9312174e-09    356.89295 
      60    331.66076       3.7312       3.7312       3.7312            0            0            0     26572420     26572420     26572420     26572420            0            0            0    331.66076 
      70    308.09206       3.7664       3.7664       3.7664            0            0            0     24355267     24355267     24355267     24355267 -2.9829727e-09 -3.6221811e-09 -3.8352506e-09    308.09206 
      80    286.08366       3.8016       3.8016       3.8016            0            0            0     22320157     22320157     22320157     22320157 1.8648496e-09 1.8648496e-09 2.9008772e-09    286.08366 
      90    265.53885       3.8368       3.8368       3.8368            0            0            0     20451819     20451819     20451819     20451819 3.4264311e-09 1.0077738e-09 1.8139929e-09    265.53885 
     100    246.36689        3.872        3.872        3.872            0            0            0     18736305     18736305     18736305     18736305 1.3727535e-09 9.805382e-10 1.9610764e-09    246.36689 
     110    228.48272       3.9072       3.9072       3.9072            0            0            0     17160870     17160870     17160870     17160870 5.7256512e-10 1.9085504e-10 1.9085504e-10    228.48272 
     120    211.78904       3.9424       3.9424       3.9424            0            0            0     15758129     15758129     15758129     15758129 1.8578836e-10 -9.289418e-10 -7.4315344e-10    211.78904 
     130    196.17295       3.9776       3.9776       3.9776            0            0            0     14480631     14480631     14480631     14480631 -6.3314807e-10 -7.2359779e-10 -1.0853967e-09    196.17295 
     140    181.56755       4.0128       4.0128       4.0128            0            0            0     13304845     13304845     13304845     13304845 -2.2022572e-09 -1.9379863e-09 -1.7618057e-09    181.56755 
     150    167.91163        4.048        4.048        4.048            0            0            0     12222539     12222539     12222539     12222539 4.2906102e-10 -1.7162441e-10 1.7162441e-10    167.91163 
     160    155.14763       4.0832       4.0832       4.0832            0            0            0     11226165     11226165     11226165     11226165            0            0 -6.6889599e-10    155.14763 
     170    143.22148       4.1184       4.1184       4.1184            0            0            0     10308800     10308800     10308800     10308800 -1.6297275e-10 4.0743187e-10 -3.2594549e-10    143.22148 
     180    132.08239       4.1536       4.1536       4.1536            0            0            0    9464091.9    9464091.9    9464091.9    9464091.9 3.1772877e-10 5.5602535e-10 5.5602535e-10    132.08239 
     190    121.68261       4.1888       4.1888       4.1888            0            0            0    8686211.8    8686211.8    8686211.8    8686211.8 -4.6467889e-10 -7.7446481e-10 -7.7446481e-10    121.68261 
     200    111.97729        4.224        4.224        4.224            0            0            0    7969809.3    7969809.3    7969809.3    7969809.3 -3.0210564e-10            0 -7.5526409e-11    111.97729 
     210    102.92426       4.2592       4.2592       4.2592            0            0            0    7309972.2    7309972.2    7309972.2    7309972.2 -2.2100786e-10            0 -2.2100786e-10    102.92426 
     220    94.483934       4.2944       4.2944       4.2944            0            0            0    6702189.4    6702189.4    6702189.4    6702189.4 -1.4374511e-10 -2.8749022e-10 -4.3123533e-10    94.483934 
     230    86.619086       4.3296       4.3296       4.3296            0            0            0    6142317.7    6142317.7    6142317.7    6142317.7 -2.1040134e-10 -2.8053512e-10 -1.4026756e-10    86.619086 
     240     79.29475       4.3648       4.3648       4.3648            0            0            0    5626550.4    5626550.4    5626550.4    5626550.4 -3.4225321e-11 5.1337981e-10 5.4760513e-10     79.29475 
     250    72.478073          4.4          4.4          4.4            0            0            0    5151389.7    5151389.7    5151389.7    5151389.7 6.6820933e-11 -6.6820933e-11 6.6820933e-11    72.478073 
     260    66.138183       4.4352       4.4352       4.4352            0            0            0    4713620.6    4713620.6    4713620.6    4713620.6 -9.7863828e-11 -9.7863828e-11 -1.9572766e-10    66.138183 
     270    60.246076       4.4704       4.4704       4.4704            0            0            0    4310287.9    4310287.9    4310287.9    4310287.9 -1.9114048e-10            0 1.2742699e-10    60.246076 
     280    54.774499       4.5056       4.5056       4.5056            0            0            0    3938674.1    3938674.1    3938674.1    3938674.1 -3.4227514e-10 -5.6008659e-10 -4.9785475e-10    54.774499 
     290    49.697847       4.5408       4.5408       4.5408            0            0            0    3596280.1    3596280.1    3596280.1    3596280.1 -1.8238734e-10 -2.1278523e-10 -1.8238734e-10    49.697847 
     300    44.992065        4.576        4.576        4.576            0            0            0    3280807.5    3280807.5    3280807.5    3280807.5 -5.6433388e-10 -4.4552675e-10 -4.7522853e-10    44.992065 
     310    40.634548       4.6112       4.6112       4.6112            0            0            0    2990141.4    2990141.4    2990141.4    2990141.4 1.4513384e-10 5.8053537e-11 5.8053537e-11    40.634548 
     320    36.604064       4.6464       4.6464       4.6464            0            0            0    2722336.1    2722336.1    2722336.1    2722336.1 -2.5534849e-10 -1.7023233e-10 -1.7023233e-10    36.604064 
     330     32.88066       4.6816       4.6816       4.6816            0            0            0    2475600.8    2475600.8    2475600.8    2475600.8 -4.4379013e-10 -4.992639e-10 -4.992639e-10     32.88066 
     340    29.445593       4.7168       4.7168       4.7168            0            0            0    2248287.1    2248287.1    2248287.1    2248287.1 1.6272318e-10 6.7801327e-11 8.1361592e-11    29.445593 
     350    26.281256        4.752        4.752        4.752            0            0            0    2038877.5    2038877.5    2038877.5    2038877.5 -1.8565614e-10 -1.7239499e-10 -1.8565614e-10    26.281256 
     360    23.371105       4.7872       4.7872       4.7872            0            0            0    1845974.7    1845974.7    1845974.7    1845974.7 -4.0209396e-10 -3.6318164e-10 -3.1129855e-10    23.371105 
     370    20.699599       4.8224       4.8224       4.8224            0            0            0      1668292      1668292      1668292      1668292 -7.6132858e-11 -8.8821668e-11 -1.268881e-10    20.699599 
     380    18.252138       4.8576       4.8576       4.8576            0            0            0    1504644.1    1504644.1    1504644.1    1504644.1 2.482992e-11 1.241496e-11 -7.448976e-11    18.252138 
     390    16.015007       4.8928       4.8928       4.8928            0            0            0    1353939.3    1353939.3    1353939.3    1353939.3 -2.4297869e-11 -4.8595737e-11 -4.8595737e-11    16.015007 
     400    13.975323        4.928        4.928        4.928            0            0            0    1215171.6    1215171.6    1215171.6    1215171.6 -5.9452275e-11 -7.1342731e-11 -1.1890455e-10    13.975323 
     410    12.120982       4.9632       4.9632       4.9632            0            0            0    1087414.1    1087414.1    1087414.1    1087414.1 -1.0475331e-10 -1.0475331e-10 -1.0475331e-10    12.120982 
     420    10.440616       4.9984       4.9984       4.9984            0            0            0    969812.49    969812.49    969812.49    969812.49 -1.8801889e-10 -1.5953118e-10 -1.8232135e-10    10.440616 
     430    8.9235448       5.0336       5.0336       5.0336            0            0            0    861579.44    861579.44    861579.44    861579.44 -2.0641735e-10 -2.2315389e-10 -2.2315389e-10    8.9235448 
     440    7.5597374       5.0688       5.0688       5.0688            0            0            0    761989.09    761989.09    761989.09    761989.09 -2.0214678e-10 -1.9668336e-10 -1.7482965e-10    7.5597374 
     450    6.3397715        5.104        5.104        5.104            0            0            0    670372.21    670372.21    670372.21    670372.21 -1.6588621e-10 -1.8193971e-10 -1.8193971e-10    6.3397715 
     460    5.2547966       5.1392       5.1392       5.1392            0            0            0    586111.76    586111.76    586111.76    586111.76 -1.1008124e-10 -8.3871421e-11 -8.3871421e-11    5.2547966 
     470    4.2965003       5.1744       5.1744       5.1744            0            0            0    508638.68    508638.68    508638.68    508638.68 -1.7204632e-10 -1.7204632e-10 -1.7974989e-10    4.2965003 
     480    3.4570748       5.2096       5.2096       5.2096            0            0            0    437428.15    437428.15    437428.15    437428.15 1.5096932e-11 1.2580777e-11 1.0064621e-11    3.4570748 
     490    2.7291873       5.2448       5.2448       5.2448            0            0            0    371996.05    371996.05    371996.05    371996.05 -5.9180009e-11 -5.6714176e-11 -5.9180009e-11    2.7291873 
     500    2.1059507         5.28         5.28         5.28            0            0            0    311895.81    311895.81    311895.81    311895.81 1.4501071e-11 7.2505353e-12            0    2.1059507 
     510    1.5808971       5.3152       5.3152       5.3152            0            0            0    256715.41    256715.41    256715.41    256715.41 -1.2674929e-10 -1.1727271e-10 -1.1845728e-10    1.5808971 
     520    1.1479521       5.3504       5.3504       5.3504            0            0            0    206074.67    206074.67    206074.67    206074.67 -5.5744634e-11 -5.1099248e-11 -5.1099248e-11    1.1479521 
     530   0.80141121       5.3856       5.3856       5.3856            0            0            0    159622.79    159622.79    159622.79    159622.79            0 -3.4161707e-12 -4.5548942e-12   0.80141121 
     540   0.53591758       5.4208       5.4208       5.4208            0            0            0    117036.02    117036.02    117036.02    117036.02 -4.5784059e-11 -3.9083953e-11 -4.1317321e-11   0.53591758 
     550   0.34644073        5.456        5.456        5.456            0            0            0    78015.535    78015.535    78015.535    78015.535 -4.2165595e-11 -3.9427569e-11 -4.161799e-11   0.34644073 
     560   0.22825698       5.4912       5.4912       5.4912            0            0            0    42285.541    42285.541    42285.541    42285.541 -7.6542681e-11 -7.627411e-11 -7.627411e-11   0.22825698 
     570   0.17693083       5.5264       5.5264       5.5264            0            0            0    9591.4342    9591.4342    9591.4342    9591.4342 7.1137306e-11 7.0939702e-11 7.0873834e-11   0.17693083 
     574   0.17394349      5.53696      5.53696      5.53696            0            0            0    162.57362    162.57362    162.57362    162.57362 -2.0466165e-15 -1.0233082e-14 -6.1398495e-15   0.17394349 
Loop time of 0.0085001 on 1 procs for 574 steps with 4 atoms

70.6% CPU use with 1 MPI tasks x no OpenMP threads

Minimization stats:
  Stopping criterion = quadratic factors are zero
  Energy initial, next-to-last, final = 
         512.124308584     0.173943492341     0.173943492341
  Force two-norm initial, final = 3655.01 0.0328508
  Force max component initial, final = 3655.01 0.0328508
  Final line search alpha, max atom move = 0.0304406 0.001
  Iterations, force evaluations = 574 575

MPI task timing breakdown:
Section |  min time  |  avg time  |  max time  |%varavg| %total
---------------------------------------------------------------
Pair    | 0.0034056  | 0.0034056  | 0.0034056  |   0.0 | 40.07
Neigh   | 8.0824e-05 | 8.0824e-05 | 8.0824e-05 |   0.0 |  0.95
Comm    | 0.00081182 | 0.00081182 | 0.00081182 |   0.0 |  9.55
Output  | 0.00096631 | 0.00096631 | 0.00096631 |   0.0 | 11.37
Modify  | 0          | 0          | 0          |   0.0 |  0.00
Other   |            | 0.003236   |            |       | 38.07

Nlocal:    4 ave 4 max 4 min
Histogram: 1 0 0 0 0 0 0 0 0 0
Nghost:    58 ave 58 max 58 min
Histogram: 1 0 0 0 0 0 0 0 0 0
Neighs:    24 ave 24 max 24 min
Histogram: 1 0 0 0 0 0 0 0 0 0

Total # of neighbors = 24
Ave neighs/atom = 6
Neighbor list builds = 6
Dangerous builds = 0
pypospack:output_section:begin
tot_energy = 0.173943492341139
num_atoms = 4
xx = 5.53695999999998
yy = 5.53695999999998
zz = 5.53695999999998
xy = 0
xz = 0
yz = 0
tot_press = 162.573623732556
pxx = 162.573623732556
pyy = 162.573623732556
pzz = 162.573623732556
pxy = -2.04661648499612e-15
pxz = -1.02330824249806e-14
pyz = -6.13984945498835e-15
pypospack:output_section:done
pypospack:lammps_sim:done
Total wall time: 0:00:00
