LAMMPS (11 Aug 2017)
# ---- initialize simulations
clear
units metal
dimension 3
boundary p p p
atom_style atomic
atom_modify map array
# ---- create atoms
read_data /home/sullberg/repos/pypospack/dev/cluster_sampling/dev__cluster_sampling/rank_4/Ni_bcc.lmps_min_all/lammps.structure
  triclinic box = (0 0 0) to (2.8005 2.8005 2.8005) with tilt (0 0 0)
  1 by 1 by 1 MPI processor grid
  reading atoms ...
  2 atoms
# ---- define interatomic potential
include potential.mod
mass 1 58.6934

group Ni type 1
2 atoms in group Ni

pair_style eam/alloy
pair_coeff * * /home/sullberg/repos/pypospack/dev/cluster_sampling/dev__cluster_sampling/rank_4/Ni_bcc.lmps_min_all/Ni.eam.alloy Ni

neighbor 1.0 bin
neigh_modify every 1 delay 0 check yes
# ---- define settings
compute eng all pe/atom
compute eatoms all reduce sum c_eng
# ---- run minimization
reset_timestep 0
fix 1 all box/relax aniso 0.0 vmax 0.001
thermo 10
thermo_style custom step pe xhi xlo yhi ylo zhi xy xz yz press pxx pyy pzz pxy pxz pyz c_eatoms
min_style cg
minimize 1e-25 1e-25 5000 10000
Neighbor list info ...
  update every 1 steps, delay 0 steps, check yes
  max neighbors/atom: 2000, page size: 100000
  master list distance cutoff = 5.64464
  ghost atom cutoff = 5.64464
  binsize = 2.82232, bins = 1 1 1
  1 neighbor lists, perpetual/occasional/extra = 1 0 0
  (1) pair eam/alloy, perpetual
      attributes: half, newton on
      pair build: half/bin/newton/tri
      stencil: half/bin/3d/newton/tri
      bin: standard
Per MPI rank memory allocation (min/avg/max) = 4.24 | 4.24 | 4.24 Mbytes
Step PotEng Xhi Xlo Yhi Ylo Zhi Xy Xz Yz Press Pxx Pyy Pzz Pxy Pxz Pyz c_eatoms 
       0   -15.468821       2.8005            0       2.8005            0       2.8005            0            0            0   -527249.46   -527249.46   -527249.46   -527249.46  0.037196164  0.037196164  0.037196164   -15.468821 
      10   -15.680141    2.7864975    0.0140025    2.7864975    0.0140025    2.7864975            0            0            0   -509675.31   -509675.31   -509675.31   -509675.31 0.0047789934 0.0047789934 0.0047789934   -15.680141 
      20   -15.878848     2.772495     0.028005     2.772495     0.028005     2.772495            0            0            0   -484905.36   -484905.36   -484905.36   -484905.36 0.0051783005 0.0051783007 0.0051783006   -15.878848 
      30   -16.062241    2.7584925    0.0420075    2.7584925    0.0420075    2.7584925            0            0            0   -451624.88   -451624.88   -451624.88   -451624.88  0.005527486  0.005527486  0.005527486   -16.062241 
      40   -16.227302      2.74449      0.05601      2.74449      0.05601      2.74449            0            0            0   -408424.52   -408424.52   -408424.52   -408424.52 0.0058101079 0.0058101077 0.0058101077   -16.227302 
      50   -16.370931    2.7304875    0.0700125    2.7304875    0.0700125    2.7304875            0            0            0   -355734.97   -355734.97   -355734.97   -355734.97 0.0059790265 0.0059790265 0.0059790265   -16.370931 
      60   -16.490082     2.716485     0.084015     2.716485     0.084015     2.716485            0            0            0   -290500.58   -290500.58   -290500.58   -290500.58 0.0059686169 0.0059686173 0.0059686169   -16.490082 
      70   -16.580576    2.7024825    0.0980175    2.7024825    0.0980175    2.7024825            0            0            0   -209831.07   -209831.07   -209831.07   -209831.07 0.0055983223 0.0055983219  0.005598322   -16.580576 
      80   -16.637696      2.68848      0.11202      2.68848      0.11202      2.68848            0            0            0   -111250.34   -111250.34   -111250.34   -111250.34 0.0045430515 0.0045430514  0.004543051   -16.637696 
      90   -16.656256    2.6753516   0.12514844    2.6753516   0.12514844    2.6753516            0            0            0   -21.067771   -21.067771   -21.067771   -21.067771 0.00087672555 0.0008767253 0.00087672532   -16.656256 
     100   -16.656256    2.6753493   0.12515073    2.6753493   0.12515073    2.6753493            0            0            0 2.6846096e-10 3.254377e-10 2.7616958e-10 2.0377561e-10 3.0834468e-11 -4.7994519e-10 6.7031451e-11   -16.656256 
Loop time of 0.00162196 on 1 procs for 100 steps with 2 atoms

97.0% CPU use with 1 MPI tasks x no OpenMP threads

Minimization stats:
  Stopping criterion = energy tolerance
  Energy initial, next-to-last, final = 
         -15.468821072     -16.6562560004     -16.6562560004
  Force two-norm initial, final = 12.5191 1.65729e-14
  Force max component initial, final = 7.22791 1.08386e-14
  Final line search alpha, max atom move = 1 1.08386e-14
  Iterations, force evaluations = 100 111

MPI task timing breakdown:
Section |  min time  |  avg time  |  max time  |%varavg| %total
---------------------------------------------------------------
Pair    | 0.00073957 | 0.00073957 | 0.00073957 |   0.0 | 45.60
Neigh   | 0          | 0          | 0          |   0.0 |  0.00
Comm    | 0.00020099 | 0.00020099 | 0.00020099 |   0.0 | 12.39
Output  | 9.2268e-05 | 9.2268e-05 | 9.2268e-05 |   0.0 |  5.69
Modify  | 0          | 0          | 0          |   0.0 |  0.00
Other   |            | 0.0005891  |            |       | 36.32

Nlocal:    2 ave 2 max 2 min
Histogram: 1 0 0 0 0 0 0 0 0 0
Nghost:    339 ave 339 max 339 min
Histogram: 1 0 0 0 0 0 0 0 0 0
Neighs:    64 ave 64 max 64 min
Histogram: 1 0 0 0 0 0 0 0 0 0

Total # of neighbors = 64
Ave neighs/atom = 32
Neighbor list builds = 0
Dangerous builds = 0
# ---- define output variables ----
variable natoms equal "count(all)"
variable tot_energy equal "c_eatoms"
variable a11 equal "xhi-xlo"
variable a22 equal "yhi-ylo"
variable a33 equal "zhi-zlo"
variable tilt_xy equal "xy"
variable tilt_xz equal "xz"
variable tilt_yz equal "yz"
variable tot_press equal "press"
variable press_xx equal "pxx"
variable press_yy equal "pyy"
variable press_zz equal "pzz"
variable press_xy equal "pxy"
variable press_xz equal "pxz"
variable press_yz equal "pyz"

# ---- output ----
print "pypospack:output_section:begin"
pypospack:output_section:begin
print "tot_energy = ${tot_energy}"
tot_energy = -16.6562560003771
print "num_atoms = ${natoms}"
num_atoms = 2
print "a11 = ${a11}"
a11 = 2.5501985485875
print "a22 = ${a22}"
a22 = 2.5501985485875
print "a33 = ${a33}"
a33 = 2.5501985485875
print "a12 = ${tilt_xy}"
a12 = 0
print "a13 = ${tilt_xz}"
a13 = 0
print "a23 = ${tilt_yz}"
a23 = 0
print "tot_press = ${tot_press}"
tot_press = 2.68460962106668e-10
print "pxx = ${press_xx}"
pxx = 3.25437695637422e-10
print "pyy = ${press_yy}"
pyy = 2.76169578996123e-10
print "pzz = ${press_zz}"
pzz = 2.0377561168646e-10
print "pxy = ${press_xy}"
pxy = 3.08344675578196e-11
print "pxz = ${press_xz}"
pxz = -4.79945190682583e-10
print "pyz = ${press_yz}"
pyz = 6.70314512126513e-11
print "pypospack:output_section:done"
pypospack:output_section:done
print "pypospack:lammps_sim:done"
pypospack:lammps_sim:done
Total wall time: 0:00:00
