# ['Ni']

20 atoms
1 atom types

    0.0000     3.3901 xlo xhi
    0.0000     3.3901 ylo yhi
    0.0000    33.9009 zlo zhi

    0.0000    -0.0000     0.0000 xy xz yz

Atoms

1 1     0.0000     0.0000     0.0000
2 1     1.6950     1.6950     0.0000
3 1     1.6950     0.0000     1.6950
4 1     0.0000     1.6950     1.6950
5 1     0.0000     0.0000     3.3901
6 1     1.6950     1.6950     3.3901
7 1     1.6950     0.0000     5.0851
8 1     0.0000     1.6950     5.0851
9 1     0.0000     0.0000     6.7802
10 1     1.6950     1.6950     6.7802
11 1     1.6950     0.0000     8.4752
12 1     0.0000     1.6950     8.4752
13 1     0.0000     0.0000    10.1703
14 1     1.6950     1.6950    10.1703
15 1     1.6950     0.0000    11.8653
16 1     0.0000     1.6950    11.8653
17 1     0.0000     0.0000    13.5603
18 1     1.6950     1.6950    13.5603
19 1     1.6950     0.0000    15.2554
20 1     0.0000     1.6950    15.2554
