# ['Ni']

107 atoms
1 atom types

    0.0000    10.0674 xlo xhi
    0.0000    10.0674 ylo yhi
    0.0000    10.0674 zlo zhi

    0.0000    -0.0000    -0.0000 xy xz yz

Atoms

1 1     1.6779     1.6779     0.0000
2 1     1.6779     0.0000     1.6779
3 1     0.0000     1.6779     1.6779
4 1     0.0000     0.0000     3.3558
5 1     1.6779     1.6779     3.3558
6 1     1.6779     0.0000     5.0337
7 1     0.0000     1.6779     5.0337
8 1     0.0000     0.0000     6.7116
9 1     1.6779     1.6779     6.7116
10 1     1.6779     0.0000     8.3895
11 1     0.0000     1.6779     8.3895
12 1     0.0000     3.3558     0.0000
13 1     1.6779     5.0337     0.0000
14 1     1.6779     3.3558     1.6779
15 1     0.0000     5.0337     1.6779
16 1     0.0000     3.3558     3.3558
17 1     1.6779     5.0337     3.3558
18 1     1.6779     3.3558     5.0337
19 1     0.0000     5.0337     5.0337
20 1     0.0000     3.3558     6.7116
21 1     1.6779     5.0337     6.7116
22 1     1.6779     3.3558     8.3895
23 1     0.0000     5.0337     8.3895
24 1     0.0000     6.7116     0.0000
25 1     1.6779     8.3895     0.0000
26 1     1.6779     6.7116     1.6779
27 1     0.0000     8.3895     1.6779
28 1     0.0000     6.7116     3.3558
29 1     1.6779     8.3895     3.3558
30 1     1.6779     6.7116     5.0337
31 1     0.0000     8.3895     5.0337
32 1     0.0000     6.7116     6.7116
33 1     1.6779     8.3895     6.7116
34 1     1.6779     6.7116     8.3895
35 1     0.0000     8.3895     8.3895
36 1     3.3558     0.0000     0.0000
37 1     5.0337     1.6779     0.0000
38 1     5.0337     0.0000     1.6779
39 1     3.3558     1.6779     1.6779
40 1     3.3558     0.0000     3.3558
41 1     5.0337     1.6779     3.3558
42 1     5.0337     0.0000     5.0337
43 1     3.3558     1.6779     5.0337
44 1     3.3558     0.0000     6.7116
45 1     5.0337     1.6779     6.7116
46 1     5.0337     0.0000     8.3895
47 1     3.3558     1.6779     8.3895
48 1     3.3558     3.3558     0.0000
49 1     5.0337     5.0337     0.0000
50 1     5.0337     3.3558     1.6779
51 1     3.3558     5.0337     1.6779
52 1     3.3558     3.3558     3.3558
53 1     5.0337     5.0337     3.3558
54 1     5.0337     3.3558     5.0337
55 1     3.3558     5.0337     5.0337
56 1     3.3558     3.3558     6.7116
57 1     5.0337     5.0337     6.7116
58 1     5.0337     3.3558     8.3895
59 1     3.3558     5.0337     8.3895
60 1     3.3558     6.7116     0.0000
61 1     5.0337     8.3895     0.0000
62 1     5.0337     6.7116     1.6779
63 1     3.3558     8.3895     1.6779
64 1     3.3558     6.7116     3.3558
65 1     5.0337     8.3895     3.3558
66 1     5.0337     6.7116     5.0337
67 1     3.3558     8.3895     5.0337
68 1     3.3558     6.7116     6.7116
69 1     5.0337     8.3895     6.7116
70 1     5.0337     6.7116     8.3895
71 1     3.3558     8.3895     8.3895
72 1     6.7116     0.0000     0.0000
73 1     8.3895     1.6779     0.0000
74 1     8.3895     0.0000     1.6779
75 1     6.7116     1.6779     1.6779
76 1     6.7116     0.0000     3.3558
77 1     8.3895     1.6779     3.3558
78 1     8.3895     0.0000     5.0337
79 1     6.7116     1.6779     5.0337
80 1     6.7116     0.0000     6.7116
81 1     8.3895     1.6779     6.7116
82 1     8.3895     0.0000     8.3895
83 1     6.7116     1.6779     8.3895
84 1     6.7116     3.3558     0.0000
85 1     8.3895     5.0337     0.0000
86 1     8.3895     3.3558     1.6779
87 1     6.7116     5.0337     1.6779
88 1     6.7116     3.3558     3.3558
89 1     8.3895     5.0337     3.3558
90 1     8.3895     3.3558     5.0337
91 1     6.7116     5.0337     5.0337
92 1     6.7116     3.3558     6.7116
93 1     8.3895     5.0337     6.7116
94 1     8.3895     3.3558     8.3895
95 1     6.7116     5.0337     8.3895
96 1     6.7116     6.7116     0.0000
97 1     8.3895     8.3895     0.0000
98 1     8.3895     6.7116     1.6779
99 1     6.7116     8.3895     1.6779
100 1     6.7116     6.7116     3.3558
101 1     8.3895     8.3895     3.3558
102 1     8.3895     6.7116     5.0337
103 1     6.7116     8.3895     5.0337
104 1     6.7116     6.7116     6.7116
105 1     8.3895     8.3895     6.7116
106 1     8.3895     6.7116     8.3895
107 1     6.7116     8.3895     8.3895
