LAMMPS (11 Aug 2017)
# ---- initialize simulations
clear
units metal
dimension 3
boundary p p p
atom_style atomic
atom_modify map array
# ---- create atoms
read_data /ufrc/phillpot/eragasa/pareto_optimization_3.5NN/rank_55/Ni_fcc_vac.lmps_min_pos/lammps.structure
  triclinic box = (0 0 0) to (10.0674 10.0674 10.0674) with tilt (0 -0 -0)
  1 by 1 by 1 MPI processor grid
  reading atoms ...
  107 atoms
# ---- define interatomic potential
include potential.mod
mass 1 58.6934

group Ni type 1
107 atoms in group Ni

pair_style eam/alloy
pair_coeff * * /ufrc/phillpot/eragasa/pareto_optimization_3.5NN/rank_55/Ni_fcc_vac.lmps_min_pos/Ni.eam.alloy Ni

neighbor 1.0 bin
neigh_modify every 1 delay 0 check yes
# ---- define settings
compute eng all pe/atom
compute eatoms all reduce sum c_eng

# ---- run minimization
reset_timestep 0
thermo 1
thermo_style custom step pe lx ly lz xy xz yz press pxx pyy pzz pxy pxz pyz c_eatoms
min_style cg
minimize 1e-20 1e-20 1000 100000
Neighbor list info ...
  update every 1 steps, delay 0 steps, check yes
  max neighbors/atom: 2000, page size: 100000
  master list distance cutoff = 5.64464
  ghost atom cutoff = 5.64464
  binsize = 2.82232, bins = 4 4 4
  1 neighbor lists, perpetual/occasional/extra = 1 0 0
  (1) pair eam/alloy, perpetual
      attributes: half, newton on
      pair build: half/bin/newton/tri
      stencil: half/bin/3d/newton/tri
      bin: standard
Per MPI rank memory allocation (min/avg/max) = 4.229 | 4.229 | 4.229 Mbytes
Step PotEng Lx Ly Lz Xy Xz Yz Press Pxx Pyy Pzz Pxy Pxz Pyz c_eatoms 
       0    -398.6101      10.0674      10.0674      10.0674            0           -0           -0   -3402.5981   -3402.5981   -3402.5981   -3402.5981 2.9417949e-13 1.7759725e-12 -5.6003059e-12    -398.6101 
       1   -398.62727      10.0674      10.0674      10.0674            0           -0           -0   -4085.5681   -4085.5681   -4085.5681   -4085.5681 1.8805696e-11 1.5144796e-11 1.6626589e-11   -398.62727 
       2   -398.63091      10.0674      10.0674      10.0674            0           -0           -0   -4207.1266   -4207.1266   -4207.1266   -4207.1266 3.7437064e-11 3.1346459e-11 -4.0313486e-13   -398.63091 
       3   -398.63169      10.0674      10.0674      10.0674            0           -0           -0   -4325.5968   -4325.5968   -4325.5968   -4325.5968 -1.8631368e-12 1.3848227e-11 1.9056294e-11   -398.63169 
       4   -398.63172      10.0674      10.0674      10.0674            0           -0           -0   -4321.6571   -4321.6571   -4321.6571   -4321.6571 -1.9492115e-11 -1.4600019e-11 -6.4283667e-12   -398.63172 
       5   -398.63173      10.0674      10.0674      10.0674            0           -0           -0   -4321.4224   -4321.4224   -4321.4224   -4321.4224 9.7732965e-12 2.4340629e-11 4.2307369e-11   -398.63173 
       6   -398.63173      10.0674      10.0674      10.0674            0           -0           -0    -4322.468    -4322.468    -4322.468    -4322.468 -8.9888178e-12 -3.9441843e-11 -2.5909586e-11   -398.63173 
       7   -398.63173      10.0674      10.0674      10.0674            0           -0           -0   -4323.9919   -4323.9919   -4323.9919   -4323.9919 2.912377e-11 7.1801587e-12 2.6988245e-11   -398.63173 
       8   -398.63173      10.0674      10.0674      10.0674            0           -0           -0   -4324.0943   -4324.0943   -4324.0943   -4324.0943 -2.6672274e-11 -3.1597057e-11 -4.1119756e-11   -398.63173 
       9   -398.63173      10.0674      10.0674      10.0674            0           -0           -0    -4324.044    -4324.044    -4324.044    -4324.044 2.882959e-11 1.6615694e-11 6.5482176e-12   -398.63173 
      10   -398.63173      10.0674      10.0674      10.0674            0           -0           -0   -4324.0503   -4324.0503   -4324.0503   -4324.0503 3.6609004e-12 1.6397783e-11 2.7881679e-11   -398.63173 
      11   -398.63173      10.0674      10.0674      10.0674            0           -0           -0   -4324.0505   -4324.0505   -4324.0505   -4324.0505 3.0137055e-11 7.9864285e-12 1.552614e-11   -398.63173 
      12   -398.63173      10.0674      10.0674      10.0674            0           -0           -0   -4324.0508   -4324.0508   -4324.0508   -4324.0508 -7.4307561e-12 -1.6539425e-11 -2.6181975e-11   -398.63173 
      13   -398.63173      10.0674      10.0674      10.0674            0           -0           -0   -4324.0509   -4324.0509   -4324.0509   -4324.0509 2.365421e-11 3.8384976e-11 9.5989679e-12   -398.63173 
      14   -398.63173      10.0674      10.0674      10.0674            0           -0           -0   -4324.0509   -4324.0509   -4324.0509   -4324.0509 -1.3815541e-11 -5.6438881e-12 6.7770239e-12   -398.63173 
      15   -398.63173      10.0674      10.0674      10.0674            0           -0           -0   -4324.0509   -4324.0509   -4324.0509   -4324.0509 -1.7901367e-11 -9.9694162e-12 -1.2301061e-11   -398.63173 
      16   -398.63173      10.0674      10.0674      10.0674            0           -0           -0   -4324.0509   -4324.0509   -4324.0509   -4324.0509 -2.4384211e-11 -2.1529581e-11 1.4578228e-11   -398.63173 
      17   -398.63173      10.0674      10.0674      10.0674            0           -0           -0   -4324.0509   -4324.0509   -4324.0509   -4324.0509 6.9077703e-12 2.1464207e-12 2.4841824e-12   -398.63173 
      18   -398.63173      10.0674      10.0674      10.0674            0           -0           -0   -4324.0509   -4324.0509   -4324.0509   -4324.0509 3.9223932e-13 3.1923923e-12 -7.4198606e-12   -398.63173 
      19   -398.63173      10.0674      10.0674      10.0674            0           -0           -0   -4324.0509   -4324.0509   -4324.0509   -4324.0509 1.0176431e-11 2.0559878e-11 -2.2008984e-12   -398.63173 
      20   -398.63173      10.0674      10.0674      10.0674            0           -0           -0   -4324.0509   -4324.0509   -4324.0509   -4324.0509 -1.704062e-11 -1.5090318e-11 1.3837332e-12   -398.63173 
      21   -398.63173      10.0674      10.0674      10.0674            0           -0           -0   -4324.0509   -4324.0509   -4324.0509   -4324.0509 5.0228425e-12 -3.6826914e-12 2.2662717e-12   -398.63173 
      22   -398.63173      10.0674      10.0674      10.0674            0           -0           -0   -4324.0509   -4324.0509   -4324.0509   -4324.0509 -3.6968556e-11 -1.02527e-11 -2.9962726e-12   -398.63173 
      23   -398.63173      10.0674      10.0674      10.0674            0           -0           -0   -4324.0509   -4324.0509   -4324.0509   -4324.0509 4.445379e-12 4.9029916e-12 2.1714805e-11   -398.63173 
      24   -398.63173      10.0674      10.0674      10.0674            0           -0           -0   -4324.0509   -4324.0509   -4324.0509   -4324.0509 2.2771672e-11  2.95378e-11 1.6517634e-11   -398.63173 
      25   -398.63173      10.0674      10.0674      10.0674            0           -0           -0   -4324.0509   -4324.0509   -4324.0509   -4324.0509 1.0459715e-12 3.2414222e-11 3.5366912e-11   -398.63173 
      26   -398.63173      10.0674      10.0674      10.0674            0           -0           -0   -4324.0509   -4324.0509   -4324.0509   -4324.0509 -1.481793e-11 1.999331e-11 4.9029916e-11   -398.63173 
      27   -398.63173      10.0674      10.0674      10.0674            0           -0           -0   -4324.0509   -4324.0509   -4324.0509   -4324.0509 5.4477684e-12 1.0753895e-11 2.9581382e-11   -398.63173 
      28   -398.63173      10.0674      10.0674      10.0674            0           -0           -0   -4324.0509   -4324.0509   -4324.0509   -4324.0509 5.0991112e-11 4.0629457e-11 4.333155e-11   -398.63173 
Loop time of 0.0107951 on 1 procs for 28 steps with 107 atoms

99.1% CPU use with 1 MPI tasks x no OpenMP threads

Minimization stats:
  Stopping criterion = energy tolerance
  Energy initial, next-to-last, final = 
        -398.610095785     -398.631727406     -398.631727406
  Force two-norm initial, final = 0.536181 5.28773e-14
  Force max component initial, final = 0.104658 1.36557e-14
  Final line search alpha, max atom move = 1 1.36557e-14
  Iterations, force evaluations = 28 56

MPI task timing breakdown:
Section |  min time  |  avg time  |  max time  |%varavg| %total
---------------------------------------------------------------
Pair    | 0.0099859  | 0.0099859  | 0.0099859  |   0.0 | 92.50
Neigh   | 0          | 0          | 0          |   0.0 |  0.00
Comm    | 0.00025749 | 0.00025749 | 0.00025749 |   0.0 |  2.39
Output  | 0.00036168 | 0.00036168 | 0.00036168 |   0.0 |  3.35
Modify  | 0          | 0          | 0          |   0.0 |  0.00
Other   |            | 0.00019    |            |       |  1.76

Nlocal:    107 ave 107 max 107 min
Histogram: 1 0 0 0 0 0 0 0 0 0
Nghost:    983 ave 983 max 983 min
Histogram: 1 0 0 0 0 0 0 0 0 0
Neighs:    4134 ave 4134 max 4134 min
Histogram: 1 0 0 0 0 0 0 0 0 0

Total # of neighbors = 4134
Ave neighs/atom = 38.6355
Neighbor list builds = 0
Dangerous builds = 0

# ---- define output variables ----
variable natoms equal "count(all)"
variable tot_energy equal "c_eatoms"
variable a11 equal "xhi-xlo"
variable a22 equal "yhi-ylo"
variable a33 equal "zhi-zlo"
variable tilt_xy equal "xy"
variable tilt_xz equal "xz"
variable tilt_yz equal "yz"
variable tot_press equal "press"
variable press_xx equal "pxx"
variable press_yy equal "pyy"
variable press_zz equal "pzz"
variable press_xy equal "pxy"
variable press_xz equal "pxz"
variable press_yz equal "pyz"

# ---- output ----
print "pypospack:output_section:begin"
pypospack:output_section:begin
print "tot_energy = ${tot_energy}"
tot_energy = -398.631727405727
print "num_atoms = ${natoms}"
num_atoms = 107
print "a11 = ${a11}"
a11 = 10.0674
print "a22 = ${a22}"
a22 = 10.0674
print "a33 = ${a33}"
a33 = 10.0674
print "a12 = ${tilt_xy}"
a12 = 0
print "a13 = ${tilt_xz}"
a13 = -0
print "a23 = ${tilt_yz}"
a23 = -0
print "tot_press = ${tot_press}"
tot_press = -4324.05093788611
print "pxx = ${press_xx}"
pxx = -4324.0509378861
print "pyy = ${press_yy}"
pyy = -4324.0509378861
print "pzz = ${press_zz}"
pzz = -4324.05093788611
print "pxy = ${press_xy}"
pxy = 5.09911121527114e-11
print "pxz = ${press_xz}"
pxz = 4.06294566703976e-11
print "pyz = ${press_yz}"
pyz = 4.33315497930199e-11
print "pypospack:output_section:done"
pypospack:output_section:done
print "pypospack:lammps_sim:done"
pypospack:lammps_sim:done
Total wall time: 0:00:00
