# ['Ni']

28 atoms
1 atom types

    0.0000     2.4837 xlo xhi
    0.0000     4.3019 ylo yhi
    0.0000    28.3913 zlo zhi

    0.0000     0.0000     0.0000 xy xz yz

Atoms

1 1     0.0000     0.0000     0.0000
2 1     1.2419     2.1510     0.0000
3 1     1.2419     0.7170     2.0280
4 1     0.0000     2.8680     2.0280
5 1     0.0000     1.4340     4.0559
6 1     1.2419     3.5849     4.0559
7 1     0.0000     0.0000     6.0839
8 1     1.2419     2.1510     6.0839
9 1     1.2419     0.7170     8.1118
10 1     0.0000     2.8680     8.1118
11 1     0.0000     1.4340    10.1398
12 1     1.2419     3.5849    10.1398
13 1     0.0000     0.0000    12.1677
14 1     1.2419     2.1510    12.1677
15 1     0.0000     1.4340    14.1957
16 1     1.2419     3.5849    14.1957
17 1     0.0000     0.0000    16.2236
18 1     1.2419     2.1510    16.2236
19 1     1.2419     0.7170    18.2516
20 1     0.0000     2.8680    18.2516
21 1     0.0000     1.4340    20.2795
22 1     1.2419     3.5849    20.2795
23 1     0.0000     0.0000    22.3075
24 1     1.2419     2.1510    22.3075
25 1     1.2419     0.7170    24.3354
26 1     0.0000     2.8680    24.3354
27 1     0.0000     1.4340    26.3634
28 1     1.2419     3.5849    26.3634
