LAMMPS (11 Aug 2017)
Reading data file ...
  triclinic box = (0 0 0) to (3.5167 3.5167 3.5167) with tilt (0 -0 0)
  1 by 1 by 1 MPI processor grid
  reading atoms ...
  4 atoms
4 atoms in group Ni
Neighbor list info ...
  update every 1 steps, delay 0 steps, check yes
  max neighbors/atom: 2000, page size: 100000
  master list distance cutoff = 5.64464
  ghost atom cutoff = 5.64464
  binsize = 2.82232, bins = 2 2 2
  1 neighbor lists, perpetual/occasional/extra = 1 0 0
  (1) pair eam/alloy, perpetual
      attributes: half, newton on
      pair build: half/bin/newton/tri
      stencil: half/bin/3d/newton/tri
      bin: standard
Setting up cg style minimization ...
  Unit style    : metal
  Current step  : 0
WARNING: Energy due to 3 extra global DOFs will be included in minimizer energies
Per MPI rank memory allocation (min/avg/max) = 4.086 | 4.086 | 4.086 Mbytes
Step Temp PotEng Press Pxx Pyy Pzz Pxy Pxz Pyz Lx Ly Lz Volume 
       0            0   -1.2790313    416170.01    416170.01    416170.01    416170.01 1.4314714e-11 -2.2558455e-11 -3.5147735e-11       3.5167       3.5167       3.5167    43.491658 
       1            0   -1.2824182    415551.92    415551.92    415551.92    415551.92 -3.0026328e-12 2.7918097e-11 -1.1499445e-12    3.5170517    3.5170517    3.5170517    43.504707 
       2            0   -1.2858008    414934.62    414934.62    414934.62    414934.62 8.1302238e-11 6.7507043e-11 6.1248112e-11    3.5174033    3.5174033    3.5174033    43.517758 
       3            0   -1.2891791    414318.11    414318.11    414318.11    414318.11 3.1923746e-12 -7.9809365e-12 -3.2753763e-11     3.517755     3.517755     3.517755    43.530812 
       4            0    -1.292553    413702.38    413702.38    413702.38    413702.38 -4.0467172e-11 -3.8360837e-11 -3.3701367e-11    3.5181067    3.5181067    3.5181067    43.543869 
       5            0   -1.2959225    413087.45    413087.45    413087.45    413087.45 8.6142434e-12 -4.8750237e-11 -4.4985493e-11    3.5184583    3.5184583    3.5184583    43.556928 
       6            0   -1.2992877     412473.3     412473.3     412473.3     412473.3 -2.7621105e-11 1.537341e-11 4.3313465e-11      3.51881      3.51881      3.51881     43.56999 
       7            0   -1.3026486    411859.94    411859.94    411859.94    411859.94 5.8350428e-11 4.0239475e-11 7.4994648e-11    3.5191617    3.5191617    3.5191617    43.583054 
       8            0   -1.3060052    411247.37    411247.37    411247.37    411247.37 9.1611401e-11 1.4427043e-10 1.2246729e-10    3.5195134    3.5195134    3.5195134    43.596122 
       9            0   -1.3093574    410635.58    410635.58    410635.58    410635.58 1.3402995e-10 1.3868244e-10 1.4371733e-10     3.519865     3.519865     3.519865    43.609191 
      10            0   -1.3127054    410024.57    410024.57    410024.57    410024.57 8.2827732e-12 -9.0473369e-12 1.0767605e-11    3.5202167    3.5202167    3.5202167    43.622263 
      11            0    -1.316049    409414.35    409414.35    409414.35    409414.35 -9.9363496e-12 -6.7834694e-11 -2.8025601e-11    3.5205684    3.5205684    3.5205684    43.635338 
      12            0   -1.3193883     408804.9     408804.9     408804.9     408804.9 2.7953529e-11 5.8454077e-11 5.7116892e-11      3.52092      3.52092      3.52092    43.648416 
      13            0   -1.3227232    408196.24    408196.24    408196.24    408196.24 -2.0242732e-11 -3.3292292e-11 -2.1261234e-11    3.5212717    3.5212717    3.5212717    43.661496 
      14            0   -1.3260539    407588.36    407588.36    407588.36    407588.36 -6.1028191e-11 -3.1500474e-11 2.4882192e-11    3.5216234    3.5216234    3.5216234    43.674579 
      15            0   -1.3293803    406981.25    406981.25    406981.25    406981.25 -1.4823055e-11 -6.2982078e-12 -9.8608303e-12     3.521975     3.521975     3.521975    43.687664 
      16            0   -1.3327024    406374.92    406374.92    406374.92    406374.92 -2.4676492e-11 -1.125706e-11 -3.6442346e-11    3.5223267    3.5223267    3.5223267    43.700752 
      17            0   -1.3360202    405769.37    405769.37    405769.37    405769.37 -4.6413518e-12  3.94197e-12 -4.5459816e-11    3.5226784    3.5226784    3.5226784    43.713843 
      18            0   -1.3393338     405164.6     405164.6     405164.6     405164.6 2.0848049e-11 2.3581177e-11 3.0890706e-11    3.5230301    3.5230301    3.5230301    43.726936 
      19            0    -1.342643     404560.6     404560.6     404560.6     404560.6 4.4670092e-11 4.4670092e-11 5.3820153e-11    3.5233817    3.5233817    3.5233817    43.740032 
      20            0    -1.345948    403957.37    403957.37    403957.37    403957.37 -3.1952105e-11 4.5736611e-12 4.4720242e-11    3.5237334    3.5237334    3.5237334     43.75313 
      21            0   -1.3492487    403354.92    403354.92    403354.92    403354.92 -1.7781136e-12 -1.1176714e-11 -1.40979e-11    3.5240851    3.5240851    3.5240851    43.766231 
      22            0   -1.3525452    402753.24    402753.24    402753.24    402753.24 1.2760495e-11 -1.7394903e-11 1.3966711e-12    3.5244367    3.5244367    3.5244367    43.779335 
      23            0   -1.3558373    402152.32    402152.32    402152.32    402152.32 -2.3482438e-11 -3.9095086e-11 -3.0463703e-11    3.5247884    3.5247884    3.5247884    43.792441 
      24            0   -1.3591253    401552.18    401552.18    401552.18    401552.18 -3.362694e-11 -9.2505808e-11 -8.4765267e-11    3.5251401    3.5251401    3.5251401     43.80555 
      25            0   -1.3624089    400952.81    400952.81    400952.81    400952.81 9.3239265e-12 2.3404958e-11 3.7041994e-11    3.5254917    3.5254917    3.5254917    43.818662 
      26            0   -1.3656884    400354.21    400354.21    400354.21    400354.21 -5.0727275e-12 -3.0563183e-11 2.1559092e-12    3.5258434    3.5258434    3.5258434    43.831776 
      27            0   -1.3689635    399756.37    399756.37    399756.37    399756.37 5.9967058e-11 7.3659325e-11 7.118711e-11    3.5261951    3.5261951    3.5261951    43.844892 
      28            0   -1.3722345     399159.3     399159.3     399159.3     399159.3 5.3231776e-12 -5.2154467e-11 -2.7186229e-11    3.5265468    3.5265468    3.5265468    43.858012 
      29            0   -1.3755012    398562.99    398562.99    398562.99    398562.99 -7.7796511e-11 -5.9994541e-11 -5.2582333e-11    3.5268984    3.5268984    3.5268984    43.871134 
      30            0   -1.3787637    397967.45    397967.45    397967.45    397967.45 1.475665e-11 5.1299941e-11 2.9703299e-11    3.5272501    3.5272501    3.5272501    43.884258 
      31            0   -1.3820219    397372.68    397372.68    397372.68    397372.68 2.4059442e-12 1.4752237e-11 1.0130291e-11    3.5276018    3.5276018    3.5276018    43.897386 
      32            0    -1.385276    396778.66    396778.66    396778.66    396778.66 4.1648366e-11 2.7343608e-11 4.3230751e-11    3.5279534    3.5279534    3.5279534    43.910515 
      33            0   -1.3885258    396185.41    396185.41    396185.41    396185.41 1.8856387e-11 1.5502734e-11 -2.4045057e-11    3.5283051    3.5283051    3.5283051    43.923648 
      34            0   -1.3917714    395592.91    395592.91    395592.91    395592.91 -4.8328767e-11 -4.877157e-11 -7.2809439e-11    3.5286568    3.5286568    3.5286568    43.936783 
      35            0   -1.3950128    395001.18    395001.18    395001.18    395001.18 -3.6046025e-11 -5.7673639e-11 -4.4709718e-11    3.5290084    3.5290084    3.5290084    43.949921 
      36            0     -1.39825    394410.21    394410.21    394410.21    394410.21 4.4569915e-11 1.201175e-12 -8.1300583e-11    3.5293601    3.5293601    3.5293601    43.963061 
      37            0   -1.4014829    393819.99    393819.99    393819.99    393819.99 -2.4648329e-12 9.290524e-12 -2.3700316e-11    3.5297118    3.5297118    3.5297118    43.976204 
      38            0   -1.4047117    393230.53    393230.53    393230.53    393230.53 1.0235477e-11 -3.7024627e-11 -7.8345627e-12    3.5300635    3.5300635    3.5300635    43.989349 
      39            0   -1.4079363    392641.83    392641.83    392641.83    392641.83 7.1121626e-11 1.579077e-11 4.6488025e-11    3.5304151    3.5304151    3.5304151    44.002498 
      40            0   -1.4111568    392053.88    392053.88    392053.88    392053.88 -4.8873616e-11 -8.7139005e-12 -5.9039833e-11    3.5307668    3.5307668    3.5307668    44.015648 
      41            0    -1.414373    391466.68    391466.68    391466.68    391466.68 4.9300893e-11 1.1236311e-11 3.2320175e-11    3.5311185    3.5311185    3.5311185    44.028802 
      42            0   -1.4175851    390880.24    390880.24    390880.24    390880.24 9.1693724e-11 1.2318386e-10 1.4773228e-10    3.5314701    3.5314701    3.5314701    44.041958 
      43            0   -1.4207929    390294.55    390294.55    390294.55    390294.55 -4.5423099e-12            0 -2.3342426e-12    3.5318218    3.5318218    3.5318218    44.055116 
      44            0   -1.4239967    389709.61    389709.61    389709.61    389709.61 3.3048049e-11 3.7841277e-12 4.7806147e-11    3.5321735    3.5321735    3.5321735    44.068278 
      45            0   -1.4271962    389125.42    389125.42    389125.42    389125.42 -5.3340267e-11 -3.9658426e-11 -9.0350595e-11    3.5325251    3.5325251    3.5325251    44.081441 
      46            0   -1.4303916    388541.98    388541.98    388541.98    388541.98 3.6242903e-11 2.2880302e-11 1.3551694e-11    3.5328768    3.5328768    3.5328768    44.094608 
      47            0   -1.4335828    387959.29    387959.29    387959.29    387959.29 -6.1563033e-11 -9.6408843e-12 3.6358106e-11    3.5332285    3.5332285    3.5332285    44.107777 
      48            0   -1.4367699    387377.35    387377.35    387377.35    387377.35 3.7796103e-12 1.2850675e-11 6.488331e-12    3.5335802    3.5335802    3.5335802    44.120949 
      49            0   -1.4399528    386796.16    386796.16    386796.16    386796.16 1.7569941e-11 8.3378503e-11 3.1550325e-11    3.5339318    3.5339318    3.5339318    44.134123 
      50            0   -1.4431316    386215.71    386215.71    386215.71    386215.71 3.7143983e-12 -4.7531707e-11 -3.7899454e-11    3.5342835    3.5342835    3.5342835      44.1473 
      51            0   -1.4463063       385636       385636       385636       385636 1.8062952e-11 4.0468565e-11 5.6958089e-11    3.5346352    3.5346352    3.5346352     44.16048 
      52            0   -1.4494768    385057.04    385057.04    385057.04    385057.04 2.8376168e-11 8.1793833e-11 5.3795175e-11    3.5349868    3.5349868    3.5349868    44.173662 
      53            0   -1.4526432    384478.82    384478.82    384478.82    384478.82 3.144978e-12 -1.5221693e-11 -2.8053203e-11    3.5353385    3.5353385    3.5353385    44.186847 
      54            0   -1.4558054    383901.35    383901.35    383901.35    383901.35 2.3706059e-11 -3.5024601e-11 -2.7604668e-11    3.5356902    3.5356902    3.5356902    44.200034 
      55            0   -1.4589636    383324.61    383324.61    383324.61    383324.61 -2.4516193e-11 2.4641917e-11 4.5700698e-11    3.5360418    3.5360418    3.5360418    44.213224 
      56            0   -1.4621176    382748.62    382748.62    382748.62    382748.62 -3.4186745e-11 -4.4178827e-11 -1.5962194e-11    3.5363935    3.5363935    3.5363935    44.226417 
      57            0   -1.4652675    382173.36    382173.36    382173.36    382173.36 -7.3504709e-12 -6.5965764e-12 -1.2250785e-11    3.5367452    3.5367452    3.5367452    44.239613 
      58            0   -1.4684133    381598.84    381598.84    381598.84    381598.84 1.6329508e-12 3.5359666e-11 1.2121519e-11    3.5370969    3.5370969    3.5370969    44.252811 
      59            0    -1.471555    381025.07    381025.07    381025.07    381025.07 3.3905018e-12 -8.79019e-13 -4.0183726e-12    3.5374485    3.5374485    3.5374485    44.266011 
      60            0   -1.4746926    380452.02    380452.02    380452.02    380452.02 -4.7076262e-12 -1.7575138e-11 -1.5252709e-11    3.5378002    3.5378002    3.5378002    44.279214 
      61            0   -1.4778261    379879.72    379879.72    379879.72    379879.72 2.9115831e-11 -3.7461532e-11 2.4535107e-11    3.5381519    3.5381519    3.5381519     44.29242 
      62            0   -1.4809555    379308.15    379308.15    379308.15    379308.15 -2.8542572e-11 -1.2483455e-11 -2.095213e-11    3.5385035    3.5385035    3.5385035    44.305629 
      63            0   -1.4840808    378737.31    378737.31    378737.31    378737.31 6.333935e-12 -6.0203739e-12 4.5779926e-12    3.5388552    3.5388552    3.5388552     44.31884 
      64            0    -1.487202     378167.2     378167.2     378167.2     378167.2 -4.2004669e-11 -5.1220619e-11 -6.7583632e-11    3.5392069    3.5392069    3.5392069    44.332053 
      65            0   -1.4903192    377597.83    377597.83    377597.83    377597.83 1.2911019e-11 -7.5209821e-13 -1.6546161e-11    3.5395585    3.5395585    3.5395585     44.34527 
      66            0   -1.4934323    377029.19    377029.19    377029.19    377029.19 1.0664081e-10 1.5131466e-10 1.1378361e-10    3.5399102    3.5399102    3.5399102    44.358489 
      67            0   -1.4965413    376461.28    376461.28    376461.28    376461.28 4.1967128e-12 1.8791251e-12 -3.3824252e-12    3.5402619    3.5402619    3.5402619     44.37171 
      68            0   -1.4996462     375894.1     375894.1     375894.1     375894.1 -2.0852074e-11 -8.3909248e-12 1.7595894e-11    3.5406136    3.5406136    3.5406136    44.384935 
      69            0   -1.5027471    375327.64    375327.64    375327.64    375327.64 -1.0704632e-11 -2.3850671e-11 -3.8686915e-11    3.5409652    3.5409652    3.5409652    44.398162 
      70            0   -1.5058439    374761.92    374761.92    374761.92    374761.92 -7.6349477e-12 3.6297292e-11 4.6498083e-11    3.5413169    3.5413169    3.5413169    44.411391 
      71            0   -1.5089367    374196.92    374196.92    374196.92    374196.92 6.2562898e-13 -6.9444817e-12 -4.8423683e-11    3.5416686    3.5416686    3.5416686    44.424623 
      72            0   -1.5120254    373632.65    373632.65    373632.65    373632.65 -3.8839989e-11 -7.3051702e-11 -5.9604685e-11    3.5420202    3.5420202    3.5420202    44.437858 
      73            0   -1.5151101     373069.1     373069.1     373069.1     373069.1 2.4572577e-11 4.6769179e-11 -1.2755231e-11    3.5423719    3.5423719    3.5423719    44.451095 
      74            0   -1.5181907    372506.28    372506.28    372506.28    372506.28 5.8069024e-11 3.3503764e-11 2.4752781e-11    3.5427236    3.5427236    3.5427236    44.464335 
      75            0   -1.5212673    371944.18    371944.18    371944.18    371944.18 -6.5612832e-11 -3.893028e-11 -6.4862971e-11    3.5430752    3.5430752    3.5430752    44.477578 
      76            0   -1.5243398     371382.8     371382.8     371382.8     371382.8 2.1239735e-12 -3.4795683e-11 6.8716789e-13    3.5434269    3.5434269    3.5434269    44.490823 
      77            0   -1.5274084    370822.14    370822.14    370822.14    370822.14 4.6526153e-11 4.0281032e-11 1.4613584e-11    3.5437786    3.5437786    3.5437786    44.504071 
      78            0   -1.5304729    370262.21    370262.21    370262.21    370262.21 2.7345489e-11 6.2120461e-11 5.1382049e-11    3.5441303    3.5441303    3.5441303    44.517322 
      79            0   -1.5335333    369702.99    369702.99    369702.99    369702.99 -3.3828411e-11 1.497937e-12 -8.4258958e-12    3.5444819    3.5444819    3.5444819    44.530575 
      80            0   -1.5365898     369144.5     369144.5     369144.5     369144.5 -9.1097385e-12 9.3593203e-13 -1.5786054e-11    3.5448336    3.5448336    3.5448336     44.54383 
      81            0   -1.5396423    368586.72    368586.72    368586.72    368586.72 4.229154e-11 -1.933684e-12 2.3640846e-11    3.5451853    3.5451853    3.5451853    44.557089 
      82            0   -1.5426907    368029.66    368029.66    368029.66    368029.66 -9.5532982e-11 -6.8344744e-11 -7.4705295e-11    3.5455369    3.5455369    3.5455369     44.57035 
      83            0   -1.5457351    367473.31    367473.31    367473.31    367473.31 5.2365425e-12 9.4133086e-12 -2.3377422e-11    3.5458886    3.5458886    3.5458886    44.583614 
      84            0   -1.5487756    366917.68    366917.68    366917.68    366917.68 -1.6141203e-11 -1.0407648e-11 -1.1342467e-11    3.5462403    3.5462403    3.5462403     44.59688 
      85            0    -1.551812    366362.76    366362.76    366362.76    366362.76 1.7880878e-11 -1.9936867e-12 -1.6634824e-11    3.5465919    3.5465919    3.5465919    44.610149 
      86            0   -1.5548445    365808.56    365808.56    365808.56    365808.56 -6.4152706e-12 3.114209e-12 4.9578208e-11    3.5469436    3.5469436    3.5469436     44.62342 
      87            0    -1.557873    365255.07    365255.07    365255.07    365255.07 -3.4246112e-12 -1.6562665e-11 -4.5142603e-11    3.5472953    3.5472953    3.5472953    44.636695 
      88            0   -1.5608974    364702.29    364702.29    364702.29    364702.29 1.830066e-11 3.5605366e-11 3.7721769e-11     3.547647     3.547647     3.547647    44.649971 
      89            0    -1.563918    364150.22    364150.22    364150.22    364150.22 -8.0897227e-12 -5.5010114e-11 -5.8121546e-11    3.5479986    3.5479986    3.5479986    44.663251 
      90            0   -1.5669345    363598.87    363598.87    363598.87    363598.87 -3.9814487e-12 3.4215575e-11 1.1695506e-11    3.5483503    3.5483503    3.5483503    44.676533 
      91            0    -1.569947    363048.22    363048.22    363048.22    363048.22 -6.5052459e-11 -1.2289069e-10 -1.019321e-10     3.548702     3.548702     3.548702    44.689818 
      92            0   -1.5729556    362498.28    362498.28    362498.28    362498.28 -2.1138874e-12 5.179024e-11 1.7843696e-11    3.5490536    3.5490536    3.5490536    44.703105 
      93            0   -1.5759603    361949.05    361949.05    361949.05    361949.05 -3.0207174e-11 -1.8770713e-11 -4.1892254e-11    3.5494053    3.5494053    3.5494053    44.716395 
      94            0   -1.5789609    361400.52    361400.52    361400.52    361400.52 -1.6341823e-11  7.27615e-11 7.3382862e-11     3.549757     3.549757     3.549757    44.729688 
      95            0   -1.5819577     360852.7     360852.7     360852.7     360852.7 -2.2983566e-12 -6.3546453e-11 -5.5595381e-11    3.5501086    3.5501086    3.5501086    44.742983 
      96            0   -1.5849504    360305.59    360305.59    360305.59    360305.59 3.3036821e-11 -6.7067231e-12 1.3289248e-11    3.5504603    3.5504603    3.5504603    44.756281 
      97            0   -1.5879392    359759.18    359759.18    359759.18    359759.18 3.0047126e-11 1.0802066e-11 8.0394687e-11     3.550812     3.550812     3.550812    44.769581 
      98            0   -1.5909241    359213.47    359213.47    359213.47    359213.47 4.245068e-11 5.4180473e-11 4.0526746e-11    3.5511637    3.5511637    3.5511637    44.782884 
      99            0   -1.5939051    358668.46    358668.46    358668.46    358668.46 5.4536644e-11 7.420458e-11 7.6127943e-11    3.5515153    3.5515153    3.5515153     44.79619 
     100            0   -1.5968821    358124.16    358124.16    358124.16    358124.16 1.736715e-12 4.4968514e-11 4.2425467e-11     3.551867     3.551867     3.551867    44.809499 
Loop time of 0.0391591 on 1 procs for 100 steps with 4 atoms

6.3% CPU use with 1 MPI tasks x no OpenMP threads

Minimization stats:
  Stopping criterion = max iterations
  Energy initial, next-to-last, final = 
        -1.27903129416     -1.59390506859       -1.596882077
  Force two-norm initial, final = 19.5671 17.1764
  Force max component initial, final = 11.2971 9.91681
  Final line search alpha, max atom move = 1.00706e-05 9.9868e-05
  Iterations, force evaluations = 100 100

MPI task timing breakdown:
Section |  min time  |  avg time  |  max time  |%varavg| %total
---------------------------------------------------------------
Pair    | 0.0008738  | 0.0008738  | 0.0008738  |   0.0 |  2.23
Neigh   | 0          | 0          | 0          |   0.0 |  0.00
Comm    | 0.00018048 | 0.00018048 | 0.00018048 |   0.0 |  0.46
Output  | 0.037507   | 0.037507   | 0.037507   |   0.0 | 95.78
Modify  | 0          | 0          | 0          |   0.0 |  0.00
Other   |            | 0.000598   |            |       |  1.53

Nlocal:    4 ave 4 max 4 min
Histogram: 1 0 0 0 0 0 0 0 0 0
Nghost:    360 ave 360 max 360 min
Histogram: 1 0 0 0 0 0 0 0 0 0
Neighs:    156 ave 156 max 156 min
Histogram: 1 0 0 0 0 0 0 0 0 0

Total # of neighbors = 156
Ave neighs/atom = 39
Neighbor list builds = 0
Dangerous builds = 0
System init for write_restart ...
Reading restart file ...
  restart file = 11 Aug 2017, LAMMPS = 11 Aug 2017
  triclinic box = (-0.0175835 -0.0175835 -0.0175835) to (3.53428 3.53428 3.53428) with tilt (0 -0 0)
  1 by 1 by 1 MPI processor grid
  4 atoms
4 atoms in group Ni
Changing box ...
  triclinic box = (-0.0175835 -0.0175835 -0.0175835) to (3.53428 3.53428 3.53428) with tilt (0 -0 0)
Neighbor list info ...
  update every 1 steps, delay 0 steps, check yes
  max neighbors/atom: 2000, page size: 100000
  master list distance cutoff = 5.64464
  ghost atom cutoff = 5.64464
  binsize = 2.82232, bins = 2 2 2
  1 neighbor lists, perpetual/occasional/extra = 1 0 0
  (1) pair eam/alloy, perpetual
      attributes: half, newton on
      pair build: half/bin/newton/tri
      stencil: half/bin/3d/newton/tri
      bin: standard
Setting up cg style minimization ...
  Unit style    : metal
  Current step  : 100
Per MPI rank memory allocation (min/avg/max) = 4.086 | 4.086 | 4.086 Mbytes
Step Temp PotEng Press Pxx Pyy Pzz Pxy Pxz Pyz Lx Ly Lz Volume 
     100            0   -1.5968721    358125.99    358126.26    358125.85    358125.85 2.5120367e-11 4.5402738e-11 1.1586382e-10    3.5518634     3.551867     3.551867    44.809454 
     101            0   -1.5968721    358125.98    358126.26    358125.84    358125.84 2.1088703e-12 1.8669705e-11 2.4686188e-11    3.5518634     3.551867     3.551867    44.809454 
     102            0   -1.5968721    358125.98    358126.26    358125.84    358125.84 1.3068794e-10 3.5354591e-12 -2.3755804e-11    3.5518634     3.551867     3.551867    44.809454 
Loop time of 7.89165e-05 on 1 procs for 2 steps with 4 atoms

71.0% CPU use with 1 MPI tasks x no OpenMP threads

Minimization stats:
  Stopping criterion = force tolerance
  Energy initial, next-to-last, final = 
        -1.59687206099     -1.59687212785     -1.59687212785
  Force two-norm initial, final = 0.00155664 4.38816e-15
  Force max component initial, final = 0.000449364 2.16493e-15
  Final line search alpha, max atom move = 1 2.16493e-15
  Iterations, force evaluations = 2 4

MPI task timing breakdown:
Section |  min time  |  avg time  |  max time  |%varavg| %total
---------------------------------------------------------------
Pair    | 4.8161e-05 | 4.8161e-05 | 4.8161e-05 |   0.0 | 61.03
Neigh   | 0          | 0          | 0          |   0.0 |  0.00
Comm    | 1.0729e-05 | 1.0729e-05 | 1.0729e-05 |   0.0 | 13.60
Output  | 9.0599e-06 | 9.0599e-06 | 9.0599e-06 |   0.0 | 11.48
Modify  | 0          | 0          | 0          |   0.0 |  0.00
Other   |            | 1.097e-05  |            |       | 13.90

Nlocal:    4 ave 4 max 4 min
Histogram: 1 0 0 0 0 0 0 0 0 0
Nghost:    360 ave 360 max 360 min
Histogram: 1 0 0 0 0 0 0 0 0 0
Neighs:    156 ave 156 max 156 min
Histogram: 1 0 0 0 0 0 0 0 0 0

Total # of neighbors = 156
Ave neighs/atom = 39
Neighbor list builds = 0
Dangerous builds = 0
Reading restart file ...
  restart file = 11 Aug 2017, LAMMPS = 11 Aug 2017
  triclinic box = (-0.0175835 -0.0175835 -0.0175835) to (3.53428 3.53428 3.53428) with tilt (0 -0 0)
  1 by 1 by 1 MPI processor grid
  4 atoms
4 atoms in group Ni
Changing box ...
  triclinic box = (-0.0175835 -0.0175835 -0.0175835) to (3.53429 3.53428 3.53428) with tilt (0 -0 0)
Neighbor list info ...
  update every 1 steps, delay 0 steps, check yes
  max neighbors/atom: 2000, page size: 100000
  master list distance cutoff = 5.64464
  ghost atom cutoff = 5.64464
  binsize = 2.82232, bins = 2 2 2
  1 neighbor lists, perpetual/occasional/extra = 1 0 0
  (1) pair eam/alloy, perpetual
      attributes: half, newton on
      pair build: half/bin/newton/tri
      stencil: half/bin/3d/newton/tri
      bin: standard
Setting up cg style minimization ...
  Unit style    : metal
  Current step  : 100
Per MPI rank memory allocation (min/avg/max) = 4.086 | 4.086 | 4.086 Mbytes
Step Temp PotEng Press Pxx Pyy Pzz Pxy Pxz Pyz Lx Ly Lz Volume 
     100            0   -1.5968921    358122.33    358122.05    358122.46    358122.46 1.0680787e-10 1.1778638e-10 9.7379995e-11    3.5518706     3.551867     3.551867    44.809544 
     101            0   -1.5968922    358122.32    358122.04    358122.46    358122.46 3.2563374e-11 1.5692445e-11 -5.7683691e-12    3.5518706     3.551867     3.551867    44.809544 
     102            0   -1.5968922    358122.32    358122.04    358122.46    358122.46 4.6333029e-11 -1.4575986e-11 2.3321578e-11    3.5518706     3.551867     3.551867    44.809544 
Loop time of 8.01086e-05 on 1 procs for 2 steps with 4 atoms

74.9% CPU use with 1 MPI tasks x no OpenMP threads

Minimization stats:
  Stopping criterion = force tolerance
  Energy initial, next-to-last, final = 
        -1.59689209295     -1.59689215981     -1.59689215981
  Force two-norm initial, final = 0.00155663 6.87871e-15
  Force max component initial, final = 0.000449361 3.73659e-15
  Final line search alpha, max atom move = 1 3.73659e-15
  Iterations, force evaluations = 2 4

MPI task timing breakdown:
Section |  min time  |  avg time  |  max time  |%varavg| %total
---------------------------------------------------------------
Pair    | 4.7922e-05 | 4.7922e-05 | 4.7922e-05 |   0.0 | 59.82
Neigh   | 0          | 0          | 0          |   0.0 |  0.00
Comm    | 9.0599e-06 | 9.0599e-06 | 9.0599e-06 |   0.0 | 11.31
Output  | 9.0599e-06 | 9.0599e-06 | 9.0599e-06 |   0.0 | 11.31
Modify  | 0          | 0          | 0          |   0.0 |  0.00
Other   |            | 1.407e-05  |            |       | 17.56

Nlocal:    4 ave 4 max 4 min
Histogram: 1 0 0 0 0 0 0 0 0 0
Nghost:    360 ave 360 max 360 min
Histogram: 1 0 0 0 0 0 0 0 0 0
Neighs:    156 ave 156 max 156 min
Histogram: 1 0 0 0 0 0 0 0 0 0

Total # of neighbors = 156
Ave neighs/atom = 39
Neighbor list builds = 0
Dangerous builds = 0
Reading restart file ...
  restart file = 11 Aug 2017, LAMMPS = 11 Aug 2017
  triclinic box = (-0.0175835 -0.0175835 -0.0175835) to (3.53428 3.53428 3.53428) with tilt (0 -0 0)
  1 by 1 by 1 MPI processor grid
  4 atoms
4 atoms in group Ni
Changing box ...
  triclinic box = (-0.0175835 -0.0175835 -0.0175835) to (3.53428 3.53428 3.53428) with tilt (0 -0 0)
Neighbor list info ...
  update every 1 steps, delay 0 steps, check yes
  max neighbors/atom: 2000, page size: 100000
  master list distance cutoff = 5.64464
  ghost atom cutoff = 5.64464
  binsize = 2.82232, bins = 2 2 2
  1 neighbor lists, perpetual/occasional/extra = 1 0 0
  (1) pair eam/alloy, perpetual
      attributes: half, newton on
      pair build: half/bin/newton/tri
      stencil: half/bin/3d/newton/tri
      bin: standard
Setting up cg style minimization ...
  Unit style    : metal
  Current step  : 100
Per MPI rank memory allocation (min/avg/max) = 4.086 | 4.086 | 4.086 Mbytes
Step Temp PotEng Press Pxx Pyy Pzz Pxy Pxz Pyz Lx Ly Lz Volume 
     100            0   -1.5968721    358125.99    358125.85    358126.26    358125.85 1.5624248e-10 1.0562959e-10 -8.3114302e-12     3.551867    3.5518634     3.551867    44.809454 
     101            0   -1.5968721    358125.98    358125.84    358126.26    358125.84 1.4414749e-10 4.7759711e-11 2.4252009e-11     3.551867    3.5518634     3.551867    44.809454 
     102            0   -1.5968721    358125.98    358125.84    358126.26    358125.84 1.9972243e-11 2.2949471e-12 -5.6195192e-11     3.551867    3.5518634     3.551867    44.809454 
Loop time of 7.51019e-05 on 1 procs for 2 steps with 4 atoms

102.5% CPU use with 1 MPI tasks x no OpenMP threads

Minimization stats:
  Stopping criterion = force tolerance
  Energy initial, next-to-last, final = 
        -1.59687206099     -1.59687212785     -1.59687212785
  Force two-norm initial, final = 0.00155664 4.49927e-15
  Force max component initial, final = 0.000449364 2.55395e-15
  Final line search alpha, max atom move = 1 2.55395e-15
  Iterations, force evaluations = 2 4

MPI task timing breakdown:
Section |  min time  |  avg time  |  max time  |%varavg| %total
---------------------------------------------------------------
Pair    | 4.6015e-05 | 4.6015e-05 | 4.6015e-05 |   0.0 | 61.27
Neigh   | 0          | 0          | 0          |   0.0 |  0.00
Comm    | 8.1062e-06 | 8.1062e-06 | 8.1062e-06 |   0.0 | 10.79
Output  | 8.1062e-06 | 8.1062e-06 | 8.1062e-06 |   0.0 | 10.79
Modify  | 0          | 0          | 0          |   0.0 |  0.00
Other   |            | 1.287e-05  |            |       | 17.14

Nlocal:    4 ave 4 max 4 min
Histogram: 1 0 0 0 0 0 0 0 0 0
Nghost:    360 ave 360 max 360 min
Histogram: 1 0 0 0 0 0 0 0 0 0
Neighs:    156 ave 156 max 156 min
Histogram: 1 0 0 0 0 0 0 0 0 0

Total # of neighbors = 156
Ave neighs/atom = 39
Neighbor list builds = 0
Dangerous builds = 0
Reading restart file ...
  restart file = 11 Aug 2017, LAMMPS = 11 Aug 2017
  triclinic box = (-0.0175835 -0.0175835 -0.0175835) to (3.53428 3.53428 3.53428) with tilt (0 -0 0)
  1 by 1 by 1 MPI processor grid
  4 atoms
4 atoms in group Ni
Changing box ...
  triclinic box = (-0.0175835 -0.0175835 -0.0175835) to (3.53428 3.53429 3.53428) with tilt (0 -0 0)
Neighbor list info ...
  update every 1 steps, delay 0 steps, check yes
  max neighbors/atom: 2000, page size: 100000
  master list distance cutoff = 5.64464
  ghost atom cutoff = 5.64464
  binsize = 2.82232, bins = 2 2 2
  1 neighbor lists, perpetual/occasional/extra = 1 0 0
  (1) pair eam/alloy, perpetual
      attributes: half, newton on
      pair build: half/bin/newton/tri
      stencil: half/bin/3d/newton/tri
      bin: standard
Setting up cg style minimization ...
  Unit style    : metal
  Current step  : 100
Per MPI rank memory allocation (min/avg/max) = 4.086 | 4.086 | 4.086 Mbytes
Step Temp PotEng Press Pxx Pyy Pzz Pxy Pxz Pyz Lx Ly Lz Volume 
     100            0   -1.5968921    358122.33    358122.46    358122.05    358122.46 1.5524976e-10 9.4216695e-11 1.0029519e-10     3.551867    3.5518706     3.551867    44.809544 
     101            0   -1.5968922    358122.32    358122.46    358122.04    358122.46 2.1212712e-11 -3.4114011e-12 7.6911588e-11     3.551867    3.5518706     3.551867    44.809544 
     102            0   -1.5968922    358122.32    358122.46    358122.04    358122.46 -2.6670954e-11 -7.319006e-12 -1.3664212e-10     3.551867    3.5518706     3.551867    44.809544 
Loop time of 7.58171e-05 on 1 procs for 2 steps with 4 atoms

98.9% CPU use with 1 MPI tasks x no OpenMP threads

Minimization stats:
  Stopping criterion = force tolerance
  Energy initial, next-to-last, final = 
        -1.59689209295     -1.59689215981     -1.59689215981
  Force two-norm initial, final = 0.00155663 7.01639e-15
  Force max component initial, final = 0.000449361 2.83454e-15
  Final line search alpha, max atom move = 1 2.83454e-15
  Iterations, force evaluations = 2 4

MPI task timing breakdown:
Section |  min time  |  avg time  |  max time  |%varavg| %total
---------------------------------------------------------------
Pair    | 4.6968e-05 | 4.6968e-05 | 4.6968e-05 |   0.0 | 61.95
Neigh   | 0          | 0          | 0          |   0.0 |  0.00
Comm    | 9.0599e-06 | 9.0599e-06 | 9.0599e-06 |   0.0 | 11.95
Output  | 7.8678e-06 | 7.8678e-06 | 7.8678e-06 |   0.0 | 10.38
Modify  | 0          | 0          | 0          |   0.0 |  0.00
Other   |            | 1.192e-05  |            |       | 15.72

Nlocal:    4 ave 4 max 4 min
Histogram: 1 0 0 0 0 0 0 0 0 0
Nghost:    360 ave 360 max 360 min
Histogram: 1 0 0 0 0 0 0 0 0 0
Neighs:    156 ave 156 max 156 min
Histogram: 1 0 0 0 0 0 0 0 0 0

Total # of neighbors = 156
Ave neighs/atom = 39
Neighbor list builds = 0
Dangerous builds = 0
Reading restart file ...
  restart file = 11 Aug 2017, LAMMPS = 11 Aug 2017
  triclinic box = (-0.0175835 -0.0175835 -0.0175835) to (3.53428 3.53428 3.53428) with tilt (0 -0 0)
  1 by 1 by 1 MPI processor grid
  4 atoms
4 atoms in group Ni
Changing box ...
  triclinic box = (-0.0175835 -0.0175835 -0.0175835) to (3.53428 3.53428 3.53428) with tilt (0 -0 0)
Neighbor list info ...
  update every 1 steps, delay 0 steps, check yes
  max neighbors/atom: 2000, page size: 100000
  master list distance cutoff = 5.64464
  ghost atom cutoff = 5.64464
  binsize = 2.82232, bins = 2 2 2
  1 neighbor lists, perpetual/occasional/extra = 1 0 0
  (1) pair eam/alloy, perpetual
      attributes: half, newton on
      pair build: half/bin/newton/tri
      stencil: half/bin/3d/newton/tri
      bin: standard
Setting up cg style minimization ...
  Unit style    : metal
  Current step  : 100
Per MPI rank memory allocation (min/avg/max) = 4.086 | 4.086 | 4.086 Mbytes
Step Temp PotEng Press Pxx Pyy Pzz Pxy Pxz Pyz Lx Ly Lz Volume 
     100            0   -1.5968721    358125.99    358125.85    358125.85    358126.26 4.974453e-11 1.3093604e-10 1.4433357e-10     3.551867     3.551867    3.5518634    44.809454 
     101            0   -1.5968721    358125.98    358125.84    358125.84    358126.26 3.7401436e-11 1.2981958e-10 1.3143224e-10     3.551867     3.551867    3.5518634    44.809454 
     102            0   -1.5968721    358125.98    358125.84    358125.84    358126.26 -1.7739321e-11 -2.1150729e-11 1.4265888e-12     3.551867     3.551867    3.5518634    44.809454 
Loop time of 7.70092e-05 on 1 procs for 2 steps with 4 atoms

101.3% CPU use with 1 MPI tasks x no OpenMP threads

Minimization stats:
  Stopping criterion = force tolerance
  Energy initial, next-to-last, final = 
        -1.59687206099     -1.59687212785     -1.59687212785
  Force two-norm initial, final = 0.00155664 4.33245e-15
  Force max component initial, final = 0.000449364 3.05311e-15
  Final line search alpha, max atom move = 1 3.05311e-15
  Iterations, force evaluations = 2 4

MPI task timing breakdown:
Section |  min time  |  avg time  |  max time  |%varavg| %total
---------------------------------------------------------------
Pair    | 4.6968e-05 | 4.6968e-05 | 4.6968e-05 |   0.0 | 60.99
Neigh   | 0          | 0          | 0          |   0.0 |  0.00
Comm    | 1.0014e-05 | 1.0014e-05 | 1.0014e-05 |   0.0 | 13.00
Output  | 7.8678e-06 | 7.8678e-06 | 7.8678e-06 |   0.0 | 10.22
Modify  | 0          | 0          | 0          |   0.0 |  0.00
Other   |            | 1.216e-05  |            |       | 15.79

Nlocal:    4 ave 4 max 4 min
Histogram: 1 0 0 0 0 0 0 0 0 0
Nghost:    360 ave 360 max 360 min
Histogram: 1 0 0 0 0 0 0 0 0 0
Neighs:    156 ave 156 max 156 min
Histogram: 1 0 0 0 0 0 0 0 0 0

Total # of neighbors = 156
Ave neighs/atom = 39
Neighbor list builds = 0
Dangerous builds = 0
Reading restart file ...
  restart file = 11 Aug 2017, LAMMPS = 11 Aug 2017
  triclinic box = (-0.0175835 -0.0175835 -0.0175835) to (3.53428 3.53428 3.53428) with tilt (0 -0 0)
  1 by 1 by 1 MPI processor grid
  4 atoms
4 atoms in group Ni
Changing box ...
  triclinic box = (-0.0175835 -0.0175835 -0.0175835) to (3.53428 3.53428 3.53429) with tilt (0 -0 0)
Neighbor list info ...
  update every 1 steps, delay 0 steps, check yes
  max neighbors/atom: 2000, page size: 100000
  master list distance cutoff = 5.64464
  ghost atom cutoff = 5.64464
  binsize = 2.82232, bins = 2 2 2
  1 neighbor lists, perpetual/occasional/extra = 1 0 0
  (1) pair eam/alloy, perpetual
      attributes: half, newton on
      pair build: half/bin/newton/tri
      stencil: half/bin/3d/newton/tri
      bin: standard
Setting up cg style minimization ...
  Unit style    : metal
  Current step  : 100
Per MPI rank memory allocation (min/avg/max) = 4.086 | 4.086 | 4.086 Mbytes
Step Temp PotEng Press Pxx Pyy Pzz Pxy Pxz Pyz Lx Ly Lz Volume 
     100            0   -1.5968921    358122.33    358122.46    358122.46    358122.05 9.3100237e-11 1.9829544e-10 1.9724101e-10     3.551867     3.551867    3.5518706    44.809544 
     101            0   -1.5968922    358122.32    358122.46    358122.46    358122.04 -5.2039373e-11 3.9448202e-11 8.373439e-12     3.551867     3.551867    3.5518706    44.809544 
     102            0   -1.5968922    358122.32    358122.46    358122.46    358122.04 -9.2293906e-11 1.076142e-10 8.702174e-11     3.551867     3.551867    3.5518706    44.809544 
Loop time of 7.82013e-05 on 1 procs for 2 steps with 4 atoms

85.7% CPU use with 1 MPI tasks x no OpenMP threads

Minimization stats:
  Stopping criterion = force tolerance
  Energy initial, next-to-last, final = 
        -1.59689209295     -1.59689215981     -1.59689215981
  Force two-norm initial, final = 0.00155663 5.06598e-15
  Force max component initial, final = 0.000449361 2.50841e-15
  Final line search alpha, max atom move = 1 2.50841e-15
  Iterations, force evaluations = 2 4

MPI task timing breakdown:
Section |  min time  |  avg time  |  max time  |%varavg| %total
---------------------------------------------------------------
Pair    | 4.673e-05  | 4.673e-05  | 4.673e-05  |   0.0 | 59.76
Neigh   | 0          | 0          | 0          |   0.0 |  0.00
Comm    | 1.0252e-05 | 1.0252e-05 | 1.0252e-05 |   0.0 | 13.11
Output  | 7.8678e-06 | 7.8678e-06 | 7.8678e-06 |   0.0 | 10.06
Modify  | 0          | 0          | 0          |   0.0 |  0.00
Other   |            | 1.335e-05  |            |       | 17.07

Nlocal:    4 ave 4 max 4 min
Histogram: 1 0 0 0 0 0 0 0 0 0
Nghost:    360 ave 360 max 360 min
Histogram: 1 0 0 0 0 0 0 0 0 0
Neighs:    156 ave 156 max 156 min
Histogram: 1 0 0 0 0 0 0 0 0 0

Total # of neighbors = 156
Ave neighs/atom = 39
Neighbor list builds = 0
Dangerous builds = 0
Reading restart file ...
  restart file = 11 Aug 2017, LAMMPS = 11 Aug 2017
  triclinic box = (-0.0175835 -0.0175835 -0.0175835) to (3.53428 3.53428 3.53428) with tilt (0 -0 0)
  1 by 1 by 1 MPI processor grid
  4 atoms
4 atoms in group Ni
Changing box ...
  triclinic box = (-0.0175835 -0.0175835 -0.0175835) to (3.53428 3.53428 3.53428) with tilt (0 -0 -3.55187e-06)
Neighbor list info ...
  update every 1 steps, delay 0 steps, check yes
  max neighbors/atom: 2000, page size: 100000
  master list distance cutoff = 5.64464
  ghost atom cutoff = 5.64464
  binsize = 2.82232, bins = 2 2 2
  1 neighbor lists, perpetual/occasional/extra = 1 0 0
  (1) pair eam/alloy, perpetual
      attributes: half, newton on
      pair build: half/bin/newton/tri
      stencil: half/bin/3d/newton/tri
      bin: standard
Setting up cg style minimization ...
  Unit style    : metal
  Current step  : 100
Per MPI rank memory allocation (min/avg/max) = 4.086 | 4.086 | 4.086 Mbytes
Step Temp PotEng Press Pxx Pyy Pzz Pxy Pxz Pyz Lx Ly Lz Volume 
     100            0   -1.5968821    358124.16    358124.16    358124.16    358124.16 1.3012958e-10 8.2804091e-11   0.80967927     3.551867     3.551867     3.551867    44.809499 
     101            0   -1.5968821    358124.15    358124.15    358124.15    358124.15 -2.3259576e-11 -3.9758369e-11   0.80967928     3.551867     3.551867     3.551867    44.809499 
     102            0   -1.5968821    358124.15    358124.15    358124.15    358124.15 3.1508972e-11 6.2025536e-14   0.80967928     3.551867     3.551867     3.551867    44.809499 
     103            0   -1.5968821    358124.15    358124.15    358124.15    358124.15 -6.2335664e-11 -8.6277521e-11   0.80967928     3.551867     3.551867     3.551867    44.809499 
Loop time of 0.000105143 on 1 procs for 3 steps with 4 atoms

88.5% CPU use with 1 MPI tasks x no OpenMP threads

Minimization stats:
  Stopping criterion = force tolerance
  Energy initial, next-to-last, final = 
        -1.59688207699     -1.59688214385     -1.59688214385
  Force two-norm initial, final = 0.00155664 6.87716e-15
  Force max component initial, final = 0.000449364 3.66374e-15
  Final line search alpha, max atom move = 1 3.66374e-15
  Iterations, force evaluations = 3 6

MPI task timing breakdown:
Section |  min time  |  avg time  |  max time  |%varavg| %total
---------------------------------------------------------------
Pair    | 6.4373e-05 | 6.4373e-05 | 6.4373e-05 |   0.0 | 61.22
Neigh   | 0          | 0          | 0          |   0.0 |  0.00
Comm    | 1.2636e-05 | 1.2636e-05 | 1.2636e-05 |   0.0 | 12.02
Output  | 1.5259e-05 | 1.5259e-05 | 1.5259e-05 |   0.0 | 14.51
Modify  | 0          | 0          | 0          |   0.0 |  0.00
Other   |            | 1.287e-05  |            |       | 12.24

Nlocal:    4 ave 4 max 4 min
Histogram: 1 0 0 0 0 0 0 0 0 0
Nghost:    360 ave 360 max 360 min
Histogram: 1 0 0 0 0 0 0 0 0 0
Neighs:    156 ave 156 max 156 min
Histogram: 1 0 0 0 0 0 0 0 0 0

Total # of neighbors = 156
Ave neighs/atom = 39
Neighbor list builds = 0
Dangerous builds = 0
Reading restart file ...
  restart file = 11 Aug 2017, LAMMPS = 11 Aug 2017
  triclinic box = (-0.0175835 -0.0175835 -0.0175835) to (3.53428 3.53428 3.53428) with tilt (0 -0 0)
  1 by 1 by 1 MPI processor grid
  4 atoms
4 atoms in group Ni
Changing box ...
  triclinic box = (-0.0175835 -0.0175835 -0.0175835) to (3.53428 3.53428 3.53428) with tilt (0 -0 3.55187e-06)
Neighbor list info ...
  update every 1 steps, delay 0 steps, check yes
  max neighbors/atom: 2000, page size: 100000
  master list distance cutoff = 5.64464
  ghost atom cutoff = 5.64464
  binsize = 2.82232, bins = 2 2 2
  1 neighbor lists, perpetual/occasional/extra = 1 0 0
  (1) pair eam/alloy, perpetual
      attributes: half, newton on
      pair build: half/bin/newton/tri
      stencil: half/bin/3d/newton/tri
      bin: standard
Setting up cg style minimization ...
  Unit style    : metal
  Current step  : 100
Per MPI rank memory allocation (min/avg/max) = 4.086 | 4.086 | 4.086 Mbytes
Step Temp PotEng Press Pxx Pyy Pzz Pxy Pxz Pyz Lx Ly Lz Volume 
     100            0   -1.5968821    358124.16    358124.16    358124.16    358124.16 2.3259576e-10 1.0798646e-10  -0.80967927     3.551867     3.551867     3.551867    44.809499 
     101            0   -1.5968821    358124.15    358124.15    358124.15    358124.15 1.4513975e-11 -7.1887596e-11  -0.80967928     3.551867     3.551867     3.551867    44.809499 
     102            0   -1.5968821    358124.15    358124.15    358124.15    358124.15 8.5967393e-11 -6.1529332e-11  -0.80967928     3.551867     3.551867     3.551867    44.809499 
     103            0   -1.5968821    358124.15    358124.15    358124.15    358124.15 -5.3279936e-11 -7.6477486e-11  -0.80967928     3.551867     3.551867     3.551867    44.809499 
Loop time of 0.000108957 on 1 procs for 3 steps with 4 atoms

101.0% CPU use with 1 MPI tasks x no OpenMP threads

Minimization stats:
  Stopping criterion = force tolerance
  Energy initial, next-to-last, final = 
        -1.59688207699     -1.59688214385     -1.59688214385
  Force two-norm initial, final = 0.00155664 9.64295e-15
  Force max component initial, final = 0.000449364 6.00908e-15
  Final line search alpha, max atom move = 1 6.00908e-15
  Iterations, force evaluations = 3 6

MPI task timing breakdown:
Section |  min time  |  avg time  |  max time  |%varavg| %total
---------------------------------------------------------------
Pair    | 6.4373e-05 | 6.4373e-05 | 6.4373e-05 |   0.0 | 59.08
Neigh   | 0          | 0          | 0          |   0.0 |  0.00
Comm    | 1.3828e-05 | 1.3828e-05 | 1.3828e-05 |   0.0 | 12.69
Output  | 1.4067e-05 | 1.4067e-05 | 1.4067e-05 |   0.0 | 12.91
Modify  | 0          | 0          | 0          |   0.0 |  0.00
Other   |            | 1.669e-05  |            |       | 15.32

Nlocal:    4 ave 4 max 4 min
Histogram: 1 0 0 0 0 0 0 0 0 0
Nghost:    360 ave 360 max 360 min
Histogram: 1 0 0 0 0 0 0 0 0 0
Neighs:    156 ave 156 max 156 min
Histogram: 1 0 0 0 0 0 0 0 0 0

Total # of neighbors = 156
Ave neighs/atom = 39
Neighbor list builds = 0
Dangerous builds = 0
Reading restart file ...
  restart file = 11 Aug 2017, LAMMPS = 11 Aug 2017
  triclinic box = (-0.0175835 -0.0175835 -0.0175835) to (3.53428 3.53428 3.53428) with tilt (0 -0 0)
  1 by 1 by 1 MPI processor grid
  4 atoms
4 atoms in group Ni
Changing box ...
  triclinic box = (-0.0175835 -0.0175835 -0.0175835) to (3.53428 3.53428 3.53428) with tilt (0 -3.55187e-06 0)
Neighbor list info ...
  update every 1 steps, delay 0 steps, check yes
  max neighbors/atom: 2000, page size: 100000
  master list distance cutoff = 5.64464
  ghost atom cutoff = 5.64464
  binsize = 2.82232, bins = 2 2 2
  1 neighbor lists, perpetual/occasional/extra = 1 0 0
  (1) pair eam/alloy, perpetual
      attributes: half, newton on
      pair build: half/bin/newton/tri
      stencil: half/bin/3d/newton/tri
      bin: standard
Setting up cg style minimization ...
  Unit style    : metal
  Current step  : 100
Per MPI rank memory allocation (min/avg/max) = 4.086 | 4.086 | 4.086 Mbytes
Step Temp PotEng Press Pxx Pyy Pzz Pxy Pxz Pyz Lx Ly Lz Volume 
     100            0   -1.5968821    358124.16    358124.16    358124.16    358124.16 1.7137656e-10   0.80967927 6.7297707e-11     3.551867     3.551867     3.551867    44.809499 
     101            0   -1.5968821    358124.15    358124.15    358124.15    358124.15 -5.5264753e-11   0.80967928 2.6795032e-11     3.551867     3.551867     3.551867    44.809499 
     102            0   -1.5968821    358124.15    358124.15    358124.15    358124.15 -3.3183662e-11   0.80967928 -8.212181e-11     3.551867     3.551867     3.551867    44.809499 
     103            0   -1.5968821    358124.15    358124.15    358124.15    358124.15 5.2163476e-11   0.80967928 4.8690046e-11     3.551867     3.551867     3.551867    44.809499 
Loop time of 0.000105143 on 1 procs for 3 steps with 4 atoms

88.5% CPU use with 1 MPI tasks x no OpenMP threads

Minimization stats:
  Stopping criterion = force tolerance
  Energy initial, next-to-last, final = 
        -1.59688207699     -1.59688214385     -1.59688214385
  Force two-norm initial, final = 0.00155664 1.31109e-14
  Force max component initial, final = 0.000449364 7.4398e-15
  Final line search alpha, max atom move = 1 7.4398e-15
  Iterations, force evaluations = 3 6

MPI task timing breakdown:
Section |  min time  |  avg time  |  max time  |%varavg| %total
---------------------------------------------------------------
Pair    | 6.2466e-05 | 6.2466e-05 | 6.2466e-05 |   0.0 | 59.41
Neigh   | 0          | 0          | 0          |   0.0 |  0.00
Comm    | 1.3351e-05 | 1.3351e-05 | 1.3351e-05 |   0.0 | 12.70
Output  | 1.502e-05  | 1.502e-05  | 1.502e-05  |   0.0 | 14.29
Modify  | 0          | 0          | 0          |   0.0 |  0.00
Other   |            | 1.431e-05  |            |       | 13.61

Nlocal:    4 ave 4 max 4 min
Histogram: 1 0 0 0 0 0 0 0 0 0
Nghost:    360 ave 360 max 360 min
Histogram: 1 0 0 0 0 0 0 0 0 0
Neighs:    156 ave 156 max 156 min
Histogram: 1 0 0 0 0 0 0 0 0 0

Total # of neighbors = 156
Ave neighs/atom = 39
Neighbor list builds = 0
Dangerous builds = 0
Reading restart file ...
  restart file = 11 Aug 2017, LAMMPS = 11 Aug 2017
  triclinic box = (-0.0175835 -0.0175835 -0.0175835) to (3.53428 3.53428 3.53428) with tilt (0 -0 0)
  1 by 1 by 1 MPI processor grid
  4 atoms
4 atoms in group Ni
Changing box ...
  triclinic box = (-0.0175835 -0.0175835 -0.0175835) to (3.53428 3.53428 3.53428) with tilt (0 3.55187e-06 0)
Neighbor list info ...
  update every 1 steps, delay 0 steps, check yes
  max neighbors/atom: 2000, page size: 100000
  master list distance cutoff = 5.64464
  ghost atom cutoff = 5.64464
  binsize = 2.82232, bins = 2 2 2
  1 neighbor lists, perpetual/occasional/extra = 1 0 0
  (1) pair eam/alloy, perpetual
      attributes: half, newton on
      pair build: half/bin/newton/tri
      stencil: half/bin/3d/newton/tri
      bin: standard
Setting up cg style minimization ...
  Unit style    : metal
  Current step  : 100
Per MPI rank memory allocation (min/avg/max) = 4.086 | 4.086 | 4.086 Mbytes
Step Temp PotEng Press Pxx Pyy Pzz Pxy Pxz Pyz Lx Ly Lz Volume 
     100            0   -1.5968821    358124.16    358124.16    358124.16    358124.16 7.2445826e-11  -0.80967927 1.2622197e-10     3.551867     3.551867     3.551867    44.809499 
     101            0   -1.5968821    358124.15    358124.15    358124.15    358124.15 -3.0640615e-11  -0.80967928 -1.1102571e-11     3.551867     3.551867     3.551867    44.809499 
     102            0   -1.5968821    358124.15    358124.15    358124.15    358124.15 2.2267168e-11  -0.80967928 -4.2735594e-11     3.551867     3.551867     3.551867    44.809499 
     103            0   -1.5968821    358124.15    358124.15    358124.15    358124.15 -4.8131816e-11  -0.80967928 6.2025536e-12     3.551867     3.551867     3.551867    44.809499 
Loop time of 0.000108004 on 1 procs for 3 steps with 4 atoms

100.0% CPU use with 1 MPI tasks x no OpenMP threads

Minimization stats:
  Stopping criterion = force tolerance
  Energy initial, next-to-last, final = 
        -1.59688207699     -1.59688214385     -1.59688214385
  Force two-norm initial, final = 0.00155664 6.24429e-15
  Force max component initial, final = 0.000449364 3.16414e-15
  Final line search alpha, max atom move = 1 3.16414e-15
  Iterations, force evaluations = 3 6

MPI task timing breakdown:
Section |  min time  |  avg time  |  max time  |%varavg| %total
---------------------------------------------------------------
Pair    | 6.6996e-05 | 6.6996e-05 | 6.6996e-05 |   0.0 | 62.03
Neigh   | 0          | 0          | 0          |   0.0 |  0.00
Comm    | 1.2636e-05 | 1.2636e-05 | 1.2636e-05 |   0.0 | 11.70
Output  | 1.5259e-05 | 1.5259e-05 | 1.5259e-05 |   0.0 | 14.13
Modify  | 0          | 0          | 0          |   0.0 |  0.00
Other   |            | 1.311e-05  |            |       | 12.14

Nlocal:    4 ave 4 max 4 min
Histogram: 1 0 0 0 0 0 0 0 0 0
Nghost:    360 ave 360 max 360 min
Histogram: 1 0 0 0 0 0 0 0 0 0
Neighs:    156 ave 156 max 156 min
Histogram: 1 0 0 0 0 0 0 0 0 0

Total # of neighbors = 156
Ave neighs/atom = 39
Neighbor list builds = 0
Dangerous builds = 0
Reading restart file ...
  restart file = 11 Aug 2017, LAMMPS = 11 Aug 2017
  triclinic box = (-0.0175835 -0.0175835 -0.0175835) to (3.53428 3.53428 3.53428) with tilt (0 -0 0)
  1 by 1 by 1 MPI processor grid
  4 atoms
4 atoms in group Ni
Changing box ...
  triclinic box = (-0.0175835 -0.0175835 -0.0175835) to (3.53428 3.53428 3.53428) with tilt (-3.55187e-06 -0 0)
Neighbor list info ...
  update every 1 steps, delay 0 steps, check yes
  max neighbors/atom: 2000, page size: 100000
  master list distance cutoff = 5.64464
  ghost atom cutoff = 5.64464
  binsize = 2.82232, bins = 2 2 2
  1 neighbor lists, perpetual/occasional/extra = 1 0 0
  (1) pair eam/alloy, perpetual
      attributes: half, newton on
      pair build: half/bin/newton/tri
      stencil: half/bin/3d/newton/tri
      bin: standard
Setting up cg style minimization ...
  Unit style    : metal
  Current step  : 100
Per MPI rank memory allocation (min/avg/max) = 4.086 | 4.086 | 4.086 Mbytes
Step Temp PotEng Press Pxx Pyy Pzz Pxy Pxz Pyz Lx Ly Lz Volume 
     100            0   -1.5968821    358124.16    358124.16    358124.16    358124.16   0.80967927 2.2167927e-10 9.3472483e-11     3.551867     3.551867     3.551867    44.809499 
     101            0   -1.5968821    358124.15    358124.15    358124.15    358124.15   0.80967928 -3.2563407e-11 -9.4030713e-11     3.551867     3.551867     3.551867    44.809499 
     102            0   -1.5968821    358124.15    358124.15    358124.15    358124.15   0.80967928   1.0687e-10 4.3603952e-11     3.551867     3.551867     3.551867    44.809499 
     103            0   -1.5968821    358124.15    358124.15    358124.15    358124.15   0.80967928 1.3769669e-11 4.044065e-11     3.551867     3.551867     3.551867    44.809499 
Loop time of 0.000108004 on 1 procs for 3 steps with 4 atoms

100.0% CPU use with 1 MPI tasks x no OpenMP threads

Minimization stats:
  Stopping criterion = force tolerance
  Energy initial, next-to-last, final = 
        -1.59688207699     -1.59688214385     -1.59688214385
  Force two-norm initial, final = 0.00155664 1.13284e-14
  Force max component initial, final = 0.000449364 6.26495e-15
  Final line search alpha, max atom move = 1 6.26495e-15
  Iterations, force evaluations = 3 6

MPI task timing breakdown:
Section |  min time  |  avg time  |  max time  |%varavg| %total
---------------------------------------------------------------
Pair    | 6.6757e-05 | 6.6757e-05 | 6.6757e-05 |   0.0 | 61.81
Neigh   | 0          | 0          | 0          |   0.0 |  0.00
Comm    | 1.0252e-05 | 1.0252e-05 | 1.0252e-05 |   0.0 |  9.49
Output  | 1.4782e-05 | 1.4782e-05 | 1.4782e-05 |   0.0 | 13.69
Modify  | 0          | 0          | 0          |   0.0 |  0.00
Other   |            | 1.621e-05  |            |       | 15.01

Nlocal:    4 ave 4 max 4 min
Histogram: 1 0 0 0 0 0 0 0 0 0
Nghost:    360 ave 360 max 360 min
Histogram: 1 0 0 0 0 0 0 0 0 0
Neighs:    156 ave 156 max 156 min
Histogram: 1 0 0 0 0 0 0 0 0 0

Total # of neighbors = 156
Ave neighs/atom = 39
Neighbor list builds = 0
Dangerous builds = 0
Reading restart file ...
  restart file = 11 Aug 2017, LAMMPS = 11 Aug 2017
  triclinic box = (-0.0175835 -0.0175835 -0.0175835) to (3.53428 3.53428 3.53428) with tilt (0 -0 0)
  1 by 1 by 1 MPI processor grid
  4 atoms
4 atoms in group Ni
Changing box ...
  triclinic box = (-0.0175835 -0.0175835 -0.0175835) to (3.53428 3.53428 3.53428) with tilt (3.55187e-06 -0 0)
Neighbor list info ...
  update every 1 steps, delay 0 steps, check yes
  max neighbors/atom: 2000, page size: 100000
  master list distance cutoff = 5.64464
  ghost atom cutoff = 5.64464
  binsize = 2.82232, bins = 2 2 2
  1 neighbor lists, perpetual/occasional/extra = 1 0 0
  (1) pair eam/alloy, perpetual
      attributes: half, newton on
      pair build: half/bin/newton/tri
      stencil: half/bin/3d/newton/tri
      bin: standard
Setting up cg style minimization ...
  Unit style    : metal
  Current step  : 100
Per MPI rank memory allocation (min/avg/max) = 4.086 | 4.086 | 4.086 Mbytes
Step Temp PotEng Press Pxx Pyy Pzz Pxy Pxz Pyz Lx Ly Lz Volume 
     100            0   -1.5968821    358124.16    358124.16    358124.16    358124.16  -0.80967927 8.0571172e-11 9.2666151e-11     3.551867     3.551867     3.551867    44.809499 
     101            0   -1.5968821    358124.15    358124.15    358124.15    358124.15  -0.80967928 -2.375578e-11 -1.2901312e-11     3.551867     3.551867     3.551867    44.809499 
     102            0   -1.5968821    358124.15    358124.15    358124.15    358124.15  -0.80967928 -2.9772257e-11 1.5816512e-11     3.551867     3.551867     3.551867    44.809499 
     103            0   -1.5968821    358124.15    358124.15    358124.15    358124.15  -0.80967928 -2.2081091e-11 -1.0110162e-11     3.551867     3.551867     3.551867    44.809499 
Loop time of 0.000109911 on 1 procs for 3 steps with 4 atoms

100.1% CPU use with 1 MPI tasks x no OpenMP threads

Minimization stats:
  Stopping criterion = force tolerance
  Energy initial, next-to-last, final = 
        -1.59688207699     -1.59688214385     -1.59688214385
  Force two-norm initial, final = 0.00155664 7.33835e-15
  Force max component initial, final = 0.000449364 4.4964e-15
  Final line search alpha, max atom move = 1 4.4964e-15
  Iterations, force evaluations = 3 6

MPI task timing breakdown:
Section |  min time  |  avg time  |  max time  |%varavg| %total
---------------------------------------------------------------
Pair    | 6.6996e-05 | 6.6996e-05 | 6.6996e-05 |   0.0 | 60.95
Neigh   | 0          | 0          | 0          |   0.0 |  0.00
Comm    | 1.3828e-05 | 1.3828e-05 | 1.3828e-05 |   0.0 | 12.58
Output  | 1.5259e-05 | 1.5259e-05 | 1.5259e-05 |   0.0 | 13.88
Modify  | 0          | 0          | 0          |   0.0 |  0.00
Other   |            | 1.383e-05  |            |       | 12.58

Nlocal:    4 ave 4 max 4 min
Histogram: 1 0 0 0 0 0 0 0 0 0
Nghost:    360 ave 360 max 360 min
Histogram: 1 0 0 0 0 0 0 0 0 0
Neighs:    156 ave 156 max 156 min
Histogram: 1 0 0 0 0 0 0 0 0 0

Total # of neighbors = 156
Ave neighs/atom = 39
Neighbor list builds = 0
Dangerous builds = 0
c11 = 210.685731051489 GPa
c22 = 210.685731100966 GPa
c33 = 210.685731100966 GPa
c12 = 169.353979700827 GPa
c13 = 169.353979700827 GPa
c23 = 169.353979700827 GPa
c44 = 80.9679280182848 GPa
c55 = 80.9679280193393 GPa
c66 = 80.9679280256937 GPa
c14 = -1.17693456089768e-09 GPa
c15 = 4.52786138495737e-10 GPa
c16 = 2.10887265748348e-09 GPa
c24 = 2.01117319145787e-09 GPa
c25 = 2.40348827305662e-10 GPa
c26 = 1.16607991373327e-09 GPa
c34 = -2.13987878886818e-09 GPa
c35 = -3.21912316896302e-09 GPa
c36 = 1.863864613004e-09 GPa
c45 = 8.1718643988427e-10 GPa
c46 = 1.0373770935153e-09 GPa
c56 = 3.40365130084618e-09 GPa
lammps_sim_done
Total wall time: 0:00:00
