LAMMPS (11 Aug 2017)
# ---- initialize simulations
clear
units metal
dimension 3
boundary p p p
atom_style atomic
atom_modify map array
# ---- create atoms
read_data /home/sullberg/repos/pypospack/examples/Ni__eam__born_exp_rose/01_preconditioning_3.5NN/rank_46/Ni_fcc_100_s.lmps_min_pos/lammps.structure
  triclinic box = (0 0 0) to (9.202 9.202 92.0195) with tilt (0 -0 0)
  1 by 1 by 1 MPI processor grid
  reading atoms ...
  20 atoms
# ---- define interatomic potential
include potential.mod
mass 1 58.6934

group Ni type 1
20 atoms in group Ni

pair_style eam/alloy
pair_coeff * * /home/sullberg/repos/pypospack/examples/Ni__eam__born_exp_rose/01_preconditioning_3.5NN/rank_46/Ni_fcc_100_s.lmps_min_pos/Ni.eam.alloy Ni

neighbor 1.0 bin
neigh_modify every 1 delay 0 check yes
# ---- define settings
compute eng all pe/atom
compute eatoms all reduce sum c_eng

# ---- run minimization
reset_timestep 0
thermo 1
thermo_style custom step pe lx ly lz xy xz yz press pxx pyy pzz pxy pxz pyz c_eatoms
min_style cg
minimize 1e-20 1e-20 1000 100000
Neighbor list info ...
  update every 1 steps, delay 0 steps, check yes
  max neighbors/atom: 2000, page size: 100000
  master list distance cutoff = 11
  ghost atom cutoff = 11
  binsize = 5.5, bins = 2 2 17
  1 neighbor lists, perpetual/occasional/extra = 1 0 0
  (1) pair eam/alloy, perpetual
      attributes: half, newton on
      pair build: half/bin/newton/tri
      stencil: half/bin/3d/newton/tri
      bin: standard
Per MPI rank memory allocation (min/avg/max) = 4.206 | 4.206 | 4.206 Mbytes
Step PotEng Lx Ly Lz Xy Xz Yz Press Pxx Pyy Pzz Pxy Pxz Pyz c_eatoms 
       0   -1.8735523        9.202        9.202      92.0195            0           -0            0    -153.6005   -156.36865   -156.36865   -148.06419 -6.7771935e-15 2.4968608e-15 3.9236384e-15   -1.8735523 
       1   -1.8738553        9.202        9.202      92.0195            0           -0            0   -153.83576   -156.57599   -156.57599   -148.35531 1.0700832e-15 -5.3504159e-15 -1.2127609e-14   -1.8738553 
       2   -1.8741682        9.202        9.202      92.0195            0           -0            0   -154.07849   -156.79036   -156.79036   -148.65475 -1.5337859e-14 8.2039711e-15            0   -1.8741682 
       3   -1.8744885        9.202        9.202      92.0195            0           -0            0   -154.32657   -157.00994   -157.00994   -148.95984 -3.9236384e-15 8.9173599e-15 7.4905823e-15   -1.8744885 
       4   -1.8748163        9.202        9.202      92.0195            0           -0            0   -154.58025   -157.23499   -157.23499   -149.27077 3.2102496e-15 -6.4204991e-15 7.1338879e-16   -1.8748163 
       5   -1.8751523        9.202        9.202      92.0195            0           -0            0   -154.83983   -157.46583   -157.46583   -149.58783 -1.4267776e-15 -1.2840998e-14 3.566944e-16   -1.8751523 
       6   -1.8754967        9.202        9.202      92.0195            0           -0            0   -155.10565   -157.70282   -157.70282   -149.91132 6.0638047e-15 8.9173599e-15 1.1414221e-14   -1.8754967 
       7   -1.8758502        9.202        9.202      92.0195            0           -0            0   -155.37806   -157.94632   -157.94632   -150.24156 -3.566944e-15 -1.783472e-15 -7.1338879e-16   -1.8758502 
       8   -1.8762133        9.202        9.202      92.0195            0           -0            0   -155.65746   -158.19674   -158.19674   -150.57891 -1.0700832e-14            0 1.4267776e-15   -1.8762133 
       9   -1.8765866        9.202        9.202      92.0195            0           -0            0   -155.94427   -158.45453   -158.45453   -150.92375 6.0638047e-15 4.2803328e-15 5.7071103e-15   -1.8765866 
      10   -1.8769708        9.202        9.202      92.0195            0           -0            0   -156.23894   -158.72017   -158.72017   -151.27646 -7.8472767e-15 2.1401664e-15 -7.1338879e-16   -1.8769708 
      11   -1.8773664        9.202        9.202      92.0195            0           -0            0   -156.54195   -158.99419   -158.99419   -151.63749 -1.0700832e-14 7.1338879e-16 1.2484304e-14   -1.8773664 
      12   -1.8777744        9.202        9.202      92.0195            0           -0            0   -156.85386   -159.27714   -159.27714    -152.0073 -9.6307487e-15 -9.6307487e-15 -2.4968608e-15   -1.8777744 
      13   -1.8781955        9.202        9.202      92.0195            0           -0            0   -157.17523   -159.56965   -159.56965   -152.38638 1.783472e-15 5.7071103e-15 4.9937215e-15   -1.8781955 
      14   -1.8786307        9.202        9.202      92.0195            0           -0            0   -157.50669   -159.87239   -159.87239   -152.77529 -1.783472e-15 6.0638047e-15 2.4968608e-15   -1.8786307 
      15   -1.8790809        9.202        9.202      92.0195            0           -0            0   -157.84893   -160.18611   -160.18611   -153.17458 1.2484304e-14 2.4968608e-15 4.2803328e-15   -1.8790809 
      16   -1.8795471        9.202        9.202      92.0195            0           -0            0    -158.2027   -160.51161   -160.51161    -153.5849 2.1401664e-15 8.2039711e-15 8.5606655e-15   -1.8795471 
      17   -1.8800307        9.202        9.202      92.0195            0           -0            0   -158.56882   -160.84977   -160.84977   -154.00692 -7.1338879e-16 -1.0700832e-15 3.566944e-16   -1.8800307 
      18   -1.8805328        9.202        9.202      92.0195            0           -0            0   -158.94816   -161.20156   -161.20156   -154.44137 5.3504159e-15 -3.566944e-16 -7.4905823e-15   -1.8805328 
      19   -1.8810549        9.202        9.202      92.0195            0           -0            0   -159.34171   -161.56804   -161.56804   -154.88905 1.1770915e-14 -1.0344137e-14 -6.4204991e-15   -1.8810549 
      20   -1.8815986        9.202        9.202      92.0195            0           -0            0   -159.75053   -161.95039   -161.95039   -155.35081 -7.4905823e-15 3.566944e-16 3.566944e-16   -1.8815986 
      21   -1.8821655        9.202        9.202      92.0195            0           -0            0   -160.17579   -162.34989   -162.34989   -155.82759            0 3.566944e-16 1.0700832e-15   -1.8821655 
      22   -1.8827575        9.202        9.202      92.0195            0           -0            0   -160.61877   -162.76796   -162.76796   -156.32039 7.1338879e-16 -5.7071103e-15 -3.2102496e-15   -1.8827575 
      23   -1.8833767        9.202        9.202      92.0195            0           -0            0   -161.08089   -163.20617   -163.20617   -156.83033 -6.4204991e-15 -1.4267776e-15 -4.6370271e-15   -1.8833767 
      24   -1.8840254        9.202        9.202      92.0195            0           -0            0    -161.5637   -163.66625   -163.66625    -157.3586 3.566944e-15 6.0638047e-15 -1.3911081e-14   -1.8840254 
      25    -1.884706        9.202        9.202      92.0195            0           -0            0   -162.06891   -164.15012   -164.15012   -157.90649 4.2803328e-15 -2.8535552e-15 6.4204991e-15    -1.884706 
      26   -1.8854215        9.202        9.202      92.0195            0           -0            0   -162.59843   -164.65992   -164.65992   -158.47545 -8.5606655e-15 -6.7771935e-15 8.5606655e-15   -1.8854215 
      27   -1.8861749        9.202        9.202      92.0195            0           -0            0   -163.15434     -165.198     -165.198   -159.06701 -4.6370271e-15 -8.5606655e-15 -1.1770915e-14   -1.8861749 
      28   -1.8869696        9.202        9.202      92.0195            0           -0            0   -163.73896   -165.76701   -165.76701   -159.68287 7.1338879e-16 2.4968608e-15 -5.7071103e-15   -1.8869696 
      29   -1.8878095        9.202        9.202      92.0195            0           -0            0   -164.35488   -166.36987   -166.36987   -160.32489 -8.2039711e-15 -1.4267776e-15 -1.4267776e-14   -1.8878095 
      30   -1.8886989        9.202        9.202      92.0195            0           -0            0   -165.00496   -167.00989   -167.00989   -160.99509 2.8535552e-15 3.566944e-15 3.566944e-15   -1.8886989 
      31   -1.8896426        9.202        9.202      92.0195            0           -0            0   -165.69238   -167.69072   -167.69072    -161.6957 -1.5337859e-14 1.1414221e-14 1.4267776e-15   -1.8896426 
      32   -1.8906459        9.202        9.202      92.0195            0           -0            0   -166.42071    -168.4165    -168.4165   -162.42915 1.783472e-15 7.1338879e-16 -4.9937215e-15   -1.8906459 
      33   -1.8917149        9.202        9.202      92.0195            0           -0            0   -167.19394   -169.19185   -169.19185   -163.19811 -3.566944e-16 4.6370271e-15 2.8535552e-15   -1.8917149 
      34   -1.8928563        9.202        9.202      92.0195            0           -0            0    -168.0165     -170.022     -170.022   -164.00552 8.5614212e-15 3.5601696e-16 1.9261497e-14   -1.8928563 
      35   -1.8940777        9.202        9.202      92.0195            0           -0            0   -168.89341   -170.91283   -170.91283   -164.85459 5.7079179e-15 -4.9944413e-15 7.1338879e-15   -1.8940777 
      36   -1.8953877        9.202        9.202      92.0195            0           -0            0   -169.83029   -171.87101   -171.87101   -165.74886 6.422142e-15 7.1193325e-16 -6.4204991e-15   -1.8953877 
      37   -1.8967962        9.202        9.202      92.0195            0           -0            0   -170.83348    -172.9041    -172.9041   -166.69222 1.7319342e-18 3.5654191e-15 9.9874431e-15   -1.8967962 
      38   -1.8983141        9.202        9.202      92.0195            0           -0            0   -171.91012   -174.02071   -174.02071   -167.68894 3.5687406e-15 -1.2485875e-14 -4.2803328e-15   -1.8983141 
      39    -1.899954        9.202        9.202      92.0195            0           -0            0   -173.06832   -175.23062   -175.23062   -168.74372 1.2129475e-14 9.2724342e-15 2.8535552e-15    -1.899954 
      40   -1.9017303        9.202        9.202      92.0195            0           -0            0   -174.31727   -176.54505   -176.54505   -169.86171 -1.1768976e-14 1.7817998e-15 -5.7071103e-15   -1.9017303 
      41   -1.9036594        9.202        9.202      92.0195            0           -0            0   -175.66742   -177.97684   -177.97684   -171.04857 1.7845181e-15 -3.5678392e-15 1.1414221e-14   -1.9036594 
      42   -1.9057601        9.202        9.202      92.0195            0           -0            0   -177.13068   -179.54077   -179.54077   -172.31049  -6.5978e-15 1.1770027e-14 1.5694553e-14   -1.9057601 
      43   -1.9080543        9.202        9.202      92.0195            0           -0            0   -178.72067   -181.25387   -181.25387   -173.65425 -7.8461855e-15 -9.2749726e-15 -7.1338879e-15   -1.9080543 
      44   -1.9105669        9.202        9.202      92.0195            0           -0            0   -180.45298   -183.13587   -183.13587   -175.08722 8.2051136e-15 1.4258248e-15 -7.1338879e-16   -1.9105669 
      45   -1.9133271        9.202        9.202      92.0195            0           -0            0   -182.34555   -185.20962   -185.20962   -176.61739 2.3197123e-15 -4.6380172e-15 2.8535552e-15   -1.9133271 
      46   -1.9163685        9.202        9.202      92.0195            0           -0            0   -184.41899   -187.50178   -187.50178   -178.25339 -1.0877919e-14 5.3401114e-16 -7.1338879e-16   -1.9163685 
      47   -1.9197307        9.202        9.202      92.0195            0           -0            0   -186.69711   -190.04347   -190.04347   -180.00439 -1.1412892e-14 4.6359528e-15 1.3554387e-14   -1.9197307 
      48   -1.9234597        9.202        9.202      92.0195            0           -0            0   -189.20745   -192.87115   -192.87115   -181.88007 -8.0242202e-15 9.8079739e-15 -4.9937215e-15   -1.9234597 
      49   -1.9276099        9.202        9.202      92.0195            0           -0            0   -191.98192   -196.02767   -196.02767   -183.89041 2.4983479e-15 7.1221482e-16 6.4204991e-15   -1.9276099 
      50   -1.9322451        9.202        9.202      92.0195            0           -0            0   -195.05751   -199.56354   -199.56354   -186.04544 -5.1704887e-15 7.1326572e-15 -7.1338879e-16   -1.9322451 
      51   -1.9374409        9.202        9.202      92.0195            0           -0            0   -198.47719   -203.53842   -203.53842   -188.35472 -4.0970274e-15 1.034033e-14 1.9974886e-14   -1.9374409 
      52   -1.9432871        9.202        9.202      92.0195            0           -0            0   -202.29079   -208.02288   -208.02288   -190.82661 7.3177556e-15 -1.5342033e-14 -4.2803328e-15   -1.9432871 
      53     -1.94989        9.202        9.202      92.0195            0           -0            0   -206.55601   -213.10041   -213.10041    -193.4672 -7.0745109e-16 3.3841821e-15 4.2803328e-15     -1.94989 
      54   -1.9573764        9.202        9.202      92.0195            0           -0            0   -211.33934   -218.86975   -218.86975   -196.27854 2.5032551e-15 1.4441454e-14 1.4267776e-14   -1.9573764 
      55   -1.9658969        9.202        9.202      92.0195            0           -0            0   -216.71683   -225.44715   -225.44715   -199.25619 -1.9549078e-15 -9.2790015e-15 4.2803328e-15   -1.9658969 
      56   -1.9756301        9.202        9.202      92.0195            0           -0            0   -222.77422   -232.96856   -232.96856   -202.38554 1.0708332e-14 8.8648227e-16 -7.1338879e-15   -1.9756301 
      57   -1.9867868        9.202        9.202      92.0195            0           -0            0   -229.60611   -241.59087   -241.59087    -205.6366 2.0161406e-14 -1.4095019e-14 -1.4267776e-14   -1.9867868 
      58   -1.9996125        9.202        9.202      92.0195            0           -0            0   -237.31294    -251.4911    -251.4911   -208.95661 8.8371277e-15 -1.6413901e-14 5.7071103e-15   -1.9996125 
      59   -2.0143884        9.202        9.202      92.0195            0           -0            0   -245.99448   -262.86161   -262.86161   -212.26023 1.3029168e-14 8.0192633e-15 1.5694553e-14   -2.0143884 
      60   -2.0301397        9.202        9.202      92.0195            0           -0            0   -255.01171   -274.91689   -274.91689   -215.20137 1.7050534e-15 6.2353902e-15 1.2840998e-14   -2.0301397 
      61   -2.0493763        9.202        9.202      92.0195            0           -0            0   -266.00486   -289.87265   -289.87265   -218.26928 -9.1729764e-15 -1.1778143e-14 -1.7121331e-14   -2.0493763 
      62   -2.0718139        9.202        9.202      92.0195            0           -0            0   -278.91778   -307.75296   -307.75296   -221.24741 1.1605836e-14 1.8648989e-15 8.5606655e-15   -2.0718139 
      63   -2.0978731        9.202        9.202      92.0195            0           -0            0    -293.7137   -328.70405   -328.70405     -223.733 1.263291e-15 -1.1244175e-14 1.4267776e-14   -2.0978731 
      64   -2.1279867        9.202        9.202      92.0195            0           -0            0   -310.57999   -353.15623   -353.15623   -225.42751 -1.7015444e-14 -2.0786332e-14 -3.1389107e-14   -2.1279867 
      65    -2.162561        9.202        9.202      92.0195            0           -0            0   -329.68925   -381.54883   -381.54883   -225.97008 -4.4398225e-15 -6.0732805e-15 -8.5606655e-15    -2.162561 
      66   -2.2018513        9.202        9.202      92.0195            0           -0            0    -351.1403   -414.23599   -414.23599   -224.94894 1.5938807e-14 -1.7398905e-14 -1.7121331e-14   -2.2018513 
      67   -2.2458259        9.202        9.202      92.0195            0           -0            0   -374.90316    -451.3772    -451.3772   -221.95507 -1.8256478e-14 -1.7221084e-14 -2.5681997e-14   -2.2458259 
      68   -2.2940098        9.202        9.202      92.0195            0           -0            0   -400.56166   -492.55045   -492.55045   -216.58409 2.2231423e-14 3.8601164e-14 1.4267776e-14   -2.2940098 
      69   -2.3452388        9.202        9.202      92.0195            0           -0            0   -427.20496   -536.50476   -536.50476   -208.60536 5.3809056e-15 1.4155126e-15 -2.8535552e-15   -2.3452388 
      70   -2.3976756        9.202        9.202      92.0195            0           -0            0   -453.98323   -581.82056   -581.82056   -198.30856 -1.8335882e-14 -7.3235523e-15 -2.8535552e-14   -2.3976756 
      71    -2.449192        9.202        9.202      92.0195            0           -0            0   -479.86092   -626.63899   -626.63899   -186.30479 -2.5969895e-14 -9.7533624e-15 -1.0019838e-14    -2.449192 
      72   -2.4983587        9.202        9.202      92.0195            0           -0            0   -504.20512    -669.6712    -669.6712   -173.27294 -1.7208153e-15 -4.4175678e-14 -1.0473631e-14   -2.4983587 
      73   -2.5435058        9.202        9.202      92.0195            0           -0            0   -526.34916   -709.47263   -709.47263   -160.10222 1.2772725e-14 2.6389115e-14 1.5859838e-14   -2.5435058 
      74   -2.5831059        9.202        9.202      92.0195            0           -0            0   -545.57425   -744.50682   -744.50682   -147.70912 3.8040203e-14 -3.7593813e-14 7.4660247e-15   -2.5831059 
      75   -2.6163425        9.202        9.202      92.0195            0           -0            0   -561.59219   -773.98247   -773.98247   -136.81164 2.840841e-15 1.568898e-15 1.0038648e-14   -2.6163425 
      76   -2.6431597        9.202        9.202      92.0195            0           -0            0   -574.46182   -797.79441   -797.79441   -127.79663 -5.2339329e-14 -1.1362667e-15 1.8594089e-15   -2.6431597 
      77    -2.664098        9.202        9.202      92.0195            0           -0            0   -584.50038   -816.38545   -816.38545   -120.73023 -4.343329e-14 7.5160107e-15 9.7941175e-15    -2.664098 
      78   -2.6800397        9.202        9.202      92.0195            0           -0            0   -592.16285   -830.51957   -830.51957   -115.44941 4.1195939e-14 1.0585882e-15 -1.0110753e-14   -2.6800397 
      79   -2.6919713        9.202        9.202      92.0195            0           -0            0   -597.93561   -841.06674   -841.06674   -111.67335 3.3755691e-14 1.5076608e-14 6.9593724e-15   -2.6919713 
      80   -2.7008227        9.202        9.202      92.0195            0           -0            0   -602.26686    -848.8539    -848.8539   -109.09278 -7.3731936e-15 -8.8685931e-16 1.0787567e-14   -2.7008227 
      81   -2.7073859        9.202        9.202      92.0195            0           -0            0   -605.53374   -854.58883   -854.58883   -107.42356 1.5112835e-14 3.2628481e-15 5.4894014e-15   -2.7073859 
      82   -2.7122935        9.202        9.202      92.0195            0           -0            0   -608.03525   -858.83788   -858.83788   -106.42999 3.5358377e-14 8.9995668e-15 1.1185017e-15   -2.7122935 
      83   -2.7160292        9.202        9.202      92.0195            0           -0            0   -609.99927   -862.03448   -862.03448   -105.92885 9.2225008e-15 1.4003042e-15 -1.5016695e-15   -2.7160292 
      84   -2.7189525        9.202        9.202      92.0195            0           -0            0   -611.59508   -864.50065   -864.50065   -105.78393  9.45167e-14 -1.1345947e-14 1.0098213e-14   -2.7189525 
      85    -2.721326        9.202        9.202      92.0195            0           -0            0   -612.94649   -866.47112   -866.47112   -105.89722 -3.8849732e-15 5.6945703e-15 1.2031469e-15    -2.721326 
      86   -2.7233396        9.202        9.202      92.0195            0           -0            0   -614.14341   -868.11511   -868.11511   -106.20002 3.7561592e-14 -8.1649577e-16 -3.5533589e-15   -2.7233396 
      87   -2.7251303        9.202        9.202      92.0195            0           -0            0   -615.25119   -869.55411   -869.55411   -106.64534 4.0881915e-14 2.9820906e-15 9.5617785e-16   -2.7251303 
      88   -2.7267972        9.202        9.202      92.0195            0           -0            0   -616.31768   -870.87557   -870.87557   -107.20191 -8.3494704e-14 -5.9154143e-15 1.6082598e-15   -2.7267972 
      89    -2.728413        9.202        9.202      92.0195            0           -0            0    -617.3786   -872.14307   -872.14307   -107.84965 -4.2508288e-14 1.0409624e-14 1.4683687e-14    -2.728413 
      90   -2.7300342        9.202        9.202      92.0195            0           -0            0   -618.46259   -873.40523   -873.40523   -108.57731 -7.8132444e-14 5.9805528e-15 -2.3453353e-15   -2.7300342 
      91   -2.7317229        9.202        9.202      92.0195            0           -0            0   -619.60483   -874.71329   -874.71329   -109.38792 4.3544931e-14 -2.9754722e-15 2.2467567e-15   -2.7317229 
      92   -2.7335121        9.202        9.202      92.0195            0           -0            0   -620.82326   -876.09507   -876.09507   -110.27963 -6.5219689e-14 5.5204031e-15 6.1912951e-15   -2.7335121 
      93    -2.735432        9.202        9.202      92.0195            0           -0            0   -622.13456   -877.57533   -877.57533   -111.25301 2.6241596e-14 2.5769777e-15 -1.0972533e-16    -2.735432 
      94    -2.737511        9.202        9.202      92.0195            0           -0            0   -623.55502   -879.17723   -879.17723   -112.31062 6.5121459e-14 -4.2437576e-15 1.2616671e-15    -2.737511 
      95   -2.7397779        9.202        9.202      92.0195            0           -0            0   -625.10139   -880.92368   -880.92368    -113.4568 3.1497439e-14 3.5502239e-15 -6.6733899e-15   -2.7397779 
      96   -2.7422625        9.202        9.202      92.0195            0           -0            0   -626.79155    -882.8386    -882.8386   -114.69745 -5.8378576e-14 -4.1552807e-15 4.9310214e-15   -2.7422625 
      97   -2.7449977        9.202        9.202      92.0195            0           -0            0   -628.64523   -884.94793   -884.94793   -116.03984 2.6828713e-14 5.4305328e-16 6.1428766e-15   -2.7449977 
      98   -2.7480204        9.202        9.202      92.0195            0           -0            0   -630.68457   -887.28069   -887.28069   -117.49233 4.6412246e-14 4.9090763e-15 -2.6299245e-15   -2.7480204 
      99   -2.7513723        9.202        9.202      92.0195            0           -0            0   -632.93471   -889.86994   -889.86994   -119.06427 -8.7132011e-14 -2.4125639e-15 9.6788188e-15   -2.7513723 
     100   -2.7551021        9.202        9.202      92.0195            0           -0            0    -635.4245   -892.75388   -892.75388   -120.76574 -1.204697e-14 -1.0011652e-14 -3.3224132e-15   -2.7551021 
     101    -2.759266        9.202        9.202      92.0195            0           -0            0   -638.18715   -895.97705   -895.97705   -122.60735 -3.6259692e-14 -1.5154113e-14 -5.8652541e-15    -2.759266 
     102   -2.7639305        9.202        9.202      92.0195            0           -0            0   -641.26104   -899.59166   -899.59166   -124.59981 -6.1351436e-14 3.7703712e-15 4.352438e-15   -2.7639305 
     103   -2.7691736        9.202        9.202      92.0195            0           -0            0   -644.69063   -903.65919   -903.65919   -126.75349 1.7129343e-15 -4.6563597e-15 3.3736184e-16   -2.7691736 
     104   -2.7750876        9.202        9.202      92.0195            0           -0            0   -648.52737   -908.25224   -908.25224   -129.07763 4.1995714e-14 1.5326538e-14 3.302384e-15   -2.7750876 
     105   -2.7817822        9.202        9.202      92.0195            0           -0            0   -652.83078    -913.4566    -913.4566   -131.57912 -6.2400968e-14 4.7643434e-15 3.1902203e-15   -2.7817822 
     106   -2.7893877        9.202        9.202      92.0195            0           -0            0   -657.66932   -919.37357   -919.37357   -134.26082 1.3313827e-13 -5.7590122e-15 -1.4891294e-15   -2.7893877 
     107   -2.7980587        9.202        9.202      92.0195            0           -0            0   -663.12119   -926.12232   -926.12232   -137.11892 -3.5160349e-14 1.1769348e-15 -2.2642605e-15   -2.7980587 
     108   -2.8079784        9.202        9.202      92.0195            0           -0            0    -669.2744   -933.84199   -933.84199   -140.13922 1.0920805e-14 2.254333e-15 2.9404211e-15   -2.8079784 
     109   -2.8193627        9.202        9.202      92.0195            0           -0            0   -676.22582   -942.69289   -942.69289   -143.29168 1.1734862e-14 -1.534095e-14 -2.0305891e-14   -2.8193627 
     110   -2.8324627        9.202        9.202      92.0195            0           -0            0   -684.07801   -952.85549   -952.85549   -146.52307 -8.2724092e-14 -1.9531432e-15 -9.2406161e-15   -2.8324627 
     111    -2.847565        9.202        9.202      92.0195            0           -0            0   -692.93464   -964.52655   -964.52655   -149.75082 -8.0311954e-15 1.3889114e-14 -7.8026899e-17    -2.847565 
     112   -2.8649861        9.202        9.202      92.0195            0           -0            0   -702.87965   -977.90085   -977.90085   -152.83726 7.3382932e-14 2.441456e-15 7.1896214e-15   -2.8649861 
     113   -2.8850743        9.202        9.202      92.0195            0           -0            0   -714.41025   -993.65807   -993.65807   -155.91462 1.1662574e-15 6.4793444e-15 2.1953425e-14   -2.8850743 
     114   -2.9083528        9.202        9.202      92.0195            0           -0            0   -727.79035   -1012.2732   -1012.2732   -158.82472 2.4193951e-14 8.1903542e-15 -3.2994232e-15   -2.9083528 
     115   -2.9353413        9.202        9.202      92.0195            0           -0            0    -743.0982    -1034.039    -1034.039    -161.2167 -6.1646779e-14 1.9537125e-16 3.8344648e-15   -2.9353413 
     116   -2.9664945        9.202        9.202      92.0195            0           -0            0   -760.53293   -1059.4073   -1059.4073   -162.78422 -4.5656883e-14 -3.2236256e-14 -3.5000638e-14   -2.9664945 
     117   -3.0022063        9.202        9.202      92.0195            0           -0            0   -780.26101   -1088.8132   -1088.8132   -163.15655 1.1414221e-14 7.3066618e-15 -5.7907106e-15   -3.0022063 
     118   -3.0426957        9.202        9.202      92.0195            0           -0            0   -802.36569   -1122.5881   -1122.5881    -161.9208 -3.4242662e-14 -2.1056116e-14 -2.0766302e-14   -3.0426957 
     119   -3.0878677        9.202        9.202      92.0195            0           -0            0   -826.78982   -1160.8463   -1160.8463   -158.67681 4.5656883e-14 6.6490065e-15 1.5064765e-14   -3.0878677 
     120   -3.1344768        9.202        9.202      92.0195            0           -0            0   -851.57939   -1200.6844   -1200.6844   -153.36928 -2.2828441e-14 -9.1681606e-15 -1.6218448e-15   -3.1344768 
     121    -3.186222        9.202        9.202      92.0195            0           -0            0   -878.50685   -1245.1051   -1245.1051   -145.31034 1.1414221e-14 9.0566936e-15 6.1864184e-16    -3.186222 
     122   -3.2392078        9.202        9.202      92.0195            0           -0            0   -905.59885   -1290.9088   -1290.9088   -134.97892 -2.2828441e-14 5.8241507e-16 -1.0282831e-15   -3.2392078 
     123   -3.2910762        9.202        9.202      92.0195            0           -0            0   -931.70281   -1336.0339   -1336.0339   -123.04062 -3.4242662e-14 -1.5421459e-14 -1.6279755e-14   -3.2910762 
     124   -3.3404995        9.202        9.202      92.0195            0           -0            0   -956.25252   -1379.2889   -1379.2889    -110.1797 -3.4242662e-14 4.0852655e-15 -9.4356814e-15   -3.3404995 
     125   -3.3857504        9.202        9.202      92.0195            0           -0            0   -978.54146   -1419.1524   -1419.1524   -97.319539 -4.2875835e-14 5.4792104e-14 5.0459804e-14   -3.3857504 
     126   -3.4253824        9.202        9.202      92.0195            0           -0            0   -997.90279   -1454.1719   -1454.1719   -85.364463 7.8622856e-14 -7.2314651e-15 -4.1558468e-15   -3.4253824 
     127   -3.4586814        9.202        9.202      92.0195            0           -0            0   -1014.0961   -1483.6455   -1483.6455   -74.997233 2.9605765e-14 -8.2233037e-16 -1.2021542e-14   -3.4586814 
     128   -3.4856856        9.202        9.202      92.0195            0           -0            0   -1027.2239   -1507.5518   -1507.5518   -66.568069 4.3251808e-15 -1.1546588e-14 -1.4949553e-14   -3.4856856 
     129   -3.5070047        9.202        9.202      92.0195            0           -0            0    -1037.635   -1526.3952   -1526.3952   -60.114611 -4.2832065e-15 6.325578e-15 1.8054693e-14   -3.5070047 
     130   -3.5235611        9.202        9.202      92.0195            0           -0            0   -1045.8046   -1540.9757   -1540.9757   -55.462329 -3.6998074e-14 9.0406703e-15 1.7819045e-15   -3.5235611 
     131     -3.53636        9.202        9.202      92.0195            0           -0            0   -1052.2274   -1552.1786   -1552.1786   -52.325062 9.4770462e-15 1.5989941e-14 6.4285108e-15     -3.53636 
     132   -3.5463392        9.202        9.202      92.0195            0           -0            0   -1057.3555   -1560.8356   -1560.8356   -50.395179 1.1925837e-14 -5.5764849e-15 -7.3148476e-15   -3.5463392 
     133   -3.5542965        9.202        9.202      92.0195            0           -0            0   -1061.5705   -1567.6573   -1567.6573   -49.396728 3.854912e-14 -3.2447347e-16 -6.6394273e-15   -3.5542965 
     134   -3.5608737        9.202        9.202      92.0195            0           -0            0   -1065.1779   -1573.2155   -1573.2155   -49.102635 -1.7423946e-14 7.3038751e-15 3.7533028e-16   -3.5608737 
     135    -3.566571        9.202        9.202      92.0195            0           -0            0   -1068.4156   -1577.9549   -1577.9549   -49.336934 3.2189318e-14 1.3550381e-14 8.3978192e-15    -3.566571 
     136   -3.5717732        9.202        9.202      92.0195            0           -0            0   -1071.4669   -1582.2162   -1582.2162    -49.96824 -4.2272553e-14 4.2634385e-15 7.2136565e-15   -3.5717732 
     137   -3.5767779        9.202        9.202      92.0195            0           -0            0   -1074.4737   -1586.2604   -1586.2604   -50.900224 1.7177239e-15 6.2304827e-15 4.2421901e-15   -3.5767779 
     138   -3.5818397        9.202        9.202      92.0195            0           -0            0   -1077.5598   -1590.3067   -1590.3067   -52.065959 7.4624543e-15 5.2211839e-15 5.8939917e-15   -3.5818397 
     139   -3.5872363        9.202        9.202      92.0195            0           -0            0   -1080.8678   -1594.5856   -1594.5856   -53.432275 2.9006151e-14 3.5890632e-15 4.7195824e-15   -3.5872363 
     140   -3.5931461        9.202        9.202      92.0195            0           -0            0   -1084.4806   -1599.2423   -1599.2423   -54.957378 -2.0730598e-14 1.3879383e-15 3.8325489e-16   -3.5931461 
     141   -3.5997443        9.202        9.202      92.0195            0           -0            0   -1088.4744   -1604.4141   -1604.4141   -56.594802 -3.544533e-14 -3.3678709e-15 -9.351907e-16   -3.5997443 
     142   -3.6072071        9.202        9.202      92.0195            0           -0            0   -1092.9175   -1610.2324   -1610.2324   -58.287637 8.5814785e-15 3.5711675e-15 7.8495844e-15   -3.6072071 
     143   -3.6157142        9.202        9.202      92.0195            0           -0            0   -1097.8676   -1616.8205   -1616.8205   -59.961789 -6.4768422e-16 1.0215537e-14 4.7778195e-15   -3.6157142 
     144   -3.6254473        9.202        9.202      92.0195            0           -0            0   -1103.3763   -1624.3008   -1624.3008   -61.527326            0 6.9565857e-15 8.3116064e-15   -3.6254473 
     145   -3.6366074        9.202        9.202      92.0195            0           -0            0   -1109.8449   -1633.2053   -1633.2053   -63.124186 1.1414221e-14 -6.424505e-15 -7.6426303e-15   -3.6366074 
     146   -3.6495122        9.202        9.202      92.0195            0           -0            0   -1117.2215   -1643.5843   -1643.5843   -64.495906 -6.8485324e-14 8.8783465e-15 -3.34401e-17   -3.6495122 
     147   -3.6643848        9.202        9.202      92.0195            0           -0            0   -1125.6017    -1655.657    -1655.657   -65.491107            0 -9.7369036e-15 -1.1617387e-14   -3.6643848 
     148   -3.6814367        9.202        9.202      92.0195            0           -0            0    -1135.074   -1669.6477   -1669.6477   -65.926621 4.5656883e-14 -4.2453251e-16 4.4902913e-15   -3.6814367 
     149   -3.7008104        9.202        9.202      92.0195            0           -0            0   -1145.6931   -1685.7432   -1685.7432   -65.592785 -2.2828441e-14 7.901225e-15 6.197957e-15   -3.7008104 
     150   -3.7225148        9.202        9.202      92.0195            0           -0            0   -1157.4528   -1704.0417   -1704.0417   -64.274933 -4.5656883e-14 -2.6268766e-15 -6.6917645e-15   -3.7225148 
     151   -3.7463504        9.202        9.202      92.0195            0           -0            0   -1170.2137   -1724.4312   -1724.4312   -61.778911 9.1313765e-14 1.6653736e-14 6.7181073e-15   -3.7463504 
     152   -3.7718029        9.202        9.202      92.0195            0           -0            0   -1183.4987    -1746.282    -1746.282   -57.931995            0 5.167671e-15 1.7300984e-14   -3.7718029 
     153   -3.7979781        9.202        9.202      92.0195            0           -0            0   -1196.8991    -1768.924    -1768.924   -52.849252 1.1414221e-14 9.3626836e-15 2.2909298e-15   -3.7979781 
     154   -3.8238262        9.202        9.202      92.0195            0           -0            0   -1209.8969   -1791.4429   -1791.4429   -46.804872 6.8485324e-14 9.7238193e-15 2.3171855e-15   -3.8238262 
     155   -3.8485574        9.202        9.202      92.0195            0           -0            0   -1222.1354    -1813.132    -1813.132   -40.142097 -2.2828441e-14 -1.0311416e-14 -1.4017127e-14   -3.8485574 
     156   -3.8713744        9.202        9.202      92.0195            0           -0            0   -1233.2957   -1833.2992   -1833.2992   -33.288779 6.8485324e-14 -1.332932e-14 -2.9300363e-15   -3.8713744 
     157   -3.8914654        9.202        9.202      92.0195            0           -0            0   -1243.0064   -1851.1488   -1851.1488    -26.72164 9.1313765e-14 -2.0730663e-14 -1.9746259e-14   -3.8914654 
     158   -3.9083645        9.202        9.202      92.0195            0           -0            0   -1251.0909   -1866.2215   -1866.2215   -20.829735 -2.2828441e-14 2.5041116e-14 9.4184607e-15   -3.9083645 
     159   -3.9219936        9.202        9.202      92.0195            0           -0            0   -1257.5584   -1878.4163   -1878.4163   -15.842475 -4.5656883e-14 1.1601821e-14 6.3902702e-15   -3.9219936 
     160   -3.9325916        9.202        9.202      92.0195            0           -0            0   -1262.5562   -1887.9227   -1887.9227   -11.823331 -6.8485324e-14 2.9309834e-15 1.9716814e-16   -3.9325916 
     161   -3.9405881        9.202        9.202      92.0195            0           -0            0   -1266.3097   -1895.1092   -1895.1092   -8.7107227            0 -2.6468514e-15 -2.6068637e-15   -3.9405881 
     162   -3.9464797        9.202        9.202      92.0195            0           -0            0   -1269.0656   -1900.4115   -1900.4115    -6.373889            0 8.1103835e-15 7.0909775e-15   -3.9464797 
     163   -3.9507421        9.202        9.202      92.0195            0           -0            0   -1271.0544   -1904.2515   -1904.2515   -4.6602136 -2.2828441e-14 -1.3155501e-15 -5.0114539e-15   -3.9507421 
     164   -3.9537845        9.202        9.202      92.0195            0           -0            0   -1272.4712   -1906.9943   -1906.9943   -3.4251058 9.1313765e-14  2.45493e-15 2.4066367e-15   -3.9537845 
     165   -3.9559348        9.202        9.202      92.0195            0           -0            0   -1273.4712   -1908.9338   -1908.9338   -2.5459968 -4.5656883e-14 3.4420879e-16 -2.2340044e-15   -3.9559348 
     166   -3.9574439        9.202        9.202      92.0195            0           -0            0   -1274.1732   -1910.2957   -1910.2957    -1.928137 -2.2828441e-14 -3.2807247e-15 -1.415737e-15   -3.9574439 
     167   -3.9584977        9.202        9.202      92.0195            0           -0            0   -1274.6633    -1911.247    -1911.247   -1.4958786 4.5656883e-14 -4.0252486e-16 -1.710036e-15   -3.9584977 
     168   -3.9592309        9.202        9.202      92.0195            0           -0            0   -1275.0042   -1911.9091   -1911.9091   -1.1944454 -2.2828441e-14 1.1970456e-16 -4.7879648e-17   -3.9592309 
     169   -3.9597398        9.202        9.202      92.0195            0           -0            0   -1275.2407   -1912.3687   -1912.3687  -0.98490121            0 -1.4769649e-16 -5.880374e-16   -3.9597398 
     170   -3.9600925        9.202        9.202      92.0195            0           -0            0   -1275.4046   -1912.6872   -1912.6872   -0.8395527            0 -1.1700783e-15 -4.7629963e-16   -3.9600925 
     171   -3.9603366        9.202        9.202      92.0195            0           -0            0    -1275.518   -1912.9076   -1912.9076  -0.73888635 -4.5656883e-14 8.3018014e-16 7.1154507e-16   -3.9603366 
     172   -3.9605054        9.202        9.202      92.0195            0           -0            0   -1275.5965   -1913.0601   -1913.0601  -0.66924013 2.2828441e-14 -8.5306951e-16 -8.3232729e-16   -3.9605054 
     173    -3.960622        9.202        9.202      92.0195            0           -0            0   -1275.6506   -1913.1654   -1913.1654  -0.62109101 -9.1313765e-14 1.5682871e-16 4.152656e-16    -3.960622 
     174   -3.9607026        9.202        9.202      92.0195            0           -0            0   -1275.6881   -1913.2382   -1913.2382  -0.58782114 9.1313765e-14 1.5834587e-16 -2.0923058e-16   -3.9607026 
     175   -3.9607583        9.202        9.202      92.0195            0           -0            0   -1275.7139   -1913.2885   -1913.2885  -0.56484119 6.8485324e-14 2.4946048e-16 6.8851826e-17   -3.9607583 
     176   -3.9607967        9.202        9.202      92.0195            0           -0            0   -1275.7318   -1913.3232   -1913.3232  -0.54897319 9.1313765e-14 -2.4025751e-16 -2.1153693e-16   -3.9607967 
     177   -3.9608232        9.202        9.202      92.0195            0           -0            0   -1275.7441   -1913.3472   -1913.3472  -0.53801867            0 -5.4255834e-16 -9.1102773e-16   -3.9608232 
     178   -3.9608416        9.202        9.202      92.0195            0           -0            0   -1275.7526   -1913.3637   -1913.3637  -0.53045779 1.5979909e-13 2.3242033e-16 3.349997e-18   -3.9608416 
     179   -3.9608542        9.202        9.202      92.0195            0           -0            0   -1275.7585   -1913.3752   -1913.3752  -0.52524039 4.5656883e-14 1.6874793e-16 1.4097405e-16   -3.9608542 
     180   -3.9608629        9.202        9.202      92.0195            0           -0            0   -1275.7626   -1913.3831   -1913.3831  -0.52164105 -9.1313765e-14 1.9255305e-16 2.0604624e-16   -3.9608629 
     181    -3.960869        9.202        9.202      92.0195            0           -0            0   -1275.7654   -1913.3885   -1913.3885  -0.51915882 2.2828441e-14 -9.9655776e-17 2.8185659e-17    -3.960869 
     182   -3.9608731        9.202        9.202      92.0195            0           -0            0   -1275.7673   -1913.3923   -1913.3923  -0.51744778            0 1.9451719e-16 9.8366021e-17   -3.9608731 
     183    -3.960876        9.202        9.202      92.0195            0           -0            0   -1275.7687   -1913.3948   -1913.3948   -0.5162691            0 -4.3579385e-17 -4.6990443e-17    -3.960876 
     184    -3.960878        9.202        9.202      92.0195            0           -0            0   -1275.7696   -1913.3966   -1913.3966  -0.51545791            0 -1.0273143e-16 -1.7415409e-16    -3.960878 
     185   -3.9608794        9.202        9.202      92.0195            0           -0            0   -1275.7702   -1913.3979   -1913.3979   -0.5149004 -6.8485324e-14 1.1865054e-17 1.4674181e-17   -3.9608794 
     186   -3.9608803        9.202        9.202      92.0195            0           -0            0   -1275.7707   -1913.3987   -1913.3987  -0.51451799 -2.2828441e-14 -4.6294624e-17 -5.6252599e-17   -3.9608803 
     187    -3.960881        9.202        9.202      92.0195            0           -0            0    -1275.771   -1913.3993   -1913.3993  -0.51425645            0 2.3860309e-17 9.8167191e-18    -3.960881 
     188   -3.9608814        9.202        9.202      92.0195            0           -0            0   -1275.7712   -1913.3997   -1913.3997  -0.51407833            0 -6.0082576e-20 1.1943464e-17   -3.9608814 
     189   -3.9608817        9.202        9.202      92.0195            0           -0            0   -1275.7713      -1913.4      -1913.4  -0.51395781 -4.5656883e-14 -1.5250514e-17 -1.5118145e-17   -3.9608817 
     190   -3.9608819        9.202        9.202      92.0195            0           -0            0   -1275.7714   -1913.4002   -1913.4002  -0.51387704 4.5656883e-14 -3.0392854e-17 -3.4208927e-17   -3.9608819 
     191   -3.9608821        9.202        9.202      92.0195            0           -0            0   -1275.7715   -1913.4003   -1913.4003  -0.51382371 -2.2828441e-14 -1.2786618e-17 -1.1240459e-17   -3.9608821 
     192   -3.9608822        9.202        9.202      92.0195            0           -0            0   -1275.7715   -1913.4004   -1913.4004  -0.51378931 4.5656883e-14 -4.8472841e-17 -3.4491757e-17   -3.9608822 
     193   -3.9608823        9.202        9.202      92.0195            0           -0            0   -1275.7716   -1913.4005   -1913.4005  -0.51376799 9.1313765e-14 1.5457125e-17 1.4307265e-17   -3.9608823 
     194   -3.9608823        9.202        9.202      92.0195            0           -0            0   -1275.7716   -1913.4005   -1913.4005  -0.51375569 -5.7071103e-14 1.2176948e-17 1.7479182e-17   -3.9608823 
     195   -3.9608824        9.202        9.202      92.0195            0           -0            0   -1275.7716   -1913.4006   -1913.4006  -0.51374962 -6.8485324e-14 3.6960564e-18 8.0780663e-18   -3.9608824 
     196   -3.9608824        9.202        9.202      92.0195            0           -0            0   -1275.7716   -1913.4006   -1913.4006  -0.51374786 -2.2828441e-14 1.5337885e-17 6.1013261e-18   -3.9608824 
     197   -3.9608824        9.202        9.202      92.0195            0           -0            0   -1275.7716   -1913.4006   -1913.4006  -0.51374905 2.2828441e-14 3.8031676e-18 1.1500371e-17   -3.9608824 
     198   -3.9608824        9.202        9.202      92.0195            0           -0            0   -1275.7717   -1913.4006   -1913.4006   -0.5137523 -6.8485324e-14 -1.8162946e-17 -1.990988e-17   -3.9608824 
     199   -3.9608824        9.202        9.202      92.0195            0           -0            0   -1275.7717   -1913.4006   -1913.4006  -0.51375696 -2.2828441e-14 3.3344129e-18 2.4618814e-18   -3.9608824 
     200   -3.9608824        9.202        9.202      92.0195            0           -0            0   -1275.7717   -1913.4006   -1913.4006   -0.5137626 5.7071103e-14 1.5340936e-18 1.9670878e-18   -3.9608824 
     201   -3.9608824        9.202        9.202      92.0195            0           -0            0   -1275.7717   -1913.4006   -1913.4006  -0.51376891 -4.5656883e-14 1.6141558e-17 1.6846742e-17   -3.9608824 
     202   -3.9608824        9.202        9.202      92.0195            0           -0            0   -1275.7717   -1913.4006   -1913.4006  -0.51377569 -4.5656883e-14 9.2300848e-18 9.3947113e-18   -3.9608824 
     203   -3.9608824        9.202        9.202      92.0195            0           -0            0   -1275.7717   -1913.4006   -1913.4006  -0.51378279 -3.4242662e-14 4.2959707e-18 3.5485501e-18   -3.9608824 
     204   -3.9608824        9.202        9.202      92.0195            0           -0            0   -1275.7717   -1913.4006   -1913.4006  -0.51379011 2.2828441e-14 4.3312447e-18 4.9167894e-18   -3.9608824 
     205   -3.9608824        9.202        9.202      92.0195            0           -0            0   -1275.7717   -1913.4006   -1913.4006  -0.51379758 1.1414221e-13  4.74347e-18 5.4121544e-18   -3.9608824 
     206   -3.9608824        9.202        9.202      92.0195            0           -0            0   -1275.7717   -1913.4006   -1913.4006  -0.51380516 -4.5656883e-14 7.6878006e-18 8.8352455e-18   -3.9608824 
     207   -3.9608825        9.202        9.202      92.0195            0           -0            0   -1275.7717   -1913.4006   -1913.4006  -0.51381281 -1.1414221e-13 1.7375127e-18 2.2194583e-18   -3.9608825 
     208   -3.9608825        9.202        9.202      92.0195            0           -0            0   -1275.7717   -1913.4006   -1913.4006  -0.51382051 4.5656883e-14  7.91865e-18 8.4819972e-18   -3.9608825 
     209   -3.9608825        9.202        9.202      92.0195            0           -0            0   -1275.7717   -1913.4006   -1913.4006  -0.51382825 9.1313765e-14 -7.3421291e-18 -1.8931008e-18   -3.9608825 
     210   -3.9608825        9.202        9.202      92.0195            0           -0            0   -1275.7717   -1913.4006   -1913.4006  -0.51383601            0 3.2880787e-18 3.393364e-18   -3.9608825 
     211   -3.9608825        9.202        9.202      92.0195            0           -0            0   -1275.7717   -1913.4006   -1913.4006  -0.51384379 2.2828441e-14 8.6259278e-19 9.673227e-19   -3.9608825 
     212   -3.9608825        9.202        9.202      92.0195            0           -0            0   -1275.7717   -1913.4006   -1913.4006  -0.51385158 4.5656883e-14 7.4715054e-18 7.8784421e-18   -3.9608825 
     213   -3.9608825        9.202        9.202      92.0195            0           -0            0   -1275.7717   -1913.4006   -1913.4006  -0.51385938 2.2828441e-14 -2.7923928e-18 -3.0227943e-18   -3.9608825 
     214   -3.9608825        9.202        9.202      92.0195            0           -0            0   -1275.7717   -1913.4006   -1913.4006  -0.51386718 -4.5656883e-14 -4.5412165e-18 -4.3497206e-18   -3.9608825 
     215   -3.9608825        9.202        9.202      92.0195            0           -0            0   -1275.7717   -1913.4006   -1913.4006  -0.51387499 1.1414221e-13 -4.7544278e-19 -4.6114899e-19   -3.9608825 
     216   -3.9608825        9.202        9.202      92.0195            0           -0            0   -1275.7717   -1913.4006   -1913.4006   -0.5138828 2.2828441e-14 -5.3348733e-19 -5.5945388e-19   -3.9608825 
     217   -3.9608825        9.202        9.202      92.0195            0           -0            0   -1275.7717   -1913.4006   -1913.4006  -0.51389061 2.2828441e-14 -1.0644048e-18 -1.1620474e-18   -3.9608825 
     218   -3.9608825        9.202        9.202      92.0195            0           -0            0   -1275.7717   -1913.4006   -1913.4006  -0.51389842 -2.2828441e-14 -6.5793356e-18 -6.4742941e-18   -3.9608825 
     219   -3.9608825        9.202        9.202      92.0195            0           -0            0   -1275.7717   -1913.4006   -1913.4006  -0.51390624 -2.2828441e-14 -1.0084534e-18 -9.8186067e-19   -3.9608825 
     220   -3.9608825        9.202        9.202      92.0195            0           -0            0   -1275.7717   -1913.4006   -1913.4006  -0.51391406 1.1414221e-13 -3.3207415e-18 -3.3441988e-18   -3.9608825 
     221   -3.9608825        9.202        9.202      92.0195            0           -0            0   -1275.7717   -1913.4006   -1913.4006  -0.51392187 -2.2828441e-14 -1.7261042e-18 -1.6819505e-18   -3.9608825 
     222   -3.9608825        9.202        9.202      92.0195            0           -0            0   -1275.7717   -1913.4006   -1913.4006  -0.51392969 1.1414221e-13 -6.4588991e-18 -6.3903809e-18   -3.9608825 
     223   -3.9608825        9.202        9.202      92.0195            0           -0            0   -1275.7717   -1913.4006   -1913.4006  -0.51393751 -6.8485324e-14 2.5011034e-18 2.4873342e-18   -3.9608825 
     224   -3.9608825        9.202        9.202      92.0195            0           -0            0   -1275.7717   -1913.4006   -1913.4006  -0.51394532 -2.2828441e-14 -4.4778618e-18 -4.4677696e-18   -3.9608825 
     225   -3.9608825        9.202        9.202      92.0195            0           -0            0   -1275.7717   -1913.4006   -1913.4006  -0.51395314            0 -1.2551718e-18 -1.2527229e-18   -3.9608825 
     226   -3.9608825        9.202        9.202      92.0195            0           -0            0   -1275.7717   -1913.4006   -1913.4006  -0.51396096 2.2828441e-14 -9.0379026e-18 -9.0116198e-18   -3.9608825 
     227   -3.9608825        9.202        9.202      92.0195            0           -0            0   -1275.7717   -1913.4006   -1913.4006  -0.51396878 -4.5656883e-14 6.2123826e-18 6.2428227e-18   -3.9608825 
     228   -3.9608825        9.202        9.202      92.0195            0           -0            0   -1275.7717   -1913.4006   -1913.4006   -0.5139766 -2.2828441e-14 5.0226699e-18 5.0473313e-18   -3.9608825 
     229   -3.9608825        9.202        9.202      92.0195            0           -0            0   -1275.7717   -1913.4006   -1913.4006  -0.51398442 -2.2828441e-14 3.5201607e-19 -5.1973772e-18   -3.9608825 
     230   -3.9608825        9.202        9.202      92.0195            0           -0            0   -1275.7717   -1913.4006   -1913.4006  -0.51399224            0 5.5938333e-19 6.111635e-19   -3.9608825 
     231   -3.9608825        9.202        9.202      92.0195            0           -0            0   -1275.7717   -1913.4006   -1913.4006  -0.51400006 3.4242662e-14 -7.6382644e-18 -7.5918477e-18   -3.9608825 
     232   -3.9608825        9.202        9.202      92.0195            0           -0            0   -1275.7717   -1913.4006   -1913.4006  -0.51400788 4.5656883e-14 -2.9565561e-18 -2.8997572e-18   -3.9608825 
     233   -3.9608825        9.202        9.202      92.0195            0           -0            0   -1275.7717   -1913.4006   -1913.4006   -0.5140157 4.5656883e-14 -6.3510993e-18 -6.2878989e-18   -3.9608825 
     234   -3.9608825        9.202        9.202      92.0195            0           -0            0   -1275.7718   -1913.4006   -1913.4006  -0.51402352 1.1414221e-13 6.208156e-18 6.265159e-18   -3.9608825 
     235   -3.9608825        9.202        9.202      92.0195            0           -0            0   -1275.7718   -1913.4006   -1913.4006  -0.51403134 2.2828441e-14 -1.9548177e-18 -1.9114983e-18   -3.9608825 
     236   -3.9608825        9.202        9.202      92.0195            0           -0            0   -1275.7718   -1913.4006   -1913.4006  -0.51403916 -4.5656883e-14 -8.0123393e-18 -7.9748535e-18   -3.9608825 
     237   -3.9608825        9.202        9.202      92.0195            0           -0            0   -1275.7718   -1913.4006   -1913.4006  -0.51404698 4.5656883e-14 -5.8411905e-19 -5.7298647e-19   -3.9608825 
     238   -3.9608825        9.202        9.202      92.0195            0           -0            0   -1275.7718   -1913.4006   -1913.4006   -0.5140548 2.2828441e-14 -1.3864534e-18 -1.3703317e-18   -3.9608825 
     239   -3.9608825        9.202        9.202      92.0195            0           -0            0   -1275.7718   -1913.4006   -1913.4006  -0.51406262            0 2.4817596e-19 2.4885806e-19   -3.9608825 
     240   -3.9608825        9.202        9.202      92.0195            0           -0            0   -1275.7718   -1913.4006   -1913.4006  -0.51407045            0 -1.0101539e-17 -1.0087168e-17   -3.9608825 
     241   -3.9608825        9.202        9.202      92.0195            0           -0            0   -1275.7718   -1913.4006   -1913.4006  -0.51407827 1.1414221e-13 -7.1961378e-18 -7.181694e-18   -3.9608825 
     242   -3.9608825        9.202        9.202      92.0195            0           -0            0   -1275.7718   -1913.4006   -1913.4006  -0.51408609 2.2828441e-14 -1.0752059e-17 -1.0746327e-17   -3.9608825 
     243   -3.9608825        9.202        9.202      92.0195            0           -0            0   -1275.7718   -1913.4006   -1913.4006  -0.51409391            0 -1.1878785e-17 -1.1878712e-17   -3.9608825 
     244   -3.9608825        9.202        9.202      92.0195            0           -0            0   -1275.7718   -1913.4006   -1913.4006  -0.51410174 2.2828441e-14 -2.0639711e-18 -2.0751914e-18   -3.9608825 
     245   -3.9608825        9.202        9.202      92.0195            0           -0            0   -1275.7718   -1913.4006   -1913.4006  -0.51410956 -4.5656883e-14 4.2778226e-18 4.2611351e-18   -3.9608825 
     246   -3.9608825        9.202        9.202      92.0195            0           -0            0   -1275.7718   -1913.4006   -1913.4006  -0.51411738 6.8485324e-14 1.6986187e-18 1.6772745e-18   -3.9608825 
     247   -3.9608825        9.202        9.202      92.0195            0           -0            0   -1275.7718   -1913.4006   -1913.4006  -0.51412521 4.5656883e-14 4.696265e-18 4.6920716e-18   -3.9608825 
     248   -3.9608825        9.202        9.202      92.0195            0           -0            0   -1275.7718   -1913.4006   -1913.4006  -0.51413303            0 4.2404023e-18 4.2521957e-18   -3.9608825 
     249   -3.9608825        9.202        9.202      92.0195            0           -0            0   -1275.7718   -1913.4006   -1913.4006  -0.51414085 2.2828441e-14 -5.6231619e-18 -5.6074715e-18   -3.9608825 
     250   -3.9608825        9.202        9.202      92.0195            0           -0            0   -1275.7718   -1913.4006   -1913.4006  -0.51414868 -3.4242662e-14 -1.0528335e-17 -1.0503166e-17   -3.9608825 
     251   -3.9608825        9.202        9.202      92.0195            0           -0            0   -1275.7718   -1913.4006   -1913.4006   -0.5141565 1.1414221e-13 -5.3783012e-18 -5.3529407e-18   -3.9608825 
     252   -3.9608825        9.202        9.202      92.0195            0           -0            0   -1275.7718   -1913.4006   -1913.4006  -0.51416433 6.8485324e-14 7.9532115e-19 8.364004e-19   -3.9608825 
     253   -3.9608825        9.202        9.202      92.0195            0           -0            0   -1275.7718   -1913.4006   -1913.4006  -0.51417215 4.5656883e-14 -8.141549e-19 -7.5794097e-19   -3.9608825 
     254   -3.9608825        9.202        9.202      92.0195            0           -0            0   -1275.7718   -1913.4006   -1913.4006  -0.51417998 2.2828441e-14 -6.8802995e-18 -6.8279326e-18   -3.9608825 
     255   -3.9608825        9.202        9.202      92.0195            0           -0            0   -1275.7718   -1913.4006   -1913.4006   -0.5141878 -2.2828441e-14 -6.5998272e-18 -6.5447604e-18   -3.9608825 
     256   -3.9608825        9.202        9.202      92.0195            0           -0            0   -1275.7718   -1913.4006   -1913.4006  -0.51419563 4.5656883e-14 2.0538328e-18 2.094268e-18   -3.9608825 
     257   -3.9608825        9.202        9.202      92.0195            0           -0            0   -1275.7718   -1913.4006   -1913.4006  -0.51420346            0 6.9330964e-19 7.3503218e-19   -3.9608825 
     258   -3.9608826        9.202        9.202      92.0195            0           -0            0   -1275.7718   -1913.4006   -1913.4006  -0.51421128 -2.2828441e-14 -1.1620162e-19 -7.9625009e-20   -3.9608826 
     259   -3.9608826        9.202        9.202      92.0195            0           -0            0   -1275.7718   -1913.4006   -1913.4006  -0.51421911 2.2828441e-14 9.262927e-19 9.7629685e-19   -3.9608826 
     260   -3.9608826        9.202        9.202      92.0195            0           -0            0   -1275.7718   -1913.4006   -1913.4006  -0.51422693 -2.2828441e-14 -2.406407e-18 -2.3443259e-18   -3.9608826 
     261   -3.9608826        9.202        9.202      92.0195            0           -0            0   -1275.7718   -1913.4006   -1913.4006  -0.51423476 -4.5656883e-14 -8.8893308e-19 -8.3132776e-19   -3.9608826 
     262   -3.9608826        9.202        9.202      92.0195            0           -0            0   -1275.7718   -1913.4006   -1913.4006  -0.51424259 4.5656883e-14 -2.0633722e-18 -2.0012902e-18   -3.9608826 
     263   -3.9608826        9.202        9.202      92.0195            0           -0            0   -1275.7718   -1913.4006   -1913.4006  -0.51425042 1.1414221e-13 6.6273218e-18 6.683667e-18   -3.9608826 
     264   -3.9608826        9.202        9.202      92.0195            0           -0            0   -1275.7718   -1913.4006   -1913.4006  -0.51425824 1.1414221e-13 2.7120019e-18 5.5639752e-18   -3.9608826 
     265   -3.9608826        9.202        9.202      92.0195            0           -0            0   -1275.7718   -1913.4006   -1913.4006  -0.51426607 -9.1313765e-14 4.3403448e-18 4.4132926e-18   -3.9608826 
     266   -3.9608826        9.202        9.202      92.0195            0           -0            0   -1275.7718   -1913.4006   -1913.4006   -0.5142739 -4.5656883e-14 -7.5011457e-18 -7.4403122e-18   -3.9608826 
     267   -3.9608826        9.202        9.202      92.0195            0           -0            0   -1275.7718   -1913.4006   -1913.4006  -0.51428173 4.5656883e-14 -1.1767714e-18 -1.1223453e-18   -3.9608826 
     268   -3.9608826        9.202        9.202      92.0195            0           -0            0   -1275.7718   -1913.4006   -1913.4006  -0.51428956 6.8485324e-14 1.1512585e-18 1.2235885e-18   -3.9608826 
     269   -3.9608826        9.202        9.202      92.0195            0           -0            0   -1275.7718   -1913.4006   -1913.4006  -0.51429739 -6.8485324e-14 3.4813548e-18 3.540903e-18   -3.9608826 
     270   -3.9608826        9.202        9.202      92.0195            0           -0            0   -1275.7718   -1913.4006   -1913.4006  -0.51430521 -6.8485324e-14 -6.1161219e-18 -6.072529e-18   -3.9608826 
     271   -3.9608826        9.202        9.202      92.0195            0           -0            0   -1275.7718   -1913.4006   -1913.4006  -0.51431304 -6.8485324e-14 -2.1340721e-18 -2.0892145e-18   -3.9608826 
     272   -3.9608826        9.202        9.202      92.0195            0           -0            0   -1275.7718   -1913.4006   -1913.4006  -0.51432087 -2.2828441e-14 7.5098197e-18 7.5546891e-18   -3.9608826 
     273   -3.9608826        9.202        9.202      92.0195            0           -0            0   -1275.7718   -1913.4006   -1913.4006   -0.5143287 4.5656883e-14 6.6500554e-19 6.9710877e-19   -3.9608826 
     274   -3.9608826        9.202        9.202      92.0195            0           -0            0   -1275.7719   -1913.4006   -1913.4006  -0.51433653            0 1.3334152e-18 1.3604067e-18   -3.9608826 
     275   -3.9608826        9.202        9.202      92.0195            0           -0            0   -1275.7719   -1913.4006   -1913.4006  -0.51434436 -4.5656883e-14 -6.3218849e-18 -6.3102155e-18   -3.9608826 
     276   -3.9608826        9.202        9.202      92.0195            0           -0            0   -1275.7719   -1913.4006   -1913.4006  -0.51435219 -9.1313765e-14 2.8899648e-18 2.8997198e-18   -3.9608826 
     277   -3.9608826        9.202        9.202      92.0195            0           -0            0   -1275.7719   -1913.4006   -1913.4006  -0.51436002 6.8485324e-14 2.8715498e-18 2.8787522e-18   -3.9608826 
     278   -3.9608826        9.202        9.202      92.0195            0           -0            0   -1275.7719   -1913.4006   -1913.4006  -0.51436786 -2.2828441e-14 -9.8239613e-18 -9.8027122e-18   -3.9608826 
     279   -3.9608826        9.202        9.202      92.0195            0           -0            0   -1275.7719   -1913.4006   -1913.4006  -0.51437569 2.2828441e-14 4.0420216e-18 4.0447549e-18   -3.9608826 
     280   -3.9608826        9.202        9.202      92.0195            0           -0            0   -1275.7719   -1913.4006   -1913.4006  -0.51438352 2.2828441e-14 4.2987213e-18 4.3103933e-18   -3.9608826 
     281   -3.9608826        9.202        9.202      92.0195            0           -0            0   -1275.7719   -1913.4006   -1913.4006  -0.51439135 6.8485324e-14 5.5413619e-18 5.5721898e-18   -3.9608826 
     282   -3.9608826        9.202        9.202      92.0195            0           -0            0   -1275.7719   -1913.4006   -1913.4006  -0.51439918 2.2828441e-14 3.0071704e-18 3.0520469e-18   -3.9608826 
     283   -3.9608826        9.202        9.202      92.0195            0           -0            0   -1275.7719   -1913.4006   -1913.4006  -0.51440701 2.2828441e-14 1.2376138e-18 1.2716365e-18   -3.9608826 
     284   -3.9608826        9.202        9.202      92.0195            0           -0            0   -1275.7719   -1913.4006   -1913.4006  -0.51441485 9.1313765e-14 -1.1382452e-17 -1.1357369e-17   -3.9608826 
     285   -3.9608826        9.202        9.202      92.0195            0           -0            0   -1275.7719   -1913.4006   -1913.4006  -0.51442268 -9.1313765e-14 -6.4754789e-18 -6.4357074e-18   -3.9608826 
     286   -3.9608826        9.202        9.202      92.0195            0           -0            0   -1275.7719   -1913.4006   -1913.4006  -0.51443051 -4.5656883e-14 -3.8486102e-18 -3.8286345e-18   -3.9608826 
     287   -3.9608826        9.202        9.202      92.0195            0           -0            0   -1275.7719   -1913.4006   -1913.4006  -0.51443834 4.5656883e-14 -2.1576813e-18 -2.1236557e-18   -3.9608826 
     288   -3.9608826        9.202        9.202      92.0195            0           -0            0   -1275.7719   -1913.4006   -1913.4006  -0.51444618 -4.5656883e-14 -9.190195e-19 -8.9904268e-19   -3.9608826 
     289   -3.9608826        9.202        9.202      92.0195            0           -0            0   -1275.7719   -1913.4006   -1913.4006  -0.51445401 4.5656883e-14 -8.1579299e-18 -8.1532803e-18   -3.9608826 
     290   -3.9608826        9.202        9.202      92.0195            0           -0            0   -1275.7719   -1913.4006   -1913.4006  -0.51446184 -1.3697065e-13 1.9144902e-18 1.9268037e-18   -3.9608826 
     291   -3.9608826        9.202        9.202      92.0195            0           -0            0   -1275.7719   -1913.4006   -1913.4006  -0.51446968 1.1414221e-13 -8.365188e-18 -8.3413785e-18   -3.9608826 
     292   -3.9608826        9.202        9.202      92.0195            0           -0            0   -1275.7719   -1913.4006   -1913.4006  -0.51447751 1.1414221e-13 5.9532346e-18 5.9732125e-18   -3.9608826 
     293   -3.9608826        9.202        9.202      92.0195            0           -0            0   -1275.7719   -1913.4006   -1913.4006  -0.51448535 -4.5656883e-14 5.4121167e-18 5.4391205e-18   -3.9608826 
     294   -3.9608826        9.202        9.202      92.0195            0           -0            0   -1275.7719   -1913.4006   -1913.4006  -0.51449318 9.1313765e-14 -1.9315108e-18 -1.8993967e-18   -3.9608826 
     295   -3.9608826        9.202        9.202      92.0195            0           -0            0   -1275.7719   -1913.4006   -1913.4006  -0.51450102 2.2828441e-14 -2.7420964e-18 -2.688904e-18   -3.9608826 
     296   -3.9608826        9.202        9.202      92.0195            0           -0            0   -1275.7719   -1913.4006   -1913.4006  -0.51450885 4.5656883e-14 1.0032385e-18 1.0366319e-18   -3.9608826 
     297   -3.9608826        9.202        9.202      92.0195            0           -0            0   -1275.7719   -1913.4006   -1913.4006  -0.51451669 -2.2828441e-14 -8.7201332e-18 -8.6803521e-18   -3.9608826 
     298   -3.9608826        9.202        9.202      92.0195            0           -0            0   -1275.7719   -1913.4006   -1913.4006  -0.51452452 6.8485324e-14 -7.5439309e-19 -6.9800361e-19   -3.9608826 
     299   -3.9608826        9.202        9.202      92.0195            0           -0            0   -1275.7719   -1913.4006   -1913.4006  -0.51453236 -6.8485324e-14 3.0517303e-18 3.1125925e-18   -3.9608826 
     300   -3.9608826        9.202        9.202      92.0195            0           -0            0   -1275.7719   -1913.4006   -1913.4006   -0.5145402 -6.8485324e-14 9.6737455e-18 9.7141681e-18   -3.9608826 
     301   -3.9608826        9.202        9.202      92.0195            0           -0            0   -1275.7719   -1913.4006   -1913.4006  -0.51454803 -9.1313765e-14 -5.8655413e-18 -5.8142588e-18   -3.9608826 
     302   -3.9608826        9.202        9.202      92.0195            0           -0            0   -1275.7719   -1913.4006   -1913.4006  -0.51455587 -6.8485324e-14 -4.4095295e-18 -4.3659114e-18   -3.9608826 
     303   -3.9608826        9.202        9.202      92.0195            0           -0            0   -1275.7719   -1913.4006   -1913.4006  -0.51456371 -4.5656883e-14 -2.1393328e-18 -2.0969916e-18   -3.9608826 
     304   -3.9608826        9.202        9.202      92.0195            0           -0            0   -1275.7719   -1913.4006   -1913.4006  -0.51457154 -6.8485324e-14 -1.1578919e-17 -1.1553187e-17   -3.9608826 
     305   -3.9608826        9.202        9.202      92.0195            0           -0            0   -1275.7719   -1913.4006   -1913.4006  -0.51457938 -2.2828441e-14 5.7862023e-18 5.8087409e-18   -3.9608826 
     306   -3.9608826        9.202        9.202      92.0195            0           -0            0   -1275.7719   -1913.4006   -1913.4006  -0.51458722 -2.2828441e-14 -7.2522472e-18 -7.2354579e-18   -3.9608826 
     307   -3.9608826        9.202        9.202      92.0195            0           -0            0   -1275.7719   -1913.4006   -1913.4006  -0.51459505 -2.2828441e-14 -4.0056602e-18 -3.9792877e-18   -3.9608826 
     308   -3.9608826        9.202        9.202      92.0195            0           -0            0   -1275.7719   -1913.4006   -1913.4006  -0.51460289 -4.5656883e-14 4.6533651e-18 4.6925158e-18   -3.9608826 
     309   -3.9608826        9.202        9.202      92.0195            0           -0            0   -1275.7719   -1913.4006   -1913.4006  -0.51461073 -2.2828441e-14 -1.2594162e-18 -1.2234589e-18   -3.9608826 
     310   -3.9608827        9.202        9.202      92.0195            0           -0            0   -1275.7719   -1913.4006   -1913.4006  -0.51461857 -9.1313765e-14 -7.0972414e-19 -6.6354377e-19   -3.9608827 
     311   -3.9608827        9.202        9.202      92.0195            0           -0            0   -1275.7719   -1913.4006   -1913.4006  -0.51462641 4.5656883e-14 -1.5371099e-18 -1.4902896e-18   -3.9608827 
     312   -3.9608827        9.202        9.202      92.0195            0           -0            0   -1275.7719   -1913.4006   -1913.4006  -0.51463425 -2.2828441e-14 -5.4935571e-18 -5.4307625e-18   -3.9608827 
     313   -3.9608827        9.202        9.202      92.0195            0           -0            0   -1275.7719   -1913.4006   -1913.4006  -0.51464209            0 -6.4247929e-18 -6.3492181e-18   -3.9608827 
     314   -3.9608827        9.202        9.202      92.0195            0           -0            0   -1275.7719   -1913.4006   -1913.4006  -0.51464993 -2.2828441e-14 -6.6724989e-18 -6.600117e-18   -3.9608827 
     315   -3.9608827        9.202        9.202      92.0195            0           -0            0    -1275.772   -1913.4006   -1913.4006  -0.51465777 -1.8262753e-13 2.6632821e-18 2.7388601e-18   -3.9608827 
     316   -3.9608827        9.202        9.202      92.0195            0           -0            0    -1275.772   -1913.4006   -1913.4006  -0.51466561 4.5656883e-14 1.5980489e-18 1.6640438e-18   -3.9608827 
     317   -3.9608827        9.202        9.202      92.0195            0           -0            0    -1275.772   -1913.4006   -1913.4006  -0.51467345 -1.1414221e-13 2.2446458e-18 2.3163928e-18   -3.9608827 
     318   -3.9608827        9.202        9.202      92.0195            0           -0            0    -1275.772   -1913.4006   -1913.4006  -0.51468129 2.2828441e-14 1.3411677e-18 1.4122772e-18   -3.9608827 
     319   -3.9608827        9.202        9.202      92.0195            0           -0            0    -1275.772   -1913.4006   -1913.4006  -0.51468913 -6.8485324e-14 6.0293317e-18 6.0812721e-18   -3.9608827 
     320   -3.9608827        9.202        9.202      92.0195            0           -0            0    -1275.772   -1913.4006   -1913.4006  -0.51469697            0 3.5846467e-18 3.6206121e-18   -3.9608827 
     321   -3.9608827        9.202        9.202      92.0195            0           -0            0    -1275.772   -1913.4006   -1913.4006  -0.51470481 -2.2828441e-14 -4.4616652e-18 -4.4135575e-18   -3.9608827 
     322   -3.9608827        9.202        9.202      92.0195            0           -0            0    -1275.772   -1913.4006   -1913.4006  -0.51471265 -2.2828441e-14 4.2445041e-18 4.2721631e-18   -3.9608827 
     323   -3.9608827        9.202        9.202      92.0195            0           -0            0    -1275.772   -1913.4006   -1913.4006  -0.51472049            0 5.7854314e-18 5.8284283e-18   -3.9608827 
     324   -3.9608827        9.202        9.202      92.0195            0           -0            0    -1275.772   -1913.4006   -1913.4006  -0.51472833 6.8485324e-14 7.3499237e-18 7.3846136e-18   -3.9608827 
     325   -3.9608827        9.202        9.202      92.0195            0           -0            0    -1275.772   -1913.4006   -1913.4006  -0.51473617 2.2828441e-14 -2.2317239e-18 -2.2059807e-18   -3.9608827 
     326   -3.9608827        9.202        9.202      92.0195            0           -0            0    -1275.772   -1913.4006   -1913.4006  -0.51474402 2.2828441e-14 4.8803955e-18 4.923395e-18   -3.9608827 
     327   -3.9608827        9.202        9.202      92.0195            0           -0            0    -1275.772   -1913.4006   -1913.4006  -0.51475186 -6.8485324e-14 -4.691186e-18 -4.667359e-18   -3.9608827 
     328   -3.9608827        9.202        9.202      92.0195            0           -0            0    -1275.772   -1913.4006   -1913.4006   -0.5147597            0 -3.1512983e-18 -3.1114928e-18   -3.9608827 
     329   -3.9608827        9.202        9.202      92.0195            0           -0            0    -1275.772   -1913.4006   -1913.4006  -0.51476755 6.8485324e-14 2.4361916e-18 2.4619369e-18   -3.9608827 
     330   -3.9608827        9.202        9.202      92.0195            0           -0            0    -1275.772   -1913.4006   -1913.4006  -0.51477539 2.2828441e-14 2.4535284e-18 2.4620167e-18   -3.9608827 
     331   -3.9608827        9.202        9.202      92.0195            0           -0            0    -1275.772   -1913.4006   -1913.4006  -0.51478323 4.5656883e-14 -3.1242158e-18 -3.1112534e-18   -3.9608827 
     332   -3.9608827        9.202        9.202      92.0195            0           -0            0    -1275.772   -1913.4006   -1913.4006  -0.51479108            0 2.4357907e-18 2.4621763e-18   -3.9608827 
     333   -3.9608827        9.202        9.202      92.0195            0           -0            0    -1275.772   -1913.4006   -1913.4006  -0.51479892            0 2.4358698e-18 2.4622561e-18   -3.9608827 
     334   -3.9608827        9.202        9.202      92.0195            0           -0            0    -1275.772   -1913.4006   -1913.4006  -0.51480676 -2.2828441e-14 -3.1495458e-18 -3.111014e-18   -3.9608827 
     335   -3.9608827        9.202        9.202      92.0195            0           -0            0    -1275.772   -1913.4006   -1913.4006  -0.51481461 -2.2828441e-14 -3.1571377e-18 -3.1109342e-18   -3.9608827 
     336   -3.9608827        9.202        9.202      92.0195            0           -0            0    -1275.772   -1913.4006   -1913.4006  -0.51482245 -2.2828441e-14 -3.1417173e-18 -3.1108544e-18   -3.9608827 
     337   -3.9608827        9.202        9.202      92.0195            0           -0            0    -1275.772   -1913.4006   -1913.4006   -0.5148303 2.2828441e-14 8.0216825e-18 8.0359253e-18   -3.9608827 
     338   -3.9608827        9.202        9.202      92.0195            0           -0            0    -1275.772   -1913.4006   -1913.4006  -0.51483814 -4.5656883e-14 -3.1364443e-18 -3.1106947e-18   -3.9608827 
     339   -3.9608827        9.202        9.202      92.0195            0           -0            0    -1275.772   -1913.4006   -1913.4006  -0.51484599 -2.2828441e-14 2.4165281e-18 2.462735e-18   -3.9608827 
     340   -3.9608827        9.202        9.202      92.0195            0           -0            0    -1275.772   -1913.4006   -1913.4006  -0.51485383            0 2.4044602e-18 2.4628148e-18   -3.9608827 
     341   -3.9608827        9.202        9.202      92.0195            0           -0            0    -1275.772   -1913.4006   -1913.4006  -0.51486168 -1.5979909e-13 -3.1579432e-18 -3.1104553e-18   -3.9608827 
     342   -3.9608827        9.202        9.202      92.0195            0           -0            0    -1275.772   -1913.4006   -1913.4006  -0.51486953 2.2828441e-14 2.4269934e-18 2.4629745e-18   -3.9608827 
     343   -3.9608827        9.202        9.202      92.0195            0           -0            0    -1275.772   -1913.4006   -1913.4006  -0.51487737 -6.8485324e-14 -8.7324137e-18 -8.6836456e-18   -3.9608827 
     344   -3.9608827        9.202        9.202      92.0195            0           -0            0    -1275.772   -1913.4006   -1913.4006  -0.51488522 6.8485324e-14 -3.1768866e-18 -3.1102158e-18   -3.9608827 
     345   -3.9608827        9.202        9.202      92.0195            0           -0            0    -1275.772   -1913.4006   -1913.4006  -0.51489306 9.1313765e-14 -3.1832019e-18 -3.110136e-18   -3.9608827 
     346   -3.9608827        9.202        9.202      92.0195            0           -0            0    -1275.772   -1913.4006   -1913.4006  -0.51490091            0 7.9833965e-18 8.0366437e-18   -3.9608827 
     347   -3.9608827        9.202        9.202      92.0195            0           -0            0    -1275.772   -1913.4006   -1913.4006  -0.51490876 2.2828441e-14 -3.1804874e-18 -3.1099764e-18   -3.9608827 
     348   -3.9608827        9.202        9.202      92.0195            0           -0            0    -1275.772   -1913.4006   -1913.4006  -0.51491661 -4.5656883e-14 -3.1772124e-18 -3.1098966e-18   -3.9608827 
     349   -3.9608827        9.202        9.202      92.0195            0           -0            0    -1275.772   -1913.4006   -1913.4006  -0.51492445 9.1313765e-14 2.3936585e-18 2.4635332e-18   -3.9608827 
     350   -3.9608827        9.202        9.202      92.0195            0           -0            0    -1275.772   -1913.4006   -1913.4006   -0.5149323 4.5656883e-14 -8.7408141e-18 -8.6830868e-18   -3.9608827 
     351   -3.9608827        9.202        9.202      92.0195            0           -0            0    -1275.772   -1913.4006   -1913.4006  -0.51494015 6.8485324e-14 -3.1673853e-18 -3.1096571e-18   -3.9608827 
     352   -3.9608827        9.202        9.202      92.0195            0           -0            0    -1275.772   -1913.4006   -1913.4006    -0.514948 4.5656883e-14 -3.1628306e-18 -3.1095773e-18   -3.9608827 
     353   -3.9608827        9.202        9.202      92.0195            0           -0            0    -1275.772   -1913.4006   -1913.4006  -0.51495585 4.5656883e-14 2.3978091e-18 2.4638525e-18   -3.9608827 
     354   -3.9608827        9.202        9.202      92.0195            0           -0            0    -1275.772   -1913.4006   -1913.4006   -0.5149637 -9.1313765e-14 2.3831798e-18 2.4639323e-18   -3.9608827 
     355   -3.9608827        9.202        9.202      92.0195            0           -0            0   -1275.7721   -1913.4006   -1913.4006  -0.51497155 2.2828441e-14 7.959805e-18 8.0373621e-18   -3.9608827 
     356   -3.9608827        9.202        9.202      92.0195            0           -0            0   -1275.7721   -1913.4006   -1913.4006  -0.51497939            0 2.3775806e-18 2.464092e-18   -3.9608827 
     357   -3.9608827        9.202        9.202      92.0195            0           -0            0   -1275.7721   -1913.4006   -1913.4006  -0.51498724 9.1313765e-14 -8.7696809e-18 -8.6825281e-18   -3.9608827 
     358   -3.9608827        9.202        9.202      92.0195            0           -0            0   -1275.7721   -1913.4006   -1913.4006  -0.51499509            0 2.3623882e-18 2.4642516e-18   -3.9608827 
     359   -3.9608827        9.202        9.202      92.0195            0           -0            0   -1275.7721   -1913.4006   -1913.4006  -0.51500294 -4.5656883e-14 2.3496752e-18 2.4643315e-18   -3.9608827 
     360   -3.9608827        9.202        9.202      92.0195            0           -0            0   -1275.7721   -1913.4006   -1913.4006  -0.51501079            0 2.3497527e-18 2.4644113e-18   -3.9608827 
     361   -3.9608827        9.202        9.202      92.0195            0           -0            0   -1275.7721   -1913.4006   -1913.4006  -0.51501864 -2.2828441e-14 7.926378e-18 8.0378411e-18   -3.9608827 
     362   -3.9608828        9.202        9.202      92.0195            0           -0            0   -1275.7721   -1913.4006   -1913.4006   -0.5150265 1.1414221e-13 2.3671762e-18 2.464571e-18   -3.9608828 
     363   -3.9608828        9.202        9.202      92.0195            0           -0            0   -1275.7721   -1913.4006   -1913.4006  -0.51503435 -9.1313765e-14 -3.2060956e-18 -3.1086991e-18   -3.9608828 
     364   -3.9608828        9.202        9.202      92.0195            0           -0            0   -1275.7721   -1913.4006   -1913.4006   -0.5150422 9.1313765e-14 -3.200901e-18 -3.1086193e-18   -3.9608828 
     365   -3.9608828        9.202        9.202      92.0195            0           -0            0   -1275.7721   -1913.4006   -1913.4006  -0.51505005 -2.2828441e-14 5.1400138e-18 5.2514854e-18   -3.9608828 
     366   -3.9608828        9.202        9.202      92.0195            0           -0            0   -1275.7721   -1913.4006   -1913.4006   -0.5150579 -2.2828441e-14 2.3745235e-18 2.4648903e-18   -3.9608828 
     367   -3.9608828        9.202        9.202      92.0195            0           -0            0   -1275.7721   -1913.4006   -1913.4006  -0.51506575 -4.5656883e-14 2.3643678e-18 2.4649701e-18   -3.9608828 
     368   -3.9608828        9.202        9.202      92.0195            0           -0            0   -1275.7721   -1913.4006   -1913.4006   -0.5150736            0 2.3836348e-18  2.46505e-18   -3.9608828 
     369   -3.9608828        9.202        9.202      92.0195            0           -0            0   -1275.7721   -1913.4006   -1913.4006  -0.51508146            0 2.3670822e-18 2.4651298e-18   -3.9608828 
     370   -3.9608828        9.202        9.202      92.0195            0           -0            0   -1275.7721   -1913.4006   -1913.4006  -0.51508931            0 7.9481858e-18 8.0385596e-18   -3.9608828 
     371   -3.9608828        9.202        9.202      92.0195            0           -0            0   -1275.7721   -1913.4006   -1913.4006  -0.51509716            0 -3.1920391e-18 -3.1080604e-18   -3.9608828 
     372   -3.9608828        9.202        9.202      92.0195            0           -0            0   -1275.7721   -1913.4006   -1913.4006  -0.51510502            0 7.9342688e-18 8.0387193e-18   -3.9608828 
     373   -3.9608828        9.202        9.202      92.0195            0           -0            0   -1275.7721   -1913.4006   -1913.4006  -0.51511287 -6.8485324e-14 -3.1995595e-18 -3.1079008e-18   -3.9608828 
[...]
     919   -3.9608838        9.202        9.202      92.0195            0           -0            0   -1275.7735   -1913.4005   -1913.4005  -0.51943654 -6.8485324e-14 -2.9738297e-18 -3.0642021e-18   -3.9608838 
     920   -3.9608838        9.202        9.202      92.0195            0           -0            0   -1275.7735   -1913.4005   -1913.4005  -0.51944452 2.2828441e-14 -2.9718072e-18 -3.0641219e-18   -3.9608838 
     921   -3.9608838        9.202        9.202      92.0195            0           -0            0   -1275.7735   -1913.4005   -1913.4005  -0.51945251            0 -2.9911298e-18 -3.0640416e-18   -3.9608838 
     922   -3.9608838        9.202        9.202      92.0195            0           -0            0   -1275.7735   -1913.4005   -1913.4005  -0.51946049 -4.5656883e-14 8.1718224e-18 8.0827385e-18   -3.9608838 
     923   -3.9608838        9.202        9.202      92.0195            0           -0            0   -1275.7735   -1913.4005   -1913.4005  -0.51946848            0 8.1570271e-18 8.0828187e-18   -3.9608838 
     924   -3.9608838        9.202        9.202      92.0195            0           -0            0   -1275.7735   -1913.4005   -1913.4005  -0.51947646            0 -2.9753602e-18 -3.063801e-18   -3.9608838 
     925   -3.9608838        9.202        9.202      92.0195            0           -0            0   -1275.7735   -1913.4005   -1913.4005  -0.51948445 4.5656883e-14 -2.9642811e-18 -3.0637208e-18   -3.9608838 
     926   -3.9608838        9.202        9.202      92.0195            0           -0            0   -1275.7735   -1913.4005   -1913.4005  -0.51949244 1.1414221e-13 2.5942728e-18 2.5097094e-18   -3.9608838 
     927   -3.9608838        9.202        9.202      92.0195            0           -0            0   -1275.7735   -1913.4005   -1913.4005  -0.51950042 -4.5656883e-14 -2.9660573e-18 -3.0635603e-18   -3.9608838 
     928   -3.9608838        9.202        9.202      92.0195            0           -0            0   -1275.7735   -1913.4005   -1913.4005  -0.51950841            0 2.6267825e-18 2.5098698e-18   -3.9608838 
     929   -3.9608839        9.202        9.202      92.0195            0           -0            0   -1275.7735   -1913.4005   -1913.4005   -0.5195164 6.8485324e-14 -2.9477783e-18 -3.0633999e-18   -3.9608839 
     930   -3.9608839        9.202        9.202      92.0195            0           -0            0   -1275.7735   -1913.4005   -1913.4005  -0.51952438            0 -8.529456e-18 -8.6366696e-18   -3.9608839 
     931   -3.9608839        9.202        9.202      92.0195            0           -0            0   -1275.7735   -1913.4005   -1913.4005  -0.51953237 4.5656883e-14 2.6205609e-18 2.5101105e-18   -3.9608839 
     932   -3.9608839        9.202        9.202      92.0195            0           -0            0   -1275.7735   -1913.4005   -1913.4005  -0.51954036 -2.2828441e-14 -2.9669398e-18 -3.0631592e-18   -3.9608839 
     933   -3.9608839        9.202        9.202      92.0195            0           -0            0   -1275.7735   -1913.4005   -1913.4005  -0.51954835 -4.5656883e-14 2.5922585e-18 2.510271e-18   -3.9608839 
     934   -3.9608839        9.202        9.202      92.0195            0           -0            0   -1275.7735   -1913.4005   -1913.4005  -0.51955634            0 2.5955751e-18 2.5103512e-18   -3.9608839 
     935   -3.9608839        9.202        9.202      92.0195            0           -0            0   -1275.7735   -1913.4005   -1913.4005  -0.51956432 -2.2828441e-14 2.587893e-18 2.5104314e-18   -3.9608839 
     936   -3.9608839        9.202        9.202      92.0195            0           -0            0   -1275.7735   -1913.4005   -1913.4005  -0.51957231 9.1313765e-14 8.1580895e-18 8.0838616e-18   -3.9608839 
     937   -3.9608839        9.202        9.202      92.0195            0           -0            0   -1275.7735   -1913.4005   -1913.4005   -0.5195803 -2.2828441e-14 -2.9717057e-18 -3.062758e-18   -3.9608839 
     938   -3.9608839        9.202        9.202      92.0195            0           -0            0   -1275.7735   -1913.4005   -1913.4005  -0.51958829 2.2828441e-14 2.6140205e-18 2.5106721e-18   -3.9608839 
     939   -3.9608839        9.202        9.202      92.0195            0           -0            0   -1275.7735   -1913.4005   -1913.4005  -0.51959628            0 2.5946912e-18 2.5107524e-18   -3.9608839 
     940   -3.9608839        9.202        9.202      92.0195            0           -0            0   -1275.7735   -1913.4005   -1913.4005  -0.51960427 -2.2828441e-14 8.1745935e-18 8.0841825e-18   -3.9608839 
     941   -3.9608839        9.202        9.202      92.0195            0           -0            0   -1275.7735   -1913.4005   -1913.4005  -0.51961226 2.2828441e-14 2.6084437e-18 2.5109128e-18   -3.9608839 
     942   -3.9608839        9.202        9.202      92.0195            0           -0            0   -1275.7735   -1913.4005   -1913.4005  -0.51962025 -4.5656883e-14 2.6285862e-18 2.510993e-18   -3.9608839 
     943   -3.9608839        9.202        9.202      92.0195            0           -0            0   -1275.7735   -1913.4005   -1913.4005  -0.51962824 4.5656883e-14 -2.9336798e-18 -3.0622767e-18   -3.9608839 
     944   -3.9608839        9.202        9.202      92.0195            0           -0            0   -1275.7735   -1913.4005   -1913.4005  -0.51963623 2.2828441e-14 -2.9167715e-18 -3.0621964e-18   -3.9608839 
     945   -3.9608839        9.202        9.202      92.0195            0           -0            0   -1275.7735   -1913.4005   -1913.4005  -0.51964422 9.1313765e-14 8.2235405e-18 8.0845837e-18   -3.9608839 
     946   -3.9608839        9.202        9.202      92.0195            0           -0            0   -1275.7735   -1913.4005   -1913.4005  -0.51965221            0 -8.5100166e-18 -8.6353859e-18   -3.9608839 
     947   -3.9608839        9.202        9.202      92.0195            0           -0            0   -1275.7735   -1913.4005   -1913.4005  -0.51966021            0 2.6328828e-18 2.5113942e-18   -3.9608839 
     948   -3.9608839        9.202        9.202      92.0195            0           -0            0   -1275.7735   -1913.4005   -1913.4005   -0.5196682 6.8485324e-14 -1.7053619e-19 -2.7520051e-19   -3.9608839 
     949   -3.9608839        9.202        9.202      92.0195            0           -0            0   -1275.7735   -1913.4005   -1913.4005  -0.51967619 -9.1313765e-14 2.5987466e-18 2.5115547e-18   -3.9608839 
     950   -3.9608839        9.202        9.202      92.0195            0           -0            0   -1275.7735   -1913.4005   -1913.4005  -0.51968418 1.3697065e-13 8.1695895e-18 8.0849849e-18   -3.9608839 
     951   -3.9608839        9.202        9.202      92.0195            0           -0            0   -1275.7735   -1913.4005   -1913.4005  -0.51969217 -2.2828441e-14 2.5827298e-18 2.5117152e-18   -3.9608839 
     952   -3.9608839        9.202        9.202      92.0195            0           -0            0   -1275.7735   -1913.4005   -1913.4005  -0.51970017 -2.2828441e-14 2.5750445e-18 2.5117954e-18   -3.9608839 
     953   -3.9608839        9.202        9.202      92.0195            0           -0            0   -1275.7735   -1913.4005   -1913.4005  -0.51970816 4.5656883e-14 2.5880708e-18 2.5118757e-18   -3.9608839 
     954   -3.9608839        9.202        9.202      92.0195            0           -0            0   -1275.7735   -1913.4005   -1913.4005  -0.51971615 1.1414221e-13 2.5926837e-18 2.5119559e-18   -3.9608839 
     955   -3.9608839        9.202        9.202      92.0195            0           -0            0   -1275.7735   -1913.4005   -1913.4005  -0.51972415 -2.2828441e-14 2.6076529e-18 2.5120361e-18   -3.9608839 
     956   -3.9608839        9.202        9.202      92.0195            0           -0            0   -1275.7735   -1913.4005   -1913.4005  -0.51973214 -6.8485324e-14 -2.968851e-18 -3.0612336e-18   -3.9608839 
     957   -3.9608839        9.202        9.202      92.0195            0           -0            0   -1275.7736   -1913.4005   -1913.4005  -0.51974013            0 2.6026391e-18 2.5121966e-18   -3.9608839 
     958   -3.9608839        9.202        9.202      92.0195            0           -0            0   -1275.7736   -1913.4005   -1913.4005  -0.51974813 -9.1313765e-14 -2.9589772e-18 -3.0610731e-18   -3.9608839 
     959   -3.9608839        9.202        9.202      92.0195            0           -0            0   -1275.7736   -1913.4005   -1913.4005  -0.51975612 -2.2828441e-14 8.1890999e-18 8.085707e-18   -3.9608839 
     960   -3.9608839        9.202        9.202      92.0195            0           -0            0   -1275.7736   -1913.4005   -1913.4005  -0.51976412 -2.2828441e-14 -2.9523389e-18 -3.0609126e-18   -3.9608839 
     961   -3.9608839        9.202        9.202      92.0195            0           -0            0   -1275.7736   -1913.4005   -1913.4005  -0.51977211 -4.5656883e-14 2.6113833e-18 2.5125176e-18   -3.9608839 
     962   -3.9608839        9.202        9.202      92.0195            0           -0            0   -1275.7736   -1913.4005   -1913.4005  -0.51978011            0 8.1692785e-18 8.0859478e-18   -3.9608839 
     963   -3.9608839        9.202        9.202      92.0195            0           -0            0   -1275.7736   -1913.4005   -1913.4005   -0.5197881 2.2828441e-14 2.5901839e-18 2.5126781e-18   -3.9608839 
     964   -3.9608839        9.202        9.202      92.0195            0           -0            0   -1275.7736   -1913.4005   -1913.4005   -0.5197961            0  2.60904e-18 2.5127583e-18   -3.9608839 
     965   -3.9608839        9.202        9.202      92.0195            0           -0            0   -1275.7736   -1913.4005   -1913.4005   -0.5198041 -4.5656883e-14 2.6240128e-18 2.5128386e-18   -3.9608839 
     966   -3.9608839        9.202        9.202      92.0195            0           -0            0   -1275.7736   -1913.4005   -1913.4005  -0.51981209 -4.5656883e-14 2.612442e-18 2.5129188e-18   -3.9608839 
     967   -3.9608839        9.202        9.202      92.0195            0           -0            0   -1275.7736   -1913.4005   -1913.4005  -0.51982009 -2.2828441e-14 2.6319471e-18 2.5129991e-18   -3.9608839 
     968   -3.9608839        9.202        9.202      92.0195            0           -0            0   -1275.7736   -1913.4005   -1913.4005  -0.51982808 -1.1414221e-13 -8.5315034e-18 -8.6336206e-18   -3.9608839 
     969   -3.9608839        9.202        9.202      92.0195            0           -0            0   -1275.7736   -1913.4005   -1913.4005  -0.51983608 -4.5656883e-14 -2.9567765e-18 -3.0601904e-18   -3.9608839 
     970   -3.9608839        9.202        9.202      92.0195            0           -0            0   -1275.7736   -1913.4005   -1913.4005  -0.51984408 -2.2828441e-14 2.6095337e-18 2.5132398e-18   -3.9608839 
     971   -3.9608839        9.202        9.202      92.0195            0           -0            0   -1275.7736   -1913.4005   -1913.4005  -0.51985208 -2.2828441e-14 2.6115582e-18 2.5133201e-18   -3.9608839 
     972   -3.9608839        9.202        9.202      92.0195            0           -0            0   -1275.7736   -1913.4005   -1913.4005  -0.51986007 -4.5656883e-14 8.172688e-18 8.0867503e-18   -3.9608839 
     973   -3.9608839        9.202        9.202      92.0195            0           -0            0   -1275.7736   -1913.4005   -1913.4005  -0.51986807 6.8485324e-14 8.1578771e-18 8.0868305e-18   -3.9608839 
     974   -3.9608839        9.202        9.202      92.0195            0           -0            0   -1275.7736   -1913.4005   -1913.4005  -0.51987607 2.2828441e-14 8.1534258e-18 8.0869108e-18   -3.9608839 
     975   -3.9608839        9.202        9.202      92.0195            0           -0            0   -1275.7736   -1913.4005   -1913.4005  -0.51988407 4.5656883e-14 2.5646166e-18 2.5136411e-18   -3.9608839 
     976   -3.9608839        9.202        9.202      92.0195            0           -0            0   -1275.7736   -1913.4005   -1913.4005  -0.51989207 2.2828441e-14 8.1257441e-18 8.0870713e-18   -3.9608839 
     977   -3.9608839        9.202        9.202      92.0195            0           -0            0   -1275.7736   -1913.4005   -1913.4005  -0.51990007 2.2828441e-14 -8.5890444e-18 -8.6328983e-18   -3.9608839 
     978   -3.9608839        9.202        9.202      92.0195            0           -0            0   -1275.7736   -1913.4005   -1913.4005  -0.51990806 2.2828441e-14 -3.017556e-18 -3.0594681e-18   -3.9608839 
     979   -3.9608839        9.202        9.202      92.0195            0           -0            0   -1275.7736   -1913.4005   -1913.4005  -0.51991606 6.8485324e-14 8.1337581e-18 8.087312e-18   -3.9608839 
     980    -3.960884        9.202        9.202      92.0195            0           -0            0   -1275.7736   -1913.4005   -1913.4005  -0.51992406 2.2828441e-14 -3.0245173e-18 -3.0593076e-18    -3.960884 
     981    -3.960884        9.202        9.202      92.0195            0           -0            0   -1275.7736   -1913.4005   -1913.4005  -0.51993206 -1.1414221e-13 2.5346658e-18 2.5141226e-18    -3.960884 
     982    -3.960884        9.202        9.202      92.0195            0           -0            0   -1275.7736   -1913.4005   -1913.4005  -0.51994006 -2.2828441e-14 -3.0405466e-18 -3.0591471e-18    -3.960884 
     983    -3.960884        9.202        9.202      92.0195            0           -0            0   -1275.7736   -1913.4005   -1913.4005  -0.51994806 -4.5656883e-14 2.5173406e-18 2.5142831e-18    -3.960884 
     984    -3.960884        9.202        9.202      92.0195            0           -0            0   -1275.7736   -1913.4005   -1913.4005  -0.51995606            0 2.5051152e-18 2.5143634e-18    -3.960884 
     985    -3.960884        9.202        9.202      92.0195            0           -0            0   -1275.7736   -1913.4005   -1913.4005  -0.51996406 2.2828441e-14 -3.0623259e-18 -3.0589063e-18    -3.960884 
     986    -3.960884        9.202        9.202      92.0195            0           -0            0   -1275.7736   -1913.4005   -1913.4005  -0.51997207 9.1313765e-14 -3.0680747e-18 -3.058826e-18    -3.960884 
     987    -3.960884        9.202        9.202      92.0195            0           -0            0   -1275.7736   -1913.4005   -1913.4005  -0.51998007 1.5979909e-13 -3.065404e-18 -3.0587458e-18    -3.960884 
     988    -3.960884        9.202        9.202      92.0195            0           -0            0   -1275.7736   -1913.4005   -1913.4005  -0.51998807            0 2.5313436e-18 2.5146844e-18    -3.960884 
     989    -3.960884        9.202        9.202      92.0195            0           -0            0   -1275.7736   -1913.4005   -1913.4005  -0.51999607 -2.2828441e-14 2.5527995e-18 2.5147647e-18    -3.960884 
     990    -3.960884        9.202        9.202      92.0195            0           -0            0   -1275.7736   -1913.4005   -1913.4005  -0.52000407 -2.2828441e-14 2.5412216e-18 2.514845e-18    -3.960884 
     991    -3.960884        9.202        9.202      92.0195            0           -0            0   -1275.7736   -1913.4005   -1913.4005  -0.52001207 6.8485324e-14 -3.015854e-18 -3.0584247e-18    -3.960884 
     992    -3.960884        9.202        9.202      92.0195            0           -0            0   -1275.7736   -1913.4004   -1913.4004  -0.52002008 2.2828441e-14 -2.9995785e-18 -3.0583444e-18    -3.960884 
     993    -3.960884        9.202        9.202      92.0195            0           -0            0   -1275.7736   -1913.4004   -1913.4004  -0.52002808 -1.3697065e-13 8.1381342e-18 8.0884357e-18    -3.960884 
     994    -3.960884        9.202        9.202      92.0195            0           -0            0   -1275.7736   -1913.4004   -1913.4004  -0.52003608 -6.8485324e-14 2.5467273e-18 2.515166e-18    -3.960884 
     995    -3.960884        9.202        9.202      92.0195            0           -0            0   -1275.7736   -1913.4004   -1913.4004  -0.52004409            0 8.1052584e-18 8.0885962e-18    -3.960884 
     996    -3.960884        9.202        9.202      92.0195            0           -0            0   -1275.7736   -1913.4004   -1913.4004  -0.52005209 9.1313765e-14 5.3277332e-18 5.3020015e-18    -3.960884 
     997    -3.960884        9.202        9.202      92.0195            0           -0            0   -1275.7737   -1913.4004   -1913.4004  -0.52006009 -6.8485324e-14 8.1157848e-18 8.0887568e-18    -3.960884 
     998    -3.960884        9.202        9.202      92.0195            0           -0            0   -1275.7737   -1913.4004   -1913.4004   -0.5200681 9.1313765e-14 -3.0165817e-18 -3.0578628e-18    -3.960884 
     999    -3.960884        9.202        9.202      92.0195            0           -0            0   -1275.7737   -1913.4004   -1913.4004   -0.5200761 4.5656883e-14 -2.3306467e-19 -2.7110761e-19    -3.960884 
    1000    -3.960884        9.202        9.202      92.0195            0           -0            0   -1275.7737   -1913.4004   -1913.4004  -0.52008411 4.5656883e-14 8.123154e-18 8.0889976e-18    -3.960884 
Loop time of 0.065825 on 1 procs for 1000 steps with 20 atoms

35.5% CPU use with 1 MPI tasks x no OpenMP threads

Minimization stats:
  Stopping criterion = max iterations
  Energy initial, next-to-last, final = 
        -1.87355225685     -3.96088398893     -3.96088399089
  Force two-norm initial, final = 0.0173607 4.43297e-05
  Force max component initial, final = 0.00868031 1.45305e-05
  Final line search alpha, max atom move = 1 1.45305e-05
  Iterations, force evaluations = 1000 1000

MPI task timing breakdown:
Section |  min time  |  avg time  |  max time  |%varavg| %total
---------------------------------------------------------------
Pair    | 0.039417   | 0.039417   | 0.039417   |   0.0 | 59.88
Neigh   | 0.00023079 | 0.00023079 | 0.00023079 |   0.0 |  0.35
Comm    | 0.0013759  | 0.0013759  | 0.0013759  |   0.0 |  2.09
Output  | 0.02363    | 0.02363    | 0.02363    |   0.0 | 35.90
Modify  | 0          | 0          | 0          |   0.0 |  0.00
Other   |            | 0.001171   |            |       |  1.78

Nlocal:    20 ave 20 max 20 min
Histogram: 1 0 0 0 0 0 0 0 0 0
Nghost:    274 ave 274 max 274 min
Histogram: 1 0 0 0 0 0 0 0 0 0
Neighs:    296 ave 296 max 296 min
Histogram: 1 0 0 0 0 0 0 0 0 0

Total # of neighbors = 296
Ave neighs/atom = 14.8
Neighbor list builds = 11
Dangerous builds = 0

# ---- define output variables ----
variable natoms equal "count(all)"
variable tot_energy equal "c_eatoms"
variable a11 equal "xhi-xlo"
variable a22 equal "yhi-ylo"
variable a33 equal "zhi-zlo"
variable tilt_xy equal "xy"
variable tilt_xz equal "xz"
variable tilt_yz equal "yz"
variable tot_press equal "press"
variable press_xx equal "pxx"
variable press_yy equal "pyy"
variable press_zz equal "pzz"
variable press_xy equal "pxy"
variable press_xz equal "pxz"
variable press_yz equal "pyz"

# ---- output ----
print "pypospack:output_section:begin"
pypospack:output_section:begin
print "tot_energy = ${tot_energy}"
tot_energy = -3.96088399089374
print "num_atoms = ${natoms}"
num_atoms = 20
print "a11 = ${a11}"
a11 = 9.202
print "a22 = ${a22}"
a22 = 9.202
print "a33 = ${a33}"
a33 = 92.0195
print "a12 = ${tilt_xy}"
a12 = 0
print "a13 = ${tilt_xz}"
a13 = -0
print "a23 = ${tilt_yz}"
a23 = 0
print "tot_press = ${tot_press}"
tot_press = -1275.77366004619
print "pxx = ${press_xx}"
pxx = -1913.40044801602
print "pyy = ${press_yy}"
pyy = -1913.40044801602
print "pzz = ${press_zz}"
pzz = -0.52008410654578
print "pxy = ${press_xy}"
pxy = 4.5656882689886e-14
print "pxz = ${press_xz}"
pxz = 8.12315402502672e-18
print "pyz = ${press_yz}"
pyz = 8.08899756705631e-18
print "pypospack:output_section:done"
pypospack:output_section:done
print "pypospack:lammps_sim:done"
pypospack:lammps_sim:done
Total wall time: 0:00:00
