LAMMPS (17 Nov 2016)
Running on 24 partitions of processors
Setting up regular NEB ...
Step MaxReplicaForce MaxAtomForce GradV0 GradV1 GradVc EBF EBR RDT RD1 PE1 RD2 PE2 ... RDN PEN
81    4.2690012    1.2383164 0.0041069903  0.062497433    4.2693653    1.0308697   0.90130692     2.167774            0   -3317.3422  0.043478261   -3317.3156  0.086956522   -3317.2449   0.13043478   -3317.1432   0.17391304    -3317.021    0.2173913   -3316.8894   0.26086957   -3316.7564   0.30434783   -3316.6307   0.34782609   -3316.5189   0.39130435   -3316.4276   0.43478261   -3316.3605   0.47826087   -3316.3212   0.52173913   -3316.3113   0.56521739   -3316.3313   0.60869565   -3316.3802   0.65217391   -3316.4548   0.69565217    -3316.551   0.73913043   -3316.6629    0.7826087   -3316.7846   0.82608696   -3316.9076   0.86956522   -3317.0223   0.91304348   -3317.1196   0.95652174    -3317.187            1   -3317.2126 
91    2.4449917   0.69563297 0.0040381943  0.038533583    2.4451339   0.77722482   0.64768241    2.1776279            0   -3317.3422  0.043486994    -3317.326  0.086972786     -3317.28   0.13046613   -3317.2098   0.17395784   -3317.1213   0.21744563   -3317.0229   0.26093149   -3316.9209   0.30441813   -3316.8225   0.34790807   -3316.7347   0.39140255   -3316.6614   0.43490114   -3316.6072   0.47840133   -3316.5748   0.52177427    -3316.565   0.56519637   -3316.5787   0.60869464   -3316.6153    0.6521899   -3316.6717   0.69568102    -3316.745    0.7391693   -3316.8294   0.78265737   -3316.9205   0.82614846   -3317.0099   0.86964464    -3317.091   0.91314388   -3317.1562    0.9566357   -3317.1981            1   -3317.2126 
101    1.0718698   0.36027218  0.003689303  0.020202515    1.0718859   0.47455374    0.3450625     2.272883            0   -3317.3422  0.042630701   -3317.3353  0.085648565   -3317.3159   0.12921805   -3317.2849   0.17323231   -3317.2427    0.2174888   -3317.1906   0.26175292   -3317.1311   0.30583201    -3317.067   0.34962555   -3317.0045   0.39312874   -3316.9481   0.43639937   -3316.9037   0.47948908   -3316.8764   0.52182201   -3316.8676   0.56433765   -3316.8771   0.60755227   -3316.9043   0.65104029   -3316.9442   0.69483226   -3316.9923   0.73892974   -3317.0427   0.78323803   -3317.0908   0.82755949   -3317.1336   0.87164635    -3317.168   0.91527755   -3317.1932   0.95828284   -3317.2082            1   -3317.2127 
111   0.19775428  0.058726954 0.0040948499   0.01345768   0.17617812    0.3039465   0.17443854    2.4880697            0   -3317.3422  0.040870959   -3317.3377  0.082213811   -3317.3249   0.12448653   -3317.3035   0.16761237   -3317.2726    0.2113506   -3317.2351   0.25548712   -3317.1924    0.2999238     -3317.15   0.34473168   -3317.1119     0.390132   -3317.0823   0.43632123   -3317.0631   0.48286314    -3317.052   0.52834162   -3317.0436   0.57119912   -3317.0383   0.61582924   -3317.0395   0.66118314   -3317.0516   0.70601035   -3317.0733   0.75036301   -3317.1015   0.79428591   -3317.1318   0.83768998   -3317.1602   0.88038724   -3317.1835    0.9221119   -3317.2007   0.96235886   -3317.2105            1   -3317.2127 
121   0.11225189  0.029445708  0.010593283  0.031141832   0.10211617   0.29987725   0.17039191    2.5220199            0   -3317.3422  0.040922989    -3317.338  0.082277748   -3317.3255   0.12452909   -3317.3043   0.16765106   -3317.2738     0.211164   -3317.2363   0.25499775   -3317.1943    0.2991275   -3317.1519   0.34373836   -3317.1143   0.38915535   -3317.0856   0.43594334   -3317.0672   0.48371686   -3317.0571   0.53025026   -3317.0491   0.57441808   -3317.0423   0.61879495   -3317.0427    0.6638378   -3317.0538   0.70843517    -3317.075   0.75236958   -3317.1028   0.79601223   -3317.1328   0.83905222   -3317.1611   0.88156516   -3317.1844   0.92310942   -3317.2009   0.96284095   -3317.2105            1   -3317.2127 
122  0.099124808  0.027563757 0.0057991506  0.017492646  0.093279494   0.29982437   0.17032124    2.5226145            0   -3317.3422  0.040932019    -3317.338   0.08229608   -3317.3255   0.12455255   -3317.3044   0.16767469   -3317.2738   0.21118495   -3317.2363   0.25500906   -3317.1944   0.29912994    -3317.152   0.34373291   -3317.1144   0.38915003   -3317.0856   0.43594679   -3317.0673   0.48374147   -3317.0572   0.53029912   -3317.0491    0.5744993   -3317.0424   0.61887198   -3317.0428   0.66390015   -3317.0539   0.70848492   -3317.0751   0.75240881   -3317.1029   0.79604093   -3317.1328    0.8390753   -3317.1611    0.8815852   -3317.1844   0.92312442   -3317.2009   0.96284794   -3317.2104            1   -3317.2127 
Setting up climbing ...
Climbing replica = 14
Step MaxReplicaForce MaxAtomForce GradV0 GradV1 GradVc EBF EBR RDT RD1 PE1 RD2 PE2 ... RDN PEN
122  0.099124897  0.027563685 0.0057991506  0.017492646  0.093279484   0.29982437   0.17032124    2.5226145            0   -3317.3422  0.040932019    -3317.338   0.08229608   -3317.3255   0.12455255   -3317.3044   0.16767469   -3317.2738   0.21118495   -3317.2363   0.25500906   -3317.1944   0.29912994    -3317.152   0.34373291   -3317.1144   0.38915003   -3317.0856   0.43594679   -3317.0673   0.48374147   -3317.0572   0.53029912   -3317.0491    0.5744993   -3317.0424   0.61887198   -3317.0428   0.66390015   -3317.0539   0.70848492   -3317.0751   0.75240881   -3317.1029   0.79604093   -3317.1328    0.8390753   -3317.1611    0.8815852   -3317.1844   0.92312442   -3317.2009   0.96284794   -3317.2104            1   -3317.2127 
123  0.099124897  0.027563685 0.0057991506  0.017492646  0.093279484   0.29982437   0.17032124    2.5226145            0   -3317.3422  0.040932019    -3317.338   0.08229608   -3317.3255   0.12455255   -3317.3044   0.16767469   -3317.2738   0.21118495   -3317.2363   0.25500906   -3317.1944   0.29912994    -3317.152   0.34373291   -3317.1144   0.38915003   -3317.0856   0.43594679   -3317.0673   0.48374147   -3317.0572   0.53029912   -3317.0491    0.5744993   -3317.0424   0.61887198   -3317.0428   0.66390015   -3317.0539   0.70848492   -3317.0751   0.75240881   -3317.1029   0.79604093   -3317.1328    0.8390753   -3317.1611    0.8815852   -3317.1844   0.92312442   -3317.2009   0.96284794   -3317.2104            1   -3317.2127 
