# ['Ni']

28 atoms
1 atom types

    0.0000     2.5387 xlo xhi
    0.0000     4.3971 ylo yhi
    0.0000    29.0196 zlo zhi

    0.0000     0.0000     0.0000 xy xz yz

Atoms

1 1     0.0000     0.0000     0.0000
2 1     1.2693     2.1986     0.0000
3 1     1.2693     0.7329     2.0728
4 1     0.0000     2.9314     2.0728
5 1     0.0000     1.4657     4.1457
6 1     1.2693     3.6643     4.1457
7 1     0.0000     0.0000     6.2185
8 1     1.2693     2.1986     6.2185
9 1     1.2693     0.7329     8.2913
10 1     0.0000     2.9314     8.2913
11 1     0.0000     1.4657    10.3642
12 1     1.2693     3.6643    10.3642
13 1     0.0000     0.0000    12.4370
14 1     1.2693     2.1986    12.4370
15 1     0.0000     1.4657    14.5098
16 1     1.2693     3.6643    14.5098
17 1     0.0000     0.0000    16.5826
18 1     1.2693     2.1986    16.5826
19 1     1.2693     0.7329    18.6555
20 1     0.0000     2.9314    18.6555
21 1     0.0000     1.4657    20.7283
22 1     1.2693     3.6643    20.7283
23 1     0.0000     0.0000    22.8011
24 1     1.2693     2.1986    22.8011
25 1     1.2693     0.7329    24.8740
26 1     0.0000     2.9314    24.8740
27 1     0.0000     1.4657    26.9468
28 1     1.2693     3.6643    26.9468
