LAMMPS (11 Aug 2017)
Reading data file ...
  triclinic box = (0 0 0) to (2.322 2.322 2.322) with tilt (-0 -0 0)
  1 by 1 by 1 MPI processor grid
  reading atoms ...
  1 atoms
1 atoms in group Ni
Neighbor list info ...
  update every 1 steps, delay 0 steps, check yes
  max neighbors/atom: 2000, page size: 100000
  master list distance cutoff = 5.64464
  ghost atom cutoff = 5.64464
  binsize = 2.82232, bins = 1 1 1
  1 neighbor lists, perpetual/occasional/extra = 1 0 0
  (1) pair eam/alloy, perpetual
      attributes: half, newton on
      pair build: half/bin/newton/tri
      stencil: half/bin/3d/newton/tri
      bin: standard
Setting up cg style minimization ...
  Unit style    : metal
  Current step  : 0
WARNING: Energy due to 3 extra global DOFs will be included in minimizer energies
Per MPI rank memory allocation (min/avg/max) = 4.239 | 4.239 | 4.239 Mbytes
Step PotEng Xhi Xlo Yhi Ylo Zhi Xy Xz Yz Press Pxx Pyy Pzz Pxy Pxz Pyz c_eatoms 
       0    -3.330211        2.322            0        2.322            0        2.322           -0           -0            0   -101493.66   -101493.66   -101493.66   -101493.66            0            0            0    -3.330211 
      10   -3.3506002      2.31039      0.01161      2.31039      0.01161      2.31039           -0           -0            0   -73129.502   -73129.502   -73129.502   -73129.502 1.8303678e-12 -5.9303738e-12 -9.5911095e-12   -3.3506002 
      20   -3.3634177      2.29878      0.02322      2.29878      0.02322      2.29878           -0           -0            0   -38294.867   -38294.867   -38294.867   -38294.867 -4.7174329e-12 -1.2886331e-11 -7.2254119e-12   -3.3634177 
      30   -3.3674336    2.2882077  0.033792318    2.2882077  0.033792318    2.2882077           -0           -0            0   -3.2632559   -3.2632559   -3.2632559   -3.2632559 -9.7028384e-12 -1.3853076e-11 6.9739151e-13   -3.3674336 
      33   -3.3674336    2.2882069  0.033793145    2.2882069  0.033793145    2.2882069           -0           -0            0 4.977567e-10 4.9678642e-10 4.8902413e-10 5.0745956e-10 -7.7622878e-12 -2.9677106e-12 -6.8602251e-12   -3.3674336 
Loop time of 0.000385046 on 1 procs for 33 steps with 1 atoms

78.7% CPU use with 1 MPI tasks x no OpenMP threads

Minimization stats:
  Stopping criterion = quadratic factors are zero
  Energy initial, next-to-last, final = 
        -3.33021096739     -3.36743358162     -3.36743358162
  Force two-norm initial, final = 1.37365 6.35325e-15
  Force max component initial, final = 0.793077 3.73784e-15
  Final line search alpha, max atom move = 1 3.73784e-15
  Iterations, force evaluations = 33 37

MPI task timing breakdown:
Section |  min time  |  avg time  |  max time  |%varavg| %total
---------------------------------------------------------------
Pair    | 0.00013685 | 0.00013685 | 0.00013685 |   0.0 | 35.54
Neigh   | 0          | 0          | 0          |   0.0 |  0.00
Comm    | 5.2691e-05 | 5.2691e-05 | 5.2691e-05 |   0.0 | 13.68
Output  | 3.2187e-05 | 3.2187e-05 | 3.2187e-05 |   0.0 |  8.36
Modify  | 0          | 0          | 0          |   0.0 |  0.00
Other   |            | 0.0001633  |            |       | 42.41

Nlocal:    1 ave 1 max 1 min
Histogram: 1 0 0 0 0 0 0 0 0 0
Nghost:    215 ave 215 max 215 min
Histogram: 1 0 0 0 0 0 0 0 0 0
Neighs:    28 ave 28 max 28 min
Histogram: 1 0 0 0 0 0 0 0 0 0

Total # of neighbors = 28
Ave neighs/atom = 28
Neighbor list builds = 0
Dangerous builds = 0
pypospack:output_section:begin
tot_energy = -3.36743358162272
num_atoms = 1
a11 = 2.25441371061194
a22 = 2.25441371061194
a33 = 2.25441371061194
a12 = -0
a13 = -0
a23 = 0
tot_press = 4.97756704734373e-10
pxx = 4.96786418760232e-10
pyy = 4.89024130967103e-10
pzz = 5.07459564475784e-10
pxy = -7.76228779312862e-12
pxz = -2.96771061622056e-12
pyz = -6.86022505154434e-12
pypospack:output_section:done
pypospack:lammps_sim:done
Total wall time: 0:00:00
