    2    2    1    1
  0.9639684E+01  0.3009788E-09  0.3009788E-09  0.3009788E-09  0.5000000E-15
  1.000000000000000E-004
  CAR 
 automatically generated by pyflamestk   
      8     10     16
 
  0.1250000E+00  0.1250000E+00  0.1250000E+00  0.3125000E-01
    1      -13.621697   1.000000
    2        2.411200   1.000000
    3        3.257661   1.000000
    4        3.257661   1.000000
    5        8.689141   0.000000
    6       17.309631   0.000000
    7       19.316230   0.000000
    8       19.316233   0.000000
    9       23.528855   0.000000
   10       23.528855   0.000000
   11       24.866445   0.000000
   12       27.259291   0.000000
   13       28.682376   0.000000
   14       28.682377   0.000000
   15       38.901778   0.000000
   16       40.811110   0.000000
 
  0.3750000E+00  0.1250000E+00  0.1250000E+00  0.9375000E-01
    1      -12.974538   1.000000
    2        0.255954   1.000000
    3        2.404567   1.000000
    4        2.965490   1.000000
    5       11.113123   0.000000
    6       15.244606   0.000000
    7       18.617618   0.000000
    8       20.289930   0.000000
    9       22.113707   0.000000
   10       24.330633   0.000000
   11       26.410113   0.000000
   12       31.062257   0.000000
   13       32.321395   0.000000
   14       33.207671   0.000000
   15       35.573250   0.000000
   16       38.850145   0.000000
 
 -0.3750000E+00  0.1250000E+00  0.1250000E+00  0.9375000E-01
    1      -12.542508   1.000000
    2       -0.862572   1.000000
    3        2.254133   1.000000
    4        2.627019   1.000000
    5       11.718752   0.000000
    6       15.431231   0.000000
    7       17.910143   0.000000
    8       19.720983   0.000000
    9       23.697427   0.000000
   10       25.949057   0.000000
   11       26.024762   0.000000
   12       32.282543   0.000000
   13       32.875123   0.000000
   14       33.240224   0.000000
   15       35.795997   0.000000
   16       37.502380   0.000000
 
 -0.1250000E+00  0.1250000E+00  0.1250000E+00  0.9375000E-01
    1      -13.261130   1.000000
    2        1.134570   1.000000
    3        2.893124   1.000000
    4        2.896853   1.000000
    5       10.279626   0.000000
    6       15.497724   0.000000
    7       19.417847   0.000000
    8       19.905977   0.000000
    9       21.069951   0.000000
   10       24.910217   0.000000
   11       26.871054   0.000000
   12       29.952259   0.000000
   13       30.260847   0.000000
   14       30.985660   0.000000
   15       37.180468   0.000000
   16       38.956206   0.000000
 
  0.3750000E+00  0.3750000E+00  0.1250000E+00  0.9375000E-01
    1      -12.740830   1.000000
    2        0.072818   1.000000
    3        2.202783   1.000000
    4        2.435425   1.000000
    5       12.211440   0.000000
    6       13.909273   0.000000
    7       17.160990   0.000000
    8       20.781585   0.000000
    9       21.238287   0.000000
   10       27.083318   0.000000
   11       30.145380   0.000000
   12       30.397448   0.000000
   13       32.328446   0.000000
   14       34.821107   0.000000
   15       36.465836   0.000000
   16       37.869919   0.000000
 
 -0.3750000E+00  0.3750000E+00  0.1250000E+00  0.1875000E+00
    1      -12.333054   1.000000
    2       -0.036330   1.000000
    3        0.955272   1.000000
    4        2.029065   1.000000
    5       13.759714   0.000000
    6       14.774432   0.000000
    7       15.566535   0.000000
    8       19.544402   0.000000
    9       22.992824   0.000000
   10       26.444636   0.000000
   11       29.972722   0.000000
   12       31.404269   0.000000
   13       32.668954   0.000000
   14       36.335105   0.000000
   15       38.880596   0.000000
   16       41.086297   0.000000
 
 -0.1250000E+00  0.3750000E+00  0.1250000E+00  0.1875000E+00
    1      -12.586966   1.000000
    2       -0.242158   1.000000
    3        1.691740   1.000000
    4        2.525736   1.000000
    5       12.581879   0.000000
    6       14.797264   0.000000
    7       16.932251   0.000000
    8       20.118486   0.000000
    9       22.696574   0.000000
   10       25.354670   0.000000
   11       28.863941   0.000000
   12       31.632351   0.000000
   13       32.235547   0.000000
   14       34.881503   0.000000
   15       35.526339   0.000000
   16       41.007406   0.000000
 
 -0.3750000E+00 -0.3750000E+00  0.1250000E+00  0.9375000E-01
    1      -12.368739   1.000000
    2       -0.397957   1.000000
    3        1.692593   1.000000
    4        2.145302   1.000000
    5       12.853444   0.000000
    6       13.485944   0.000000
    7       16.021187   0.000000
    8       21.476462   0.000000
    9       21.490006   0.000000
   10       28.907761   0.000000
   11       29.392122   0.000000
   12       31.963274   0.000000
   13       32.661631   0.000000
   14       37.794635   0.000000
   15       38.167956   0.000000
   16       41.094649   0.000000
 
  0.3750000E+00  0.3750000E+00  0.3750000E+00  0.3125000E-01
    1      -12.777017   1.000000
    2       -0.597139   1.000000
    3        2.819279   1.000000
    4        2.819279   1.000000
    5       10.923518   0.000000
    6       15.441573   0.000000
    7       19.523353   0.000000
    8       19.523354   0.000000
    9       24.071926   0.000000
   10       24.442051   0.000000
   11       24.442054   0.000000
   12       31.898184   0.000000
   13       33.214108   0.000000
   14       33.214111   0.000000
   15       36.839301   0.000000
   16       36.839305   0.000000
 
 -0.3750000E+00  0.3750000E+00  0.3750000E+00  0.9375000E-01
    1      -12.415973   1.000000
    2       -0.279574   1.000000
    3        1.061335   1.000000
    4        2.497747   1.000000
    5       13.072936   0.000000
    6       15.242323   0.000000
    7       16.123787   0.000000
    8       20.428353   0.000000
    9       22.505505   0.000000
   10       25.548006   0.000000
   11       29.077130   0.000000
   12       31.617755   0.000000
   13       32.042482   0.000000
   14       35.366518   0.000000
   15       37.236038   0.000000
   16       40.110419   0.000000
