LAMMPS (11 Aug 2017)
Reading data file ...
  triclinic box = (0 0 0) to (3.5167 3.5167 3.5167) with tilt (0 -0 0)
  1 by 1 by 1 MPI processor grid
  reading atoms ...
  4 atoms
4 atoms in group Ni
Neighbor list info ...
  update every 1 steps, delay 0 steps, check yes
  max neighbors/atom: 2000, page size: 100000
  master list distance cutoff = 5.64464
  ghost atom cutoff = 5.64464
  binsize = 2.82232, bins = 2 2 2
  1 neighbor lists, perpetual/occasional/extra = 1 0 0
  (1) pair eam/alloy, perpetual
      attributes: half, newton on
      pair build: half/bin/newton/tri
      stencil: half/bin/3d/newton/tri
      bin: standard
Setting up cg style minimization ...
  Unit style    : metal
  Current step  : 0
WARNING: Energy due to 3 extra global DOFs will be included in minimizer energies
Per MPI rank memory allocation (min/avg/max) = 4.211 | 4.211 | 4.211 Mbytes
Step PotEng Xhi Xlo Yhi Ylo Zhi Xy Xz Yz Press Pxx Pyy Pzz Pxy Pxz Pyz c_eatoms 
       0    -17.84658       3.5167            0       3.5167            0       3.5167            0           -0            0    4020.8228    4020.8228    4020.8228    4020.8228 1.2780994e-11 1.3547854e-11 8.4354563e-12    -17.84658 
      10   -17.846691    3.5181049 -0.0014048895    3.5181049 -0.0014048895    3.5181049            0           -0            0   -113.90629   -113.90629   -113.90629   -113.90629 8.096509e-10 -1.6983543e-10 -1.0710343e-11   -17.846691 
      20   -17.846691    3.5181021 -0.001402133    3.5181021 -0.001402133    3.5181021            0           -0            0 -9.8331608e-10 -9.4098453e-10 -2.6964689e-09 6.8750523e-10 2.2950842e-12 -2.9326076e-11 6.8852526e-12   -17.846691 
      25   -17.846691    3.5181021 -0.001402133    3.5181021 -0.001402133    3.5181021            0           -0            0 1.5865832e-09 1.0241176e-09 2.1708947e-09 1.5647374e-09 -5.1001871e-13 9.4633972e-10 -1.1475421e-11   -17.846691 
Loop time of 0.00170922 on 1 procs for 25 steps with 4 atoms

99.8% CPU use with 1 MPI tasks x no OpenMP threads

Minimization stats:
  Stopping criterion = energy tolerance
  Energy initial, next-to-last, final = 
        -17.8465802369     -17.8466905333     -17.8466905333
  Force two-norm initial, final = 0.190881 8.07893e-14
  Force max component initial, final = 0.109147 5.90237e-14
  Final line search alpha, max atom move = 1 5.90237e-14
  Iterations, force evaluations = 25 103

MPI task timing breakdown:
Section |  min time  |  avg time  |  max time  |%varavg| %total
---------------------------------------------------------------
Pair    | 0.00089931 | 0.00089931 | 0.00089931 |   0.0 | 52.62
Neigh   | 0          | 0          | 0          |   0.0 |  0.00
Comm    | 0.00018859 | 0.00018859 | 0.00018859 |   0.0 | 11.03
Output  | 2.3842e-05 | 2.3842e-05 | 2.3842e-05 |   0.0 |  1.39
Modify  | 0          | 0          | 0          |   0.0 |  0.00
Other   |            | 0.0005975  |            |       | 34.96

Nlocal:    4 ave 4 max 4 min
Histogram: 1 0 0 0 0 0 0 0 0 0
Nghost:    360 ave 360 max 360 min
Histogram: 1 0 0 0 0 0 0 0 0 0
Neighs:    156 ave 156 max 156 min
Histogram: 1 0 0 0 0 0 0 0 0 0

Total # of neighbors = 156
Ave neighs/atom = 39
Neighbor list builds = 0
Dangerous builds = 0
pypospack:output_section:begin
tot_energy = -17.8466905332691
num_atoms = 4
a11 = 3.51950426605096
a22 = 3.51950426605096
a33 = 3.51950426605096
a12 = 0
a13 = -0
a23 = 0
tot_press = 1.58658321797981e-09
pxx = 1.0241175789028e-09
pyy = 2.17089465866522e-09
pzz = 1.56473741637141e-09
pxy = -5.10018714593028e-13
pxz = 9.46339724927363e-10
pyz = -1.14754210783431e-11
pypospack:output_section:done
pypospack:lammps_sim:done
Total wall time: 0:00:00
