# ['Ni']

107 atoms
1 atom types

    0.0000    11.3351 xlo xhi
    0.0000    11.3351 ylo yhi
    0.0000    11.3351 zlo zhi

    0.0000    -0.0000    -0.0000 xy xz yz

Atoms

1 1     1.8892     1.8892     0.0000
2 1     1.8892     0.0000     1.8892
3 1     0.0000     1.8892     1.8892
4 1     0.0000     0.0000     3.7783
5 1     1.8892     1.8892     3.7783
6 1     1.8892     0.0000     5.6675
7 1     0.0000     1.8892     5.6675
8 1     0.0000     0.0000     7.5567
9 1     1.8892     1.8892     7.5567
10 1     1.8892     0.0000     9.4459
11 1     0.0000     1.8892     9.4459
12 1     0.0000     3.7783     0.0000
13 1     1.8892     5.6675     0.0000
14 1     1.8892     3.7783     1.8892
15 1     0.0000     5.6675     1.8892
16 1     0.0000     3.7783     3.7783
17 1     1.8892     5.6675     3.7783
18 1     1.8892     3.7783     5.6675
19 1     0.0000     5.6675     5.6675
20 1     0.0000     3.7783     7.5567
21 1     1.8892     5.6675     7.5567
22 1     1.8892     3.7783     9.4459
23 1     0.0000     5.6675     9.4459
24 1     0.0000     7.5567     0.0000
25 1     1.8892     9.4459     0.0000
26 1     1.8892     7.5567     1.8892
27 1     0.0000     9.4459     1.8892
28 1     0.0000     7.5567     3.7783
29 1     1.8892     9.4459     3.7783
30 1     1.8892     7.5567     5.6675
31 1     0.0000     9.4459     5.6675
32 1     0.0000     7.5567     7.5567
33 1     1.8892     9.4459     7.5567
34 1     1.8892     7.5567     9.4459
35 1     0.0000     9.4459     9.4459
36 1     3.7783     0.0000     0.0000
37 1     5.6675     1.8892     0.0000
38 1     5.6675     0.0000     1.8892
39 1     3.7783     1.8892     1.8892
40 1     3.7783     0.0000     3.7783
41 1     5.6675     1.8892     3.7783
42 1     5.6675     0.0000     5.6675
43 1     3.7783     1.8892     5.6675
44 1     3.7783     0.0000     7.5567
45 1     5.6675     1.8892     7.5567
46 1     5.6675     0.0000     9.4459
47 1     3.7783     1.8892     9.4459
48 1     3.7783     3.7783     0.0000
49 1     5.6675     5.6675     0.0000
50 1     5.6675     3.7783     1.8892
51 1     3.7783     5.6675     1.8892
52 1     3.7783     3.7783     3.7783
53 1     5.6675     5.6675     3.7783
54 1     5.6675     3.7783     5.6675
55 1     3.7783     5.6675     5.6675
56 1     3.7783     3.7783     7.5567
57 1     5.6675     5.6675     7.5567
58 1     5.6675     3.7783     9.4459
59 1     3.7783     5.6675     9.4459
60 1     3.7783     7.5567     0.0000
61 1     5.6675     9.4459     0.0000
62 1     5.6675     7.5567     1.8892
63 1     3.7783     9.4459     1.8892
64 1     3.7783     7.5567     3.7783
65 1     5.6675     9.4459     3.7783
66 1     5.6675     7.5567     5.6675
67 1     3.7783     9.4459     5.6675
68 1     3.7783     7.5567     7.5567
69 1     5.6675     9.4459     7.5567
70 1     5.6675     7.5567     9.4459
71 1     3.7783     9.4459     9.4459
72 1     7.5567     0.0000     0.0000
73 1     9.4459     1.8892     0.0000
74 1     9.4459     0.0000     1.8892
75 1     7.5567     1.8892     1.8892
76 1     7.5567     0.0000     3.7783
77 1     9.4459     1.8892     3.7783
78 1     9.4459     0.0000     5.6675
79 1     7.5567     1.8892     5.6675
80 1     7.5567     0.0000     7.5567
81 1     9.4459     1.8892     7.5567
82 1     9.4459     0.0000     9.4459
83 1     7.5567     1.8892     9.4459
84 1     7.5567     3.7783     0.0000
85 1     9.4459     5.6675     0.0000
86 1     9.4459     3.7783     1.8892
87 1     7.5567     5.6675     1.8892
88 1     7.5567     3.7783     3.7783
89 1     9.4459     5.6675     3.7783
90 1     9.4459     3.7783     5.6675
91 1     7.5567     5.6675     5.6675
92 1     7.5567     3.7783     7.5567
93 1     9.4459     5.6675     7.5567
94 1     9.4459     3.7783     9.4459
95 1     7.5567     5.6675     9.4459
96 1     7.5567     7.5567     0.0000
97 1     9.4459     9.4459     0.0000
98 1     9.4459     7.5567     1.8892
99 1     7.5567     9.4459     1.8892
100 1     7.5567     7.5567     3.7783
101 1     9.4459     9.4459     3.7783
102 1     9.4459     7.5567     5.6675
103 1     7.5567     9.4459     5.6675
104 1     7.5567     7.5567     7.5567
105 1     9.4459     9.4459     7.5567
106 1     9.4459     7.5567     9.4459
107 1     7.5567     9.4459     9.4459
