LAMMPS (11 Aug 2017)
include init.mod
# ---- init.mod file
variable up equal 1.0e-6
units metal
dimension 3
boundary p p p
atom_style atomic
atom_modify map array
variable cfac equal 1.0e-4
variable cunits string GPa
# ---- define minimization parameters
variable etol equal 0.0
variable ftol equal 1.0e-10
variable maxiter equal 100
variable maxeval equal 1000
variable dmax equal 1.0e-2
# --- read data structure
read_data lammps.structure
  triclinic box = (0 0 0) to (3.5167 3.5167 3.5167) with tilt (0 -0 0)
  1 by 1 by 1 MPI processor grid
  reading atoms ...
  4 atoms
include potential.mod
mass 1 58.6934

group Ni type 1
4 atoms in group Ni

pair_style eam/alloy
pair_coeff * * /ufrc/phillpot/eragasa/pareto_optimization_3.5NN/rank_30/Ni_fcc.lmps_elastic/Ni.eam.alloy Ni

neighbor 1.0 bin
neigh_modify every 1 delay 0 check yes
thermo	1
thermo_style custom step temp pe press pxx pyy pzz pxy pxz pyz lx ly lz vol
thermo_modify norm no
# ---- Compute initial state
fix 3 all box/relax aniso 0.0
minimize ${etol} ${ftol} ${maxiter} ${maxeval}
minimize 0 ${ftol} ${maxiter} ${maxeval}
minimize 0 1e-10 ${maxiter} ${maxeval}
minimize 0 1e-10 100 ${maxeval}
minimize 0 1e-10 100 1000
Neighbor list info ...
  update every 1 steps, delay 0 steps, check yes
  max neighbors/atom: 2000, page size: 100000
  master list distance cutoff = 5.64464
  ghost atom cutoff = 5.64464
  binsize = 2.82232, bins = 2 2 2
  1 neighbor lists, perpetual/occasional/extra = 1 0 0
  (1) pair eam/alloy, perpetual
      attributes: half, newton on
      pair build: half/bin/newton/tri
      stencil: half/bin/3d/newton/tri
      bin: standard
Per MPI rank memory allocation (min/avg/max) = 4.086 | 4.086 | 4.086 Mbytes
Step Temp PotEng Press Pxx Pyy Pzz Pxy Pxz Pyz Lx Ly Lz Volume 
       0            0   -34.231778    -843372.8    -843372.8    -843372.8    -843372.8 5.4447036e-11 -4.652282e-11 -1.8404632e-11       3.5167       3.5167       3.5167    43.491658 
       1            0   -34.238646    -843427.9    -843427.9    -843427.9    -843427.9 -3.145068e-11 -4.423551e-11 -8.5658357e-11    3.5163483    3.5163483    3.5163483    43.478612 
       2            0   -34.245512   -843482.58   -843482.58   -843482.58   -843482.58 -8.1080143e-11 3.8877545e-11 -6.164137e-11    3.5159967    3.5159967    3.5159967    43.465568 
       3            0   -34.252378   -843536.83   -843536.83   -843536.83   -843536.83 2.5585008e-13 2.5840858e-11 1.0131663e-10     3.515645     3.515645     3.515645    43.452527 
       4            0   -34.259243   -843590.66   -843590.66   -843590.66   -843590.66 -6.6285061e-11 6.6029134e-11 4.4531277e-11    3.5152933    3.5152933    3.5152933    43.439489 
       5            0   -34.266107   -843644.07   -843644.07   -843644.07   -843644.07 3.7632544e-11 2.3040333e-11 6.8096985e-11    3.5149417    3.5149417    3.5149417    43.426453 
       6            0    -34.27297   -843697.05   -843697.05   -843697.05   -843697.05 6.1971495e-11 -1.0473695e-10 -1.0729775e-10      3.51459      3.51459      3.51459     43.41342 
       7            0   -34.279832    -843749.6    -843749.6    -843749.6    -843749.6 7.607876e-11 3.2275838e-11 7.6847233e-12    3.5142383    3.5142383    3.5142383    43.400389 
       8            0   -34.286693   -843801.72   -843801.72   -843801.72   -843801.72 5.0478169e-11 1.588653e-11 9.4806713e-12    3.5138866    3.5138866    3.5138866    43.387362 
       9            0   -34.293553   -843853.41   -843853.41   -843853.41   -843853.41 -3.537096e-11 1.9223348e-11 3.5114649e-11     3.513535     3.513535     3.513535    43.374336 
      10            0   -34.300412   -843904.68   -843904.68   -843904.68   -843904.68 1.9741898e-11 -5.9482082e-11 -2.84591e-11    3.5131833    3.5131833    3.5131833    43.361313 
      11            0    -34.30727   -843955.51   -843955.51   -843955.51   -843955.51 2.8211182e-12 2.5646529e-12 -3.4622815e-11    3.5128316    3.5128316    3.5128316    43.348293 
      12            0   -34.314128   -844005.91   -844005.91   -844005.91   -844005.91 -4.3868739e-11 1.490511e-10 1.2750154e-10      3.51248      3.51248      3.51248    43.335276 
      13            0   -34.320984   -844055.88   -844055.88   -844055.88   -844055.88 -3.5670097e-11 -5.15805e-11 2.7714896e-11    3.5121283    3.5121283    3.5121283    43.322261 
      14            0   -34.327839   -844105.42   -844105.42   -844105.42   -844105.42 -1.0370539e-10 -9.6004493e-11 -4.9542425e-11    3.5117766    3.5117766    3.5117766    43.309249 
      15            0   -34.334694   -844154.53   -844154.53   -844154.53   -844154.53 6.3166315e-11 6.6761146e-11 -4.9043765e-11     3.511425     3.511425     3.511425    43.296239 
      16            0   -34.341547    -844203.2    -844203.2    -844203.2    -844203.2 -1.3099391e-11 -4.0068725e-11 -2.6969334e-11    3.5110733    3.5110733    3.5110733    43.283232 
      17            0   -34.348399   -844251.43   -844251.43   -844251.43   -844251.43 -2.6206655e-11 -2.1325024e-11 -2.6977439e-11    3.5107216    3.5107216    3.5107216    43.270227 
      18            0   -34.355251   -844299.23   -844299.23   -844299.23   -844299.23 2.7499558e-11 1.0280209e-12 8.2498675e-11    3.5103699    3.5103699    3.5103699    43.257226 
      19            0   -34.362101   -844346.59   -844346.59   -844346.59   -844346.59 -1.7995773e-12 -2.9307402e-11 6.3756454e-11    3.5100183    3.5100183    3.5100183    43.244226 
      20            0   -34.368951   -844393.52   -844393.52   -844393.52   -844393.52 1.0260675e-10 -4.5517278e-11 -2.4944497e-11    3.5096666    3.5096666    3.5096666     43.23123 
      21            0   -34.375799   -844440.01   -844440.01   -844440.01   -844440.01 3.0096738e-11 -2.4180286e-11 -3.6527665e-11    3.5093149    3.5093149    3.5093149    43.218236 
      22            0   -34.382647   -844486.05   -844486.05   -844486.05   -844486.05 5.6094546e-11 8.8773478e-11 3.602402e-11    3.5089633    3.5089633    3.5089633    43.205244 
      23            0   -34.389493   -844531.66   -844531.66   -844531.66   -844531.66 -2.3165263e-12 -4.4528783e-11 -9.961063e-11    3.5086116    3.5086116    3.5086116    43.192255 
      24            0   -34.396338   -844576.83   -844576.83   -844576.83   -844576.83 -1.3903338e-11 -4.6601929e-11 3.3470999e-12    3.5082599    3.5082599    3.5082599    43.179269 
      25            0   -34.403183   -844621.56   -844621.56   -844621.56   -844621.56 -1.0018565e-10 -7.9839466e-12 2.6012213e-11    3.5079083    3.5079083    3.5079083    43.166285 
      26            0   -34.410026   -844665.84   -844665.84   -844665.84   -844665.84  4.48266e-11 2.0867555e-11 -3.1687769e-11    3.5075566    3.5075566    3.5075566    43.153304 
      27            0   -34.416869   -844709.68   -844709.68   -844709.68   -844709.68 1.8039115e-11 1.1338872e-11 1.1957356e-10    3.5072049    3.5072049    3.5072049    43.140326 
      28            0    -34.42371   -844753.08   -844753.08   -844753.08   -844753.08 -2.8355709e-12 -4.0471331e-11 -4.9751381e-11    3.5068532    3.5068532    3.5068532     43.12735 
      29            0    -34.43055   -844796.03   -844796.03   -844796.03   -844796.03 -5.698634e-11 6.0596334e-11 -3.0684952e-11    3.5065016    3.5065016    3.5065016    43.114377 
      30            0    -34.43739   -844838.54   -844838.54   -844838.54   -844838.54 -2.3214091e-12 1.1091177e-11 -3.5337005e-11    3.5061499    3.5061499    3.5061499    43.101406 
      31            0   -34.444228    -844880.6    -844880.6    -844880.6    -844880.6 3.1219448e-11 4.1023903e-11 -2.2189029e-11    3.5057982    3.5057982    3.5057982    43.088438 
      32            0   -34.451065   -844922.21   -844922.21   -844922.21   -844922.21 2.2969977e-11 1.5227288e-11 3.6390638e-11    3.5054466    3.5054466    3.5054466    43.075473 
      33            0   -34.457902   -844963.38   -844963.38   -844963.38   -844963.38 1.1617529e-11 1.6522708e-11 6.4799997e-11    3.5050949    3.5050949    3.5050949     43.06251 
      34            0   -34.464737    -845004.1    -845004.1    -845004.1    -845004.1 -3.8220266e-11 7.4374572e-11 2.5824504e-11    3.5047432    3.5047432    3.5047432     43.04955 
      35            0   -34.471571   -845044.37   -845044.37   -845044.37   -845044.37 4.623978e-11 4.2106616e-11 5.8639274e-11    3.5043916    3.5043916    3.5043916    43.036592 
      36            0   -34.478404   -845084.18   -845084.18   -845084.18   -845084.18 -9.7675419e-11 -9.819222e-11 -1.2222347e-10    3.5040399    3.5040399    3.5040399    43.023637 
      37            0   -34.485236   -845123.55   -845123.55   -845123.55   -845123.55 4.9110895e-11 -2.4813926e-11 7.2373951e-12    3.5036882    3.5036882    3.5036882    43.010685 
      38            0   -34.492067   -845162.46   -845162.46   -845162.46   -845162.46 -2.7665518e-11 9.9285597e-11 9.7217147e-11    3.5033365    3.5033365    3.5033365    42.997735 
      39            0   -34.498897   -845200.93   -845200.93   -845200.93   -845200.93 -3.7501948e-11 -3.077746e-11 -1.4224877e-11    3.5029849    3.5029849    3.5029849    42.984788 
      40            0   -34.505726   -845238.93   -845238.93   -845238.93   -845238.93 5.3812102e-11 1.0270868e-10 8.3305274e-11    3.5026332    3.5026332    3.5026332    42.971843 
      41            0   -34.512554   -845276.49   -845276.49   -845276.49   -845276.49 7.7636992e-12 -4.0630026e-11 -5.5381054e-11    3.5022815    3.5022815    3.5022815    42.958901 
      42            0    -34.51938   -845313.59   -845313.59   -845313.59   -845313.59 2.1744907e-11 2.6145662e-11 4.3748683e-11    3.5019299    3.5019299    3.5019299    42.945961 
      43            0   -34.526206   -845350.23   -845350.23   -845350.23   -845350.23 9.5810001e-12 -1.8644108e-11 -3.8841892e-12    3.5015782    3.5015782    3.5015782    42.933025 
      44            0   -34.533031   -845386.42   -845386.42   -845386.42   -845386.42 5.4913084e-11 2.3830206e-11 -3.1341902e-11    3.5012265    3.5012265    3.5012265     42.92009 
      45            0   -34.539854   -845422.14   -845422.14   -845422.14   -845422.14 -1.5287021e-11 -1.0441813e-10 -5.5706941e-11    3.5008749    3.5008749    3.5008749    42.907159 
      46            0   -34.546676   -845457.41   -845457.41   -845457.41   -845457.41 -6.4276676e-11 -6.7386838e-12 -4.7429967e-11    3.5005232    3.5005232    3.5005232     42.89423 
      47            0   -34.553498   -845492.22   -845492.22   -845492.22   -845492.22 3.3703576e-11 2.1259179e-11 5.4444238e-11    3.5001715    3.5001715    3.5001715    42.881303 
      48            0   -34.560318   -845526.57   -845526.57   -845526.57   -845526.57 1.6078859e-11 1.0503126e-10 -1.2188812e-11    3.4998198    3.4998198    3.4998198    42.868379 
      49            0   -34.567137   -845560.46   -845560.46   -845560.46   -845560.46 -3.138917e-11 6.3037755e-11 1.1492068e-10    3.4994682    3.4994682    3.4994682    42.855458 
      50            0   -34.573955   -845593.89   -845593.89   -845593.89   -845593.89 5.3455527e-11 1.6088557e-11 -2.1278414e-11    3.4991165    3.4991165    3.4991165     42.84254 
      51            0   -34.580772   -845626.85   -845626.85   -845626.85   -845626.85 -1.5574266e-12 -3.6339955e-12 5.9701354e-11    3.4987648    3.4987648    3.4987648    42.829624 
      52            0   -34.587588   -845659.35   -845659.35   -845659.35   -845659.35 -1.0178256e-10 -1.3605628e-10 -1.3761418e-10    3.4984132    3.4984132    3.4984132     42.81671 
      53            0   -34.594403   -845691.39   -845691.39   -845691.39   -845691.39 -4.4153711e-11 5.1945542e-12 -5.558173e-11    3.4980615    3.4980615    3.4980615    42.803799 
      54            0   -34.601216   -845722.96   -845722.96   -845722.96   -845722.96 7.6902594e-11 6.131423e-11 1.7355045e-10    3.4977098    3.4977098    3.4977098    42.790891 
      55            0   -34.608029   -845754.07   -845754.07   -845754.07   -845754.07 -3.1705902e-11 7.0688568e-11 1.2318522e-10    3.4973582    3.4973582    3.4973582    42.777985 
      56            0    -34.61484   -845784.71   -845784.71   -845784.71   -845784.71 -1.5597771e-12 9.1506924e-11 -3.0155691e-11    3.4970065    3.4970065    3.4970065    42.765082 
      57            0    -34.62165   -845814.88   -845814.88   -845814.88   -845814.88 2.600413e-11 -6.2409911e-12 -3.7966029e-11    3.4966548    3.4966548    3.4966548    42.752182 
      58            0    -34.62846   -845844.58   -845844.58   -845844.58   -845844.58 -9.3643118e-12 -1.1965509e-11 -7.6995452e-11    3.4963031    3.4963031    3.4963031    42.739284 
      59            0   -34.635268   -845873.81   -845873.81   -845873.81   -845873.81 6.7651552e-12 -6.2447587e-12 1.7693483e-11    3.4959515    3.4959515    3.4959515    42.726389 
      60            0   -34.642074   -845902.57   -845902.57   -845902.57   -845902.57 -2.4986574e-11 7.3398062e-11 7.7041938e-11    3.4955998    3.4955998    3.4955998    42.713496 
      61            0    -34.64888   -845930.87   -845930.87   -845930.87   -845930.87 -4.1136151e-11 -8.8520832e-11 -2.6035539e-12    3.4952481    3.4952481    3.4952481    42.700606 
      62            0   -34.655685   -845958.69   -845958.69   -845958.69   -845958.69 -6.6150233e-11 -6.9275441e-11 -1.463639e-10    3.4948965    3.4948965    3.4948965    42.687718 
      63            0   -34.662488   -845986.03   -845986.03   -845986.03   -845986.03 -3.282459e-11 -7.450661e-11 -9.2221468e-11    3.4945448    3.4945448    3.4945448    42.674833 
      64            0    -34.66929   -846012.91   -846012.91   -846012.91   -846012.91 -6.5669004e-11 4.8469979e-11 -2.9707407e-11    3.4941931    3.4941931    3.4941931    42.661951 
      65            0   -34.676092   -846039.31   -846039.31   -846039.31   -846039.31 6.2560796e-12 7.2987596e-11 3.7015138e-11    3.4938415    3.4938415    3.4938415    42.649071 
      66            0   -34.682892   -846065.23   -846065.23   -846065.23   -846065.23 -1.011705e-10 -4.0676799e-11 1.825241e-11    3.4934898    3.4934898    3.4934898    42.636194 
      67            0    -34.68969   -846090.68   -846090.68   -846090.68   -846090.68 3.3907571e-11 2.1909508e-11 4.1732396e-11    3.4931381    3.4931381    3.4931381     42.62332 
      68            0   -34.696488   -846115.65   -846115.65   -846115.65   -846115.65 6.5226566e-11 8.9229943e-11 5.9486628e-11    3.4927864    3.4927864    3.4927864    42.610448 
      69            0   -34.703284   -846140.14   -846140.14   -846140.14   -846140.14 7.4641735e-11 9.0300841e-11 1.1848723e-10    3.4924348    3.4924348    3.4924348    42.597578 
      70            0    -34.71008   -846164.15   -846164.15   -846164.15   -846164.15 -2.2973627e-11 -3.3938313e-11 -1.1747877e-10    3.4920831    3.4920831    3.4920831    42.584712 
      71            0   -34.716874   -846187.69   -846187.69   -846187.69   -846187.69 -4.3871996e-11 2.0369141e-11 5.2228566e-13    3.4917314    3.4917314    3.4917314    42.571847 
      72            0   -34.723667   -846210.74   -846210.74   -846210.74   -846210.74 -1.7240636e-11 6.112589e-11 1.1754979e-10    3.4913798    3.4913798    3.4913798    42.558986 
      73            0   -34.730458   -846233.31   -846233.31   -846233.31   -846233.31 -4.6511525e-11 -3.9717707e-11 3.5014294e-11    3.4910281    3.4910281    3.4910281    42.546127 
      74            0   -34.737249    -846255.4    -846255.4    -846255.4    -846255.4 -6.7958718e-12 -3.7115915e-11 3.0842803e-11    3.4906764    3.4906764    3.4906764     42.53327 
      75            0   -34.744038   -846277.01   -846277.01   -846277.01   -846277.01 -3.1897961e-11 -2.9283374e-11 -7.425427e-11    3.4903248    3.4903248    3.4903248    42.520417 
      76            0   -34.750827   -846298.13   -846298.13   -846298.13   -846298.13 -5.8584455e-11 6.8522889e-11 6.5907512e-11    3.4899731    3.4899731    3.4899731    42.507565 
      77            0   -34.757613   -846318.77   -846318.77   -846318.77   -846318.77 7.9531514e-11 1.2452961e-10 7.1159776e-11    3.4896214    3.4896214    3.4896214    42.494717 
      78            0   -34.764399   -846338.93   -846338.93   -846338.93   -846338.93 -4.3441525e-11 -1.2770761e-10 4.0301174e-11    3.4892697    3.4892697    3.4892697    42.481871 
      79            0   -34.771184   -846358.59   -846358.59   -846358.59   -846358.59 -4.2407562e-11 -1.2303428e-10 -5.8114066e-11    3.4889181    3.4889181    3.4889181    42.469027 
      80            0   -34.777967   -846377.77   -846377.77   -846377.77   -846377.77 -6.6510979e-11 2.094834e-12 -3.6135886e-11    3.4885664    3.4885664    3.4885664    42.456186 
      81            0   -34.784749   -846396.46   -846396.46   -846396.46   -846396.46            0 9.8486979e-11 1.6239874e-11    3.4882147    3.4882147    3.4882147    42.443348 
      82            0    -34.79153   -846414.66   -846414.66   -846414.66   -846414.66 1.8340888e-11 8.856029e-11 7.8603807e-12    3.4878631    3.4878631    3.4878631    42.430512 
      83            0    -34.79831   -846432.38   -846432.38   -846432.38   -846432.38 -2.5685012e-11 6.9716462e-11 3.0402667e-11    3.4875114    3.4875114    3.4875114    42.417679 
      84            0   -34.805088    -846449.6    -846449.6    -846449.6    -846449.6 -7.5505324e-11 -5.3482938e-11 3.1984894e-11    3.4871597    3.4871597    3.4871597    42.404849 
      85            0   -34.811865   -846466.33   -846466.33   -846466.33   -846466.33 -6.2940143e-12 -8.7067198e-11 -9.4410215e-12    3.4868081    3.4868081    3.4868081    42.392021 
      86            0   -34.818641   -846482.56   -846482.56   -846482.56   -846482.56 -4.7219393e-11 -4.4596094e-11 7.4501709e-11    3.4864564    3.4864564    3.4864564    42.379195 
      87            0   -34.825416   -846498.31   -846498.31   -846498.31   -846498.31 7.8722808e-12 -2.6240936e-12 -2.1517568e-11    3.4861047    3.4861047    3.4861047    42.366373 
      88            0    -34.83219   -846513.56   -846513.56   -846513.56   -846513.56 1.1024529e-11 3.6748431e-12 -8.9246188e-12     3.485753     3.485753     3.485753    42.353553 
      89            0   -34.838962   -846528.31   -846528.31   -846528.31   -846528.31 -4.5161739e-11 2.9407644e-11 -5.0413104e-11    3.4854014    3.4854014    3.4854014    42.340735 
      90            0   -34.845733   -846542.57   -846542.57   -846542.57   -846542.57 -8.2996687e-11 -1.0663498e-10 -3.3093616e-11    3.4850497    3.4850497    3.4850497     42.32792 
      91            0   -34.852503   -846556.33   -846556.33   -846556.33   -846556.33 -8.5123636e-11    -5.78e-11 -1.0719273e-10     3.484698     3.484698     3.484698    42.315108 
      92            0   -34.859271   -846569.59   -846569.59   -846569.59   -846569.59 4.2049093e-11 7.4111526e-11 5.2561366e-11    3.4843464    3.4843464    3.4843464    42.302298 
      93            0   -34.866038   -846582.35   -846582.35   -846582.35   -846582.35 4.6793783e-11 -3.3649462e-11 5.9938104e-11    3.4839947    3.4839947    3.4839947    42.289491 
      94            0   -34.872804   -846594.62   -846594.62   -846594.62   -846594.62 3.9444906e-11 1.7355759e-11 1.2254218e-10     3.483643     3.483643     3.483643    42.276686 
      95            0   -34.879569   -846606.38   -846606.38   -846606.38   -846606.38 -4.89265e-11 8.312244e-11 1.2468366e-10    3.4832914    3.4832914    3.4832914    42.263884 
      96            0   -34.886333   -846617.64   -846617.64   -846617.64   -846617.64 -8.8410129e-11 -8.8410129e-11 -3.6311303e-11    3.4829397    3.4829397    3.4829397    42.251084 
      97            0   -34.893095    -846628.4    -846628.4    -846628.4    -846628.4 -1.9477178e-11 6.2642814e-11 -7.790871e-11     3.482588     3.482588     3.482588    42.238287 
      98            0   -34.899856   -846638.66   -846638.66   -846638.66   -846638.66 3.7386449e-11 -5.423668e-11 -1.147922e-10    3.4822363    3.4822363    3.4822363    42.225493 
      99            0   -34.906615   -846648.41   -846648.41   -846648.41   -846648.41 2.6336464e-11 5.794022e-12 6.9528264e-11    3.4818847    3.4818847    3.4818847    42.212701 
     100            0   -34.913373   -846657.66   -846657.66   -846657.66   -846657.66 3.6882223e-11  1.32776e-10 2.5290667e-11     3.481533     3.481533     3.481533    42.199912 
Loop time of 0.0280161 on 1 procs for 100 steps with 4 atoms

9.6% CPU use with 1 MPI tasks x no OpenMP threads

Minimization stats:
  Stopping criterion = max iterations
  Energy initial, next-to-last, final = 
        -34.2317780331      -34.906615098     -34.9133733846
  Force two-norm initial, final = 39.653 39.0153
  Force max component initial, final = 22.8937 22.5255
  Final line search alpha, max atom move = 4.43857e-06 9.99809e-05
  Iterations, force evaluations = 100 100

MPI task timing breakdown:
Section |  min time  |  avg time  |  max time  |%varavg| %total
---------------------------------------------------------------
Pair    | 0.0009799  | 0.0009799  | 0.0009799  |   0.0 |  3.50
Neigh   | 0          | 0          | 0          |   0.0 |  0.00
Comm    | 0.00020313 | 0.00020313 | 0.00020313 |   0.0 |  0.73
Output  | 0.026175   | 0.026175   | 0.026175   |   0.0 | 93.43
Modify  | 0          | 0          | 0          |   0.0 |  0.00
Other   |            | 0.0006578  |            |       |  2.35

Nlocal:    4 ave 4 max 4 min
Histogram: 1 0 0 0 0 0 0 0 0 0
Nghost:    360 ave 360 max 360 min
Histogram: 1 0 0 0 0 0 0 0 0 0
Neighs:    156 ave 156 max 156 min
Histogram: 1 0 0 0 0 0 0 0 0 0

Total # of neighbors = 156
Ave neighs/atom = 39
Neighbor list builds = 0
Dangerous builds = 0

variable tmp equal pxx
variable pxx0 equal ${tmp}
variable pxx0 equal -846657.658942694
variable tmp equal pyy
variable pyy0 equal ${tmp}
variable pyy0 equal -846657.658942694
variable tmp equal pzz
variable pzz0 equal ${tmp}
variable pzz0 equal -846657.658942694
variable tmp equal pyz
variable pyz0 equal ${tmp}
variable pyz0 equal 2.52906673622154e-11
variable tmp equal pxz
variable pxz0 equal ${tmp}
variable pxz0 equal 1.32776003651631e-10
variable tmp equal pxy
variable pxy0 equal ${tmp}
variable pxy0 equal 3.68822232365641e-11

variable tmp equal lx
variable lx0 equal ${tmp}
variable lx0 equal 3.48153300000002
variable tmp equal ly
variable ly0 equal ${tmp}
variable ly0 equal 3.48153300000002
variable tmp equal lz
variable lz0 equal ${tmp}
variable lz0 equal 3.48153300000002

 # ---- define the derivatives w.r.t. strain components
variable d1 equal -(v_pxx1-${pxx0})/(v_delta/v_len0)*${cfac}
variable d1 equal -(v_pxx1--846657.658942694)/(v_delta/v_len0)*${cfac}
variable d1 equal -(v_pxx1--846657.658942694)/(v_delta/v_len0)*0.0001
variable d2 equal -(v_pyy1-${pyy0})/(v_delta/v_len0)*${cfac}
variable d2 equal -(v_pyy1--846657.658942694)/(v_delta/v_len0)*${cfac}
variable d2 equal -(v_pyy1--846657.658942694)/(v_delta/v_len0)*0.0001
variable d3 equal -(v_pzz1-${pzz0})/(v_delta/v_len0)*${cfac}
variable d3 equal -(v_pzz1--846657.658942694)/(v_delta/v_len0)*${cfac}
variable d3 equal -(v_pzz1--846657.658942694)/(v_delta/v_len0)*0.0001
variable d4 equal -(v_pyz1-${pyz0})/(v_delta/v_len0)*${cfac}
variable d4 equal -(v_pyz1-2.52906673622154e-11)/(v_delta/v_len0)*${cfac}
variable d4 equal -(v_pyz1-2.52906673622154e-11)/(v_delta/v_len0)*0.0001
variable d5 equal -(v_pxz1-${pxz0})/(v_delta/v_len0)*${cfac}
variable d5 equal -(v_pxz1-1.32776003651631e-10)/(v_delta/v_len0)*${cfac}
variable d5 equal -(v_pxz1-1.32776003651631e-10)/(v_delta/v_len0)*0.0001
variable d6 equal -(v_pxy1-${pxy0})/(v_delta/v_len0)*${cfac}
variable d6 equal -(v_pxy1-3.68822232365641e-11)/(v_delta/v_len0)*${cfac}
variable d6 equal -(v_pxy1-3.68822232365641e-11)/(v_delta/v_len0)*0.0001

# ---- write restart files
unfix 3
write_restart restart.equil
# ---- uxx Perturbation
variable dir equal 1
include displace.mod
# NOTE: This script should not need to be
# modified. See in.elastic for more info.
# Find which reference length to use

if "${dir} == 1" then    "variable len0 equal ${lx0}"
variable len0 equal ${lx0}
variable len0 equal 3.48153300000002
if "${dir} == 2" then    "variable len0 equal ${ly0}"
if "${dir} == 3" then    "variable len0 equal ${lz0}"
if "${dir} == 4" then    "variable len0 equal ${lz0}"
if "${dir} == 5" then    "variable len0 equal ${lz0}"
if "${dir} == 6" then    "variable len0 equal ${ly0}"

# Reset box and simulation parameters

clear
read_restart restart.equil remap
  triclinic box = (0.0175835 0.0175835 0.0175835) to (3.49912 3.49912 3.49912) with tilt (0 -0 0)
  1 by 1 by 1 MPI processor grid
  4 atoms
include potential.mod
mass 1 58.6934

group Ni type 1
4 atoms in group Ni

pair_style eam/alloy
pair_coeff * * /ufrc/phillpot/eragasa/pareto_optimization_3.5NN/rank_30/Ni_fcc.lmps_elastic/Ni.eam.alloy Ni

neighbor 1.0 bin
neigh_modify every 1 delay 0 check yes
thermo	1
thermo_style custom step temp pe press pxx pyy pzz pxy pxz pyz lx ly lz vol
thermo_modify norm no

# Negative deformation

variable delta equal -${up}*${len0}
variable delta equal -1e-06*${len0}
variable delta equal -1e-06*3.48153300000002
if "${dir} == 1" then    "change_box all x delta 0 ${delta} remap units box"
change_box all x delta 0 ${delta} remap units box
change_box all x delta 0 -3.48153300000002e-06 remap units box
  triclinic box = (0.0175835 0.0175835 0.0175835) to (3.49911 3.49912 3.49912) with tilt (0 -0 0)
if "${dir} == 2" then    "change_box all y delta 0 ${delta} remap units box"
if "${dir} == 3" then    "change_box all z delta 0 ${delta} remap units box"
if "${dir} == 4" then    "change_box all yz delta ${delta} remap units box"
if "${dir} == 5" then    "change_box all xz delta ${delta} remap units box"
if "${dir} == 6" then    "change_box all xy delta ${delta} remap units box"

# Relax atoms positions

minimize ${etol} ${ftol} ${maxiter} ${maxeval}
minimize 0 ${ftol} ${maxiter} ${maxeval}
minimize 0 1e-10 ${maxiter} ${maxeval}
minimize 0 1e-10 100 ${maxeval}
minimize 0 1e-10 100 1000
Neighbor list info ...
  update every 1 steps, delay 0 steps, check yes
  max neighbors/atom: 2000, page size: 100000
  master list distance cutoff = 5.64464
  ghost atom cutoff = 5.64464
  binsize = 2.82232, bins = 2 2 2
  1 neighbor lists, perpetual/occasional/extra = 1 0 0
  (1) pair eam/alloy, perpetual
      attributes: half, newton on
      pair build: half/bin/newton/tri
      stencil: half/bin/3d/newton/tri
      bin: standard
Per MPI rank memory allocation (min/avg/max) = 4.086 | 4.086 | 4.086 Mbytes
Step Temp PotEng Press Pxx Pyy Pzz Pxy Pxz Pyz Lx Ly Lz Volume 
     100            0   -34.913396   -846657.69   -846657.48   -846657.79   -846657.79 1.5288026e-11 4.861121e-10 3.2430044e-10    3.4815295     3.481533     3.481533     42.19987 
     101            0   -34.913396   -846657.69   -846657.49   -846657.79   -846657.79 9.1849588e-11 1.6665965e-11 9.5893876e-11    3.4815295     3.481533     3.481533     42.19987 
     102            0   -34.913396   -846657.69   -846657.49    -846657.8    -846657.8 2.4687651e-11 1.3456982e-10 5.0054496e-12    3.4815295     3.481533     3.481533     42.19987 
     103            0   -34.913396   -846657.69   -846657.49    -846657.8    -846657.8 -1.5103821e-10 4.2169678e-11 -5.5718557e-11    3.4815295     3.481533     3.481533     42.19987 
     104            0   -34.913396    -846657.7   -846657.49    -846657.8    -846657.8 -1.3355412e-11 2.788233e-10 5.532339e-11    3.4815295     3.481533     3.481533     42.19987 
     105            0   -34.913396    -846657.7   -846657.49    -846657.8    -846657.8 1.4525271e-10 1.9474945e-10 3.8555134e-10    3.4815295     3.481533     3.481533     42.19987 
     106            0   -34.913396    -846657.7   -846657.49    -846657.8    -846657.8 -9.3913925e-12 7.011437e-11 1.1433501e-10    3.4815295     3.481533     3.481533     42.19987 
     107            0   -34.913396    -846657.7   -846657.49    -846657.8    -846657.8 -8.103189e-11 2.1790068e-10 -1.9402703e-10    3.4815295     3.481533     3.481533     42.19987 
     108            0   -34.913396    -846657.7   -846657.49    -846657.8    -846657.8 8.8356888e-12 1.1431751e-10 2.2419145e-10    3.4815295     3.481533     3.481533     42.19987 
     109            0   -34.913396    -846657.7   -846657.49    -846657.8    -846657.8 1.1518503e-10 -4.1506435e-10 4.0833931e-12    3.4815295     3.481533     3.481533     42.19987 
     110            0   -34.913396    -846657.7   -846657.49    -846657.8    -846657.8 -6.2749238e-11 -1.04462e-11 1.3172236e-11    3.4815295     3.481533     3.481533     42.19987 
     111            0   -34.913396    -846657.7   -846657.49    -846657.8    -846657.8 1.693826e-10 3.3815084e-10 -1.7624451e-10    3.4815295     3.481533     3.481533     42.19987 
     112            0   -34.913396    -846657.7   -846657.49    -846657.8    -846657.8 -4.6146047e-11 -3.4651521e-10 2.268259e-10    3.4815295     3.481533     3.481533     42.19987 
     113            0   -34.913396    -846657.7   -846657.49    -846657.8    -846657.8 -1.0894056e-10 1.8380208e-10 1.4067948e-10    3.4815295     3.481533     3.481533     42.19987 
     114            0   -34.913396    -846657.7   -846657.49    -846657.8    -846657.8 6.1446422e-11 6.4698317e-11 -6.3753621e-11    3.4815295     3.481533     3.481533     42.19987 
     115            0   -34.913396    -846657.7   -846657.49    -846657.8    -846657.8 -1.3127162e-10 -1.5078094e-10 -1.8981192e-10    3.4815295     3.481533     3.481533     42.19987 
     116            0   -34.913396    -846657.7   -846657.49    -846657.8    -846657.8 2.7311808e-12 -3.0686987e-10 -2.5725376e-10    3.4815295     3.481533     3.481533     42.19987 
     117            0   -34.913396    -846657.7   -846657.49    -846657.8    -846657.8 5.9240072e-11 2.8160491e-10 -2.232694e-10    3.4815295     3.481533     3.481533     42.19987 
     118            0   -34.913396    -846657.7   -846657.49    -846657.8    -846657.8 -3.5075194e-11 4.7322286e-11 7.3369353e-11    3.4815295     3.481533     3.481533     42.19987 
     119            0   -34.913396    -846657.7   -846657.49    -846657.8    -846657.8 4.0891559e-11 5.5992293e-12 -1.8638714e-10    3.4815295     3.481533     3.481533     42.19987 
     120            0   -34.913396    -846657.7   -846657.49    -846657.8    -846657.8 1.2925256e-11 -4.0086201e-10 -2.2103012e-10    3.4815295     3.481533     3.481533     42.19987 
     121            0   -34.913396    -846657.7   -846657.49    -846657.8    -846657.8 -2.9096234e-11 1.1222848e-10 -5.7826115e-11    3.4815295     3.481533     3.481533     42.19987 
     122            0   -34.913396    -846657.7   -846657.49    -846657.8    -846657.8 -2.9096234e-11 1.1222848e-10 -5.7826115e-11    3.4815295     3.481533     3.481533     42.19987 
Loop time of 0.000582933 on 1 procs for 22 steps with 4 atoms

100.0% CPU use with 1 MPI tasks x no OpenMP threads

Minimization stats:
  Stopping criterion = linesearch alpha is zero
  Energy initial, next-to-last, final = 
        -34.9133956848     -34.9133956855     -34.9133956855
  Force two-norm initial, final = 1.53137e-05 2.46149e-07
  Force max component initial, final = 4.42137e-06 7.10766e-08
  Final line search alpha, max atom move = 0.5 3.55383e-08
  Iterations, force evaluations = 22 23

MPI task timing breakdown:
Section |  min time  |  avg time  |  max time  |%varavg| %total
---------------------------------------------------------------
Pair    | 0.00025225 | 0.00025225 | 0.00025225 |   0.0 | 43.27
Neigh   | 0          | 0          | 0          |   0.0 |  0.00
Comm    | 4.7207e-05 | 4.7207e-05 | 4.7207e-05 |   0.0 |  8.10
Output  | 0.00024629 | 0.00024629 | 0.00024629 |   0.0 | 42.25
Modify  | 0          | 0          | 0          |   0.0 |  0.00
Other   |            | 3.719e-05  |            |       |  6.38

Nlocal:    4 ave 4 max 4 min
Histogram: 1 0 0 0 0 0 0 0 0 0
Nghost:    360 ave 360 max 360 min
Histogram: 1 0 0 0 0 0 0 0 0 0
Neighs:    156 ave 156 max 156 min
Histogram: 1 0 0 0 0 0 0 0 0 0

Total # of neighbors = 156
Ave neighs/atom = 39
Neighbor list builds = 0
Dangerous builds = 0

# Obtain new stress tensor

variable tmp equal pxx
variable pxx1 equal ${tmp}
variable pxx1 equal -846657.492157937
variable tmp equal pyy
variable pyy1 equal ${tmp}
variable pyy1 equal -846657.799601167
variable tmp equal pzz
variable pzz1 equal ${tmp}
variable pzz1 equal -846657.799601167
variable tmp equal pxy
variable pxy1 equal ${tmp}
variable pxy1 equal -2.90962338894987e-11
variable tmp equal pxz
variable pxz1 equal ${tmp}
variable pxz1 equal 1.12228477728198e-10
variable tmp equal pyz
variable pyz1 equal ${tmp}
variable pyz1 equal -5.78261149720136e-11

# Compute elastic constant from pressure tensor

variable C1neg equal ${d1}
variable C1neg equal 16.6784756933339
variable C2neg equal ${d2}
variable C2neg equal -14.06584730139
variable C3neg equal ${d3}
variable C3neg equal -14.06584730139
variable C4neg equal ${d4}
variable C4neg equal -8.3116782334229e-09
variable C5neg equal ${d5}
variable C5neg equal -2.0547525923433e-09
variable C6neg equal ${d6}
variable C6neg equal -6.59784571260628e-09

# Reset box and simulation parameters

clear
read_restart restart.equil remap
  triclinic box = (0.0175835 0.0175835 0.0175835) to (3.49912 3.49912 3.49912) with tilt (0 -0 0)
  1 by 1 by 1 MPI processor grid
  4 atoms
include potential.mod
mass 1 58.6934

group Ni type 1
4 atoms in group Ni

pair_style eam/alloy
pair_coeff * * /ufrc/phillpot/eragasa/pareto_optimization_3.5NN/rank_30/Ni_fcc.lmps_elastic/Ni.eam.alloy Ni

neighbor 1.0 bin
neigh_modify every 1 delay 0 check yes
thermo	1
thermo_style custom step temp pe press pxx pyy pzz pxy pxz pyz lx ly lz vol
thermo_modify norm no

# Positive deformation

variable delta equal ${up}*${len0}
variable delta equal 1e-06*${len0}
variable delta equal 1e-06*3.48153300000002
if "${dir} == 1" then    "change_box all x delta 0 ${delta} remap units box"
change_box all x delta 0 ${delta} remap units box
change_box all x delta 0 3.48153300000002e-06 remap units box
  triclinic box = (0.0175835 0.0175835 0.0175835) to (3.49912 3.49912 3.49912) with tilt (0 -0 0)
if "${dir} == 2" then    "change_box all y delta 0 ${delta} remap units box"
if "${dir} == 3" then    "change_box all z delta 0 ${delta} remap units box"
if "${dir} == 4" then    "change_box all yz delta ${delta} remap units box"
if "${dir} == 5" then    "change_box all xz delta ${delta} remap units box"
if "${dir} == 6" then    "change_box all xy delta ${delta} remap units box"

# Relax atoms positions

minimize ${etol} ${ftol} ${maxiter} ${maxeval}
minimize 0 ${ftol} ${maxiter} ${maxeval}
minimize 0 1e-10 ${maxiter} ${maxeval}
minimize 0 1e-10 100 ${maxeval}
minimize 0 1e-10 100 1000
Neighbor list info ...
  update every 1 steps, delay 0 steps, check yes
  max neighbors/atom: 2000, page size: 100000
  master list distance cutoff = 5.64464
  ghost atom cutoff = 5.64464
  binsize = 2.82232, bins = 2 2 2
  1 neighbor lists, perpetual/occasional/extra = 1 0 0
  (1) pair eam/alloy, perpetual
      attributes: half, newton on
      pair build: half/bin/newton/tri
      stencil: half/bin/3d/newton/tri
      bin: standard
Per MPI rank memory allocation (min/avg/max) = 4.086 | 4.086 | 4.086 Mbytes
Step Temp PotEng Press Pxx Pyy Pzz Pxy Pxz Pyz Lx Ly Lz Volume 
     100            0   -34.913351   -846657.63   -846657.83   -846657.53   -846657.53 -1.1489048e-10 -5.608274e-11 -1.5042663e-10    3.4815365     3.481533     3.481533    42.199954 
     101            0   -34.913351   -846657.63   -846657.84   -846657.53   -846657.53 9.5875161e-11 1.846116e-10 -9.8528126e-11    3.4815365     3.481533     3.481533    42.199954 
     102            0   -34.913351   -846657.63   -846657.84   -846657.53   -846657.53 -8.1379556e-12 1.6716666e-10 4.4034696e-10    3.4815365     3.481533     3.481533    42.199954 
     103            0   -34.913351   -846657.64   -846657.84   -846657.53   -846657.53 -8.1111996e-12 -3.3239247e-13 1.1644233e-10    3.4815365     3.481533     3.481533    42.199954 
     104            0   -34.913351   -846657.64   -846657.84   -846657.53   -846657.53 1.794199e-10 1.0175223e-10 -2.6278558e-10    3.4815365     3.481533     3.481533    42.199954 
     105            0   -34.913351   -846657.64   -846657.84   -846657.53   -846657.53 -1.5446474e-11 2.0627474e-10 -9.7606072e-11    3.4815365     3.481533     3.481533    42.199954 
     106            0   -34.913351   -846657.64   -846657.84   -846657.53   -846657.53 -9.8567231e-11 -2.2699113e-10 -1.699215e-11    3.4815365     3.481533     3.481533    42.199954 
     107            0   -34.913351   -846657.64   -846657.84   -846657.53   -846657.53 3.7590193e-11 -1.8717401e-10 -2.6542002e-10    3.4815365     3.481533     3.481533    42.199954 
     108            0   -34.913351   -846657.64   -846657.84   -846657.53   -846657.53 5.1540386e-11 4.4002383e-11 2.039058e-10    3.4815365     3.481533     3.481533    42.199954 
     109            0   -34.913351   -846657.64   -846657.84   -846657.54   -846657.54 -1.2271354e-10  7.37901e-11 -3.8225752e-10    3.4815365     3.481533     3.481533    42.199954 
     110            0   -34.913351   -846657.64   -846657.84   -846657.54   -846657.54 -1.4756991e-11 -4.0831791e-11 -8.7068304e-11    3.4815365     3.481533     3.481533    42.199954 
     111            0   -34.913351   -846657.64   -846657.84   -846657.54   -846657.54 1.7794008e-10 2.3228368e-11 -4.215107e-11    3.4815365     3.481533     3.481533    42.199954 
     112            0   -34.913351   -846657.64   -846657.84   -846657.54   -846657.54 -1.5730911e-10 -1.4430876e-10 -3.5867926e-10    3.4815365     3.481533     3.481533    42.199954 
     113            0   -34.913351   -846657.64   -846657.84   -846657.54   -846657.54 8.743054e-11 3.4760226e-10 -4.4034696e-10    3.4815365     3.481533     3.481533    42.199954 
     114            0   -34.913351   -846657.64   -846657.84   -846657.54   -846657.54 1.3071977e-10 7.9872985e-11 -9.0361357e-11    3.4815365     3.481533     3.481533    42.199954 
     115            0   -34.913351   -846657.64   -846657.84   -846657.54   -846657.54 -1.3285614e-10 -2.3191012e-10 2.3196261e-10    3.4815365     3.481533     3.481533    42.199954 
     116            0   -34.913351   -846657.64   -846657.84   -846657.54   -846657.54 -8.2326309e-15 -1.0937565e-10 1.1380789e-10    3.4815365     3.481533     3.481533    42.199954 
     117            0   -34.913351   -846657.64   -846657.84   -846657.54   -846657.54 2.0772986e-11 1.960601e-11 1.9758314e-11    3.4815365     3.481533     3.481533    42.199954 
     118            0   -34.913351   -846657.64   -846657.84   -846657.54   -846657.54 -5.4154246e-11 1.4611891e-10 1.3488342e-10    3.4815365     3.481533     3.481533    42.199954 
     119            0   -34.913351   -846657.64   -846657.84   -846657.54   -846657.54 2.4139926e-10 -1.1684779e-10 2.9821882e-10    3.4815365     3.481533     3.481533    42.199954 
     120            0   -34.913351   -846657.64   -846657.84   -846657.54   -846657.54 -7.5637296e-12 2.4128812e-11 1.7492694e-10    3.4815365     3.481533     3.481533    42.199954 
     121            0   -34.913351   -846657.64   -846657.84   -846657.54   -846657.54 1.3004058e-10 -1.006861e-10 -1.0827556e-10    3.4815365     3.481533     3.481533    42.199954 
     122            0   -34.913351   -846657.64   -846657.84   -846657.54   -846657.54 1.3004058e-10 -1.006861e-10 -1.0827556e-10    3.4815365     3.481533     3.481533    42.199954 
Loop time of 0.000494957 on 1 procs for 22 steps with 4 atoms

77.6% CPU use with 1 MPI tasks x no OpenMP threads

Minimization stats:
  Stopping criterion = linesearch alpha is zero
  Energy initial, next-to-last, final = 
        -34.9133510844     -34.9133510851     -34.9133510851
  Force two-norm initial, final = 1.53033e-05 2.4675e-07
  Force max component initial, final = 4.41802e-06 7.12694e-08
  Final line search alpha, max atom move = 0.5 3.56347e-08
  Iterations, force evaluations = 22 23

MPI task timing breakdown:
Section |  min time  |  avg time  |  max time  |%varavg| %total
---------------------------------------------------------------
Pair    | 0.00024533 | 0.00024533 | 0.00024533 |   0.0 | 49.57
Neigh   | 0          | 0          | 0          |   0.0 |  0.00
Comm    | 4.7684e-05 | 4.7684e-05 | 4.7684e-05 |   0.0 |  9.63
Output  | 0.00016665 | 0.00016665 | 0.00016665 |   0.0 | 33.67
Modify  | 0          | 0          | 0          |   0.0 |  0.00
Other   |            | 3.529e-05  |            |       |  7.13

Nlocal:    4 ave 4 max 4 min
Histogram: 1 0 0 0 0 0 0 0 0 0
Nghost:    360 ave 360 max 360 min
Histogram: 1 0 0 0 0 0 0 0 0 0
Neighs:    156 ave 156 max 156 min
Histogram: 1 0 0 0 0 0 0 0 0 0

Total # of neighbors = 156
Ave neighs/atom = 39
Neighbor list builds = 0
Dangerous builds = 0

# Obtain new stress tensor

variable tmp equal pe
variable e1 equal ${tmp}
variable e1 equal -34.9133510850712
variable tmp equal press
variable p1 equal ${tmp}
variable p1 equal -846657.637756092
variable tmp equal pxx
variable pxx1 equal ${tmp}
variable pxx1 equal -846657.842716711
variable tmp equal pyy
variable pyy1 equal ${tmp}
variable pyy1 equal -846657.535275783
variable tmp equal pzz
variable pzz1 equal ${tmp}
variable pzz1 equal -846657.535275783
variable tmp equal pxy
variable pxy1 equal ${tmp}
variable pxy1 equal 1.30040579264991e-10
variable tmp equal pxz
variable pxz1 equal ${tmp}
variable pxz1 equal -1.00686104773958e-10
variable tmp equal pyz
variable pyz1 equal ${tmp}
variable pyz1 equal -1.08275561368923e-10

# Compute elastic constant from pressure tensor

variable C1pos equal ${d1}
variable C1pos equal 18.3774017030373
variable C2pos equal ${d2}
variable C2pos equal -12.3666910920292
variable C3pos equal ${d3}
variable C3pos equal -12.3666910920292
variable C4pos equal ${d4}
variable C4pos equal 1.33566228731138e-08
variable C5pos equal ${d5}
variable C5pos equal 2.33462108425589e-08
variable C6pos equal ${d6}
variable C6pos equal -9.31583560284269e-09

# Combine positive and negative

variable C1${dir} equal 0.5*(${C1neg}+${C1pos})
variable C11 equal 0.5*(${C1neg}+${C1pos})
variable C11 equal 0.5*(16.6784756933339+${C1pos})
variable C11 equal 0.5*(16.6784756933339+18.3774017030373)
variable C2${dir} equal 0.5*(${C2neg}+${C2pos})
variable C21 equal 0.5*(${C2neg}+${C2pos})
variable C21 equal 0.5*(-14.06584730139+${C2pos})
variable C21 equal 0.5*(-14.06584730139+-12.3666910920292)
variable C3${dir} equal 0.5*(${C3neg}+${C3pos})
variable C31 equal 0.5*(${C3neg}+${C3pos})
variable C31 equal 0.5*(-14.06584730139+${C3pos})
variable C31 equal 0.5*(-14.06584730139+-12.3666910920292)
variable C4${dir} equal 0.5*(${C4neg}+${C4pos})
variable C41 equal 0.5*(${C4neg}+${C4pos})
variable C41 equal 0.5*(-8.3116782334229e-09+${C4pos})
variable C41 equal 0.5*(-8.3116782334229e-09+1.33566228731138e-08)
variable C5${dir} equal 0.5*(${C5neg}+${C5pos})
variable C51 equal 0.5*(${C5neg}+${C5pos})
variable C51 equal 0.5*(-2.0547525923433e-09+${C5pos})
variable C51 equal 0.5*(-2.0547525923433e-09+2.33462108425589e-08)
variable C6${dir} equal 0.5*(${C6neg}+${C6pos})
variable C61 equal 0.5*(${C6neg}+${C6pos})
variable C61 equal 0.5*(-6.59784571260628e-09+${C6pos})
variable C61 equal 0.5*(-6.59784571260628e-09+-9.31583560284269e-09)

# Delete dir to make sure it is not reused

variable dir delete
# ---- uyy Perturbation
variable dir equal 2
include displace.mod
# NOTE: This script should not need to be
# modified. See in.elastic for more info.
# Find which reference length to use

if "${dir} == 1" then    "variable len0 equal ${lx0}"
if "${dir} == 2" then    "variable len0 equal ${ly0}"
variable len0 equal ${ly0}
variable len0 equal 3.48153300000002
if "${dir} == 3" then    "variable len0 equal ${lz0}"
if "${dir} == 4" then    "variable len0 equal ${lz0}"
if "${dir} == 5" then    "variable len0 equal ${lz0}"
if "${dir} == 6" then    "variable len0 equal ${ly0}"

# Reset box and simulation parameters

clear
read_restart restart.equil remap
  triclinic box = (0.0175835 0.0175835 0.0175835) to (3.49912 3.49912 3.49912) with tilt (0 -0 0)
  1 by 1 by 1 MPI processor grid
  4 atoms
include potential.mod
mass 1 58.6934

group Ni type 1
4 atoms in group Ni

pair_style eam/alloy
pair_coeff * * /ufrc/phillpot/eragasa/pareto_optimization_3.5NN/rank_30/Ni_fcc.lmps_elastic/Ni.eam.alloy Ni

neighbor 1.0 bin
neigh_modify every 1 delay 0 check yes
thermo	1
thermo_style custom step temp pe press pxx pyy pzz pxy pxz pyz lx ly lz vol
thermo_modify norm no

# Negative deformation

variable delta equal -${up}*${len0}
variable delta equal -1e-06*${len0}
variable delta equal -1e-06*3.48153300000002
if "${dir} == 1" then    "change_box all x delta 0 ${delta} remap units box"
if "${dir} == 2" then    "change_box all y delta 0 ${delta} remap units box"
change_box all y delta 0 ${delta} remap units box
change_box all y delta 0 -3.48153300000002e-06 remap units box
  triclinic box = (0.0175835 0.0175835 0.0175835) to (3.49912 3.49911 3.49912) with tilt (0 -0 0)
if "${dir} == 3" then    "change_box all z delta 0 ${delta} remap units box"
if "${dir} == 4" then    "change_box all yz delta ${delta} remap units box"
if "${dir} == 5" then    "change_box all xz delta ${delta} remap units box"
if "${dir} == 6" then    "change_box all xy delta ${delta} remap units box"

# Relax atoms positions

minimize ${etol} ${ftol} ${maxiter} ${maxeval}
minimize 0 ${ftol} ${maxiter} ${maxeval}
minimize 0 1e-10 ${maxiter} ${maxeval}
minimize 0 1e-10 100 ${maxeval}
minimize 0 1e-10 100 1000
Neighbor list info ...
  update every 1 steps, delay 0 steps, check yes
  max neighbors/atom: 2000, page size: 100000
  master list distance cutoff = 5.64464
  ghost atom cutoff = 5.64464
  binsize = 2.82232, bins = 2 2 2
  1 neighbor lists, perpetual/occasional/extra = 1 0 0
  (1) pair eam/alloy, perpetual
      attributes: half, newton on
      pair build: half/bin/newton/tri
      stencil: half/bin/3d/newton/tri
      bin: standard
Per MPI rank memory allocation (min/avg/max) = 4.086 | 4.086 | 4.086 Mbytes
Step Temp PotEng Press Pxx Pyy Pzz Pxy Pxz Pyz Lx Ly Lz Volume 
     100            0   -34.913396   -846657.69   -846657.79   -846657.48   -846657.79 5.9804008e-11 2.7531825e-10 4.8012799e-10     3.481533    3.4815295     3.481533     42.19987 
     101            0   -34.913396   -846657.69   -846657.79   -846657.49   -846657.79 -6.9092493e-12 2.3666288e-10 7.6267245e-11     3.481533    3.4815295     3.481533     42.19987 
     102            0   -34.913396   -846657.69    -846657.8   -846657.49    -846657.8 4.1885652e-11 -2.1231483e-10 4.8684583e-10     3.481533    3.4815295     3.481533     42.19987 
     103            0   -34.913396   -846657.69    -846657.8   -846657.49    -846657.8 -4.8078661e-12 -9.8634319e-11 2.6239094e-10     3.481533    3.4815295     3.481533     42.19987 
     104            0   -34.913396    -846657.7    -846657.8   -846657.49    -846657.8 1.3916261e-10 1.5872132e-10 1.6662878e-10     3.481533    3.4815295     3.481533     42.19987 
     105            0   -34.913396    -846657.7    -846657.8   -846657.49    -846657.8 8.2857479e-11 1.7402067e-10 1.3778159e-10     3.481533    3.4815295     3.481533     42.19987 
     106            0   -34.913396    -846657.7    -846657.8   -846657.49    -846657.8 -6.5112008e-11 7.6628452e-11 -2.739825e-11     3.481533    3.4815295     3.481533     42.19987 
     107            0   -34.913396    -846657.7    -846657.8   -846657.49    -846657.8 4.1879477e-11 3.0971322e-10 -6.3095009e-11     3.481533    3.4815295     3.481533     42.19987 
     108            0   -34.913396    -846657.7    -846657.8   -846657.49    -846657.8 3.3990543e-11 4.2935829e-10 2.3736369e-10     3.481533    3.4815295     3.481533     42.19987 
     109            0   -34.913396    -846657.7    -846657.8   -846657.49    -846657.8 1.9249988e-11 1.982298e-10 8.2458196e-11     3.481533    3.4815295     3.481533     42.19987 
     110            0   -34.913396    -846657.7    -846657.8   -846657.49    -846657.8 6.7338939e-11 2.6815379e-10 2.3117274e-10     3.481533    3.4815295     3.481533     42.19987 
     111            0   -34.913396    -846657.7    -846657.8   -846657.49    -846657.8 1.0554254e-11 -1.233477e-10 3.0796687e-10     3.481533    3.4815295     3.481533     42.19987 
     112            0   -34.913396    -846657.7    -846657.8   -846657.49    -846657.8 -1.1480427e-11 2.9662537e-10 -1.3132719e-10     3.481533    3.4815295     3.481533     42.19987 
     113            0   -34.913396    -846657.7    -846657.8   -846657.49    -846657.8 1.3157829e-11 -4.1921361e-10 6.7178402e-11     3.481533    3.4815295     3.481533     42.19987 
     114            0   -34.913396    -846657.7    -846657.8   -846657.49    -846657.8 -1.0301717e-10 1.836858e-10 -1.4673871e-10     3.481533    3.4815295     3.481533     42.19987 
     115            0   -34.913396    -846657.7    -846657.8   -846657.49    -846657.8 -1.2718205e-10 -1.6053457e-10 -4.4456296e-10     3.481533    3.4815295     3.481533     42.19987 
     116            0   -34.913396    -846657.7    -846657.8   -846657.49    -846657.8 -2.5619999e-11 1.8025793e-10 3.2930589e-12     3.481533    3.4815295     3.481533     42.19987 
     117            0   -34.913396    -846657.7    -846657.8   -846657.49    -846657.8 -8.8809683e-11 2.2804433e-11 8.2326473e-11     3.481533    3.4815295     3.481533     42.19987 
     118            0   -34.913396    -846657.7    -846657.8   -846657.49    -846657.8 -1.3286464e-10 -2.3822709e-10 1.2421418e-10     3.481533    3.4815295     3.481533     42.19987 
     119            0   -34.913396    -846657.7    -846657.8   -846657.49    -846657.8 -3.5562978e-11 2.8001292e-11 -1.1104195e-10     3.481533    3.4815295     3.481533     42.19987 
     120            0   -34.913396    -846657.7    -846657.8   -846657.49    -846657.8 1.4156037e-11 1.8183551e-10 -6.3226732e-12     3.481533    3.4815295     3.481533     42.19987 
     121            0   -34.913396    -846657.7    -846657.8   -846657.49    -846657.8 -8.6284319e-11 1.1137743e-10 -2.2906518e-10     3.481533    3.4815295     3.481533     42.19987 
     122            0   -34.913396    -846657.7    -846657.8   -846657.49    -846657.8 -8.6284319e-11 1.1137743e-10 -2.2906518e-10     3.481533    3.4815295     3.481533     42.19987 
Loop time of 0.000549078 on 1 procs for 22 steps with 4 atoms

0.0% CPU use with 1 MPI tasks x no OpenMP threads

Minimization stats:
  Stopping criterion = linesearch alpha is zero
  Energy initial, next-to-last, final = 
        -34.9133956848     -34.9133956855     -34.9133956855
  Force two-norm initial, final = 1.53137e-05 2.46149e-07
  Force max component initial, final = 4.42137e-06 7.10766e-08
  Final line search alpha, max atom move = 0.5 3.55383e-08
  Iterations, force evaluations = 22 23

MPI task timing breakdown:
Section |  min time  |  avg time  |  max time  |%varavg| %total
---------------------------------------------------------------
Pair    | 0.0002389  | 0.0002389  | 0.0002389  |   0.0 | 43.51
Neigh   | 0          | 0          | 0          |   0.0 |  0.00
Comm    | 4.8637e-05 | 4.8637e-05 | 4.8637e-05 |   0.0 |  8.86
Output  | 0.00023127 | 0.00023127 | 0.00023127 |   0.0 | 42.12
Modify  | 0          | 0          | 0          |   0.0 |  0.00
Other   |            | 3.028e-05  |            |       |  5.51

Nlocal:    4 ave 4 max 4 min
Histogram: 1 0 0 0 0 0 0 0 0 0
Nghost:    360 ave 360 max 360 min
Histogram: 1 0 0 0 0 0 0 0 0 0
Neighs:    156 ave 156 max 156 min
Histogram: 1 0 0 0 0 0 0 0 0 0

Total # of neighbors = 156
Ave neighs/atom = 39
Neighbor list builds = 0
Dangerous builds = 0

# Obtain new stress tensor

variable tmp equal pxx
variable pxx1 equal ${tmp}
variable pxx1 equal -846657.799601168
variable tmp equal pyy
variable pyy1 equal ${tmp}
variable pyy1 equal -846657.492157937
variable tmp equal pzz
variable pzz1 equal ${tmp}
variable pzz1 equal -846657.799601168
variable tmp equal pxy
variable pxy1 equal ${tmp}
variable pxy1 equal -8.62843186920461e-11
variable tmp equal pxz
variable pxz1 equal ${tmp}
variable pxz1 equal 1.11377427808603e-10
variable tmp equal pyz
variable pyz1 equal ${tmp}
variable pyz1 equal -2.29065179809412e-10

# Compute elastic constant from pressure tensor

variable C1neg equal ${d1}
variable C1neg equal -14.0658474061638
variable C2neg equal ${d2}
variable C2neg equal 16.6784756933339
variable C3neg equal ${d3}
variable C3neg equal -14.0658474061638
variable C4neg equal ${d4}
variable C4neg equal -2.54355847171627e-08
variable C5neg equal ${d5}
variable C5neg equal -2.1398575843028e-09
variable C6neg equal ${d6}
variable C6neg equal -1.2316654192861e-08

# Reset box and simulation parameters

clear
read_restart restart.equil remap
  triclinic box = (0.0175835 0.0175835 0.0175835) to (3.49912 3.49912 3.49912) with tilt (0 -0 0)
  1 by 1 by 1 MPI processor grid
  4 atoms
include potential.mod
mass 1 58.6934

group Ni type 1
4 atoms in group Ni

pair_style eam/alloy
pair_coeff * * /ufrc/phillpot/eragasa/pareto_optimization_3.5NN/rank_30/Ni_fcc.lmps_elastic/Ni.eam.alloy Ni

neighbor 1.0 bin
neigh_modify every 1 delay 0 check yes
thermo	1
thermo_style custom step temp pe press pxx pyy pzz pxy pxz pyz lx ly lz vol
thermo_modify norm no

# Positive deformation

variable delta equal ${up}*${len0}
variable delta equal 1e-06*${len0}
variable delta equal 1e-06*3.48153300000002
if "${dir} == 1" then    "change_box all x delta 0 ${delta} remap units box"
if "${dir} == 2" then    "change_box all y delta 0 ${delta} remap units box"
change_box all y delta 0 ${delta} remap units box
change_box all y delta 0 3.48153300000002e-06 remap units box
  triclinic box = (0.0175835 0.0175835 0.0175835) to (3.49912 3.49912 3.49912) with tilt (0 -0 0)
if "${dir} == 3" then    "change_box all z delta 0 ${delta} remap units box"
if "${dir} == 4" then    "change_box all yz delta ${delta} remap units box"
if "${dir} == 5" then    "change_box all xz delta ${delta} remap units box"
if "${dir} == 6" then    "change_box all xy delta ${delta} remap units box"

# Relax atoms positions

minimize ${etol} ${ftol} ${maxiter} ${maxeval}
minimize 0 ${ftol} ${maxiter} ${maxeval}
minimize 0 1e-10 ${maxiter} ${maxeval}
minimize 0 1e-10 100 ${maxeval}
minimize 0 1e-10 100 1000
Neighbor list info ...
  update every 1 steps, delay 0 steps, check yes
  max neighbors/atom: 2000, page size: 100000
  master list distance cutoff = 5.64464
  ghost atom cutoff = 5.64464
  binsize = 2.82232, bins = 2 2 2
  1 neighbor lists, perpetual/occasional/extra = 1 0 0
  (1) pair eam/alloy, perpetual
      attributes: half, newton on
      pair build: half/bin/newton/tri
      stencil: half/bin/3d/newton/tri
      bin: standard
Per MPI rank memory allocation (min/avg/max) = 4.086 | 4.086 | 4.086 Mbytes
Step Temp PotEng Press Pxx Pyy Pzz Pxy Pxz Pyz Lx Ly Lz Volume 
     100            0   -34.913351   -846657.63   -846657.53   -846657.83   -846657.53 3.8960926e-11 -7.1809123e-11 9.747435e-12     3.481533    3.4815365     3.481533    42.199954 
     101            0   -34.913351   -846657.63   -846657.53   -846657.84   -846657.53  9.02461e-11 2.8161669e-10 3.0757109e-10     3.481533    3.4815365     3.481533    42.199954 
     102            0   -34.913351   -846657.63   -846657.53   -846657.84   -846657.53 -3.4046045e-11 2.0759196e-10 2.8069978e-10     3.481533    3.4815365     3.481533    42.199954 
     103            0   -34.913351   -846657.64   -846657.53   -846657.84   -846657.53 9.1522158e-11 1.530868e-10 2.426321e-10     3.481533    3.4815365     3.481533    42.199954 
     104            0   -34.913351   -846657.64   -846657.53   -846657.84   -846657.53 1.0431567e-10 -1.1594632e-11 6.9997121e-10     3.481533    3.4815365     3.481533    42.199954 
     105            0   -34.913351   -846657.64   -846657.53   -846657.84   -846657.53 -9.9553089e-11 2.0292612e-10 -2.8570522e-10     3.481533    3.4815365     3.481533    42.199954 
     106            0   -34.913351   -846657.64   -846657.53   -846657.84   -846657.53 -2.2853783e-11 -9.6929967e-11 -4.0425511e-10     3.481533    3.4815365     3.481533    42.199954 
     107            0   -34.913351   -846657.64   -846657.53   -846657.84   -846657.53 -2.066802e-11 -2.5018657e-10 1.1367617e-10     3.481533    3.4815365     3.481533    42.199954 
     108            0   -34.913351   -846657.64   -846657.53   -846657.84   -846657.53 4.4478847e-11 1.5947326e-10 2.8280734e-10     3.481533    3.4815365     3.481533    42.199954 
     109            0   -34.913351   -846657.64   -846657.54   -846657.84   -846657.54 -4.0926466e-11 1.6868043e-10 -2.3802182e-10     3.481533    3.4815365     3.481533    42.199954 
     110            0   -34.913351   -846657.64   -846657.54   -846657.84   -846657.54 5.3652055e-11 2.3545324e-10 2.9900915e-10     3.481533    3.4815365     3.481533    42.199954 
     111            0   -34.913351   -846657.64   -846657.54   -846657.84   -846657.54 7.3206612e-11 2.437682e-10 3.1626475e-10     3.481533    3.4815365     3.481533    42.199954 
     112            0   -34.913351   -846657.64   -846657.54   -846657.84   -846657.54 1.2042281e-11 -1.7699127e-11 -2.3709977e-12     3.481533    3.4815365     3.481533    42.199954 
     113            0   -34.913351   -846657.64   -846657.54   -846657.84   -846657.54 4.1208434e-11 1.4716651e-10 -3.242998e-10     3.481533    3.4815365     3.481533    42.199954 
     114            0   -34.913351   -846657.64   -846657.54   -846657.84   -846657.54 -9.2617097e-11 4.8991357e-11 1.925777e-10     3.481533    3.4815365     3.481533    42.199954 
     115            0   -34.913351   -846657.64   -846657.54   -846657.84   -846657.54 5.7854814e-11 -1.638983e-10 2.4434448e-10     3.481533    3.4815365     3.481533    42.199954 
     116            0   -34.913351   -846657.64   -846657.54   -846657.84   -846657.54 5.2472731e-11 -1.3050058e-10 2.0298375e-10     3.481533    3.4815365     3.481533    42.199954 
     117            0   -34.913351   -846657.64   -846657.54   -846657.84   -846657.54 -1.1336333e-10 3.9971481e-11 -1.9758314e-12     3.481533    3.4815365     3.481533    42.199954 
     118            0   -34.913351   -846657.64   -846657.54   -846657.84   -846657.54 -1.6511982e-10 3.465032e-10 3.2140191e-11     3.481533    3.4815365     3.481533    42.199954 
     119            0   -34.913351   -846657.64   -846657.54   -846657.84   -846657.54 -1.4652025e-11 -3.1533137e-10 -1.5279763e-10     3.481533    3.4815365     3.481533    42.199954 
     120            0   -34.913351   -846657.64   -846657.54   -846657.84   -846657.54 -5.5150394e-11 1.8482359e-10 9.9977069e-11     3.481533    3.4815365     3.481533    42.199954 
     121            0   -34.913351   -846657.64   -846657.54   -846657.84   -846657.54 6.6643147e-11 -2.528066e-10 1.949487e-10     3.481533    3.4815365     3.481533    42.199954 
     122            0   -34.913351   -846657.64   -846657.54   -846657.84   -846657.54 6.6643147e-11 -2.528066e-10 1.949487e-10     3.481533    3.4815365     3.481533    42.199954 
Loop time of 0.000490904 on 1 procs for 22 steps with 4 atoms

100.2% CPU use with 1 MPI tasks x no OpenMP threads

Minimization stats:
  Stopping criterion = linesearch alpha is zero
  Energy initial, next-to-last, final = 
        -34.9133510844     -34.9133510851     -34.9133510851
  Force two-norm initial, final = 1.53033e-05 2.4675e-07
  Force max component initial, final = 4.41802e-06 7.12693e-08
  Final line search alpha, max atom move = 0.5 3.56347e-08
  Iterations, force evaluations = 22 23

MPI task timing breakdown:
Section |  min time  |  avg time  |  max time  |%varavg| %total
---------------------------------------------------------------
Pair    | 0.00023675 | 0.00023675 | 0.00023675 |   0.0 | 48.23
Neigh   | 0          | 0          | 0          |   0.0 |  0.00
Comm    | 5.2452e-05 | 5.2452e-05 | 5.2452e-05 |   0.0 | 10.68
Output  | 0.00016999 | 0.00016999 | 0.00016999 |   0.0 | 34.63
Modify  | 0          | 0          | 0          |   0.0 |  0.00
Other   |            | 3.171e-05  |            |       |  6.46

Nlocal:    4 ave 4 max 4 min
Histogram: 1 0 0 0 0 0 0 0 0 0
Nghost:    360 ave 360 max 360 min
Histogram: 1 0 0 0 0 0 0 0 0 0
Neighs:    156 ave 156 max 156 min
Histogram: 1 0 0 0 0 0 0 0 0 0

Total # of neighbors = 156
Ave neighs/atom = 39
Neighbor list builds = 0
Dangerous builds = 0

# Obtain new stress tensor

variable tmp equal pe
variable e1 equal ${tmp}
variable e1 equal -34.9133510850712
variable tmp equal press
variable p1 equal ${tmp}
variable p1 equal -846657.637756092
variable tmp equal pxx
variable pxx1 equal ${tmp}
variable pxx1 equal -846657.535275783
variable tmp equal pyy
variable pyy1 equal ${tmp}
variable pyy1 equal -846657.842716711
variable tmp equal pzz
variable pzz1 equal ${tmp}
variable pzz1 equal -846657.535275783
variable tmp equal pxy
variable pxy1 equal ${tmp}
variable pxy1 equal 6.66431469952428e-11
variable tmp equal pxz
variable pxz1 equal ${tmp}
variable pxz1 equal -2.52806600066281e-10
variable tmp equal pyz
variable pyz1 equal ${tmp}
variable pyz1 equal 1.94948699301711e-10

# Compute elastic constant from pressure tensor

variable C1pos equal ${d1}
variable C1pos equal -12.3666910920292
variable C2pos equal ${d2}
variable C2pos equal 18.3774017030373
variable C3pos equal ${d3}
variable C3pos equal -12.3666910920292
variable C4pos equal ${d4}
variable C4pos equal -1.69658031939496e-08
variable C5pos equal ${d5}
variable C5pos equal 3.85582603717912e-08
variable C6pos equal ${d6}
variable C6pos equal -2.97609237586787e-09

# Combine positive and negative

variable C1${dir} equal 0.5*(${C1neg}+${C1pos})
variable C12 equal 0.5*(${C1neg}+${C1pos})
variable C12 equal 0.5*(-14.0658474061638+${C1pos})
variable C12 equal 0.5*(-14.0658474061638+-12.3666910920292)
variable C2${dir} equal 0.5*(${C2neg}+${C2pos})
variable C22 equal 0.5*(${C2neg}+${C2pos})
variable C22 equal 0.5*(16.6784756933339+${C2pos})
variable C22 equal 0.5*(16.6784756933339+18.3774017030373)
variable C3${dir} equal 0.5*(${C3neg}+${C3pos})
variable C32 equal 0.5*(${C3neg}+${C3pos})
variable C32 equal 0.5*(-14.0658474061638+${C3pos})
variable C32 equal 0.5*(-14.0658474061638+-12.3666910920292)
variable C4${dir} equal 0.5*(${C4neg}+${C4pos})
variable C42 equal 0.5*(${C4neg}+${C4pos})
variable C42 equal 0.5*(-2.54355847171627e-08+${C4pos})
variable C42 equal 0.5*(-2.54355847171627e-08+-1.69658031939496e-08)
variable C5${dir} equal 0.5*(${C5neg}+${C5pos})
variable C52 equal 0.5*(${C5neg}+${C5pos})
variable C52 equal 0.5*(-2.1398575843028e-09+${C5pos})
variable C52 equal 0.5*(-2.1398575843028e-09+3.85582603717912e-08)
variable C6${dir} equal 0.5*(${C6neg}+${C6pos})
variable C62 equal 0.5*(${C6neg}+${C6pos})
variable C62 equal 0.5*(-1.2316654192861e-08+${C6pos})
variable C62 equal 0.5*(-1.2316654192861e-08+-2.97609237586787e-09)

# Delete dir to make sure it is not reused

variable dir delete
# ---- uzz Perturbation
variable dir equal 3
include displace.mod
# NOTE: This script should not need to be
# modified. See in.elastic for more info.
# Find which reference length to use

if "${dir} == 1" then    "variable len0 equal ${lx0}"
if "${dir} == 2" then    "variable len0 equal ${ly0}"
if "${dir} == 3" then    "variable len0 equal ${lz0}"
variable len0 equal ${lz0}
variable len0 equal 3.48153300000002
if "${dir} == 4" then    "variable len0 equal ${lz0}"
if "${dir} == 5" then    "variable len0 equal ${lz0}"
if "${dir} == 6" then    "variable len0 equal ${ly0}"

# Reset box and simulation parameters

clear
read_restart restart.equil remap
  triclinic box = (0.0175835 0.0175835 0.0175835) to (3.49912 3.49912 3.49912) with tilt (0 -0 0)
  1 by 1 by 1 MPI processor grid
  4 atoms
include potential.mod
mass 1 58.6934

group Ni type 1
4 atoms in group Ni

pair_style eam/alloy
pair_coeff * * /ufrc/phillpot/eragasa/pareto_optimization_3.5NN/rank_30/Ni_fcc.lmps_elastic/Ni.eam.alloy Ni

neighbor 1.0 bin
neigh_modify every 1 delay 0 check yes
thermo	1
thermo_style custom step temp pe press pxx pyy pzz pxy pxz pyz lx ly lz vol
thermo_modify norm no

# Negative deformation

variable delta equal -${up}*${len0}
variable delta equal -1e-06*${len0}
variable delta equal -1e-06*3.48153300000002
if "${dir} == 1" then    "change_box all x delta 0 ${delta} remap units box"
if "${dir} == 2" then    "change_box all y delta 0 ${delta} remap units box"
if "${dir} == 3" then    "change_box all z delta 0 ${delta} remap units box"
change_box all z delta 0 ${delta} remap units box
change_box all z delta 0 -3.48153300000002e-06 remap units box
  triclinic box = (0.0175835 0.0175835 0.0175835) to (3.49912 3.49912 3.49911) with tilt (0 -0 0)
if "${dir} == 4" then    "change_box all yz delta ${delta} remap units box"
if "${dir} == 5" then    "change_box all xz delta ${delta} remap units box"
if "${dir} == 6" then    "change_box all xy delta ${delta} remap units box"

# Relax atoms positions

minimize ${etol} ${ftol} ${maxiter} ${maxeval}
minimize 0 ${ftol} ${maxiter} ${maxeval}
minimize 0 1e-10 ${maxiter} ${maxeval}
minimize 0 1e-10 100 ${maxeval}
minimize 0 1e-10 100 1000
Neighbor list info ...
  update every 1 steps, delay 0 steps, check yes
  max neighbors/atom: 2000, page size: 100000
  master list distance cutoff = 5.64464
  ghost atom cutoff = 5.64464
  binsize = 2.82232, bins = 2 2 2
  1 neighbor lists, perpetual/occasional/extra = 1 0 0
  (1) pair eam/alloy, perpetual
      attributes: half, newton on
      pair build: half/bin/newton/tri
      stencil: half/bin/3d/newton/tri
      bin: standard
Per MPI rank memory allocation (min/avg/max) = 4.086 | 4.086 | 4.086 Mbytes
Step Temp PotEng Press Pxx Pyy Pzz Pxy Pxz Pyz Lx Ly Lz Volume 
     100            0   -34.913396   -846657.69   -846657.79   -846657.79   -846657.48 3.8384718e-12 1.1505433e-10 1.0445583e-10     3.481533     3.481533    3.4815295     42.19987 
     101            0   -34.913396   -846657.69   -846657.79   -846657.79   -846657.49 -5.9102175e-11 -8.1678153e-11 -2.515897e-11     3.481533     3.481533    3.4815295     42.19987 
     102            0   -34.913396   -846657.69    -846657.8    -846657.8   -846657.49 -1.167801e-11 3.4481929e-10  1.11964e-10     3.481533     3.481533    3.4815295     42.19987 
     103            0   -34.913396   -846657.69    -846657.8    -846657.8   -846657.49 9.657307e-11 2.3620494e-11 1.7347834e-10     3.481533     3.481533    3.4815295     42.19987 
     104            0   -34.913396    -846657.7    -846657.8    -846657.8   -846657.49 1.5681135e-11 2.1779057e-10 -2.1273161e-10     3.481533     3.481533    3.4815295     42.19987 
     105            0   -34.913396    -846657.7    -846657.8    -846657.8   -846657.49 -5.51999e-12 8.729076e-11 -1.1473017e-10     3.481533     3.481533    3.4815295     42.19987 
     106            0   -34.913396    -846657.7    -846657.8    -846657.8   -846657.49 -4.5911416e-11 2.9859297e-10 -2.5659515e-10     3.481533     3.481533    3.4815295     42.19987 
     107            0   -34.913396    -846657.7    -846657.8    -846657.8   -846657.49 5.5294576e-11 -2.8528181e-11 1.5108554e-10     3.481533     3.481533    3.4815295     42.19987 
     108            0   -34.913396    -846657.7    -846657.8    -846657.8   -846657.49 -5.5844105e-11 3.5274939e-10 -1.5029521e-10     3.481533     3.481533    3.4815295     42.19987 
     109            0   -34.913396    -846657.7    -846657.8    -846657.8   -846657.49 -8.9278944e-11 1.377219e-11 -3.040152e-10     3.481533     3.481533    3.4815295     42.19987 
     110            0   -34.913396    -846657.7    -846657.8    -846657.8   -846657.49 -1.0637198e-10 9.6009133e-11 -8.825398e-12     3.481533     3.481533    3.4815295     42.19987 
     111            0   -34.913396    -846657.7    -846657.8    -846657.8   -846657.49 -2.2878527e-11 3.0204554e-11 1.696584e-10     3.481533     3.481533    3.4815295     42.19987 
     112            0   -34.913396    -846657.7    -846657.8    -846657.8   -846657.49 -3.1012383e-11 1.7630729e-10 6.7310125e-11     3.481533     3.481533    3.4815295     42.19987 
     113            0   -34.913396    -846657.7    -846657.8    -846657.8   -846657.49 8.7171386e-11 -8.8512279e-11 1.2039423e-10     3.481533     3.481533    3.4815295     42.19987 
     114            0   -34.913396    -846657.7    -846657.8    -846657.8   -846657.49 2.2429024e-10 1.2792814e-10 -3.7962383e-10     3.481533     3.481533    3.4815295     42.19987 
     115            0   -34.913396    -846657.7    -846657.8    -846657.8   -846657.49 -6.3506642e-11 -6.0412195e-11 -1.620185e-10     3.481533     3.481533    3.4815295     42.19987 
     116            0   -34.913396    -846657.7    -846657.8    -846657.8   -846657.49 -4.7292443e-11 -8.8172682e-11 4.8737272e-12     3.481533     3.481533    3.4815295     42.19987 
     117            0   -34.913396    -846657.7    -846657.8    -846657.8   -846657.49 4.3528065e-11 -6.9668778e-12 -4.6010619e-10     3.481533     3.481533    3.4815295     42.19987 
     118            0   -34.913396    -846657.7    -846657.8    -846657.8   -846657.49 4.9869261e-11 -5.0776911e-11 -4.2678044e-11     3.481533     3.481533    3.4815295     42.19987 
     119            0   -34.913396    -846657.7    -846657.8    -846657.8   -846657.49 -3.3068486e-11 3.3712691e-12 2.3209479e-10     3.481533     3.481533    3.4815295     42.19987 
     120            0   -34.913396    -846657.7    -846657.8    -846657.8   -846657.49 -7.6275478e-12 -9.0025028e-11 -4.0991998e-10     3.481533     3.481533    3.4815295     42.19987 
     121            0   -34.913396    -846657.7    -846657.8    -846657.8   -846657.49 -6.0857787e-11 -3.9322211e-11 -2.4065675e-10     3.481533     3.481533    3.4815295     42.19987 
     122            0   -34.913396    -846657.7    -846657.8    -846657.8   -846657.49 -6.0857787e-11 -3.9322211e-11 -2.4065675e-10     3.481533     3.481533    3.4815295     42.19987 
Loop time of 0.000560999 on 1 procs for 22 steps with 4 atoms

84.3% CPU use with 1 MPI tasks x no OpenMP threads

Minimization stats:
  Stopping criterion = linesearch alpha is zero
  Energy initial, next-to-last, final = 
        -34.9133956848     -34.9133956855     -34.9133956855
  Force two-norm initial, final = 1.53137e-05 2.46149e-07
  Force max component initial, final = 4.42137e-06 7.10766e-08
  Final line search alpha, max atom move = 0.5 3.55383e-08
  Iterations, force evaluations = 22 23

MPI task timing breakdown:
Section |  min time  |  avg time  |  max time  |%varavg| %total
---------------------------------------------------------------
Pair    | 0.00023675 | 0.00023675 | 0.00023675 |   0.0 | 42.20
Neigh   | 0          | 0          | 0          |   0.0 |  0.00
Comm    | 4.8161e-05 | 4.8161e-05 | 4.8161e-05 |   0.0 |  8.58
Output  | 0.0002377  | 0.0002377  | 0.0002377  |   0.0 | 42.37
Modify  | 0          | 0          | 0          |   0.0 |  0.00
Other   |            | 3.839e-05  |            |       |  6.84

Nlocal:    4 ave 4 max 4 min
Histogram: 1 0 0 0 0 0 0 0 0 0
Nghost:    360 ave 360 max 360 min
Histogram: 1 0 0 0 0 0 0 0 0 0
Neighs:    156 ave 156 max 156 min
Histogram: 1 0 0 0 0 0 0 0 0 0

Total # of neighbors = 156
Ave neighs/atom = 39
Neighbor list builds = 0
Dangerous builds = 0

# Obtain new stress tensor

variable tmp equal pxx
variable pxx1 equal ${tmp}
variable pxx1 equal -846657.799601168
variable tmp equal pyy
variable pyy1 equal ${tmp}
variable pyy1 equal -846657.799601168
variable tmp equal pzz
variable pzz1 equal ${tmp}
variable pzz1 equal -846657.492157937
variable tmp equal pxy
variable pxy1 equal ${tmp}
variable pxy1 equal -6.08577873578969e-11
variable tmp equal pxz
variable pxz1 equal ${tmp}
variable pxz1 equal -3.93222109765734e-11
variable tmp equal pyz
variable pyz1 equal ${tmp}
variable pyz1 equal -2.40656747275328e-10

# Compute elastic constant from pressure tensor

variable C1neg equal ${d1}
variable C1neg equal -14.0658474061638
variable C2neg equal ${d2}
variable C2neg equal -14.0658474061638
variable C3neg equal ${d3}
variable C3neg equal 16.6784756933339
variable C4neg equal ${d4}
variable C4neg equal -2.65947414637543e-08
variable C5neg equal ${d5}
variable C5neg equal -1.72098214628204e-08
variable C6neg equal ${d6}
variable C6neg equal -9.7740010594461e-09

# Reset box and simulation parameters

clear
read_restart restart.equil remap
  triclinic box = (0.0175835 0.0175835 0.0175835) to (3.49912 3.49912 3.49912) with tilt (0 -0 0)
  1 by 1 by 1 MPI processor grid
  4 atoms
include potential.mod
mass 1 58.6934

group Ni type 1
4 atoms in group Ni

pair_style eam/alloy
pair_coeff * * /ufrc/phillpot/eragasa/pareto_optimization_3.5NN/rank_30/Ni_fcc.lmps_elastic/Ni.eam.alloy Ni

neighbor 1.0 bin
neigh_modify every 1 delay 0 check yes
thermo	1
thermo_style custom step temp pe press pxx pyy pzz pxy pxz pyz lx ly lz vol
thermo_modify norm no

# Positive deformation

variable delta equal ${up}*${len0}
variable delta equal 1e-06*${len0}
variable delta equal 1e-06*3.48153300000002
if "${dir} == 1" then    "change_box all x delta 0 ${delta} remap units box"
if "${dir} == 2" then    "change_box all y delta 0 ${delta} remap units box"
if "${dir} == 3" then    "change_box all z delta 0 ${delta} remap units box"
change_box all z delta 0 ${delta} remap units box
change_box all z delta 0 3.48153300000002e-06 remap units box
  triclinic box = (0.0175835 0.0175835 0.0175835) to (3.49912 3.49912 3.49912) with tilt (0 -0 0)
if "${dir} == 4" then    "change_box all yz delta ${delta} remap units box"
if "${dir} == 5" then    "change_box all xz delta ${delta} remap units box"
if "${dir} == 6" then    "change_box all xy delta ${delta} remap units box"

# Relax atoms positions

minimize ${etol} ${ftol} ${maxiter} ${maxeval}
minimize 0 ${ftol} ${maxiter} ${maxeval}
minimize 0 1e-10 ${maxiter} ${maxeval}
minimize 0 1e-10 100 ${maxeval}
minimize 0 1e-10 100 1000
Neighbor list info ...
  update every 1 steps, delay 0 steps, check yes
  max neighbors/atom: 2000, page size: 100000
  master list distance cutoff = 5.64464
  ghost atom cutoff = 5.64464
  binsize = 2.82232, bins = 2 2 2
  1 neighbor lists, perpetual/occasional/extra = 1 0 0
  (1) pair eam/alloy, perpetual
      attributes: half, newton on
      pair build: half/bin/newton/tri
      stencil: half/bin/3d/newton/tri
      bin: standard
Per MPI rank memory allocation (min/avg/max) = 4.086 | 4.086 | 4.086 Mbytes
Step Temp PotEng Press Pxx Pyy Pzz Pxy Pxz Pyz Lx Ly Lz Volume 
     100            0   -34.913351   -846657.63   -846657.53   -846657.53   -846657.83 -1.0013761e-10 1.3346947e-10 3.5130283e-10     3.481533     3.481533    3.4815365    42.199954 
     101            0   -34.913351   -846657.63   -846657.53   -846657.53   -846657.84 -9.7599897e-11 -3.3022009e-10 -2.128629e-10     3.481533     3.481533    3.4815365    42.199954 
     102            0   -34.913351   -846657.63   -846657.53   -846657.53   -846657.84 -7.487372e-11 -3.2595353e-10 -3.2495841e-10     3.481533     3.481533    3.4815365    42.199954 
     103            0   -34.913351   -846657.64   -846657.53   -846657.53   -846657.84 -4.4647615e-11 -1.1870116e-10 -9.246891e-11     3.481533     3.481533    3.4815365    42.199954 
     104            0   -34.913351   -846657.64   -846657.53   -846657.53   -846657.84 1.701479e-11 -2.9975009e-10 -1.8836259e-11     3.481533     3.481533    3.4815365    42.199954 
     105            0   -34.913351   -846657.64   -846657.53   -846657.53   -846657.84 -7.9333748e-11 -2.9857077e-10 2.8978861e-11     3.481533     3.481533    3.4815365    42.199954 
     106            0   -34.913351   -846657.64   -846657.53   -846657.53   -846657.84 6.3720563e-12 3.2721621e-11 9.497163e-11     3.481533     3.481533    3.4815365    42.199954 
     107            0   -34.913351   -846657.64   -846657.53   -846657.53   -846657.84 1.9671871e-11 -2.0666991e-11 -8.614625e-11     3.481533     3.481533    3.4815365    42.199954 
     108            0   -34.913351   -846657.64   -846657.53   -846657.53   -846657.84 -3.0637736e-11 -7.8042254e-11 2.8754933e-10     3.481533     3.481533    3.4815365    42.199954 
     109            0   -34.913351   -846657.64   -846657.54   -846657.54   -846657.84 1.2903414e-10 2.015523e-10 4.4996267e-10     3.481533     3.481533    3.4815365    42.199954 
     110            0   -34.913351   -846657.64   -846657.54   -846657.54   -846657.84 1.1696922e-10 -1.0062745e-10 9.5103352e-11     3.481533     3.481533    3.4815365    42.199954 
     111            0   -34.913351   -846657.64   -846657.54   -846657.54   -846657.84 -3.7546971e-11 -2.4459146e-11 6.2567995e-11     3.481533     3.481533    3.4815365    42.199954 
     112            0   -34.913351   -846657.64   -846657.54   -846657.54   -846657.84 -5.9398432e-12 -2.1961881e-10 -7.6925703e-11     3.481533     3.481533    3.4815365    42.199954 
     113            0   -34.913351   -846657.64   -846657.54   -846657.54   -846657.84 -5.2760873e-11 -1.1802917e-10 -2.6660552e-10     3.481533     3.481533    3.4815365    42.199954 
     114            0   -34.913351   -846657.64   -846657.54   -846657.54   -846657.84 5.974626e-11 4.4344449e-10 -2.9308166e-10     3.481533     3.481533    3.4815365    42.199954 
     115            0   -34.913351   -846657.64   -846657.54   -846657.54   -846657.84 -8.4345362e-11 -3.4624387e-11 1.4950458e-10     3.481533     3.481533    3.4815365    42.199954 
     116            0   -34.913351   -846657.64   -846657.54   -846657.54   -846657.84 8.8253803e-11 -1.2950031e-10 2.1378496e-10     3.481533     3.481533    3.4815365    42.199954 
     117            0   -34.913351   -846657.64   -846657.54   -846657.54   -846657.84 6.4107497e-11 -1.6834804e-10  2.26562e-11     3.481533     3.481533    3.4815365    42.199954 
     118            0   -34.913351   -846657.64   -846657.54   -846657.54   -846657.84 2.382688e-10 -4.9875336e-11 -1.1999883e-10     3.481533     3.481533    3.4815365    42.199954 
     119            0   -34.913351   -846657.64   -846657.54   -846657.54   -846657.84 -3.2317193e-11 -6.7015674e-11 2.3709977e-10     3.481533     3.481533    3.4815365    42.199954 
     120            0   -34.913351   -846657.64   -846657.54   -846657.54   -846657.84 -1.2477993e-10 -3.138176e-11 -9.5103352e-11     3.481533     3.481533    3.4815365    42.199954 
     121            0   -34.913351   -846657.64   -846657.54   -846657.54   -846657.84 -6.0188764e-11 8.1574052e-11 5.5455002e-11     3.481533     3.481533    3.4815365    42.199954 
     122            0   -34.913351   -846657.64   -846657.54   -846657.54   -846657.84 -6.5027493e-11 -2.5456427e-10 -4.7828292e-10     3.481533     3.481533    3.4815365    42.199954 
     123            0   -34.913351   -846657.64   -846657.54   -846657.54   -846657.84 -3.6999501e-11 -2.2609892e-10 2.4711065e-10     3.481533     3.481533    3.4815365    42.199954 
     124            0   -34.913351   -846657.64   -846657.54   -846657.54   -846657.84 -3.6999501e-11 -2.2609892e-10 2.4711065e-10     3.481533     3.481533    3.4815365    42.199954 
Loop time of 0.000576973 on 1 procs for 24 steps with 4 atoms

100.2% CPU use with 1 MPI tasks x no OpenMP threads

Minimization stats:
  Stopping criterion = linesearch alpha is zero
  Energy initial, next-to-last, final = 
        -34.9133510844     -34.9133510851     -34.9133510851
  Force two-norm initial, final = 1.53033e-05 1.66548e-07
  Force max component initial, final = 4.41802e-06 4.81077e-08
  Final line search alpha, max atom move = 0.5 2.40539e-08
  Iterations, force evaluations = 24 25

MPI task timing breakdown:
Section |  min time  |  avg time  |  max time  |%varavg| %total
---------------------------------------------------------------
Pair    | 0.00026274 | 0.00026274 | 0.00026274 |   0.0 | 45.54
Neigh   | 0          | 0          | 0          |   0.0 |  0.00
Comm    | 5.4598e-05 | 5.4598e-05 | 5.4598e-05 |   0.0 |  9.46
Output  | 0.00022817 | 0.00022817 | 0.00022817 |   0.0 | 39.55
Modify  | 0          | 0          | 0          |   0.0 |  0.00
[...]
     110            0   -34.913373   -846657.67   -846657.67   -846657.67   -846657.67   0.27293291 1.2500439e-10 4.6629668e-11     3.481533     3.481533     3.481533    42.199912 
     111            0   -34.913373   -846657.67   -846657.67   -846657.67   -846657.67   0.27293281 1.3854708e-10 1.0261161e-10     3.481533     3.481533     3.481533    42.199912 
     112            0   -34.913373   -846657.67   -846657.67   -846657.67   -846657.67   0.27293291 -1.3678118e-10 -2.7134779e-10     3.481533     3.481533     3.481533    42.199912 
     113            0   -34.913373   -846657.67   -846657.67   -846657.67   -846657.67   0.27293282 -3.9455232e-10 1.3923039e-10     3.481533     3.481533     3.481533    42.199912 
     114            0   -34.913373   -846657.67   -846657.67   -846657.67   -846657.67    0.2729329 -1.8775151e-10 -1.695265e-10     3.481533     3.481533     3.481533    42.199912 
     115            0   -34.913373   -846657.67   -846657.67   -846657.67   -846657.67   0.27293282 8.0655165e-11 1.5266606e-10     3.481533     3.481533     3.481533    42.199912 
     116            0   -34.913373   -846657.67   -846657.67   -846657.67   -846657.67    0.2729329 -1.5629048e-10 -2.8939373e-10     3.481533     3.481533     3.481533    42.199912 
     117            0   -34.913373   -846657.67   -846657.67   -846657.67   -846657.67   0.27293282 -6.4507461e-10 -3.3773579e-10     3.481533     3.481533     3.481533    42.199912 
     118            0   -34.913373   -846657.67   -846657.67   -846657.67   -846657.67    0.2729329 6.5928003e-11 -1.4673856e-10     3.481533     3.481533     3.481533    42.199912 
     119            0   -34.913373   -846657.67   -846657.67   -846657.67   -846657.67   0.27293283 -2.9725693e-10 2.779339e-11     3.481533     3.481533     3.481533    42.199912 
     120            0   -34.913373   -846657.67   -846657.67   -846657.67   -846657.67   0.27293289 -1.1471668e-10 -6.3226668e-12     3.481533     3.481533     3.481533    42.199912 
     121            0   -34.913373   -846657.67   -846657.67   -846657.67   -846657.67   0.27293289 -1.1471668e-10 -6.3226668e-12     3.481533     3.481533     3.481533    42.199912 
Loop time of 0.000551939 on 1 procs for 21 steps with 4 atoms

100.0% CPU use with 1 MPI tasks x no OpenMP threads

Minimization stats:
  Stopping criterion = linesearch alpha is zero
  Energy initial, next-to-last, final = 
        -34.9133733846     -34.9133733853     -34.9133733853
  Force two-norm initial, final = 1.53085e-05 3.04208e-07
  Force max component initial, final = 4.41987e-06 1.04433e-07
  Final line search alpha, max atom move = 0.5 5.22164e-08
  Iterations, force evaluations = 21 22

MPI task timing breakdown:
Section |  min time  |  avg time  |  max time  |%varavg| %total
---------------------------------------------------------------
Pair    | 0.00023675 | 0.00023675 | 0.00023675 |   0.0 | 42.89
Neigh   | 0          | 0          | 0          |   0.0 |  0.00
Comm    | 4.2915e-05 | 4.2915e-05 | 4.2915e-05 |   0.0 |  7.78
Output  | 0.00023484 | 0.00023484 | 0.00023484 |   0.0 | 42.55
Modify  | 0          | 0          | 0          |   0.0 |  0.00
Other   |            | 3.743e-05  |            |       |  6.78

Nlocal:    4 ave 4 max 4 min
Histogram: 1 0 0 0 0 0 0 0 0 0
Nghost:    360 ave 360 max 360 min
Histogram: 1 0 0 0 0 0 0 0 0 0
Neighs:    156 ave 156 max 156 min
Histogram: 1 0 0 0 0 0 0 0 0 0

Total # of neighbors = 156
Ave neighs/atom = 39
Neighbor list builds = 0
Dangerous builds = 0

# Obtain new stress tensor

variable tmp equal pxx
variable pxx1 equal ${tmp}
variable pxx1 equal -846657.667438511
variable tmp equal pyy
variable pyy1 equal ${tmp}
variable pyy1 equal -846657.667438119
variable tmp equal pzz
variable pzz1 equal ${tmp}
variable pzz1 equal -846657.667440053
variable tmp equal pxy
variable pxy1 equal ${tmp}
variable pxy1 equal 0.2729328943483
variable tmp equal pxz
variable pxz1 equal ${tmp}
variable pxz1 equal -1.14716680672321e-10
variable tmp equal pyz
variable pyz1 equal ${tmp}
variable pyz1 equal -6.32266684055384e-12

# Compute elastic constant from pressure tensor

variable C1neg equal ${d1}
variable C1neg equal -0.849581707734615
variable C2neg equal ${d2}
variable C2neg equal -0.849542499054223
variable C3neg equal ${d3}
variable C3neg equal -0.849735899828374
variable C4neg equal ${d4}
variable C4neg equal -3.16133342027692e-09
variable C5neg equal ${d5}
variable C5neg equal -2.47492684323952e-08
variable C6neg equal ${d6}
variable C6neg equal 27.2932894311418

# Reset box and simulation parameters

clear
read_restart restart.equil remap
  triclinic box = (0.0175835 0.0175835 0.0175835) to (3.49912 3.49912 3.49912) with tilt (0 -0 0)
  1 by 1 by 1 MPI processor grid
  4 atoms
include potential.mod
mass 1 58.6934

group Ni type 1
4 atoms in group Ni

pair_style eam/alloy
pair_coeff * * /ufrc/phillpot/eragasa/pareto_optimization_3.5NN/rank_30/Ni_fcc.lmps_elastic/Ni.eam.alloy Ni

neighbor 1.0 bin
neigh_modify every 1 delay 0 check yes
thermo	1
thermo_style custom step temp pe press pxx pyy pzz pxy pxz pyz lx ly lz vol
thermo_modify norm no

# Positive deformation

variable delta equal ${up}*${len0}
variable delta equal 1e-06*${len0}
variable delta equal 1e-06*3.48153300000002
if "${dir} == 1" then    "change_box all x delta 0 ${delta} remap units box"
if "${dir} == 2" then    "change_box all y delta 0 ${delta} remap units box"
if "${dir} == 3" then    "change_box all z delta 0 ${delta} remap units box"
if "${dir} == 4" then    "change_box all yz delta ${delta} remap units box"
if "${dir} == 5" then    "change_box all xz delta ${delta} remap units box"
if "${dir} == 6" then    "change_box all xy delta ${delta} remap units box"
change_box all xy delta ${delta} remap units box
change_box all xy delta 3.48153300000002e-06 remap units box
  triclinic box = (0.0175835 0.0175835 0.0175835) to (3.49912 3.49912 3.49912) with tilt (3.48153e-06 -0 0)

# Relax atoms positions

minimize ${etol} ${ftol} ${maxiter} ${maxeval}
minimize 0 ${ftol} ${maxiter} ${maxeval}
minimize 0 1e-10 ${maxiter} ${maxeval}
minimize 0 1e-10 100 ${maxeval}
minimize 0 1e-10 100 1000
Neighbor list info ...
  update every 1 steps, delay 0 steps, check yes
  max neighbors/atom: 2000, page size: 100000
  master list distance cutoff = 5.64464
  ghost atom cutoff = 5.64464
  binsize = 2.82232, bins = 2 2 2
  1 neighbor lists, perpetual/occasional/extra = 1 0 0
  (1) pair eam/alloy, perpetual
      attributes: half, newton on
      pair build: half/bin/newton/tri
      stencil: half/bin/3d/newton/tri
      bin: standard
Per MPI rank memory allocation (min/avg/max) = 4.086 | 4.086 | 4.086 Mbytes
Step Temp PotEng Press Pxx Pyy Pzz Pxy Pxz Pyz Lx Ly Lz Volume 
     100            0   -34.913373   -846657.66   -846657.66   -846657.66   -846657.66  -0.27293286 -7.5917282e-11 -5.7299168e-11     3.481533     3.481533     3.481533    42.199912 
     101            0   -34.913373   -846657.66   -846657.66   -846657.66   -846657.66  -0.27293274 -2.5077339e-10 -1.8480628e-10     3.481533     3.481533     3.481533    42.199912 
     102            0   -34.913373   -846657.66   -846657.66   -846657.66   -846657.66  -0.27293289 1.7629168e-11 -4.6102779e-10     3.481533     3.481533     3.481533    42.199912 
     103            0   -34.913373   -846657.66   -846657.66   -846657.66   -846657.66  -0.27293278 -2.2091258e-10 2.7740701e-10     3.481533     3.481533     3.481533    42.199912 
     104            0   -34.913373   -846657.67   -846657.67   -846657.67   -846657.67  -0.27293291 -7.1715548e-11 -2.1918578e-10     3.481533     3.481533     3.481533    42.199912 
     105            0   -34.913373   -846657.67   -846657.67   -846657.67   -846657.67  -0.27293279 2.7209284e-10 -2.4500334e-11     3.481533     3.481533     3.481533    42.199912 
     106            0   -34.913373   -846657.67   -846657.67   -846657.67   -846657.67  -0.27293291 -1.3930243e-10 -2.4816467e-10     3.481533     3.481533     3.481533    42.199912 
     107            0   -34.913373   -846657.67   -846657.67   -846657.67   -846657.67   -0.2729328 1.0006773e-10 1.8638695e-10     3.481533     3.481533     3.481533    42.199912 
     108            0   -34.913373   -846657.67   -846657.67   -846657.67   -846657.67  -0.27293291 -4.6900728e-10 -1.80196e-10     3.481533     3.481533     3.481533    42.199912 
     109            0   -34.913373   -846657.67   -846657.67   -846657.67   -846657.67  -0.27293281 -1.8549371e-10 -1.5516878e-10     3.481533     3.481533     3.481533    42.199912 
     110            0   -34.913373   -846657.67   -846657.67   -846657.67   -846657.67  -0.27293291 1.192045e-10 7.4159613e-11     3.481533     3.481533     3.481533    42.199912 
     111            0   -34.913373   -846657.67   -846657.67   -846657.67   -846657.67  -0.27293281 -2.1938234e-10 -8.9439391e-11     3.481533     3.481533     3.481533    42.199912 
     112            0   -34.913373   -846657.67   -846657.67   -846657.67   -846657.67  -0.27293291 4.8636374e-11 1.2368717e-10     3.481533     3.481533     3.481533    42.199912 
     113            0   -34.913373   -846657.67   -846657.67   -846657.67   -846657.67  -0.27293282 5.2377079e-11 -3.3799923e-10     3.481533     3.481533     3.481533    42.199912 
     114            0   -34.913373   -846657.67   -846657.67   -846657.67   -846657.67   -0.2729329 3.7201341e-10 5.031789e-11     3.481533     3.481533     3.481533    42.199912 
     115            0   -34.913373   -846657.67   -846657.67   -846657.67   -846657.67  -0.27293282 -4.9777623e-11 -3.1876779e-11     3.481533     3.481533     3.481533    42.199912 
     116            0   -34.913373   -846657.67   -846657.67   -846657.67   -846657.67   -0.2729329 -3.6603445e-10  1.54115e-11     3.481533     3.481533     3.481533    42.199912 
     117            0   -34.913373   -846657.67   -846657.67   -846657.67   -846657.67  -0.27293282 6.9368217e-11 1.6913134e-10     3.481533     3.481533     3.481533    42.199912 
     118            0   -34.913373   -846657.67   -846657.67   -846657.67   -846657.67   -0.2729329 9.3295354e-11 6.1909446e-11     3.481533     3.481533     3.481533    42.199912 
     119            0   -34.913373   -846657.67   -846657.67   -846657.67   -846657.67  -0.27293283 -7.2184912e-10 1.6333556e-11     3.481533     3.481533     3.481533    42.199912 
     120            0   -34.913373   -846657.67   -846657.67   -846657.67   -846657.67  -0.27293289 1.2383639e-10 8.9307669e-11     3.481533     3.481533     3.481533    42.199912 
     121            0   -34.913373   -846657.67   -846657.67   -846657.67   -846657.67  -0.27293283 -1.557214e-10 4.5510029e-10     3.481533     3.481533     3.481533    42.199912 
     122            0   -34.913373   -846657.67   -846657.67   -846657.67   -846657.67  -0.27293289 5.3788977e-11 2.1339001e-11     3.481533     3.481533     3.481533    42.199912 
     123            0   -34.913373   -846657.67   -846657.67   -846657.67   -846657.67  -0.27293283 1.2012244e-10 -2.1865889e-10     3.481533     3.481533     3.481533    42.199912 
     124            0   -34.913373   -846657.67   -846657.67   -846657.67   -846657.67  -0.27293289 -3.6690609e-10 -4.0965612e-11     3.481533     3.481533     3.481533    42.199912 
     125            0   -34.913373   -846657.67   -846657.67   -846657.67   -846657.67  -0.27293285 3.6039407e-11 9.2600725e-11     3.481533     3.481533     3.481533    42.199912 
     126            0   -34.913373   -846657.67   -846657.67   -846657.67   -846657.67  -0.27293285 3.6039407e-11 9.2600725e-11     3.481533     3.481533     3.481533    42.199912 
Loop time of 0.000634909 on 1 procs for 26 steps with 4 atoms

100.0% CPU use with 1 MPI tasks x no OpenMP threads

Minimization stats:
  Stopping criterion = linesearch alpha is zero
  Energy initial, next-to-last, final = 
        -34.9133733846     -34.9133733853     -34.9133733853
  Force two-norm initial, final = 1.53085e-05 1.11085e-07
  Force max component initial, final = 4.41987e-06 4.54278e-08
  Final line search alpha, max atom move = 0.5 2.27139e-08
  Iterations, force evaluations = 26 27

MPI task timing breakdown:
Section |  min time  |  avg time  |  max time  |%varavg| %total
---------------------------------------------------------------
Pair    | 0.00029302 | 0.00029302 | 0.00029302 |   0.0 | 46.15
Neigh   | 0          | 0          | 0          |   0.0 |  0.00
Comm    | 5.9605e-05 | 5.9605e-05 | 5.9605e-05 |   0.0 |  9.39
Output  | 0.000247   | 0.000247   | 0.000247   |   0.0 | 38.90
Modify  | 0          | 0          | 0          |   0.0 |  0.00
Other   |            | 3.529e-05  |            |       |  5.56

Nlocal:    4 ave 4 max 4 min
Histogram: 1 0 0 0 0 0 0 0 0 0
Nghost:    360 ave 360 max 360 min
Histogram: 1 0 0 0 0 0 0 0 0 0
Neighs:    156 ave 156 max 156 min
Histogram: 1 0 0 0 0 0 0 0 0 0

Total # of neighbors = 156
Ave neighs/atom = 39
Neighbor list builds = 0
Dangerous builds = 0

# Obtain new stress tensor

variable tmp equal pe
variable e1 equal ${tmp}
variable e1 equal -34.9133733852844
variable tmp equal press
variable p1 equal ${tmp}
variable p1 equal -846657.667441787
variable tmp equal pxx
variable pxx1 equal ${tmp}
variable pxx1 equal -846657.667441404
variable tmp equal pyy
variable pyy1 equal ${tmp}
variable pyy1 equal -846657.667441012
variable tmp equal pzz
variable pzz1 equal ${tmp}
variable pzz1 equal -846657.667442945
variable tmp equal pxy
variable pxy1 equal ${tmp}
variable pxy1 equal -0.272932851275766
variable tmp equal pxz
variable pxz1 equal ${tmp}
variable pxz1 equal 3.60394068071348e-11
variable tmp equal pyz
variable pyz1 equal ${tmp}
variable pyz1 equal 9.26007247689448e-11

# Compute elastic constant from pressure tensor

variable C1pos equal ${d1}
variable C1pos equal 0.849870999809355
variable C2pos equal ${d2}
variable C2pos equal 0.849831802770495
variable C3pos equal ${d3}
variable C3pos equal 0.850025098770857
variable C4pos equal ${d4}
variable C4pos equal -6.73100574067294e-09
variable C5pos equal ${d5}
variable C5pos equal 9.67365968444962e-09
variable C6pos equal ${d6}
variable C6pos equal 27.2932851312648

# Combine positive and negative

variable C1${dir} equal 0.5*(${C1neg}+${C1pos})
variable C16 equal 0.5*(${C1neg}+${C1pos})
variable C16 equal 0.5*(-0.849581707734615+${C1pos})
variable C16 equal 0.5*(-0.849581707734615+0.849870999809355)
variable C2${dir} equal 0.5*(${C2neg}+${C2pos})
variable C26 equal 0.5*(${C2neg}+${C2pos})
variable C26 equal 0.5*(-0.849542499054223+${C2pos})
variable C26 equal 0.5*(-0.849542499054223+0.849831802770495)
variable C3${dir} equal 0.5*(${C3neg}+${C3pos})
variable C36 equal 0.5*(${C3neg}+${C3pos})
variable C36 equal 0.5*(-0.849735899828374+${C3pos})
variable C36 equal 0.5*(-0.849735899828374+0.850025098770857)
variable C4${dir} equal 0.5*(${C4neg}+${C4pos})
variable C46 equal 0.5*(${C4neg}+${C4pos})
variable C46 equal 0.5*(-3.16133342027692e-09+${C4pos})
variable C46 equal 0.5*(-3.16133342027692e-09+-6.73100574067294e-09)
variable C5${dir} equal 0.5*(${C5neg}+${C5pos})
variable C56 equal 0.5*(${C5neg}+${C5pos})
variable C56 equal 0.5*(-2.47492684323952e-08+${C5pos})
variable C56 equal 0.5*(-2.47492684323952e-08+9.67365968444962e-09)
variable C6${dir} equal 0.5*(${C6neg}+${C6pos})
variable C66 equal 0.5*(${C6neg}+${C6pos})
variable C66 equal 0.5*(27.2932894311418+${C6pos})
variable C66 equal 0.5*(27.2932894311418+27.2932851312648)

# Delete dir to make sure it is not reused

variable dir delete

# ---- Output final values
variable C11all equal ${C11}
variable C11all equal 17.5279386981856
variable C22all equal ${C22}
variable C22all equal 17.5279386981856
variable C33all equal ${C33}
variable C33all equal 17.5279988965486
variable C12all equal 0.5*(${C12}+${C21})
variable C12all equal 0.5*(-13.2162692490965+${C21})
variable C12all equal 0.5*(-13.2162692490965+-13.2162691967096)
variable C13all equal 0.5*(${C13}+${C31})
variable C13all equal 0.5*(-13.2162090507336+${C31})
variable C13all equal 0.5*(-13.2162090507336+-13.2162691967096)
variable C23all equal 0.5*(${C23}+${C32})
variable C23all equal 0.5*(-13.2162090507336+${C32})
variable C23all equal 0.5*(-13.2162090507336+-13.2162692490965)
variable C44all equal ${C44}
variable C44all equal 27.2932891728744
variable C55all equal ${C55}
variable C55all equal 27.293284158055
variable C66all equal ${C66}
variable C66all equal 27.2932872812033
variable C14all equal 0.5*(${C14}+${C41})
variable C14all equal 0.5*(-0.000129401450977007+${C41})
variable C14all equal 0.5*(-0.000129401450977007+2.52247231984545e-09)
variable C15all equal 0.5*(${C15}+${C51})
variable C15all equal 0.5*(3.15951183439966e-05+${C51})
variable C15all equal 0.5*(3.15951183439966e-05+1.06457291251078e-08)
variable C16all equal 0.5*(${C16}+${C61})
variable C16all equal 0.5*(0.000144646037369967+${C61})
variable C16all equal 0.5*(0.000144646037369967+-7.95684065772448e-09)
variable C24all equal 0.5*(${C24}+${C42})
variable C24all equal 0.5*(-0.000129349064081463+${C42})
variable C24all equal 0.5*(-0.000129349064081463+-2.12006939555561e-08)
variable C25all equal 0.5*(${C25}+${C52})
variable C25all equal 0.5*(3.15951183439966e-05+${C52})
variable C25all equal 0.5*(3.15951183439966e-05+1.82092013937442e-08)
variable C26all equal 0.5*(${C26}+${C62})
variable C26all equal 0.5*(0.000144651858136002+${C62})
variable C26all equal 0.5*(0.000144651858136002+-7.64637328436444e-09)
variable C34all equal 0.5*(${C34}+${C43})
variable C34all equal 0.5*(-0.00012930249795351+${C43})
variable C34all equal 0.5*(-0.00012930249795351+-2.43883697924829e-08)
variable C35all equal 0.5*(${C35}+${C53})
variable C35all equal 0.5*(3.16009391094774e-05+${C53})
variable C35all equal 0.5*(3.16009391094774e-05+9.3388352713727e-09)
variable C36all equal 0.5*(${C36}+${C63})
variable C36all equal 0.5*(0.000144599471241458+${C63})
variable C36all equal 0.5*(0.000144599471241458+-1.19291430067205e-09)
variable C45all equal 0.5*(${C45}+${C54})
variable C45all equal 0.5*(2.48823284620963e-08+${C54})
variable C45all equal 0.5*(2.48823284620963e-08+-3.40509157368219e-08)
variable C46all equal 0.5*(${C46}+${C64})
variable C46all equal 0.5*(-4.94616958047493e-09+${C64})
variable C46all equal 0.5*(-4.94616958047493e-09+-7.18400670799257e-09)
variable C56all equal 0.5*(${C56}+${C65})
variable C56all equal 0.5*(-7.53780437397279e-09+${C65})
variable C56all equal 0.5*(-7.53780437397279e-09+-5.43343890811201e-09)

print "c11 = ${C11all} ${cunits}"
c11 = 17.5279386981856 GPa
print "c22 = ${C22all} ${cunits}"
c22 = 17.5279386981856 GPa
print "c33 = ${C33all} ${cunits}"
c33 = 17.5279988965486 GPa
print "c12 = ${C12all} ${cunits}"
c12 = -13.2162692229031 GPa
print "c13 = ${C13all} ${cunits}"
c13 = -13.2162391237216 GPa
print "c23 = ${C23all} ${cunits}"
c23 = -13.2162391499151 GPa
print "c44 = ${C44all} ${cunits}"
c44 = 27.2932891728744 GPa
print "c55 = ${C55all} ${cunits}"
c55 = 27.293284158055 GPa
print "c66 = ${C66all} ${cunits}"
c66 = 27.2932872812033 GPa
print "c14 = ${C14all} ${cunits}"
c14 = -6.46994642523436e-05 GPa
print "c15 = ${C15all} ${cunits}"
c15 = 1.58028820365609e-05 GPa
print "c16 = ${C16all} ${cunits}"
c16 = 7.23190402646546e-05 GPa
print "c24 = ${C24all} ${cunits}"
c24 = -6.46851323877093e-05 GPa
print "c25 = ${C25all} ${cunits}"
c25 = 1.58066637726952e-05 GPa
print "c26 = ${C26all} ${cunits}"
c26 = 7.23221058813588e-05 GPa
print "c34 = ${C34all} ${cunits}"
c34 = -6.46634431616512e-05 GPa
print "c35 = ${C35all} ${cunits}"
c35 = 1.58051389723744e-05 GPa
print "c36 = ${C36all} ${cunits}"
c36 = 7.22991391635787e-05 GPa
print "c45 = ${C45all} ${cunits}"
c45 = -4.5842936373628e-09 GPa
print "c46 = ${C46all} ${cunits}"
c46 = -6.06508814423375e-09 GPa
print "c56 = ${C56all} ${cunits}"
c56 = -6.4856216410424e-09 GPa
print "lammps_sim_done"
lammps_sim_done
Total wall time: 0:00:00
