# ['Ni']

107 atoms
1 atom types

    0.0000     9.9081 xlo xhi
    0.0000     9.9081 ylo yhi
    0.0000     9.9081 zlo zhi

    0.0000    -0.0000    -0.0000 xy xz yz

Atoms

1 1     1.6513     1.6513     0.0000
2 1     1.6513     0.0000     1.6513
3 1     0.0000     1.6513     1.6513
4 1     0.0000     0.0000     3.3027
5 1     1.6513     1.6513     3.3027
6 1     1.6513     0.0000     4.9540
7 1     0.0000     1.6513     4.9540
8 1     0.0000     0.0000     6.6054
9 1     1.6513     1.6513     6.6054
10 1     1.6513     0.0000     8.2567
11 1     0.0000     1.6513     8.2567
12 1     0.0000     3.3027     0.0000
13 1     1.6513     4.9540     0.0000
14 1     1.6513     3.3027     1.6513
15 1     0.0000     4.9540     1.6513
16 1     0.0000     3.3027     3.3027
17 1     1.6513     4.9540     3.3027
18 1     1.6513     3.3027     4.9540
19 1     0.0000     4.9540     4.9540
20 1     0.0000     3.3027     6.6054
21 1     1.6513     4.9540     6.6054
22 1     1.6513     3.3027     8.2567
23 1     0.0000     4.9540     8.2567
24 1     0.0000     6.6054     0.0000
25 1     1.6513     8.2567     0.0000
26 1     1.6513     6.6054     1.6513
27 1     0.0000     8.2567     1.6513
28 1     0.0000     6.6054     3.3027
29 1     1.6513     8.2567     3.3027
30 1     1.6513     6.6054     4.9540
31 1     0.0000     8.2567     4.9540
32 1     0.0000     6.6054     6.6054
33 1     1.6513     8.2567     6.6054
34 1     1.6513     6.6054     8.2567
35 1     0.0000     8.2567     8.2567
36 1     3.3027     0.0000     0.0000
37 1     4.9540     1.6513     0.0000
38 1     4.9540     0.0000     1.6513
39 1     3.3027     1.6513     1.6513
40 1     3.3027     0.0000     3.3027
41 1     4.9540     1.6513     3.3027
42 1     4.9540     0.0000     4.9540
43 1     3.3027     1.6513     4.9540
44 1     3.3027     0.0000     6.6054
45 1     4.9540     1.6513     6.6054
46 1     4.9540     0.0000     8.2567
47 1     3.3027     1.6513     8.2567
48 1     3.3027     3.3027     0.0000
49 1     4.9540     4.9540     0.0000
50 1     4.9540     3.3027     1.6513
51 1     3.3027     4.9540     1.6513
52 1     3.3027     3.3027     3.3027
53 1     4.9540     4.9540     3.3027
54 1     4.9540     3.3027     4.9540
55 1     3.3027     4.9540     4.9540
56 1     3.3027     3.3027     6.6054
57 1     4.9540     4.9540     6.6054
58 1     4.9540     3.3027     8.2567
59 1     3.3027     4.9540     8.2567
60 1     3.3027     6.6054     0.0000
61 1     4.9540     8.2567     0.0000
62 1     4.9540     6.6054     1.6513
63 1     3.3027     8.2567     1.6513
64 1     3.3027     6.6054     3.3027
65 1     4.9540     8.2567     3.3027
66 1     4.9540     6.6054     4.9540
67 1     3.3027     8.2567     4.9540
68 1     3.3027     6.6054     6.6054
69 1     4.9540     8.2567     6.6054
70 1     4.9540     6.6054     8.2567
71 1     3.3027     8.2567     8.2567
72 1     6.6054     0.0000     0.0000
73 1     8.2567     1.6513     0.0000
74 1     8.2567     0.0000     1.6513
75 1     6.6054     1.6513     1.6513
76 1     6.6054     0.0000     3.3027
77 1     8.2567     1.6513     3.3027
78 1     8.2567     0.0000     4.9540
79 1     6.6054     1.6513     4.9540
80 1     6.6054     0.0000     6.6054
81 1     8.2567     1.6513     6.6054
82 1     8.2567     0.0000     8.2567
83 1     6.6054     1.6513     8.2567
84 1     6.6054     3.3027     0.0000
85 1     8.2567     4.9540     0.0000
86 1     8.2567     3.3027     1.6513
87 1     6.6054     4.9540     1.6513
88 1     6.6054     3.3027     3.3027
89 1     8.2567     4.9540     3.3027
90 1     8.2567     3.3027     4.9540
91 1     6.6054     4.9540     4.9540
92 1     6.6054     3.3027     6.6054
93 1     8.2567     4.9540     6.6054
94 1     8.2567     3.3027     8.2567
95 1     6.6054     4.9540     8.2567
96 1     6.6054     6.6054     0.0000
97 1     8.2567     8.2567     0.0000
98 1     8.2567     6.6054     1.6513
99 1     6.6054     8.2567     1.6513
100 1     6.6054     6.6054     3.3027
101 1     8.2567     8.2567     3.3027
102 1     8.2567     6.6054     4.9540
103 1     6.6054     8.2567     4.9540
104 1     6.6054     6.6054     6.6054
105 1     8.2567     8.2567     6.6054
106 1     8.2567     6.6054     8.2567
107 1     6.6054     8.2567     8.2567
