   2   2   0   0
  0.1090254E+02  0.2793739E-09  0.2793739E-09  0.2793739E-09  0.5000000E-15
  1.000000000000000E-004
  CAR 
 automatically generated by pyflamestk   
     29.88417263     -0.72239570  301      9.21137860      1.00000000
     -0.722  0.0000E+00  0.0000E+00  0.0000E+00  0.0000E+00
     -0.620  0.0000E+00  0.0000E+00  0.0000E+00  0.0000E+00
     -0.518  0.0000E+00  0.0000E+00  0.0000E+00  0.0000E+00
     -0.416  0.0000E+00 -0.2052E-30  0.0000E+00 -0.2094E-31
     -0.314 -0.1730E-27 -0.8411E-27 -0.1765E-28 -0.8583E-28
     -0.212 -0.4649E-24 -0.2040E-23 -0.4745E-25 -0.2082E-24
     -0.110 -0.7389E-21 -0.2927E-20 -0.7543E-22 -0.2988E-21
     -0.008 -0.6942E-18 -0.2481E-17 -0.7090E-19 -0.2534E-18
      0.094 -0.3851E-15 -0.1174E-14 -0.3936E-16 -0.1200E-15
      0.196 -0.1219E-12 -0.3541E-12 -0.1247E-13 -0.3624E-13
      0.298 -0.2330E-10 -0.6100E-10 -0.2390E-11 -0.6259E-11
      0.400 -0.2609E-08 -0.6150E-08 -0.2686E-09 -0.6337E-09
      0.502 -0.1702E-06 -0.3609E-06 -0.1763E-07 -0.3745E-07
      0.604 -0.6419E-05 -0.1221E-04 -0.6725E-06 -0.1283E-05
      0.706 -0.1379E-03 -0.2344E-03 -0.1474E-04 -0.2520E-04
      0.808 -0.1641E-02 -0.2472E-02 -0.1821E-03 -0.2774E-03
      0.910 -0.1013E-01 -0.1321E-01 -0.1216E-02 -0.1626E-02
      1.012 -0.2572E-01 -0.2576E-01 -0.3840E-02 -0.4254E-02
      1.114  0.2010E-01  0.4841E-01 -0.1790E-02  0.6853E-03
      1.216  0.2441E+00  0.3028E+00  0.2311E-01  0.3158E-01
      1.318  0.4919E+00  0.5081E+00  0.7330E-01  0.8341E-01
      1.420  0.4157E+00  0.3637E+00  0.1157E+00  0.1205E+00
      1.522  0.1323E+00  0.8744E-01  0.1292E+00  0.1294E+00
      1.624 -0.1481E-01 -0.2243E-01  0.1277E+00  0.1271E+00
      1.726 -0.2040E-01 -0.1687E-01  0.1256E+00  0.1254E+00
      1.828 -0.5308E-02 -0.3716E-02  0.1251E+00  0.1250E+00
      1.930 -0.6517E-03 -0.4019E-03  0.1250E+00  0.1250E+00
      2.032 -0.4297E-04 -0.2362E-04  0.1250E+00  0.1250E+00
      2.134 -0.1591E-05 -0.7837E-06  0.1250E+00  0.1250E+00
      2.236 -0.3379E-07 -0.1496E-07  0.1250E+00  0.1250E+00
      2.338 -0.4164E-09 -0.1659E-09  0.1250E+00  0.1250E+00
      2.440 -0.1592E-10 -0.6718E-11  0.1250E+00  0.1250E+00
      2.542 -0.1730E-08 -0.8223E-09  0.1250E+00  0.1250E+00
      2.644 -0.1352E-06 -0.7003E-07  0.1250E+00  0.1250E+00
      2.746 -0.6123E-05 -0.3462E-05  0.1250E+00  0.1250E+00
      2.848 -0.1589E-03 -0.9832E-04  0.1250E+00  0.1250E+00
      2.950 -0.2313E-02 -0.1572E-02  0.1247E+00  0.1248E+00
      3.052 -0.1798E-01 -0.1357E-01  0.1229E+00  0.1234E+00
      3.154 -0.6479E-01 -0.5640E-01  0.1163E+00  0.1177E+00
      3.256 -0.3227E-01 -0.5674E-01  0.1130E+00  0.1119E+00
      3.358  0.4503E+00  0.3326E+00  0.1590E+00  0.1458E+00
      3.461  0.1297E+01  0.1178E+01  0.2913E+00  0.2660E+00
      3.563  0.1448E+01  0.1504E+01  0.4390E+00  0.4194E+00
      3.665  0.6700E+00  0.8125E+00  0.5073E+00  0.5023E+00
      3.767  0.3558E-01  0.9612E-01  0.5110E+00  0.5122E+00
      3.869 -0.7555E-01 -0.7814E-01  0.5033E+00  0.5042E+00
      3.971 -0.2777E-01 -0.3446E-01  0.5004E+00  0.5007E+00
      4.073 -0.8688E-02 -0.5973E-02  0.4995E+00  0.5001E+00
      4.175 -0.2880E-01 -0.9284E-03  0.4966E+00  0.5000E+00
      4.277 -0.7621E-01 -0.4819E-02  0.4888E+00  0.4995E+00
      4.379  0.4416E-01 -0.2985E-01  0.4933E+00  0.4964E+00
      4.481  0.6923E+00 -0.7693E-01  0.5640E+00  0.4886E+00
      4.583  0.1458E+01  0.5576E-01  0.7127E+00  0.4943E+00
      4.685  0.1272E+01  0.7213E+00  0.8425E+00  0.5678E+00
      4.787  0.3906E+00  0.1471E+01  0.8823E+00  0.7179E+00
      4.889 -0.1173E+00  0.1256E+01  0.8704E+00  0.8461E+00
      4.991  0.6196E-01  0.4023E+00  0.8767E+00  0.8871E+00
      5.093  0.8255E+00 -0.6780E-01  0.9609E+00  0.8802E+00
      5.195  0.1486E+01 -0.1400E+00  0.1113E+01  0.8659E+00
      5.297  0.1501E+01 -0.3158E-01  0.1266E+01  0.8627E+00
      5.399  0.1635E+01  0.5110E+00  0.1432E+01  0.9148E+00
      5.501  0.2095E+01  0.1392E+01  0.1646E+01  0.1057E+01
      5.603  0.1930E+01  0.2109E+01  0.1843E+01  0.1272E+01
      5.705  0.1024E+01  0.2603E+01  0.1948E+01  0.1538E+01
      5.807  0.4177E+00  0.2305E+01  0.1990E+01  0.1773E+01
      5.909  0.1173E+01  0.1020E+01  0.2110E+01  0.1877E+01
      6.011  0.3050E+01  0.1857E+00  0.2421E+01  0.1896E+01
      6.113  0.4239E+01  0.4347E+00  0.2853E+01  0.1940E+01
      6.215  0.3926E+01  0.9261E+00  0.3254E+01  0.2035E+01
      6.317  0.2893E+01  0.1404E+01  0.3549E+01  0.2178E+01
      6.419  0.1602E+01  0.2169E+01  0.3712E+01  0.2399E+01
      6.521  0.1220E+01  0.2659E+01  0.3837E+01  0.2670E+01
      6.623  0.2444E+01  0.2982E+01  0.4086E+01  0.2975E+01
      6.725  0.3249E+01  0.3431E+01  0.4418E+01  0.3325E+01
      6.827  0.2342E+01  0.2820E+01  0.4657E+01  0.3612E+01
      6.929  0.1784E+01  0.1312E+01  0.4839E+01  0.3746E+01
      7.031  0.3041E+01  0.8838E+00  0.5149E+01  0.3836E+01
      7.133  0.3906E+01  0.1922E+01  0.5547E+01  0.4032E+01
      7.235  0.2663E+01  0.3191E+01  0.5819E+01  0.4358E+01
      7.337  0.9837E+00  0.4031E+01  0.5919E+01  0.4769E+01
      7.439  0.3409E+00  0.4249E+01  0.5954E+01  0.5203E+01
      7.541  0.1557E+00  0.3694E+01  0.5970E+01  0.5580E+01
      7.643  0.2289E+00  0.2326E+01  0.5993E+01  0.5817E+01
      7.745  0.1369E+01  0.7411E+00  0.6133E+01  0.5893E+01
      7.847  0.2915E+01 -0.3378E-01  0.6430E+01  0.5889E+01
      7.949  0.3071E+01  0.6580E-01  0.6744E+01  0.5896E+01
      8.051  0.2669E+01  0.3675E+00  0.7016E+01  0.5933E+01
      8.154  0.3555E+01  0.6475E+00  0.7379E+01  0.5999E+01
      8.256  0.4544E+01  0.1281E+01  0.7842E+01  0.6130E+01
      8.358  0.4370E+01  0.2115E+01  0.8288E+01  0.6346E+01
      8.460  0.4065E+01  0.2631E+01  0.8703E+01  0.6614E+01
      8.562  0.4016E+01  0.2934E+01  0.9112E+01  0.6914E+01
      8.664  0.4285E+01  0.3644E+01  0.9550E+01  0.7285E+01
      8.766  0.4561E+01  0.4798E+01  0.1001E+02  0.7775E+01
      8.868  0.3468E+01  0.5392E+01  0.1037E+02  0.8325E+01
      8.970  0.1425E+01  0.4748E+01  0.1051E+02  0.8809E+01
      9.072  0.9300E-01  0.3291E+01  0.1052E+02  0.9145E+01
      9.174 -0.2219E+00  0.2526E+01  0.1050E+02  0.9403E+01
      9.276 -0.1169E+00  0.2982E+01  0.1049E+02  0.9707E+01
      9.378  0.3819E+00  0.3513E+01  0.1053E+02  0.1007E+02
      9.480  0.1245E+01  0.2966E+01  0.1065E+02  0.1037E+02
      9.582  0.1476E+01  0.1373E+01  0.1081E+02  0.1051E+02
      9.684  0.7334E+00  0.9328E-01  0.1088E+02  0.1052E+02
      9.786  0.6078E-01 -0.2223E+00  0.1089E+02  0.1049E+02
      9.888 -0.7719E-01  0.1408E+00  0.1088E+02  0.1051E+02
      9.990 -0.3045E-01  0.1000E+01  0.1088E+02  0.1061E+02
     10.092 -0.4936E-02  0.1530E+01  0.1088E+02  0.1077E+02
     10.194 -0.4151E-03  0.9897E+00  0.1088E+02  0.1087E+02
     10.296 -0.1934E-04  0.1932E+00  0.1088E+02  0.1089E+02
     10.398 -0.5133E-06 -0.7443E-01  0.1088E+02  0.1088E+02
     10.500 -0.8044E-08 -0.4436E-01  0.1087E+02  0.1088E+02
     10.602 -0.1751E-07 -0.8900E-02  0.1087E+02  0.1088E+02
     10.704 -0.1031E-05 -0.8935E-03  0.1087E+02  0.1088E+02
     10.806 -0.3512E-04 -0.4906E-04  0.1087E+02  0.1088E+02
     10.908 -0.6794E-03 -0.1681E-05  0.1087E+02  0.1087E+02
     11.010 -0.7223E-02 -0.6956E-05  0.1087E+02  0.1087E+02
     11.112 -0.3899E-01 -0.1763E-03  0.1087E+02  0.1087E+02
     11.214 -0.7753E-01 -0.2512E-02  0.1086E+02  0.1087E+02
     11.316  0.1389E+00 -0.1907E-01  0.1088E+02  0.1087E+02
     11.418  0.8964E+00 -0.6651E-01  0.1097E+02  0.1087E+02
     11.520  0.1519E+01 -0.2532E-01  0.1112E+02  0.1086E+02
     11.622  0.1079E+01  0.4779E+00  0.1123E+02  0.1091E+02
     11.724  0.1965E+00  0.1320E+01  0.1125E+02  0.1105E+02
     11.826 -0.9193E-01  0.1419E+01  0.1124E+02  0.1119E+02
     11.928  0.4786E+00  0.5825E+00  0.1129E+02  0.1125E+02
     12.030  0.1546E+01 -0.5777E-01  0.1145E+02  0.1125E+02
     12.132  0.1897E+01  0.1910E+00  0.1164E+02  0.1126E+02
     12.234  0.1042E+01  0.1197E+01  0.1175E+02  0.1139E+02
     12.336  0.1474E+00  0.1896E+01  0.1177E+02  0.1158E+02
     12.438 -0.9335E-01  0.1379E+01  0.1176E+02  0.1172E+02
     12.540 -0.4591E-01  0.4114E+00  0.1175E+02  0.1176E+02
     12.642 -0.8575E-02 -0.3934E-01  0.1175E+02  0.1176E+02
     12.744 -0.8211E-03 -0.6383E-01  0.1175E+02  0.1175E+02
     12.847 -0.4344E-04 -0.1906E-01  0.1175E+02  0.1175E+02
     12.949 -0.1308E-05 -0.2813E-02  0.1175E+02  0.1175E+02
     13.051 -0.2277E-07 -0.2309E-03  0.1175E+02  0.1175E+02
     13.153 -0.2310E-09 -0.1091E-04  0.1175E+02  0.1175E+02
     13.255 -0.1372E-11 -0.3004E-06  0.1175E+02  0.1175E+02
     13.357 -0.4897E-14 -0.4844E-08  0.1175E+02  0.1175E+02
     13.459  0.0000E+00 -0.4587E-10  0.1175E+02  0.1175E+02
     13.561  0.0000E+00 -0.2560E-12  0.1175E+02  0.1175E+02
     13.663  0.0000E+00 -0.8162E-15  0.1175E+02  0.1175E+02
     13.765  0.0000E+00  0.0000E+00  0.1175E+02  0.1175E+02
     13.867  0.0000E+00  0.0000E+00  0.1175E+02  0.1175E+02
     13.969  0.0000E+00  0.0000E+00  0.1175E+02  0.1175E+02
     14.071 -0.8007E-28  0.0000E+00  0.1175E+02  0.1175E+02
     14.173 -0.2362E-24  0.0000E+00  0.1175E+02  0.1175E+02
     14.275 -0.4123E-21 -0.1974E-27  0.1175E+02  0.1175E+02
     14.377 -0.4255E-18 -0.5499E-24  0.1175E+02  0.1175E+02
     14.479 -0.2593E-15 -0.9062E-21  0.1175E+02  0.1175E+02
     14.581 -0.9022E-13 -0.8826E-18  0.1175E+02  0.1175E+02
     14.683 -0.1898E-10 -0.5076E-15  0.1175E+02  0.1175E+02
     14.785 -0.2339E-08 -0.1666E-12  0.1175E+02  0.1175E+02
     14.887 -0.1681E-06 -0.3305E-10  0.1175E+02  0.1175E+02
     14.989 -0.6998E-05 -0.3840E-08  0.1175E+02  0.1175E+02
     15.091 -0.1665E-03 -0.2601E-06  0.1175E+02  0.1175E+02
     15.193 -0.2213E-02 -0.1019E-04  0.1175E+02  0.1175E+02
     15.295 -0.1559E-01 -0.2276E-03  0.1175E+02  0.1175E+02
     15.397 -0.4998E-01 -0.2825E-02  0.1174E+02  0.1175E+02
     15.499 -0.1481E-01 -0.1833E-01  0.1174E+02  0.1175E+02
     15.601  0.3213E+00 -0.5087E-01  0.1177E+02  0.1174E+02
     15.703  0.8898E+00  0.1840E-01  0.1187E+02  0.1174E+02
     15.805  0.1332E+01  0.4143E+00  0.1200E+02  0.1179E+02
     15.907  0.1629E+01  0.8875E+00  0.1217E+02  0.1188E+02
     16.009  0.1458E+01  0.9491E+00  0.1232E+02  0.1197E+02
     16.111  0.6575E+00  0.1088E+01  0.1238E+02  0.1209E+02
     16.213  0.3443E-01  0.1475E+01  0.1239E+02  0.1224E+02
     16.315 -0.7850E-01  0.1156E+01  0.1238E+02  0.1235E+02
     16.417 -0.2917E-01  0.3392E+00  0.1238E+02  0.1239E+02
     16.519 -0.4602E-02 -0.5496E-01  0.1238E+02  0.1238E+02
     16.621 -0.3789E-03 -0.5795E-01  0.1238E+02  0.1238E+02
     16.723 -0.1764E-04 -0.1425E-01  0.1238E+02  0.1238E+02
     16.825 -0.1262E-04 -0.1679E-02  0.1237E+02  0.1238E+02
     16.927 -0.2639E-03 -0.1248E-03  0.1237E+02  0.1237E+02
     17.029 -0.3171E-02 -0.3719E-03  0.1237E+02  0.1237E+02
     17.131 -0.1980E-01 -0.4105E-02  0.1237E+02  0.1237E+02
     17.233 -0.5124E-01 -0.2348E-01  0.1237E+02  0.1237E+02
     17.335  0.3623E-01 -0.5211E-01  0.1237E+02  0.1237E+02
     17.438  0.4778E+00  0.6870E-01  0.1242E+02  0.1237E+02
     17.540  0.9732E+00  0.5512E+00  0.1252E+02  0.1243E+02
     17.642  0.8165E+00  0.1003E+01  0.1260E+02  0.1253E+02
     17.744  0.2663E+00  0.7665E+00  0.1263E+02  0.1261E+02
     17.846  0.1398E+00  0.1885E+00  0.1264E+02  0.1263E+02
     17.948  0.4055E+00 -0.1552E-01  0.1269E+02  0.1263E+02
     18.050  0.4587E+00  0.2149E+00  0.1273E+02  0.1265E+02
     18.152  0.1898E+00  0.4838E+00  0.1275E+02  0.1270E+02
     18.254 -0.2101E-01  0.3946E+00  0.1275E+02  0.1274E+02
     18.356  0.2106E-01  0.9982E-01  0.1275E+02  0.1275E+02
     18.458  0.2892E+00  0.3329E-01  0.1278E+02  0.1275E+02
     18.560  0.5058E+00  0.2848E+00  0.1283E+02  0.1278E+02
     18.662  0.3655E+00  0.5033E+00  0.1287E+02  0.1283E+02
     18.764  0.6961E-01  0.3606E+00  0.1288E+02  0.1287E+02
     18.866 -0.9186E-01  0.7930E-01  0.1287E+02  0.1288E+02
     18.968 -0.2578E-01 -0.6004E-01  0.1286E+02  0.1287E+02
     19.070  0.5345E+00 -0.9470E-01  0.1292E+02  0.1286E+02
     19.172  0.1367E+01  0.1202E+00  0.1306E+02  0.1288E+02
     19.274  0.1393E+01  0.8681E+00  0.1320E+02  0.1296E+02
     19.376  0.5756E+00  0.1517E+01  0.1326E+02  0.1312E+02
     19.478  0.2828E-02  0.1128E+01  0.1326E+02  0.1323E+02
     19.580 -0.7178E-01  0.2907E+00  0.1325E+02  0.1326E+02
     19.682 -0.2315E-01 -0.6339E-01  0.1325E+02  0.1326E+02
     19.784 -0.3306E-02 -0.5303E-01  0.1325E+02  0.1325E+02
     19.886 -0.2510E-03 -0.1211E-01  0.1325E+02  0.1325E+02
     19.988 -0.7025E-04 -0.1348E-02  0.1325E+02  0.1325E+02
     20.090 -0.1061E-02 -0.1129E-03  0.1325E+02  0.1325E+02
     20.192 -0.1037E-01 -0.6321E-03  0.1325E+02  0.1325E+02
     20.294 -0.5167E-01 -0.6963E-02  0.1324E+02  0.1325E+02
     20.396 -0.9490E-01 -0.4022E-01  0.1323E+02  0.1325E+02
     20.498  0.1753E+00 -0.9697E-01  0.1325E+02  0.1324E+02
     20.600  0.1111E+01  0.7118E-01  0.1337E+02  0.1324E+02
     20.702  0.2072E+01  0.8936E+00  0.1358E+02  0.1333E+02
     20.804  0.1915E+01  0.1970E+01  0.1377E+02  0.1353E+02
     20.906  0.8816E+00  0.2060E+01  0.1386E+02  0.1374E+02
     21.008  0.3925E+00  0.1071E+01  0.1390E+02  0.1385E+02
     21.110  0.9998E+00  0.4061E+00  0.1400E+02  0.1390E+02
     21.212  0.1480E+01  0.8942E+00  0.1415E+02  0.1399E+02
     21.314  0.9085E+00  0.1476E+01  0.1425E+02  0.1414E+02
     21.416  0.1496E+00  0.1017E+01  0.1426E+02  0.1424E+02
     21.518 -0.7712E-01  0.2175E+00  0.1425E+02  0.1426E+02
     21.620 -0.4020E-01 -0.7225E-01  0.1425E+02  0.1426E+02
     21.722 -0.7581E-02 -0.4677E-01  0.1425E+02  0.1425E+02
     21.824 -0.7237E-03 -0.9726E-02  0.1425E+02  0.1425E+02
     21.926 -0.3793E-04 -0.1005E-02  0.1425E+02  0.1425E+02
     22.028 -0.1128E-05 -0.5665E-04  0.1425E+02  0.1425E+02
     22.131 -0.1954E-07 -0.1807E-05  0.1425E+02  0.1425E+02
     22.233 -0.2042E-07 -0.3365E-07  0.1425E+02  0.1425E+02
     22.335 -0.1173E-05 -0.4427E-07  0.1425E+02  0.1425E+02
     22.437 -0.3922E-04 -0.2307E-05  0.1425E+02  0.1425E+02
     22.539 -0.7438E-03 -0.6973E-04  0.1425E+02  0.1425E+02
     22.641 -0.7741E-02 -0.1190E-02  0.1425E+02  0.1425E+02
     22.743 -0.4072E-01 -0.1104E-01  0.1424E+02  0.1425E+02
     22.845 -0.7681E-01 -0.5034E-01  0.1424E+02  0.1424E+02
     22.947  0.1559E+00 -0.6768E-01  0.1425E+02  0.1424E+02
     23.049  0.9274E+00  0.2591E+00  0.1435E+02  0.1426E+02
     23.151  0.1527E+01  0.1087E+01  0.1450E+02  0.1437E+02
     23.253  0.1073E+01  0.1525E+01  0.1461E+02  0.1453E+02
     23.355  0.2491E+00  0.9130E+00  0.1464E+02  0.1462E+02
     23.457 -0.6890E-01  0.1478E+00  0.1463E+02  0.1464E+02
     23.559 -0.4947E-01 -0.7719E-01  0.1463E+02  0.1463E+02
     23.661 -0.1071E-01 -0.3990E-01  0.1463E+02  0.1463E+02
     23.763 -0.1142E-02 -0.7494E-02  0.1463E+02  0.1463E+02
     23.865 -0.6631E-04 -0.7128E-03  0.1463E+02  0.1463E+02
     23.967 -0.2175E-05 -0.3724E-04  0.1463E+02  0.1463E+02
     24.069 -0.4103E-07 -0.1104E-05  0.1463E+02  0.1463E+02
     24.171 -0.4499E-09 -0.1886E-07  0.1463E+02  0.1463E+02
     24.273 -0.2341E-10 -0.1881E-09  0.1462E+02  0.1463E+02
     24.375 -0.2618E-08 -0.9184E-10  0.1462E+02  0.1462E+02
     24.477 -0.1949E-06 -0.9878E-08  0.1462E+02  0.1462E+02
     24.579 -0.8401E-05 -0.6264E-06  0.1462E+02  0.1462E+02
     24.681 -0.2072E-03 -0.2294E-04  0.1462E+02  0.1462E+02
     24.783 -0.2857E-02 -0.4782E-03  0.1462E+02  0.1462E+02
     24.885 -0.2090E-01 -0.5510E-02  0.1462E+02  0.1462E+02
     24.987 -0.6908E-01 -0.3275E-01  0.1462E+02  0.1462E+02
     25.089 -0.1316E-01 -0.7791E-01  0.1461E+02  0.1461E+02
     25.191  0.5226E+00  0.8078E-01  0.1467E+02  0.1462E+02
     25.293  0.1356E+01  0.7794E+00  0.1481E+02  0.1470E+02
     25.395  0.1403E+01  0.1493E+01  0.1495E+02  0.1485E+02
     25.497  0.5910E+00  0.1207E+01  0.1501E+02  0.1498E+02
     25.599 -0.2117E-03  0.3573E+00  0.1501E+02  0.1501E+02
     25.701 -0.1149E+00 -0.6283E-01  0.1500E+02  0.1501E+02
     25.803 -0.9971E-01 -0.1080E+00  0.1499E+02  0.1500E+02
     25.905  0.1697E+00 -0.8325E-01  0.1500E+02  0.1499E+02
     26.007  0.9567E+00  0.2487E+00  0.1510E+02  0.1501E+02
     26.109  0.1529E+01  0.1075E+01  0.1526E+02  0.1512E+02
     26.211  0.1044E+01  0.1526E+01  0.1536E+02  0.1528E+02
     26.313  0.2289E+00  0.9253E+00  0.1539E+02  0.1537E+02
     26.415 -0.7436E-01  0.1520E+00  0.1538E+02  0.1539E+02
     26.517 -0.7047E-01 -0.9738E-01  0.1537E+02  0.1538E+02
     26.619 -0.8143E-01 -0.1092E+00  0.1537E+02  0.1537E+02
     26.721 -0.8760E-03 -0.2348E-01  0.1537E+02  0.1536E+02
     26.824  0.5671E+00  0.5126E+00  0.1542E+02  0.1542E+02
     26.926  0.1388E+01  0.1349E+01  0.1556E+02  0.1555E+02
     27.028  0.1373E+01  0.1409E+01  0.1570E+02  0.1570E+02
     27.130  0.5466E+00  0.6014E+00  0.1576E+02  0.1576E+02
     27.232 -0.6258E-02  0.1119E-01  0.1576E+02  0.1576E+02
     27.334 -0.7232E-01 -0.7375E-01  0.1575E+02  0.1575E+02
     27.436 -0.3614E-01 -0.3172E-01  0.1575E+02  0.1575E+02
     27.538 -0.4949E-01 -0.3729E-01  0.1574E+02  0.1575E+02
     27.640 -0.6938E-02 -0.4512E-01  0.1574E+02  0.1574E+02
     27.742  0.3555E+00  0.1749E+00  0.1578E+02  0.1576E+02
     27.844  0.9093E+00  0.7273E+00  0.1587E+02  0.1583E+02
     27.946  0.9310E+00  0.1016E+01  0.1597E+02  0.1594E+02
     28.048  0.3872E+00  0.6056E+00  0.1601E+02  0.1600E+02
     28.150  0.2988E-02  0.9683E-01  0.1601E+02  0.1601E+02
     28.252 -0.4801E-01 -0.5153E-01  0.1600E+02  0.1600E+02
     28.354 -0.1558E-01 -0.2643E-01  0.1600E+02  0.1600E+02
     28.456 -0.2235E-02 -0.4944E-02  0.1600E+02  0.1600E+02
     28.558 -0.1690E-03 -0.4688E-03  0.1600E+02  0.1600E+02
     28.660 -0.7128E-05 -0.2442E-04  0.1600E+02  0.1600E+02
     28.762 -0.1718E-06 -0.7217E-06  0.1600E+02  0.1600E+02
     28.864 -0.2397E-08 -0.1230E-07  0.1600E+02  0.1600E+02
     28.966 -0.1951E-10 -0.1220E-09  0.1600E+02  0.1600E+02
     29.068 -0.9359E-13 -0.7079E-12  0.1600E+02  0.1600E+02
     29.170  0.0000E+00 -0.2721E-14  0.1600E+02  0.1600E+02
     29.272  0.0000E+00  0.0000E+00  0.1600E+02  0.1600E+02
     29.374  0.0000E+00  0.0000E+00  0.1600E+02  0.1600E+02
     29.476  0.0000E+00  0.0000E+00  0.1600E+02  0.1600E+02
     29.578  0.0000E+00  0.0000E+00  0.1600E+02  0.1600E+02
     29.680  0.0000E+00  0.0000E+00  0.1600E+02  0.1600E+02
     29.782  0.0000E+00  0.0000E+00  0.1600E+02  0.1600E+02
     29.884  0.0000E+00  0.0000E+00  0.1600E+02  0.1600E+02
