LAMMPS (10 Feb 2015)
Reading data file ...
  triclinic box = (0 0 0) to (4.2565 4.2565 4.2565) with tilt (0 0 0)
  1 by 1 by 1 MPI processor grid
  reading atoms ...
  8 atoms
4 atoms in group Mg
4 atoms in group O
Setting atom values ...
  4 settings made for charge
Setting atom values ...
  4 settings made for charge
PPPM initialization ...
  G vector (1/distance) = 0.35267
  grid = 8 8 8
  stencil order = 5
  estimated absolute RMS force accuracy = 3.88211e-05
  estimated relative force accuracy = 2.69597e-06
  using double precision FFTs
  3d grid and FFT values/proc = 3375 512
Neighbor list info ...
  1 neighbor list requests
  update every 1 steps, delay 0 steps, check yes
  master list distance cutoff = 11
Setting up minimization ...
Memory usage per processor = 4.06549 Mbytes
Step PotEng Lx Ly Lz Xy Xz Yz Press Pxx Pyy Pzz Pxy Pxz Pyz eatoms 
       0   -108.70031       4.2565       4.2565       4.2565            0            0            0    82041.316    82041.316    82041.316    82041.316 -4.6499549e-11 -1.1702618e-10 1.7098221e-10   -108.70031 
      10   -108.77917     4.299065     4.299065     4.299065            0            0            0    28384.418    28384.418    28384.418    28384.418 -2.893711e-10 1.1285336e-10 8.1895601e-11   -108.77917 
      19   -108.79132    4.3240425    4.3240425    4.3240425            0            0            0 -0.024351241 -0.024351241 -0.024351241 -0.024351241 1.5580285e-11 -3.1606067e-12 1.2588801e-10   -108.79132 
Loop time of 0.0102 on 1 procs for 19 steps with 8 atoms

Minimization stats:
  Stopping criterion = linesearch alpha is zero
  Energy initial, next-to-last, final = 
        -108.700309346      -108.79131697      -108.79131697
  Force two-norm initial, final = 11.8468 7.13952e-05
  Force max component initial, final = 11.8468 1.5084e-05
  Final line search alpha, max atom move = 0.5 7.54202e-06
  Iterations, force evaluations = 19 24

Pair  time (%) = 0.00284576 (27.8996)
Kspce time (%) = 0.00201249 (19.7303)
Neigh time (%) = 0 (0)
Comm  time (%) = 0.000402451 (3.94558)
Outpt time (%) = 2.38419e-05 (0.233743)
Other time (%) = 0.00491548 (48.1908)

Nlocal:    8 ave 8 max 8 min
Histogram: 1 0 0 0 0 0 0 0 0 0
Nghost:    2189 ave 2189 max 2189 min
Histogram: 1 0 0 0 0 0 0 0 0 0
Neighs:    2344 ave 2344 max 2344 min
Histogram: 1 0 0 0 0 0 0 0 0 0

Total # of neighbors = 2344
Ave neighs/atom = 293
Neighbor list builds = 0
Dangerous builds = 0
pypospack:output_section:begin
tot_energy = -108.791316969709
num_atoms = 8
xx = 4.32404254484564
yy = 4.32404254484564
zz = 4.32404254484564
xy = 0
xz = 0
yz = 0
tot_press = -0.0243512411551094
pxx = -0.0243512413415371
pyy = -0.0243512409516822
pzz = -0.024351241172109
pxy = 1.55802849425254e-11
pxz = -3.16060668162342e-12
pyz = 1.25888006757422e-10
pypospack:output_section:done
pypospack:lammps_sim:done
PPPM initialization ...
  G vector (1/distance) = 0.351996
  grid = 8 8 8
  stencil order = 5
  estimated absolute RMS force accuracy = 4.00454e-05
  estimated relative force accuracy = 2.781e-06
  using double precision FFTs
  3d grid and FFT values/proc = 3375 512
Setting up run ...
Memory usage per processor = 3.06549 Mbytes
Step Temp PotEng KinEng TotEng Press Lx Ly Lz Press Pxx Pyy Pzz Pxy Pxz Pyz Volume 
       0          600   -108.79133   0.54289261   -108.24843    7170.5786    4.3240425    4.3240425    4.3240425    7170.5786    11130.146    6796.8677    3584.7217     2562.912    1797.3007    1996.9889    80.848111 
     100     134.1164    -108.2979   0.12135134   -108.17655    2086.0542    4.3532991    4.3532991    4.3532991    2086.0542    28908.753   -3002.8051   -19647.785   -2105.8124    1264.5974   -114.17943    82.500297 
     200    539.91182   -108.51461   0.48852356   -108.02608   -12819.642     4.352282     4.352282     4.352282   -12819.642    637.79685    -20871.37   -18225.353     1020.508    -2913.583    858.04522    82.442484 
     300     529.3397    -108.3815   0.47895768   -107.90254    16541.154    4.3399246    4.3399246    4.3399246    16541.154    25367.339    13345.122    10911.001   -899.86769   -1483.6359    -1357.799    81.742245 
     400    514.57431   -108.27058   0.46559765   -107.80498   -16759.711    4.3703331    4.3703331    4.3703331   -16759.711    5166.7726    -36852.27   -18593.637   -1310.3823    3497.6259   -901.32327    83.472537 
     500    400.87375   -108.09741     0.362719   -107.73469    20877.124    4.3531421    4.3531421    4.3531421    20877.124    44892.257    11751.522    5987.5929    1695.3588     3842.583   -712.08021    82.491372 
     600    822.43433   -108.44609   0.74415587   -107.70193   -10471.011    4.3550822    4.3550822    4.3550822   -10471.011   -2569.8584   -15331.157   -13512.017   -3644.9935   -3070.2962   -2056.1152    82.601716 
     700    237.79277   -107.90793   0.21515989   -107.69277   -2090.2461    4.3731138    4.3731138    4.3731138   -2090.2461    20646.973   -1079.0124   -25838.699    396.24887    21.233829   -264.17717     83.63197 
     800    980.02188   -108.57011    0.8867444   -107.68337    706.88046     4.348956     4.348956     4.348956    706.88046    23000.531   -8568.1433   -12311.746   -1779.8036   -162.95363    -2522.019    82.253623 
     900    636.13869   -108.27317   0.57559165   -107.69758   -7139.7434    4.3635967    4.3635967    4.3635967   -7139.7434    1032.8677    1106.3171   -23558.415   -641.65207    1917.5425   -445.37213    83.087139 
    1000    729.64197   -108.36461   0.66019538   -107.70441   -14774.137    4.3634391    4.3634391    4.3634391   -14774.137    18908.697   -32826.111   -30404.996    2965.0984    -3090.211   -3169.6432    83.078141 
    1100    352.24337   -108.03156   0.31871721   -107.71284    26003.368    4.3497809    4.3497809    4.3497809    26003.368    73503.652    14790.456   -10284.005    533.00904    -158.2887    1844.2226    82.300441 
    1200    761.04293   -108.40478   0.68860764   -107.71617   -21990.375    4.3670851    4.3670851    4.3670851   -21990.375   -10458.425   -33411.255   -22101.444    1799.8911    1768.3974   -576.21913    83.286571 
    1300    615.66545   -108.26641   0.55706704   -107.70935    4404.6081     4.357501     4.357501     4.357501    4404.6081    22337.294   -915.20971   -8208.2599   -2800.6027   -3617.6219    2184.7352    82.739421 
    1400    568.17578   -108.22497   0.51409739   -107.71088    4408.2032    4.3536939    4.3536939    4.3536939    4408.2032    44303.409   -18968.415   -12110.384   -995.91602    6190.1767     3156.963    82.522748 
    1500    228.11564   -107.92354   0.20640382   -107.71714    7402.2989    4.3656287    4.3656287    4.3656287    7402.2989    24809.405    2736.8336    -5339.342   -1178.8994    754.33899    707.03903    83.203266 
    1600     1014.291   -108.62368   0.91775184   -107.70593   -12776.015    4.3569026    4.3569026    4.3569026   -12776.015   -10428.564   -20532.496    -7366.984    5467.4569   -1065.4355    3849.9515    82.705342 
    1700    257.62779   -107.94197   0.23310704   -107.70886    23577.268    4.3556882    4.3556882    4.3556882    23577.268    58266.808    12780.362   -315.36467   -714.26573    412.72211   -2958.6984    82.636201 
    1800    699.83573   -108.33559   0.63322608   -107.70236   -16437.808      4.36746      4.36746      4.36746   -16437.808    1149.8629   -31333.055   -19130.231     3084.668   -801.69365    1054.9897     83.30802 
    1900    788.43929   -108.40939   0.71339644     -107.696    526.47867    4.3551367    4.3551367    4.3551367    526.47867    12605.931    5624.8679   -16651.363   -3606.3979    3251.0768   -5324.1803    82.604816 
    2000    380.18743   -108.04825   0.34400157   -107.70425    4058.5801     4.358139     4.358139     4.358139    4058.5801     48207.79   -25431.099   -10600.951   -1136.7316   -484.06582   -1138.3129    82.775773 
    2100    695.53396   -108.33662   0.62933375   -107.70729   -10708.977    4.3638415    4.3638415    4.3638415   -10708.977    10088.105   -18639.998   -23575.036   -863.54074   -3327.4138   -508.03868    83.101125 
    2200    791.09819    -108.4216   0.71580227    -107.7058    -5964.542    4.3540532    4.3540532    4.3540532    -5964.542    15585.678   -18464.761   -15014.544    624.33758   -1163.5105   -4395.1655    82.543177 
    2300    300.88554   -107.98318   0.27224756   -107.71093    9149.7705     4.362159     4.362159     4.362159    9149.7705    42487.785   -11253.218   -3785.2553    170.35805     438.9292    1781.9761    83.005042 
    2400     660.2247   -108.30388   0.59738519    -107.7065   -316.92219    4.3608794    4.3608794    4.3608794   -316.92219    37266.207   -26516.803   -11700.171    248.85838    802.98121   -2819.3481    82.932019 
    2500    642.57253   -108.29271   0.58141313   -107.71129    5182.5013    4.3505857    4.3505857    4.3505857    5182.5013    3678.4919    3826.2126    8042.7995    71.342841    2538.0657    194.55106    82.346131 
    2600    643.82253   -108.29897   0.58254416   -107.71642   -10395.684    4.3643696    4.3643696    4.3643696   -10395.684     2782.568   -26869.974   -7099.6479   -3371.3196   -4636.6263   -896.14554    83.131298 
    2700     502.7621   -108.16412   0.45490972   -107.70921    11349.871    4.3584241    4.3584241    4.3584241    11349.871    41114.208    2053.2958   -9117.8904    2930.0946     761.1486    1610.4466    82.792016 
    2800    659.61232   -108.29923   0.59683109    -107.7024   -3244.3913     4.354488     4.354488     4.354488   -3244.3913    10193.438   -16166.184   -3760.4279   -5463.1736   -4834.0433    2825.4748    82.567909 
    2900    625.75061   -108.26373    0.5661923   -107.69754   -10705.878     4.366237     4.366237     4.366237   -10705.878    13713.775   -24918.656   -20912.754    3770.1942    2929.1333    1319.9178    83.238056 
    3000    580.63276   -108.22171   0.52536873   -107.69635    3956.1486    4.3541553    4.3541553    4.3541553    3956.1486    41815.083   -12974.139   -16972.498   -2589.0676    -4108.853    3771.2282    82.548985 
    3100    671.37333   -108.31366    0.6074727   -107.70619   -7055.1878    4.3579546    4.3579546    4.3579546   -7055.1878    12926.853   -19960.811   -14131.606    1426.1015    952.93615    2537.8459    82.765266 
    3200    591.22269   -108.24102   0.53495071   -107.70607   -1345.1109    4.3646267    4.3646267    4.3646267   -1345.1109    21753.408   -21384.292   -4404.4487   -422.02311    2575.1724    3.5111903    83.145989 
    3300    564.30563   -108.21396   0.51059559   -107.70336     5408.097    4.3528571    4.3528571    4.3528571     5408.097    31818.691   -10222.191   -5372.2085    353.62126    3139.2034    1549.7699     82.47517 
    3400    614.44449   -108.25745   0.55596229   -107.70149    -4105.093    4.3638163    4.3638163    4.3638163    -4105.093   -7895.4287   -11878.877    7459.0271   -1869.7288    997.35317   -1070.3018    83.099688 
    3500    619.23177   -108.25669   0.56029392   -107.69639    6104.8913    4.3596093    4.3596093    4.3596093    6104.8913    40613.607     -12556.9   -9742.0333   -1360.3017   -3062.2242   -4056.0184    82.859579 
    3600    328.09251   -108.00171   0.29686499   -107.70484    15327.336    4.3548424    4.3548424    4.3548424    15327.336    55303.825   -8181.2966   -1140.5216   -5218.2073   -6675.5859   -366.95887    82.588075 
    3700    785.57136    -108.4222   0.71080148    -107.7114   -9233.6675    4.3607744    4.3607744    4.3607744   -9233.6675    924.32125   -25791.147   -2834.1769    243.24217    6469.5529   -3588.6178    82.926029 
    3800    647.43697   -108.30083   0.58581457   -107.71501   -8888.5749    4.3595879    4.3595879    4.3595879   -8888.5749    4138.9341   -13444.988    -17359.67    1355.2478    -2985.716   -1582.1783    82.858359 
    3900    521.13808   -108.18153   0.47153669   -107.70999    6360.1061    4.3552609    4.3552609    4.3552609    6360.1061    43951.398   -19800.918   -5070.1608   -582.43742    6920.4148   -3826.3979    82.611887 
    4000    553.28768   -108.20781   0.50062632   -107.70719    3820.1609    4.3624536    4.3624536    4.3624536    3820.1609    20704.457   -14001.444    4757.4693   -41.680239   -2241.3234   -533.03548    83.021863 
    4100    855.51032   -108.48297   0.77408372   -107.70888   -17859.327    4.3565977    4.3565977    4.3565977   -17859.327   -3161.8861   -30246.902   -20169.192   -4820.7136    1058.1406    1157.7931    82.687979 
    4200    346.40184   -108.02721   0.31343167   -107.71378    18735.065    4.3567991    4.3567991    4.3567991    18735.065    32647.037    5611.1919    17946.966     -1039.41   -3241.5374   -3121.6734    82.699444 
    4300    758.57048   -108.39569   0.68637051   -107.70932   -13374.141    4.3650376    4.3650376    4.3650376   -13374.141    11747.722   -26143.217   -25726.927    3276.3888    5048.0561    4821.7252    83.169478 
    4400    549.52472   -108.20158   0.49722151   -107.70436    2574.2315    4.3553193    4.3553193    4.3553193    2574.2315    10648.819   -2800.4122    -125.7119   -2393.4429   -4908.8727   -366.02317    82.615205 
    4500    482.32809   -108.13739   0.43642059   -107.70097    10943.934    4.3584324    4.3584324    4.3584324    10943.934    55295.447   -17052.482   -5411.1628    3643.6693    197.90487      3046.82    82.792492 
    4600    710.81488   -108.34543   0.64316024   -107.70227    -19526.45    4.3658558    4.3658558    4.3658558    -19526.45   -9159.8285   -21560.284   -27859.237     -2143.09   -2280.0283    2728.9128    83.216256 
    4700    722.87931   -108.35837   0.65407639   -107.70429    189.78305    4.3517172    4.3517172    4.3517172    189.78305    14412.414   -16461.919    2618.8541   -992.99494    5093.5522    1841.0203    82.410396 
    4800    397.42783   -108.06886   0.35960105   -107.70926     9740.112    4.3623773    4.3623773    4.3623773     9740.112    49217.119   -10783.496   -9213.2867    -1321.259   -6691.4615     647.6635    83.017505 
    4900    755.00277   -108.38871   0.68314237   -107.70557    -21210.97    4.3640212    4.3640212    4.3640212    -21210.97   -7202.1468   -34702.692   -21728.071   -3252.4943    5481.8711    395.52869    83.111389 
    5000    658.21064   -108.29778   0.59556282   -107.70222    11619.492    4.3495262    4.3495262    4.3495262    11619.492    20760.743    9339.2105    4758.5213   -2278.8749    -8856.674   -2340.3656    82.285984 
    5100    564.22423   -108.22214   0.51052194   -107.71161   -6605.9303     4.364502     4.364502     4.364502   -6605.9303    28080.507   -23600.229    -24298.07   -1115.8811    6282.7291    2708.6111    83.138863 
    5200    380.45411   -108.05784   0.34424287    -107.7136    13964.318    4.3574821    4.3574821    4.3574821    13964.318    51740.316    -8600.549   -1246.8119    913.75977   -187.30594   -4779.1998    82.738346 
    5300    826.93064   -108.45703   0.74822422    -107.7088   -4938.6957    4.3533064    4.3533064    4.3533064   -4938.6957    2646.8276   -15808.796   -1654.1188    1150.8622    160.68091    637.73329    82.500711 
    5400    495.37986   -108.15808   0.44823011   -107.70985   -5379.9133    4.3653854    4.3653854    4.3653854   -5379.9133    26627.234   -25881.885   -16885.089   -771.11197   -903.24136    1503.1403    83.189357 
    5500    585.79109   -108.23187   0.53003609   -107.70183    6618.6364     4.356429     4.356429     4.356429    6618.6364    28264.922   -16466.157    8057.1444   -3604.6304     2548.262   -5584.5767    82.678372 
    5600    780.36392   -108.40639   0.70608967    -107.7003   -7826.0171    4.3565229    4.3565229    4.3565229   -7826.0171    12696.528   -24845.132   -11329.447   -2933.0177   -1085.4005    5340.9003    82.683719 
    5700    396.18494   -108.06241   0.35847646   -107.70393    150.14463    4.3640496    4.3640496    4.3640496    150.14463    31857.193   -31994.112    587.35366    2426.2847    355.26875   -1109.1771    83.113015 
    5800    698.89297   -108.33253   0.63237304   -107.70015    4737.2668    4.3537942    4.3537942    4.3537942    4737.2668    27395.383    -9699.066   -3484.5167    2017.1333    154.83093    1843.2354    82.528452 
    5900    689.14487   -108.32633   0.62355276   -107.70278   -10307.426     4.360604     4.360604     4.360604   -10307.426    3588.6206   -22315.422   -12195.477   -721.82016   -2283.6714    534.41608    82.916305 
    6000    570.92794   -108.22295    0.5165876   -107.70636    -1020.942    4.3595165    4.3595165    4.3595165    -1020.942    15020.015   -22604.432    4521.5906    -1859.554   -3638.8055   -1356.4211    82.854283 
    6100    454.29818   -108.12185   0.41105854    -107.7108    17594.079    4.3515323    4.3515323    4.3515323    17594.079    62384.156   -4255.4528   -5346.4666    1520.1119   -2112.2309   -533.40895    82.399889 
    6200    671.31932    -108.3231   0.60742383   -107.71568   -11868.317     4.362881     4.362881     4.362881   -11868.317   -7466.9795   -29890.701    1752.7279     2555.456    3501.5768    459.48116    83.046266 
    6300    684.61994   -108.32976    0.6194585    -107.7103    1372.3952    4.3570288    4.3570288    4.3570288    1372.3952      21703.4   -7614.1357   -9972.0784   -2313.9405   -3000.1955   -2170.1583     82.71253 
    6400    449.57178   -108.11903     0.406782   -107.71225    6521.1998    4.3546721    4.3546721    4.3546721    6521.1998    55925.538   -26672.028     -9689.91    1008.8276    1236.4859    2621.7094    82.578384 
    6500    486.81771   -108.15598    0.4404829    -107.7155    -980.7424    4.3623874    4.3623874    4.3623874    -980.7424    22849.059   -23787.892   -2003.3938   -1767.5841   -4582.1954   -967.40282     83.01808 
    6600    842.31821   -108.46957   0.76214722   -107.70743   -7688.0594    4.3576674    4.3576674    4.3576674   -7688.0594    14865.123   -22531.556   -15397.744    2457.0997    4401.5325     2049.277    82.748903 
    6700    529.80034   -108.18525   0.47937448   -107.70588    920.27938    4.3557827    4.3557827    4.3557827    920.27938    19465.243   -12562.642   -4141.7626    -1449.543    2091.7534    828.89438     82.64158 
    6800    460.00001   -108.12089   0.41621767   -107.70467    3195.2004    4.3627362    4.3627362    4.3627362    3195.2004    39262.337   -27442.916   -2233.8205   -2710.3765   -1015.5029    232.64884    83.037998 
    6900    815.81581   -108.43792   0.73816729   -107.69975   -4263.3504    4.3566464    4.3566464    4.3566464   -4263.3504    2390.6883   -5098.9704   -10081.769   -2409.9161    3126.7485    1699.4118     82.69075 
    7000    484.66976    -108.1409   0.43853938   -107.70237    5900.9589     4.356905     4.356905     4.356905    5900.9589    33869.724   -21354.986    5188.1386   -700.21359   -946.00763    27.262597    82.705475 
    7100    552.78174   -108.20438   0.50016853   -107.70421     963.0031    4.3617996    4.3617996    4.3617996     963.0031    33917.948   -11226.263   -19802.675     3144.133   -2376.7039   -957.93736    82.984527 
    7200    661.99055   -108.30527   0.59898296   -107.70629     2276.151    4.3520591    4.3520591    4.3520591     2276.151    23235.414   -15890.334   -516.62682    3507.8599   -509.81764   -298.42317    82.429823 
    7300    515.12597   -108.17585    0.4660968   -107.70975   -3883.8439     4.362697     4.362697     4.362697   -3883.8439    19182.528   -28181.388   -2652.6719   -759.18876    3031.9796    1664.8083    83.035756 
    7400    751.10752    -108.3812   0.67961787   -107.70159   -2367.3416    4.3583259    4.3583259    4.3583259   -2367.3416    35219.999   -20541.976   -21780.048    1979.8784   -1010.3162   -5202.5424     82.78642 
    7500    640.64778   -108.28032   0.57967158   -107.70065   -1503.2738     4.352023     4.352023     4.352023   -1503.2738    7523.2212   -20182.793    8149.7505   -3721.2837    2480.2033     476.2192    82.427767 
    7600    487.81761    -108.1494   0.44138762   -107.70801   -7397.5169    4.3647468    4.3647468    4.3647468   -7397.5169     33849.04       -39267   -16774.591   -1330.5418    1676.7088    1525.4377    83.152853 
    7700    699.18856   -108.34227    0.6326405   -107.70963    7344.6132    4.3495532    4.3495532    4.3495532    7344.6132    42310.176   -6712.4313   -13563.906    1057.4596   -5512.1251   -5587.1164    82.287512 
    7800    454.64531   -108.12713   0.41137263   -107.71575    3088.0789    4.3572913    4.3572913    4.3572913    3088.0789    24190.315   -17593.878    2667.8005    1396.1126    7408.9074    1947.3392    82.727478 
    7900    631.31094   -108.27993    0.5712234   -107.70871   -9253.9907    4.3639841    4.3639841    4.3639841   -9253.9907    25709.214   -29343.982   -24127.204    3137.5138    228.76719    -472.8316     83.10927 
    8000    648.17947   -108.28936   0.58648641   -107.70287    8803.8894    4.3479214    4.3479214    4.3479214    8803.8894    31245.709    2908.9041   -7742.9444   -4161.6621    3550.0599    535.04452    82.194935 
    8100    504.57835   -108.16367   0.45655309   -107.70711   -3954.3571    4.3637033    4.3637033    4.3637033   -3954.3571    25962.577   -38495.397    669.74854   -302.85496    5811.9346   -1054.4227    83.093228 
    8200    644.57806   -108.28577   0.58322777   -107.70254    9510.0339    4.3554488    4.3554488    4.3554488    9510.0339    45414.493    3403.0142   -20287.406   -2173.4425   -7268.6458    2312.2626    82.622577 
    8300    700.77687   -108.33868   0.63407764    -107.7046   -4881.2573    4.3503293    4.3503293    4.3503293   -4881.2573    12348.822   -24372.225   -2620.3693    4141.2487     6228.041    3347.2258    82.331571 
    8400    571.39887   -108.22386   0.51701371   -107.70684    -12108.24    4.3653988    4.3653988    4.3653988    -12108.24    11561.085   -28621.839   -19263.966    935.40971   -10374.528   -1425.1626    83.190123 
    8500    545.35123   -108.19926   0.49344526   -107.70581    17692.357    4.3494845    4.3494845    4.3494845    17692.357    70970.366   -15657.218   -2236.0764   -1737.6409    5937.1504    3665.8828    82.283614 
    8600    442.37404   -108.11377   0.40026933    -107.7135    1778.0679    4.3567684    4.3567684    4.3567684    1778.0679    30010.241    -18770.93   -5905.1074   -3447.4614    3362.6938    2059.4552    82.697699 
    8700    820.97087   -108.44893   0.74283169    -107.7061   -17192.249    4.3591441    4.3591441    4.3591441   -17192.249   -1690.8734   -27921.926   -21963.946   -4869.9775    1564.0833    238.42689    82.833053 
    8800    397.03061   -108.06424   0.35924164     -107.705    16494.647    4.3505782    4.3505782    4.3505782    16494.647    54780.031    -3933.767   -1362.3239    50.041527   -1507.5452    1450.6371    82.345705 
    8900    633.87954   -108.27751   0.57354753   -107.70396   -10388.931    4.3624484    4.3624484    4.3624484   -10388.931     10974.93   -24691.604   -17450.119   -1321.3521   -1745.6695   -250.35362    83.021564 
    9000    810.21927   -108.43271   0.73310342    -107.6996    1175.5573    4.3532479    4.3532479    4.3532479    1175.5573    30926.809   -10636.279   -16763.858    6726.9909    1299.2294   -1120.3459    82.497387 
    9100    316.76875   -107.99476   0.28661902   -107.70814    12002.138    4.3519745    4.3519745    4.3519745    12002.138     40655.88   -5578.7066    929.24194   -3715.5178    491.45793   -1041.1445    82.425014 
    9200    682.80121   -108.32399   0.61781288   -107.70618   -16482.594    4.3620146    4.3620146    4.3620146   -16482.594    14005.424   -39257.565   -24195.641    6748.8126   -5419.9072   -1916.1253    82.996797 
    9300    761.29087   -108.39078   0.68883198   -107.70195    6009.9043    4.3490266    4.3490266    4.3490266    6009.9043    12576.033   -2403.9817    7857.6614   -2986.5534    847.19707    1287.5356    82.257628 
    9400    497.27933   -108.15857   0.44994879   -107.70863   -3756.0929    4.3586095    4.3586095    4.3586095   -3756.0929    31827.815   -29430.309   -13665.785   -4533.2761    4951.1712   -3349.2954    82.802581 
    9500    559.93779   -108.21294   0.50664348    -107.7063    1074.4899    4.3545299    4.3545299    4.3545299    1074.4899    35721.151   -18062.766   -14434.915   -4331.9063   -2951.1624    1916.2929    82.570292 
    9600    614.43991   -108.26159   0.55595815   -107.70563   -1857.4327    4.3537988    4.3537988    4.3537988   -1857.4327    15074.673   -21940.397    1293.4258   -1791.3404     900.5851   -993.99912     82.52871 
    9700    553.31926   -108.20329   0.50065489   -107.70263   -2699.2975    4.3585716    4.3585716    4.3585716   -2699.2975    14734.746   -4542.2843   -18290.354   -4775.6591   -3046.0228    -4000.597    82.800422 
    9800    880.85889   -108.49194   0.79701964   -107.69492    915.13726    4.3506739    4.3506739    4.3506739    915.13726     16318.73   -11082.447    -2490.872    10084.802    4106.9397    2265.1496    82.351139 
    9900    182.32936   -107.86927   0.16497543   -107.70429    8662.9901    4.3575966    4.3575966    4.3575966    8662.9901    40606.381   -7650.4333   -6966.9774   -981.28929    3411.4482   -5071.5031    82.744869 
   10000    677.77092   -108.31724   0.61326137   -107.70398   -1115.1208    4.3497264    4.3497264    4.3497264   -1115.1208    21537.361   -16524.058   -8358.6657    5389.5113     2850.996   -673.83454    82.297346 
   10100    796.57068   -108.42546   0.72075389   -107.70471   -7903.0113    4.3578532    4.3578532    4.3578532   -7903.0113   -7425.5072   -9853.7346    -6429.792   -6850.5835   -5488.1072   -898.97398    82.759487 
   10200    447.04486   -108.10721   0.40449558   -107.70272    5407.6458    4.3527524    4.3527524    4.3527524    5407.6458    41508.424    -19027.13   -6258.3568   -5271.1705    162.51779   -4589.7206    82.469219 
   10300    668.22409   -108.30123    0.6046232   -107.69661   -8983.4963     4.356456     4.356456     4.356456   -8983.4963    11478.515   -18107.814    -20321.19   -476.24724    544.57012    1937.5168    82.679908 
   10400    595.77351   -108.23751   0.53906839   -107.69844   -3313.3231    4.3546287    4.3546287    4.3546287   -3313.3231    21898.965   -28479.745   -3359.1898   -2481.3691    4163.4158    -5300.629    82.575914 
   10500    502.52894   -108.15916   0.45469874   -107.70446    14483.586    4.3507757    4.3507757    4.3507757    14483.586    32026.715     12154.85   -730.80645   -664.87408    426.28118   -856.41401    82.356919 
   10600    826.39082   -108.45027   0.74773578   -107.70253   -15276.326    4.3652062    4.3652062    4.3652062   -15276.326    2024.5619    -29158.79    -18694.75    1935.4874   -2772.0699    191.18701    83.179112 
   10700    285.79842   -107.96131   0.25859642   -107.70271    15061.469    4.3478906    4.3478906    4.3478906    15061.469    25708.433    6805.0323    12670.941    -1892.746   -710.39215   -5293.7912    82.193187 
   10800    705.69312   -108.33942   0.63852597   -107.70089   -3380.9179    4.3535604    4.3535604    4.3535604   -3380.9179    24600.063   -19891.754   -14851.063    2246.9256    342.36744     1574.887    82.515155 
   10900    685.51478   -108.31852   0.62026818   -107.69826   -12770.155    4.3678111    4.3678111    4.3678111   -12770.155   -3223.7289   -22879.475   -12207.261   -3723.2115    -4374.928   -3059.8983    83.328113 
   11000     552.9622   -108.19548   0.50033182   -107.69515      13718.5     4.339775     4.339775     4.339775      13718.5    43327.745   -8594.7399    6422.4954   -2306.7677    1253.4819   -4233.0403     81.73379 
   11100     560.3577   -108.20854   0.50702342   -107.70152   -15008.974    4.3664705    4.3664705    4.3664705   -15008.974   -355.43268    -34347.27   -10324.219   -1255.1553    1899.8667    3967.6109    83.251409 
   11200    533.79397   -108.18364   0.48298801   -107.70066   -980.76901    4.3528843    4.3528843    4.3528843   -980.76901    21016.801   -27723.866    3764.7574   -1474.2443    1939.9576   -3068.5141     82.47672 
   11300    653.41832   -108.29115   0.59122663   -107.69992    14563.302    4.3439179    4.3439179    4.3439179    14563.302    30710.699      3427.75    9551.4559   -2446.4086    6935.9816    3480.5307    81.968091 
   11400    603.24058   -108.24301   0.54582475   -107.69718    -18236.08    4.3745284    4.3745284    4.3745284    -18236.08    3168.9508   -45706.966   -12170.226    60.639512   -499.89175   -880.55211    83.713157 
   11500    591.54957   -108.22683   0.53524649   -107.69159    14748.322    4.3352647    4.3352647    4.3352647    14748.322    34148.624    3964.3647     6131.977   -3207.9016    374.62027    -5938.114    81.479218 
   11600    484.17976   -108.14049   0.43809603    -107.7024   -2973.6712    4.3646254    4.3646254    4.3646254   -2973.6712    16984.705   -19149.455   -6756.2644    -1112.037   -1813.5115    4479.6317    83.145919 
   11700    855.14162   -108.47566    0.7737501   -107.70191   -11980.979    4.3556684    4.3556684    4.3556684   -11980.979    587.43191   -21399.786   -15130.584    108.50192    -3239.091    -7758.046    82.635073 
   11800    511.41742   -108.16589   0.46274123   -107.70315    25551.084    4.3367503    4.3367503    4.3367503    25551.084    44707.302    7969.5053    23976.447    -8862.783    4354.1655    1214.3149    81.563013 
   11900    582.91171   -108.22659   0.52743077   -107.69916   -22845.744    4.3772077    4.3772077    4.3772077   -22845.744     14569.34   -50659.115   -32447.455    1069.3733    63.322468   -4123.1509    83.867071 
   12000    604.02046   -108.24008   0.54653041   -107.69355    17689.369    4.3367854    4.3367854    4.3367854    17689.369    37786.736    940.89933    14340.472   -9200.7386    1752.8641   -3521.3194    81.564993 
   12100    662.10179   -108.30044   0.59908361   -107.70136   -3235.6898     4.355154     4.355154     4.355154   -3235.6898    18823.295   -23160.687   -5369.6778    481.47485    4137.9962   -589.11973    82.605804 
   12200    463.45195   -108.11356   0.41934106   -107.69422   -10389.481    4.3680334    4.3680334    4.3680334   -10389.481    30152.368   -40071.268   -21249.541   -827.03183    597.71601   -6140.4084    83.340834 
   12300     691.9156    -108.3133   0.62605977   -107.68724     12002.57    4.3329923    4.3329923    4.3329923     12002.57    31356.992   -5316.5908    9967.3075   -2165.4466    1602.9857    2493.0842    81.351161 
   12400    544.84839   -108.19213   0.49299028   -107.69914   -12337.143     4.371079     4.371079     4.371079   -12337.143    11218.179   -20558.035   -27671.574     3339.605    1454.6399   -1558.3942    83.515287 
   12500    707.69344   -108.34026    0.6403359   -107.69993   -3166.2461     4.348108     4.348108     4.348108   -3166.2461    20394.458   -10773.101   -19120.095   -1344.2111    977.59223   -3451.8896    82.205515 
   12600    545.75333    -108.1965   0.49380908   -107.70269    16783.248    4.3409703    4.3409703    4.3409703    16783.248    23054.164    10415.836    16879.744   -6736.4999   -2430.8845    3362.0505    81.801342 
   12700     516.1716   -108.16207   0.46704291   -107.69503   -26216.132    4.3756183    4.3756183    4.3756183   -26216.132   -2484.9991   -32695.863   -43467.535    4671.6828    6513.5111   -2346.9914    83.775745 
   12800    765.75316    -108.3793   0.69286955   -107.68643    21073.662    4.3288353    4.3288353    4.3288353    21073.662    19075.691    19218.244     24927.05   -13117.734    487.69904    -976.1156    81.117244 
   12900    554.79914   -108.20752   0.50199392   -107.70553   -8594.0046    4.3616151    4.3616151    4.3616151   -8594.0046    25981.989   -23874.475   -27889.527    5296.0302    2627.4357    983.23218    82.973997 
   13000    572.20146   -108.22015    0.5177399   -107.70241   -6108.2934    4.3559951    4.3559951    4.3559951   -6108.2934    12094.268   -16808.566   -13610.582   -2860.6006    3009.3173   -4895.3952    82.653673 
   13100    665.54021    -108.3004   0.60219477    -107.6982     5171.362    4.3429777    4.3429777    4.3429777     5171.362    29430.775   -14755.987    839.29801    4275.8249   -66.830033   -384.31555    81.914877 
   13200     588.1544   -108.22989   0.53217446   -107.69771   -12096.543    4.3647998    4.3647998    4.3647998   -12096.543    2232.0748   -8022.2683   -30499.435    5739.0799    3911.7088    -3330.499    83.155885 
   13300    665.15262    -108.2952   0.60184407   -107.69335    18778.541    4.3426182    4.3426182    4.3426182    18778.541    53433.759    1640.3939    1261.4702    -847.5434   -196.17586   -4476.2154    81.894538 
   13400    600.63121   -108.24165   0.54346374   -107.69819   -8928.9905    4.3605875    4.3605875    4.3605875   -8928.9905   -8524.7754   -10812.726   -7449.4703   -8353.7428   -2443.0569    1604.8331    82.915363 
   13500       514.42   -108.16241   0.46545802   -107.69695    5734.6196    4.3494258    4.3494258    4.3494258    5734.6196     40415.75   -10320.077   -12891.814    348.75693   -1819.1577   -8640.4906    82.280282 
   13600    670.53911   -108.30552   0.60671787    -107.6988    179.41899    4.3526813    4.3526813    4.3526813    179.41899    8062.0951    -10933.92    3410.0822   -9054.6803    917.02243    4087.8473    82.465179 
   13700    628.44269   -108.26684   0.56862815   -107.69821   -8418.7206    4.3566841    4.3566841    4.3566841   -8418.7206    9708.5011   -16841.971   -18122.692   -8441.9073   -7340.8395    -5537.704    82.692897 
   13800    538.70835   -108.18428   0.48743463   -107.69684    4148.9775    4.3465277    4.3465277    4.3465277    4148.9775    28433.057    -17300.18    1314.0554    8440.5264    5450.0365   -388.32486    82.115921 
   13900    613.40325    -108.2532   0.55502015   -107.69818   -14387.148    4.3591012    4.3591012    4.3591012   -14387.148   -1165.0552   -33504.729   -8491.6582   -9017.1399    196.08055    2940.2595    82.830608 
   14000    564.06271   -108.20986    0.5103758   -107.69948    856.94095    4.3507824    4.3507824    4.3507824    856.94095    20046.664   -5422.5662   -12053.275    5492.8941   -2078.7932   -4612.4666    82.357298 
   14100    690.80697   -108.32376   0.62505666    -107.6987    5081.9211    4.3504306    4.3504306    4.3504306    5081.9211    19714.966    -10863.24    6394.0368    4665.9367    7529.7078    5334.1109    82.337321 
   14200    599.94547   -108.24256   0.54284327   -107.69971   -10391.594    4.3586265    4.3586265    4.3586265   -10391.594    5948.1774   -20869.652   -16253.308   -3287.6285   -3257.8862   -2753.9154    82.803551 
   14300    456.88099    -108.1119   0.41339552   -107.69851     8184.749    4.3488515    4.3488515    4.3488515     8184.749    25021.811   -12819.939    12352.374    11138.296    1592.0092     -2419.09    82.247694 
   14400    721.38912   -108.35153   0.65272804    -107.6988   -2014.6745    4.3525681    4.3525681    4.3525681   -2014.6745    16950.921   -7612.6164   -15382.328   -7312.3479     840.3803    3549.3925    82.458745 
   14500    593.42488   -108.23736   0.53694331   -107.70042   -6579.9763    4.3584814    4.3584814    4.3584814   -6579.9763    1839.0405   -21362.482   -216.48737   -964.57285   -3979.4029   -7221.9215    82.795284 
   14600    540.27203   -108.18751   0.48884949   -107.69866     2394.091    4.3490306    4.3490306    4.3490306     2394.091    38032.966   -11894.311   -18956.382   -2841.8965    6104.2837   -1367.6028    82.257856 
   14700    623.21181   -108.26521   0.56389514   -107.70131   -4532.5806    4.3511622    4.3511622    4.3511622   -4532.5806    676.41521   -21891.034    7616.8771   -2438.9036    2061.6238   -1612.1908    82.378869 
   14800    552.69303   -108.20589   0.50008827    -107.7058    -4730.351    4.3604562    4.3604562    4.3604562    -4730.351    40581.413   -19549.224   -35223.242    5059.8129   -1261.4112    -7887.104    82.907874 
   14900    692.26586   -108.33408    0.6263767    -107.7077    15665.812    4.3411116    4.3411116    4.3411116    15665.812    24381.646    5339.6141    17276.177    4627.7486    4226.5367    3316.9671    81.809333 
   15000    484.03958   -108.15536   0.43796919   -107.71739    -3138.514    4.3582998    4.3582998    4.3582998    -3138.514    37133.998   -21546.299    -25003.24   -4488.0228   -3942.2024   -5931.9202    82.784936 
   15100    629.93744   -108.28067   0.56998064   -107.71069   -3453.0948    4.3533927    4.3533927    4.3533927   -3453.0948    11482.672   -15598.609   -6243.3465    1138.1775   -2079.7834    323.98856    82.505622 
   15200    688.78495   -108.32875   0.62322709   -107.70553    11745.692    4.3391198    4.3391198    4.3391198    11745.692    39379.128   -2632.3367   -1509.7158   -7088.5483    5179.7324   -222.81339    81.696779 
   15300    532.72102   -108.18664   0.48201718   -107.70462   -13380.125    4.3664421    4.3664421    4.3664421   -13380.125    11403.038   -21376.294    -30167.12   -5724.1695   -9066.3516   -3253.1044    83.249783 
   15400    779.16831   -108.40076   0.70500786   -107.69575     9689.969    4.3374814    4.3374814    4.3374814     9689.969    31393.454   -5529.9642    3206.4178    4323.3764    5584.7337    4474.4058    81.604271 
   15500    345.50525   -108.01854   0.31262041   -107.70592    -8514.688    4.3557855    4.3557855    4.3557855    -8514.688    21593.984   -34861.292   -12276.755   -1409.3349   -1534.4168   -5576.8537    82.641742 
   15600    720.57231   -108.35499   0.65198897     -107.703    -7543.043    4.3528375    4.3528375    4.3528375    -7543.043     9094.712   -12210.621    -19513.22    4936.2051    -1790.274    3822.5389    82.474056 
   15700    708.06138   -108.34141   0.64066881   -107.70074    14905.049    4.3401067    4.3401067    4.3401067    14905.049    28181.064   -2654.4606    19188.543   -293.64508   -750.60318   -1539.4507    81.752532 
   15800    505.16444   -108.16062    0.4570834   -107.70353   -12651.297    4.3633831    4.3633831    4.3633831   -12651.297    14091.132   -27646.513   -24398.509   -2569.5932    -726.9249      -5932.4    83.074942 
   15900     608.9321   -108.24927   0.55097456   -107.69829    11170.664    4.3439961    4.3439961    4.3439961    11170.664    19636.789   -3133.8638    17009.067   -2853.7679   -6206.9041    798.92738    81.972521 
   16000    631.40746   -108.27303   0.57131074   -107.70171    -1512.434    4.3467833    4.3467833    4.3467833    -1512.434    28775.709   -18609.024   -14703.987   -547.04208    5558.4721   -11654.809    82.130408 
   16100    594.58388   -108.23893   0.53799199   -107.70094   -4408.6855    4.3583802    4.3583802    4.3583802   -4408.6855    9770.4529    -8872.504   -14124.005    172.67035   -6219.8861   -3829.7026    82.789514 
   16200    663.12896   -108.30074   0.60001302   -107.70072    7883.8193      4.34252      4.34252      4.34252    7883.8193    36753.316   -17060.311    3958.4535    4149.0063    166.37345   -4007.6533    81.888984 
   16300    573.38623   -108.22702   0.51881191   -107.70821   -17410.934     4.355738     4.355738     4.355738   -17410.934    3507.4476   -35686.636   -20053.612   -2975.3014    3604.2541   -6707.3056    82.639037 
   16400    486.74617   -108.14667   0.44041816   -107.70626     14760.34    4.3477162    4.3477162    4.3477162     14760.34    36780.779    554.40668     6945.834    3952.3918    989.64782   -725.60322    82.183298 
   16500    825.51457   -108.45085   0.74694294   -107.70391    -11650.84    4.3528898    4.3528898    4.3528898    -11650.84    82.703218   -17948.192   -17087.032   -10201.548   -1897.1388   -3447.7286    82.477029 
   16600    486.00086   -108.14399   0.43974379   -107.70425    701.31676    4.3487387    4.3487387    4.3487387    701.31676    9753.2454   -9725.8513    2076.5562    2293.2454    3970.9302   -4158.1803    82.241294 
   16700    499.56424   -108.15743   0.45201622   -107.70542    11812.257    4.3481571    4.3481571    4.3481571    11812.257    46788.473   -7672.3639   -3679.3384   -1267.3634   -8564.8083     3270.286    82.208303 
   16800    596.46956   -108.24725   0.53969819   -107.70755   -17035.974    4.3595106    4.3595106    4.3595106   -17035.974    2875.5882   -36978.911     -17004.6   -674.84966    2638.2482   -8319.4579    82.853951 
   16900    781.41576   -108.40952    0.7070414   -107.70247    17216.309    4.3346324    4.3346324    4.3346324    17216.309    30487.501    16148.396     5013.031    3188.4632    4109.6552    3510.7788    81.443571 
   17000    554.60771   -108.20378   0.50182071   -107.70196   -18157.867     4.366346     4.366346     4.366346   -18157.867    8239.4017   -37147.898   -25565.107   -4158.7595   -4608.6881   -5951.5389    83.244285 
   17100    449.16358   -108.10539   0.40641265   -107.69898     13696.69     4.333348     4.333348     4.333348     13696.69    50920.041   -18035.271    8205.3013    204.02867    3387.6262   -3939.6912    81.371195 
   17200    766.03539   -108.40195   0.69312492   -107.70882   -8387.1274    4.3530728    4.3530728    4.3530728   -8387.1274   -5626.3568   -11638.936   -7896.0895   -6115.4279   -4551.3456    1124.7614    82.487433 
   17300    572.52002   -108.22446   0.51802815   -107.70643   -10766.363    4.3594321    4.3594321    4.3594321   -10766.363    27114.741   -24151.719   -35262.111   -4545.6401   -2367.0221   -11048.496    82.849476 
   17400      562.356   -108.20513   0.50883153    -107.6963    25189.959    4.3251992    4.3251992    4.3251992    25189.959    40977.831    7286.1345    27305.912    3799.6674    2355.5942    3808.2399    80.913007 
   17500    598.47078   -108.23899   0.54150894   -107.69748   -31961.154     4.372535     4.372535     4.372535   -31961.154   -12361.655   -35818.955   -47702.852     373.1302    -3010.659   -10092.043    83.598768 
   17600    556.21572   -108.20346   0.50327567   -107.70019    13080.553    4.3336964    4.3336964    4.3336964    13080.553     39433.14   -10724.702    10533.222    238.05442    2653.1452   -1442.1346    81.390827 
   17700    705.84161   -108.34664   0.63866032   -107.70798   -3492.6194    4.3472218    4.3472218    4.3472218   -3492.6194    637.10799    191.16994   -11306.136   -1388.2182    447.83984   -1722.8172    82.155262 
   17800    543.65251   -108.19125   0.49190821   -107.69934   -17665.701    4.3647593    4.3647593    4.3647593   -17665.701    15167.673   -41953.529   -26211.245   -3981.0024   -684.07471   -9458.9112    83.153567 
   17900    654.48793   -108.28043   0.59219443   -107.68824     14058.42    4.3237671    4.3237671    4.3237671     14058.42    21787.094   -3553.9627    23942.129   -6405.4087   -5656.5654    3397.7314     80.83266 
   18000    425.56757   -108.08855   0.38506248   -107.70348    -7928.105    4.3661171    4.3661171    4.3661171    -7928.105    38460.472   -42140.234   -20104.552    1503.2374     3811.254   -4970.4821    83.231197 
   18100    835.97346   -108.46217   0.75640635   -107.70576   -7718.0766    4.3438358    4.3438358    4.3438358   -7718.0766   -618.55324   -7487.0958   -15048.581   -4098.8332   -3676.1633   -1905.5427    81.963447 
   18200    425.04583   -108.09141    0.3845904   -107.70682    16983.149    4.3368108    4.3368108    4.3368108    16983.149      59639.2    -16420.95     7731.198    -2475.073    5501.0561    10.297993    81.566426 
   18300    730.54717   -108.35795   0.66101443   -107.69694   -29004.657    4.3667838    4.3667838    4.3667838   -29004.657   -11724.886   -36954.751   -38334.334    1684.5058     5074.533   -5914.5806    83.269331 
   18400    433.18088   -108.08683   0.39195117   -107.69488    35802.838    4.3282468    4.3282468    4.3282468    35802.838    87991.215   -472.57155     19889.87   -4273.5741   -2505.2775   -434.68667    81.084167 
   18500    700.74515   -108.34073   0.63404894   -107.70668   -17753.718     4.358359     4.358359     4.358359   -17753.718   -867.74857   -28184.422   -24208.985   -3998.6382    2603.7304    -3088.929    82.788307 
   18600    617.00897    -108.2612   0.55828268   -107.70291    6060.8266    4.3484834    4.3484834    4.3484834    6060.8266    39598.109   -16929.311   -4486.3174    -3927.953   -3263.8682   -4111.5633    82.226813 
   18700    412.33224   -108.07742   0.37308687   -107.70433    7630.5276    4.3402541    4.3402541    4.3402541    7630.5276    41249.188   -18375.202    17.596329   -10397.793    622.86366    379.90992    81.760861 
   18800    732.78846   -108.36689    0.6630424   -107.70384   -21277.876    4.3585728    4.3585728    4.3585728   -21277.876   -9269.8405   -34870.885   -19692.902   -5532.5463      2861.49   -9841.3342    82.800491 
   18900    548.82227   -108.19934   0.49658592   -107.70275      15805.5     4.339884     4.339884     4.339884      15805.5    57461.398    2877.8201   -12922.718   -3209.6424   -4086.1953    1494.3004    81.739951 
   19000    598.68545   -108.24946   0.54170317   -107.70776   -19910.136    4.3516612    4.3516612    4.3516612   -19910.136    -9370.212    -31677.38   -18682.816   -4047.8544    2369.8966   -6026.1254    82.407213 
   19100    548.51199   -108.20066   0.49630518   -107.70435   -2936.4982    4.3526786    4.3526786    4.3526786   -2936.4982    37095.297   -17298.122   -28606.669    2340.0321   -3507.5662   -8060.6336    82.465027 
   19200     653.6542   -108.29339   0.59144006   -107.70195     14091.44    4.3361079    4.3361079    4.3361079     14091.44    34416.795   -3168.6608    11026.184   -2857.6875    -1165.623    1667.4147     81.52677 
   19300    638.94399   -108.28331   0.57812995   -107.70518   -25119.685    4.3637278    4.3637278    4.3637278   -25119.685    44.928707   -33197.379   -42206.605   -6168.5943    2365.3357   -11510.905    83.094628 
   19400    564.83515    -108.2108   0.51107472   -107.69973    32063.384    4.3329171    4.3329171    4.3329171    32063.384    71530.503    5375.7477    19283.901   -302.21161    3267.4948    1884.1742    81.346926 
   19500    597.76559   -108.24924   0.54087087   -107.70837   -29144.154    4.3571116    4.3571116    4.3571116   -29144.154   -21852.283   -41840.034   -23740.146   -12714.848    1289.2676   -6031.5859    82.717246 
   19600    494.74376   -108.15391   0.44765455   -107.70626     8844.474    4.3462299    4.3462299    4.3462299     8844.474    50786.606   -23599.565   -653.61804   -241.11158   -2183.1485   -4890.9174     82.09904 
   19700    831.58942   -108.45703   0.75243958    -107.7046    315.20155    4.3401156    4.3401156    4.3401156    315.20155    10001.742   -5715.8126   -3340.3244   -2974.1201     1843.974    2900.5898    81.753036 
   19800    251.68915   -107.93636   0.22773363   -107.70862   -20117.007    4.3617418    4.3617418    4.3617418   -20117.007    14372.362   -49994.891   -24728.494    -15447.01   -347.67502    -10973.92    82.981229 
   19900    883.52415   -108.49704   0.79943122   -107.69761     9057.899    4.3335495    4.3335495    4.3335495     9057.899    25069.177   -2502.5311     4607.051    6362.3857    4493.2559    3929.7285    81.382547 
   20000    413.28586   -108.07957   0.37394973   -107.70562   -9072.5466    4.3589395    4.3589395    4.3589395   -9072.5466    15100.967   -36270.432   -6048.1752   -11744.678    228.73852   -6948.3178    82.821391 
   20100    763.35309   -108.39371   0.69069792   -107.70301     2872.066    4.3374854    4.3374854    4.3374854     2872.066    19210.527   -8363.4681   -2230.8608   -5811.6743    5561.8003   -3972.6876    81.604496 
   20200    613.44287   -108.26018     0.555056   -107.70512    3226.2339    4.3525391    4.3525391    4.3525391    3226.2339    24311.645   -17933.573    3300.6297   -1915.6848   -3163.0278    403.59423    82.457095 
   20300    454.22811   -108.11825   0.41099514   -107.70725   -11211.811    4.3480156    4.3480156    4.3480156   -11211.811    11147.379   -30620.611     -14162.2   -8324.7017    312.02993   -6155.1721    82.200278 
   20400    671.99059   -108.31084    0.6080312   -107.70281    17273.973     4.338026     4.338026     4.338026    17273.973    50415.154   -6550.0659    7956.8313    -5884.014    -3973.093   -3567.9418    81.635008 
   20500     794.7183   -108.41761   0.71907782   -107.69853   -23026.802    4.3619576    4.3619576    4.3619576   -23026.802   -12492.941   -32807.001   -23780.464    6936.2473   -2394.9484   -895.02188    82.993547 
   20600    297.26103   -107.96651   0.26896802   -107.69754     22730.23     4.328912     4.328912     4.328912     22730.23    70047.381   -12614.012     10757.32   -8995.7878     96.30199   -10683.863    81.121558 
   20700    795.02631   -108.42253   0.71935651   -107.70317   -19281.134    4.3596419    4.3596419    4.3596419   -19281.134   -7038.1991   -28395.889   -22409.314    8830.3278    2599.4854   -1299.8358    82.861435 
   20800     507.6263   -108.16918   0.45931094   -107.70987    4127.2223    4.3434735    4.3434735    4.3434735    4127.2223    31548.112   -22128.722    2962.2775   -528.20413    1469.5141    -4666.534    81.942937 
   20900    616.37767   -108.26855   0.55771147   -107.71084    7844.2854    4.3376784    4.3376784    4.3376784    7844.2854    31616.203   -7295.3989   -787.94797   -8849.6645    782.63862   -8597.6824    81.615387 
   21000    675.90729   -108.31636   0.61157512   -107.70478   -10179.196    4.3598298    4.3598298    4.3598298   -10179.196    2953.5773   -21693.266   -11797.901    7529.5095   -1543.5544    4118.5766    82.872153 
   21100    375.28119   -108.04577   0.33956231   -107.70621   -326.94981    4.3369274    4.3369274    4.3369274   -326.94981    25191.561   -20509.743   -5662.6677   -7911.1383    850.21538   -10205.164    81.573002 
   21200    721.38896   -108.35798   0.65272789   -107.70525   -2732.2285    4.3470082    4.3470082    4.3470082   -2732.2285    13411.142   -10228.813   -11379.015    1359.4709   -3000.3464    4060.7711    82.143153 
   21300    628.88896   -108.27261   0.56903195   -107.70358   -4970.9188    4.3544356    4.3544356    4.3544356   -4970.9188    22292.292   -25956.393   -11248.656    542.74749   -263.15248   -3052.6713    82.564931 
   21400    567.89599   -108.21691   0.51384423   -107.70307    1169.3408    4.3366865    4.3366865    4.3366865    1169.3408    19101.224   -17393.756    1800.5541    -9758.987     6001.355   -5952.7874    81.559414 
   21500    754.55441   -108.38719   0.68273668   -107.70446   -3610.0166    4.3514602    4.3514602    4.3514602   -3610.0166    19234.466   -16286.942   -13777.575   -1826.8528   -2200.7978    5720.5255    82.395793 
   21600    334.90934   -108.01288   0.30303301   -107.70984    9719.3166    4.3481514    4.3481514    4.3481514    9719.3166    45210.474    -13973.25   -2079.2745   -2283.3219   -151.75578   -11109.705    82.207981 
   21700    795.87047   -108.42727   0.72012032   -107.70715   -2127.7775    4.3422139    4.3422139    4.3422139   -2127.7775    8245.2822   -8288.2555   -6340.3593   -9190.0817    -5911.286    5486.8372    81.871669 
   21800    747.79187   -108.38353    0.6766178   -107.70691   -1401.5354    4.3499119    4.3499119    4.3499119   -1401.5354    15042.333   -11430.514   -7816.4255    7922.9798    690.53674   -4181.6738    82.307872 
   21900     343.7356   -108.02185    0.3110192   -107.71083   -303.51854    4.3455427    4.3455427    4.3455427   -303.51854    34912.626   -26799.849   -9023.3324   -3303.4344   -642.70985   -5496.8414    82.060107 
   22000    586.19374   -108.23994   0.53040042   -107.70954   -4242.9984    4.3485455    4.3485455    4.3485455   -4242.9984    23311.698   -20577.988   -15462.706   -3206.6956   -1217.3895    5980.4027    82.230335 
   22100    787.09864   -108.41868   0.71218339    -107.7065    84.153518    4.3449141    4.3449141    4.3449141    84.153518    17546.328   -13241.274   -4052.5935    832.86386     2826.842   -9517.0193    82.024501 
   22200    468.25548   -108.13278    0.4236874   -107.70909   -8778.6783    4.3508564    4.3508564    4.3508564   -8778.6783    11790.393   -33329.353   -4797.0749   -8095.6433    2964.6978    347.26479    82.361499 
   22300    635.89724   -108.27909   0.57537319   -107.70372    7041.1238     4.344701     4.344701     4.344701    7041.1238    36048.661   -7202.5807   -7722.7084   -435.39334   -6595.1913    26.141875     82.01243 
   22400    622.65156    -108.2682   0.56338822   -107.70481   -5415.2937     4.350656     4.350656     4.350656   -5415.2937    11153.974   -23764.004   -3635.8513    1427.9163   -148.63338   -4952.2989    82.350118 
   22500    647.10243   -108.29217   0.58551188   -107.70666    -5824.671    4.3437449    4.3437449    4.3437449    -5824.671    11603.037   -13406.808   -15670.242   -7785.4314   -669.15698    6432.7903    81.958301 
   22600    552.93464   -108.20853   0.50030688   -107.70822    15420.762    4.3458329    4.3458329    4.3458329    15420.762    51227.106   -7221.5914    2256.7727    1940.6094    780.34084    93.041869    82.076545 
   22700    639.48039   -108.28765   0.57861529   -107.70903   -15695.663    4.3491055    4.3491055    4.3491055   -15695.663   -5194.8446   -27058.887   -14833.258   -1565.4196    7632.5377    562.15264    82.262104 
   22800    456.67722   -108.11932   0.41321114   -107.70611    10707.498    4.3390489    4.3390489    4.3390489    10707.498     47854.14   -9042.8731   -6688.7737   -8843.3641   -1084.4634    11314.811    81.692769 
   22900    829.81864   -108.45073   0.75083735   -107.69989   -7632.5839    4.3545415    4.3545415    4.3545415   -7632.5839    7022.4894   -14803.936   -15116.305     2520.923    5830.2564   -3913.1511    82.570955 
   23000    429.57054    -108.0911   0.38868445   -107.70242    7875.4065    4.3389538    4.3389538    4.3389538    7875.4065    37609.856   -22657.548    8673.9116   -2003.4656   -1301.5461      5746.66    81.687403 
   23100    733.26114   -108.36621   0.66347008   -107.70274   -6916.0885    4.3491976    4.3491976    4.3491976   -6916.0885    2702.9757   -12539.833   -10911.409   -2432.7891   -4714.8271    7477.4029    82.267332 
   23200    530.14501   -108.18253   0.47968635   -107.70284    7354.9141    4.3493227    4.3493227    4.3493227    7354.9141    39780.069   -14607.454   -3107.8725    5822.7853     -2662.67   -6199.9035    82.274434 
   23300    499.51166   -108.15914   0.45196865   -107.70717    1016.1079    4.3382133    4.3382133    4.3382133    1016.1079     25057.59   -5453.4252   -16555.841   -11101.526   -832.56318     12392.18    81.645587 
   23400    788.99854   -108.41798   0.71390246   -107.70408   -6964.8551    4.3560188    4.3560188    4.3560188   -6964.8551    11446.564   -14157.138   -18183.992    3732.4151   -263.09658   -2650.6297     82.65502 
   23500    514.27687   -108.17188   0.46532852   -107.70656    8581.5977    4.3376345    4.3376345    4.3376345    8581.5977    37031.837   -7811.7039     -3475.34   -1884.5112    2862.0228    2231.8503     81.61291 
   23600    537.68855   -108.19689    0.4865119   -107.71038   -14971.947    4.3506143    4.3506143    4.3506143   -14971.947   -1016.0084   -26659.795   -17240.037   -2357.7978   -2921.9515    7849.7851    82.347754 
   23700      769.605   -108.39919   0.69635478   -107.70283    8440.9005    4.3476921    4.3476921    4.3476921    8440.9005    41082.172    1052.6854   -16812.156    4568.3149   -1791.5964   -8269.2238    82.181929 
   23800    474.45798   -108.13692   0.42929955   -107.70762    1693.6999    4.3398471    4.3398471    4.3398471    1693.6999    13541.441    -16794.64    8334.2985   -5258.6774   -1894.8851    11511.478    81.737864 
   23900    584.40788   -108.23472   0.52878453   -107.70594   -7258.2783    4.3527722    4.3527722    4.3527722   -7258.2783     15027.75   -19163.376   -17639.208    2797.3576   -1178.5388   -3780.5285    82.470344 
   24000     726.8794   -108.35701   0.65769576   -107.69931    7531.5767    4.3430119    4.3430119    4.3430119    7531.5767    12684.796    1829.5491    8080.3855   -2215.5197    2917.0244    2572.4447    81.916812 
   24100    361.65306   -108.03258   0.32723129   -107.70534   -8099.6737    4.3472021    4.3472021    4.3472021   -8099.6737    20496.521     -21979.6   -22815.942   -4641.8939   -54.545238    11516.675    82.154149 
   24200    790.83189   -108.41836   0.71556131    -107.7028   -4170.2303    4.3457225    4.3457225    4.3457225   -4170.2303    5736.2311   -11996.382   -6250.5403   -5188.1648      4889.36    -4631.454    82.070292 
   24300    682.81278   -108.32502   0.61782335    -107.7072   -7519.9515    4.3474802    4.3474802    4.3474802   -7519.9515    18809.297   -27692.518   -13676.633     3588.274    1791.0575    9660.2311    82.169912 
   24400     320.5671   -108.00121   0.29005585   -107.71115   -1938.4313    4.3463481    4.3463481    4.3463481   -1938.4313    18085.846    -24165.55    264.41002    -7816.236   -2655.8361    1843.1801     82.10574 
   24500    867.67941   -108.48806   0.78509457   -107.70297   -1627.0134    4.3451707    4.3451707    4.3451707   -1627.0134    7532.9148   -267.16308   -12146.792    4280.1879    624.22663   -2361.1568    82.039035 
   24600    445.87407   -108.10651   0.40343623   -107.70307   -1840.9339    4.3532896    4.3532896    4.3532896   -1840.9339    20208.138   -25250.439   -480.50106   -11796.238   -3740.1426    5050.8204     82.49976 
   24700    614.05867   -108.25549   0.55561319   -107.69987    3798.2768    4.3381636    4.3381636    4.3381636    3798.2768    18367.518   -6632.6776   -340.01002   -3579.0686    3275.6068   -2237.1486    81.642777 
   24800    652.55238   -108.29207   0.59044311   -107.70163    2255.7457    4.3521988    4.3521988    4.3521988    2255.7457    30414.172   -18111.275     -5535.66   -3413.7428   -292.08493   -2430.0983    82.437756 
   24900    588.73051   -108.23822   0.53269573   -107.70553   -12951.589    4.3472651    4.3472651    4.3472651   -12951.589   -6293.5605   -17793.764   -14767.443   -1855.4813    133.34973    2486.0591    82.157716 
   25000    515.79478   -108.17176   0.46670196   -107.70506    6550.3048    4.3382017    4.3382017    4.3382017    6550.3048    36918.519   -10163.251    -7104.354   -758.60765    667.41202   -10029.128    81.644931 
   25100    754.22106   -108.38137   0.68243506   -107.69894   -14567.614    4.3593067    4.3593067    4.3593067   -14567.614    2572.1504   -27605.851   -18669.141   -628.77066   -3614.3741   -291.14255    82.842327 
   25200      435.903    -108.0952    0.3944142   -107.70078    7481.8247    4.3379068    4.3379068    4.3379068    7481.8247    29540.925   -14647.473    7552.0225   -2809.8441    3691.0775   -5372.1654     81.62828 
   25300    771.06524   -108.40076   0.69767603   -107.70308   -3069.7834    4.3443003    4.3443003    4.3443003   -3069.7834    6733.2551   -1169.4997   -14773.106    5693.4508    1210.4912   -11040.928    81.989743 
   25400    601.55999   -108.24944   0.54430412   -107.70514   -1008.1238    4.3548103    4.3548103    4.3548103   -1008.1238    15721.142   -15384.317   -3361.1964    -147.7738   -989.68087    6161.2922    82.586248 
   25500    359.67448   -108.03332   0.32544103   -107.70788    9778.5187    4.3356173    4.3356173    4.3356173    9778.5187    40822.025   -6008.9178   -5477.5513   -4752.4231   -2003.3347   -13857.241    81.499104 
   25600    881.67691    -108.5022   0.79775979   -107.70444   -7449.8355    4.3528599    4.3528599    4.3528599   -7449.8355   -3245.7297    -17355.13   -1748.6468    521.91549   -3591.4356     2024.331     82.47533 
   25700    589.02831   -108.23562   0.53296519   -107.70265   -3272.1433    4.3495026    4.3495026    4.3495026   -3272.1433    24135.336   -13942.217   -20009.549   -6809.2498     -1964.78   -863.87392    82.284643 
   25800     450.1014   -108.10808   0.40726121   -107.70082   -2441.9492    4.3376893    4.3376893    4.3376893   -2441.9492    15639.837   -12801.096   -10164.588   -2745.3959    2562.5796   -13134.341    81.616003 
   25900    715.32814   -108.34614   0.64724393    -107.6989   -1842.8765    4.3542916    4.3542916    4.3542916   -1842.8765    22862.791    -11038.22   -17353.201    5412.9627   -2507.3189    8720.1412    82.556739 
   26000    534.38555   -108.18773   0.48352327   -107.70421   -1554.1862    4.3450651    4.3450651    4.3450651   -1554.1862    3990.1684   -12045.928    3393.2008   -9470.1423    835.24133   -12744.104     82.03305 
   26100    612.43961   -108.25875   0.55414823    -107.7046    5470.3301    4.3416644    4.3416644    4.3416644    5470.3301    25864.543   -3846.7769   -5606.7764    2334.1152    3918.6416    982.12983    81.840592 
   26200    679.53581   -108.31554   0.61485828   -107.70068     3707.261    4.3528092    4.3528092    4.3528092     3707.261    11829.071   -7355.2549    6647.9671    1280.3663    850.24425   -389.19264    82.472448 
   26300    452.69153   -108.11352   0.40960481   -107.70392    -6587.793    4.3433724    4.3433724    4.3433724    -6587.793    10548.904   -17934.174   -12378.109   -3856.9835    3580.2566   -11851.993    81.937218 
   26400    683.23029   -108.31987   0.61820113   -107.70167   -2666.4696    4.3456992    4.3456992    4.3456992   -2666.4696    753.84411   -15703.683    6950.4299     4926.678   -3216.3023    3552.5973    82.068969 
   26500     720.7494   -108.35092    0.6521492   -107.69877    -4948.251    4.3510049    4.3510049    4.3510049    -4948.251    16249.379   -11260.768   -19833.364   -4010.9724    116.38607   -8472.4358    82.369934 
   26600    428.68497    -108.0878   0.38788317   -107.69992   -1547.2931    4.3424309    4.3424309    4.3424309   -1547.2931    12780.614   -10243.971   -7178.5228   -7331.3001   -5959.6026   -2663.3253    81.883944 
   26700    603.43452   -108.24475   0.54600023   -107.69875   -2044.7532    4.3493361    4.3493361    4.3493361   -2044.7532    19132.472   -15628.947   -9637.7838    1981.1397     1640.712     3966.515    82.275195 
   26800    652.81578    -108.2903   0.59068144   -107.69962   -2027.9448    4.3469618    4.3469618    4.3469618   -2027.9448   -6582.0123   -7940.6382    8438.8162   -738.15945   -5092.0841   -5518.3128    82.140524 
   26900    607.32695   -108.25272   0.54952219    -107.7032   -4360.9284    4.3449002    4.3449002    4.3449002   -4360.9284    11948.538   -23617.151   -1414.1723    2279.9559    2855.3295    2601.7553    82.023713 
   27000    597.02711    -108.2413   0.54020268    -107.7011    11991.206     4.348065     4.348065     4.348065    11991.206    34480.724   -3611.0092    5103.9022    4227.5193    2150.8077     4318.886    82.203081 
   27100    672.26088   -108.30826   0.60827577   -107.69998   -10403.315    4.3481537    4.3481537    4.3481537   -10403.315    4796.0479   -19321.764   -16684.228   -11402.813    5558.6496   -3041.8075    82.208108 
   27200    392.02694   -108.05698   0.35471421   -107.70227    854.14714    4.3457819    4.3457819    4.3457819    854.14714    19669.657   -15117.029   -1990.1872     4825.164    643.31201    10869.128    82.073656 
   27300    786.48144    -108.4101   0.71162494   -107.69847    1844.8964    4.3492413    4.3492413    4.3492413    1844.8964    15874.362    -4911.682   -5427.9913    765.11669   -100.64792    2451.0455    82.269816 
   27400    584.16295   -108.23215   0.52856292   -107.70359   -4772.8271    4.3459557    4.3459557    4.3459557   -4772.8271    8084.3462   -14534.431   -7868.3962   -5760.2922   -4912.5717    1587.7115    82.083502 
   27500    430.64027   -108.09606   0.38965237   -107.70641    11013.935    4.3438907    4.3438907    4.3438907    11013.935     31655.43    -10242.55    11628.925     3503.914    3537.2702    11191.164    81.966549 
   27600    830.78574   -108.45137    0.7517124   -107.69966   -13412.595    4.3565326    4.3565326    4.3565326   -13412.595   -13965.887   -17630.324   -8641.5747    -2352.903   -3516.8874   -8675.5645    82.684269 
   27700    390.21717   -108.05378    0.3530767    -107.7007    18422.019    4.3332223    4.3332223    4.3332223    18422.019    45562.307   -8975.8698     18679.62   -3492.0684    3763.6179    10111.113    81.364115 
   27800    808.15516   -108.43521   0.73123577   -107.70398   -12958.596    4.3562688    4.3562688    4.3562688   -12958.596   -11895.043   -12408.932   -14571.811    9235.6417    1572.9866   -1925.4882     82.66925 
   27900    527.91902   -108.18142   0.47767222   -107.70375    494.49665    4.3471794    4.3471794    4.3471794    494.49665    22933.528   -14344.982    -7105.056   -6807.5985    2714.0602   -3281.1669    82.152863 
   28000    480.72661   -108.13839   0.43497154   -107.70342   -350.79192    4.3341138    4.3341138    4.3341138   -350.79192      6831.17   -5239.0364   -2644.5094    2026.3499   -1927.5531    11749.856    81.414343 
   28100    606.41396   -108.24709   0.54869609    -107.6984   -7799.2571     4.363417     4.363417     4.363417   -7799.2571    2225.1001   -22815.733   -2807.1387   -545.04341    4780.7934   -4803.8355    83.076875 
   28200    797.69298    -108.4185   0.72176937   -107.69673    9127.0427    4.3299715    4.3299715    4.3299715    9127.0427    15333.454    7332.9705    4714.7032   -6277.7911   -6845.2514    10555.816    81.181133 
   28300    303.19062   -107.98333   0.27433324     -107.709    2.4071926    4.3531282    4.3531282    4.3531282    2.4071926    19415.431   -32481.438    13073.229     10140.22    255.75289    5388.1737    82.490584 
   28400    876.08203   -108.49094   0.79269743   -107.69824   -12341.947    4.3488064    4.3488064    4.3488064   -12341.947   -12291.819   -9680.8678   -15053.154    3498.8669    2073.5172    3797.4331    82.245137 
   28500    317.47769   -107.98843   0.28726049   -107.70117    14650.015    4.3357302    4.3357302    4.3357302    14650.015    45332.878   -10802.263    9419.4309   -3937.2372    1028.3576    9375.2539    81.505469 
   28600    801.98383   -108.42368   0.72565183   -107.69803   -23671.372    4.3576407    4.3576407    4.3576407   -23671.372   -27657.239   -22914.556   -20442.321    8448.0766    4754.4523    5368.7825     82.74738 
   28700    538.07343    -108.1839   0.48686014   -107.69704    18245.457    4.3380998    4.3380998    4.3380998    18245.457    40269.946    5544.7414    8921.6841   -5261.8302    6754.6571    896.78107    81.639174 
   28800     515.5083   -108.16981   0.46644274   -107.70337   -17021.829    4.3508275    4.3508275    4.3508275   -17021.829   -1934.6235   -33415.353    -15715.51    4496.2748    -1893.759    6849.8779    82.359858 
   28900    547.57916   -108.19709   0.49546113   -107.70163    8996.1726    4.3445737    4.3445737    4.3445737    8996.1726    13992.951   -4130.3049    17125.872    7421.4005    8869.1356   -4787.0044    82.005223 
   29000    775.02464   -108.40033   0.70125858   -107.69907   -4153.5129    4.3439272    4.3439272    4.3439272   -4153.5129    3674.0021   -7264.6713   -8869.8694   -1899.0447    1477.3331   -2703.2158    81.968619 
   29100    511.88496   -108.16514   0.46316427   -107.70197   -6954.7711    4.3494375    4.3494375    4.3494375   -6954.7711   -7000.9468   -28679.422    14816.056    247.34714    734.48925    4329.9921    82.280949 
   29200    649.18117   -108.28494   0.58739277   -107.69754    2234.9382     4.342439     4.342439     4.342439    2234.9382    20459.824   -3676.3436   -10078.666    6131.3436    1953.9753   -8371.3647    81.884401 
   29300    426.23534   -108.08603   0.38566669   -107.70036   -4260.1194    4.3506592    4.3506592    4.3506592   -4260.1194    19422.142   -20358.977   -11843.523   -1661.7255   -578.52127    10718.577    82.350302 
   29400    699.25444   -108.33483   0.63270011   -107.70213    1200.9888    4.3401443    4.3401443    4.3401443    1200.9888   -5210.2416   -1745.8548    10559.063    9472.2743   -1717.2046   -3034.7853    81.754657 
   29500    639.66275   -108.28141    0.5787803   -107.70263   -1610.4545     4.350618     4.350618     4.350618   -1610.4545    1251.2063   -2815.5408    -3267.029   -2844.0307    2921.7988    3959.2053    82.347964 
   29600    578.08082   -108.22402   0.52305968   -107.70096   -2919.1363    4.3448681    4.3448681    4.3448681   -2919.1363   -6410.2047   -17470.601    15123.397   -3291.5888   -7536.0605    6470.9112    82.021891 
   29700    464.99558   -108.12093   0.42073777   -107.70019    10473.897    4.3434142    4.3434142    4.3434142    10473.897    28483.079   -4644.3264    7582.9387    5399.3899    3084.1047   -1939.1218    81.939582 
   29800    745.82261    -108.3726   0.67483597   -107.69776   -8202.7181     4.350672     4.350672     4.350672   -8202.7181   -3293.5408    -11982.34   -9332.2731   -1297.6563    237.20441    7030.5382    82.351028 
   29900    650.43762   -108.28749   0.58852963   -107.69896    4747.2696    4.3403649    4.3403649    4.3403649    4747.2696    15132.401   -5714.8374    4824.2447    6343.3354    143.01171   -978.97711    81.767127 
   30000    590.53052   -108.23481   0.53432443   -107.70048   -6611.6198    4.3512704    4.3512704    4.3512704   -6611.6198   -6763.7592   -12748.709   -322.39166    879.61778    5824.7374   -4949.6172    82.385016 
   30100    593.75583   -108.23717   0.53724276   -107.69993   -1143.8836     4.343491     4.343491     4.343491   -1143.8836    16653.602   -5835.8474   -14249.406   -1003.6939    2252.6136   -1474.0855    81.943927 
   30200    460.95762   -108.12046   0.41708414   -107.70338    15495.528    4.3400837    4.3400837    4.3400837    15495.528    15025.591    2384.3198    29076.673   -2011.7572   -1520.9413   -3051.4669    81.751236 
   30300    801.13516   -108.42395   0.72488393   -107.69907   -14301.977     4.355567     4.355567     4.355567   -14301.977   -11541.954   -14823.334   -16540.641    2488.9677    4209.9549   -10430.417    82.629307 
   30400    580.39185   -108.22181   0.52515074   -107.69666    12313.668    4.3373101    4.3373101    4.3373101    12313.668    13008.728   -2427.3228      26359.6   -126.80337    1173.5208    6182.4047    81.594602 
   30500    479.60318   -108.13488   0.43395504   -107.70093   -6152.8634    4.3478443    4.3478443    4.3478443   -6152.8634    12120.831   -23277.313   -7302.1072     5507.887   -3602.5023   -8411.3286    82.190562 
   30600    626.77607   -108.26641   0.56712016   -107.69929   -6235.1514    4.3509336    4.3509336    4.3509336   -6235.1514    988.27668   -8280.3137   -11413.417   -4019.9345    2795.2467   -1168.3085    82.365883 
   30700    685.58313   -108.31974   0.62033002   -107.69941    4524.0753    4.3367227    4.3367227    4.3367227    4524.0753    9218.2891    2059.6894    2294.2476    368.49205    -5624.602    5874.1142    81.561454 
   30800    473.08242   -108.13008   0.42805492   -107.70203   -5392.1131    4.3523859    4.3523859    4.3523859   -5392.1131   -6610.5169   -16413.218    6847.3953    2869.3045    2541.5581   -9365.8477    82.448393 
   30900    725.29149   -108.35273   0.65625898   -107.69647   -3753.6352    4.3463145    4.3463145    4.3463145   -3753.6352    6414.8573   -5258.9779   -12416.785    2722.1011    3792.5569    6087.1752    82.103837 
   31000    390.81637    -108.0542   0.35361887   -107.70058    11818.649    4.3393888    4.3393888    4.3393888    11818.649     18609.83   -2113.4743     18959.59    4762.3621   -4629.3011   -3856.6351    81.711973 
   31100    725.73716   -108.35834   0.65666224   -107.70168   -17949.257    4.3534026    4.3534026    4.3534026   -17949.257   -15855.595   -18347.582   -19644.594   -700.30971    2568.4184   -4252.9808    82.506183 
   31200    698.96394   -108.33197   0.63243726   -107.69953    8109.5844    4.3402156    4.3402156    4.3402156    8109.5844    22082.816   -379.47506    2625.4124   -2207.6945   -3695.2754    789.62006    81.758686 
   31300    457.93331   -108.11811   0.41434768   -107.70376   -12856.535    4.3490663    4.3490663    4.3490663   -12856.535   -7722.4404   -31677.066    829.90161    4807.7849   -298.64114   -8464.8388    82.259883 
   31400    612.17776   -108.25371    0.5539113    -107.6998    1518.3272    4.3446891    4.3446891    4.3446891    1518.3272    29634.005   -4330.0261   -20748.997    1095.6365    1557.6013   -6862.6502    82.011755 
   31500    692.98718   -108.32699   0.62702936   -107.69996    6647.4771    4.3426324    4.3426324    4.3426324    6647.4771   -6170.5786    9568.0359    16544.974     2859.929   -1386.4529   -623.72247    81.895341 
   31600    487.08411   -108.14349   0.44072394   -107.70276   -12679.682    4.3525009    4.3525009    4.3525009   -12679.682    1615.1197   -21784.047   -17870.118     8307.676   -2637.7371   -12818.548    82.454924 
   31700    619.45564   -108.25943   0.56049648   -107.69893    16010.356    4.3378913    4.3378913    4.3378913    16010.356    18025.278    5770.6329    24235.156   -7497.0426    4955.1103    4878.9273    81.627407 
   31800    598.33486   -108.24366   0.54138595   -107.70227    -10300.84    4.3511417    4.3511417    4.3511417    -10300.84    5446.3361   -17371.637   -18977.218    6046.5058   -2696.7701   -2396.8464    82.377703 
   31900    468.37554   -108.12581   0.42379604   -107.70201     1084.617    4.3439919    4.3439919    4.3439919     1084.617    18358.824   -12058.657    -3046.316    2384.1446    3699.7618   -5194.9275    81.972282 
   32000    917.98368   -108.52801   0.83061093    -107.6974   -2093.6342    4.3436005    4.3436005    4.3436005   -2093.6342    -5594.714    170.39573   -856.58424     5947.115    514.01045    7712.6459    81.950123 
   32100    394.52932   -108.05918   0.35697842    -107.7022    -5637.728    4.3514443    4.3514443    4.3514443    -5637.728    11460.441   -26014.747   -2358.8782     3583.603   -3464.2158    -10042.03     82.39489 
   32200    572.23265   -108.21873   0.51776813   -107.70097    6435.7663    4.3384605    4.3384605    4.3384605    6435.7663    17053.287   -4472.3773    6726.3892    41.259884    4980.6598    4753.6008    81.659544 
   32300     730.0655   -108.36122   0.66057861   -107.70064    855.51795    4.3494621    4.3494621    4.3494621    855.51795    824.32317    5102.1053   -3359.8746   -6365.5357    695.89383    436.36989    82.282343 
   32400    443.16728   -108.10619   0.40098707   -107.70521    1641.2041    4.3435418    4.3435418    4.3435418    1641.2041    18611.092   -14082.342    394.86174    4202.8719   -2688.1568   -5747.5786    81.946801 
   32500    728.63946   -108.36177   0.65928829   -107.70249   -6765.9206    4.3434967    4.3434967    4.3434967   -6765.9206   -8683.6763   -11974.134    360.04873   -2748.1423    5869.7067    1844.2733    81.944252 
   32600    602.75375   -108.24532   0.54538426   -107.69994    687.77261    4.3491658    4.3491658    4.3491658    687.77261    20751.943   -9712.2358   -8976.3892    2636.4681   -4058.8395   -5941.6163     82.26553 
   32700    618.23822   -108.26011   0.55939493   -107.70072   -9592.2788     4.340963     4.340963     4.340963   -9592.2788    461.19442   -16020.885   -13217.146    1802.6415    -1540.571   -5517.8566    81.800931 
   32800    516.60667   -108.17011   0.46743657   -107.70268    5725.1634    4.3465502    4.3465502    4.3465502    5725.1634    8181.0641   -341.62623    9336.0522   -3811.1917    7126.9299    2856.5886    82.117196 
   32900    738.93127   -108.36934   0.66860054   -107.70074   -6163.6702    4.3470172    4.3470172    4.3470172   -6163.6702   -76.295565   -11235.764   -7178.9509    3581.2907   -7444.7175   -1204.5615    82.143667 
   33000    391.95633   -108.05869   0.35465033   -107.70404    5840.5239    4.3425189    4.3425189    4.3425189    5840.5239    12806.293    -11878.57    16593.849    4407.4015    2799.3821   -13.712012    81.888924 
   33100    688.87205   -108.32337   0.62330591   -107.70007   -242.47639    4.3467707    4.3467707    4.3467707   -242.47639    15008.627    3558.3026   -19294.359    3087.5492    1184.6724    7348.6649     82.12969 
   33200    558.27079   -108.20519   0.50513514   -107.70005   -5021.1033    4.3474577    4.3474577    4.3474577   -5021.1033    3206.3737   -5356.4748   -12913.209    2685.2346    418.67078   -7122.8328    82.168637 
   33300    552.83891   -108.20067   0.50022027   -107.70045   -8328.9428    4.3430005    4.3430005    4.3430005   -8328.9428   -6827.0331   -16354.613    -1805.182    388.08981    4673.3115     5565.668    81.916172 
   33400     738.4971    -108.3664    0.6682077   -107.69819   -5146.3023    4.3470268    4.3470268    4.3470268   -5146.3023   -4382.6529   -10394.487   -661.76702   -8774.2922   -658.31571    -2123.137    82.144208 
   33500    572.35846   -108.21708   0.51788197   -107.69919   -686.07392     4.347227     4.347227     4.347227   -686.07392    16123.375    -16102.67    -2078.926    6720.2076   -324.26407   -5568.3446    82.155561 
   33600     526.5784   -108.17618    0.4764592   -107.69972    2082.9314    4.3422209    4.3422209    4.3422209    2082.9314   -793.22163   -1970.5396    9012.5554   -3701.1329    3036.4713    3137.0307    81.872065 
   33700    620.21733   -108.26032   0.56118567   -107.69913    357.09203    4.3473789    4.3473789    4.3473789    357.09203    5042.6652    -5616.363    1644.9739    4364.1384   -2973.6197   -9712.2686    82.164171 
   33800    619.36355   -108.26369   0.56041315   -107.70327   -7253.5357    4.3453914    4.3453914    4.3453914   -7253.5357   -5123.1222   -15358.738   -1278.7463   -251.71112   -506.59937    1228.9805    82.051535 
   33900    556.90243   -108.21071   0.50389702   -107.70681    1241.5359    4.3407613    4.3407613    4.3407613    1241.5359   -4006.8349   -4439.4484    12170.891   -7051.3609    2282.8043   -65.156603    81.789531 
   34000    712.34863   -108.34975   0.64454801   -107.70521   -1284.2506    4.3465235    4.3465235    4.3465235   -1284.2506     17809.76   -7758.0335   -13904.479    1087.6932    -2342.614    1154.4599    82.115683 
   34100     448.0677   -108.11157   0.40542107   -107.70615   -325.16105    4.3461392    4.3461392    4.3461392   -325.16105    443.71074   -23292.945    21873.751    92.045342    5650.4179     4052.236    82.093903 
   34200    691.87365   -108.32785   0.62602182   -107.70183   -1996.3867    4.3414716    4.3414716    4.3414716   -1996.3867   -2951.2691   -3086.9405    49.049424   -3707.2632     3334.652    4158.5187    81.829687 
   34300    689.91625   -108.32384   0.62425072   -107.69959    2533.9718    4.3490525    4.3490525    4.3490525    2533.9718    7663.9881   -11089.881    11027.808    3117.7554   -213.62097   -4153.8317    82.259099 
   34400    500.96413    -108.1536   0.45328287   -107.70032   -6230.2643    4.3449427    4.3449427    4.3449427   -6230.2643   -6807.5961   -5376.7179    -6506.479    -6032.673   -1946.2483    4850.4228    82.026117 
   34500    505.37401    -108.1554   0.45727303   -107.69813    4987.0306    4.3409319    4.3409319    4.3409319    4987.0306    15528.114    11626.239   -12193.261   -3690.3888    -1770.639   -7290.0317    81.799175 
   34600    676.80634   -108.30834    0.6123886   -107.69595   -10524.138    4.3533533    4.3533533    4.3533533   -10524.138   -21531.484   -16007.665    5966.7346    796.80328   -4444.0229    1238.3757     82.50338 
   34700    560.92433   -108.20555   0.50753612   -107.69801    2433.7085    4.3383424    4.3383424    4.3383424    2433.7085     3757.896     933.1072    2610.1223   -1736.6047    1138.2105    1954.3325    81.652877 
   34800    697.06256   -108.33023   0.63071685   -107.69951    1492.6482    4.3453014    4.3453014    4.3453014    1492.6482   -129.21624   -3793.9883    8401.1492    -536.4507   -5834.0059   -4863.3602    82.046437 
   34900    578.62998   -108.22301   0.52355656   -107.69946   -5304.2283    4.3507369    4.3507369    4.3507369   -5304.2283    9865.3529   -13802.139   -11975.899   -2521.7811    2951.2456    6781.3617    82.354716 
   35000    416.81795   -108.07973   0.37714564   -107.70258    4308.4424    4.3357499    4.3357499    4.3357499    4308.4424   -12112.946    9000.1467    16038.126   -6327.3903   -4892.7859    -1576.736    81.506578 
[...]
   91200    558.31931    -108.2084   0.50517904   -107.70322   -5936.7965     4.335044     4.335044     4.335044   -5936.7965   -21457.209    13014.166   -9367.3461    5254.6486    18268.189   -402.03057    81.466778 
   91300    817.25429   -108.43802   0.73946885   -107.69855    8480.7446    4.3292619    4.3292619    4.3292619    8480.7446     11811.23    14254.815   -623.81048   -55.010137   -12409.371    643.92467     81.14123 
   91400    497.58603   -108.15215    0.4502263   -107.70192    -10022.29    4.3374156    4.3374156    4.3374156    -10022.29   -13813.239   -1089.3623   -15164.269   -1756.3183    20136.214    815.90845    81.600554 
   91500     490.3144   -108.14422   0.44364677   -107.70058   -3739.3702    4.3308079    4.3308079    4.3308079   -3739.3702   -2708.3666   -5649.0434   -2860.7006    12453.895    1332.3375   -1333.1404    81.228189 
   91600    655.00549   -108.29241   0.59266273   -107.69975    3267.8944    4.3313487    4.3313487    4.3313487    3267.8944    10634.386    8588.8916   -9419.5946   -4402.3932   -1118.8245    -1343.226    81.258621 
   91700    607.45622   -108.25306   0.54963915   -107.70342   -8284.3531     4.337367     4.337367     4.337367   -8284.3531   -20792.091    7865.5357   -11926.504    4520.8383    20170.837    136.70472    81.597813 
   91800    727.91939   -108.35882   0.65863676   -107.70018    9452.3935    4.3280752    4.3280752    4.3280752    9452.3935    9131.1088    15271.787    3954.2844    12453.265   -7896.1713    770.24172    81.074524 
   91900    539.30338    -108.1889   0.48797303   -107.70093   -8147.5982     4.337772     4.337772     4.337772   -8147.5982   -557.68038   -1358.8924   -22526.222   -4768.5072    12020.245    4589.2283    81.620671 
   92000    438.46758   -108.09824   0.39673468    -107.7015   -1711.9765    4.3304133    4.3304133    4.3304133   -1711.9765   -5970.5844   -4195.5419    5030.1968    10674.741    8478.2486   -1594.1637    81.205984 
   92100    705.43264   -108.33737   0.63829028   -107.69908    3391.9964    4.3333087    4.3333087    4.3333087    3391.9964    9837.2922    3883.1636   -3544.4667    1712.1287   -5884.5675    4965.0072    81.368984 
   92200    645.87121   -108.28574   0.58439785   -107.70134   -3836.8101    4.3347943    4.3347943    4.3347943   -3836.8101   -6937.0554    9640.4745    -14213.85   -4544.0468    18565.486   -1052.9111    81.452699 
   92300    613.42978   -108.25568   0.55504416   -107.70063    3691.6284    4.3310467    4.3310467    4.3310467    3691.6284   -5795.4573    11075.209    5795.1332    12915.056    -1041.997    2665.9925    81.241624 
   92400    601.06941   -108.24268   0.54386023   -107.69882   -6212.6689    4.3364211    4.3364211    4.3364211   -6212.6689    1349.0056   -2828.5534   -17158.459   -176.54393    4092.9169   -447.44065    81.544438 
   92500    416.85127   -108.07911   0.37717578   -107.70193    2251.8789    4.3281284    4.3281284    4.3281284    2251.8789    590.82564    4917.2582    1247.5528    2361.2743    15008.344   -318.30787    81.077512 
   92600    738.77461   -108.36859   0.66845879   -107.70013   -2642.1119     4.337696     4.337696     4.337696   -2642.1119   -5363.8599   -7861.1147    5298.6389    13975.602   -8584.5215   -3136.9693     81.61638 
   92700    675.55872   -108.31205   0.61125973   -107.70079    3219.9484    4.3306886    4.3306886    4.3306886    3219.9484    1912.2477    17138.519    -9390.921   -4764.4314    13902.034    -2035.736    81.221472 
   92800    505.99713   -108.16093   0.45783684    -107.7031   -5963.9199    4.3324078    4.3324078    4.3324078   -5963.9199   -16842.248   -1458.7589    409.24757    17440.241    5741.4538    219.86005    81.318243 
   92900    637.85435   -108.27661   0.57714402   -107.69947   -2246.2941    4.3357599    4.3357599    4.3357599   -2246.2941    -4621.511    33.639427   -2151.0106    8336.9905   -5307.4825    535.20521    81.507146 
   93000    532.21976   -108.18297   0.48156363    -107.7014     881.3369    4.3290457    4.3290457    4.3290457     881.3369    5885.0652     3778.848   -7019.9025   -1685.9624     19754.24    339.12491    81.129071 
   93100     601.3348   -108.24625   0.54410037   -107.70215   -7427.0007    4.3377925    4.3377925    4.3377925   -7427.0007   -14297.952   -11718.532    3735.4817    15047.971   -8773.1014    1214.4832     81.62183 
   93200    745.96468    -108.3733   0.67496452   -107.69833    4627.4121    4.3287863    4.3287863    4.3287863    4627.4121    -804.3437    18332.588    -3646.008    -1220.507    8708.4896   -1959.4877    81.114492 
   93300    466.34234   -108.12491   0.42195635   -107.70295   -12627.576    4.3353109    4.3353109    4.3353109   -12627.576   -18516.756   -9307.2168   -10058.756    6847.9383    15132.059   -712.07797    81.481826 
   93400    555.61376   -108.20462   0.50273101   -107.70189   -3.9513421    4.3323336    4.3323336    4.3323336   -3.9513421   -5000.5326   -2046.6869    7035.3655    17317.583   -9893.5157    1336.8375    81.314063 
   93500    710.30965   -108.34275    0.6427031   -107.70004    341.57686     4.331925     4.331925     4.331925    341.57686     2324.274    9208.5449   -10508.088   -7465.1137    19619.752    -5432.994    81.291058 
   93600    480.77664   -108.13817    0.4350168   -107.70316   -10278.698    4.3364685    4.3364685    4.3364685   -10278.698   -19980.716    -8037.244   -2818.1345    19492.489    514.12733    1467.8609    81.547115 
   93700    707.54776   -108.33905   0.64020409   -107.69884    2321.9403    4.3276505    4.3276505    4.3276505    2321.9403   -7503.9512    13728.961    740.81105    8205.2866   -4650.2182   -1081.9046    81.050656 
   93800    589.00531   -108.23227   0.53294438   -107.69933   -14317.483    4.3401067    4.3401067    4.3401067   -14317.483   -16254.446   -7353.9212   -19344.083     2947.733    20058.042     1203.395    81.752531 
   93900    467.60589   -108.12495   0.42309963   -107.70185    684.92859    4.3274208    4.3274208    4.3274208    684.92859    492.49436   -11655.089     13217.38    27280.687    -8174.669     299.2354    81.037752 
   94000    718.09571   -108.34921   0.64974809   -107.69947    2990.3902    4.3331763    4.3331763    4.3331763    2990.3902    462.09327    18021.206   -9512.1287   -6787.8234     4556.436    4692.0032    81.361527 
   94100    556.21639   -108.20498   0.50327628    -107.7017   -10978.795    4.3389747    4.3389747    4.3389747   -10978.795   -18402.585   -4328.0465   -10205.755    14964.721    12852.115   -2850.6759    81.688581 
   94200    611.70478   -108.25374   0.55348334   -107.70026    8273.6291    4.3215737    4.3215737    4.3215737    8273.6291    189.72276    11570.688    13060.477     15647.35   -11743.311    1899.5515    80.709706 
   94300    677.01048   -108.31101   0.61257331   -107.69843    -11344.89    4.3433196    4.3433196    4.3433196    -11344.89   -4389.3839   -6678.6658    -22966.62   -5838.7648    14692.361   -988.19182    81.934228 
   94400     452.2243   -108.11165   0.40918205   -107.70247    2820.6525     4.327745     4.327745     4.327745    2820.6525    9719.4885   -13480.842    12223.311    19793.557    5119.4855   -2045.3449    81.055965 
   94500    631.04412   -108.27096   0.57098198   -107.69998    5195.2756    4.3303615    4.3303615    4.3303615    5195.2756   -1670.6859    15560.904    1695.6084    3766.3512   -3297.9359    805.50282    81.203071 
   94600    686.81027   -108.32092   0.62144037   -107.69948    -6317.275    4.3393092    4.3393092    4.3393092    -6317.275   -14992.954    7704.2359   -11663.107   -1594.3801    14548.256   -1908.4628    81.707477 
   94700    566.70109   -108.21299   0.51276305   -107.70023    10855.203    4.3249455    4.3249455    4.3249455    10855.203    7736.6775    5784.5982    19044.335    26837.176   -3742.7979   -483.00889    80.898768 
   94800    650.14625   -108.28637   0.58826599    -107.6981   -4465.1169    4.3393946    4.3393946    4.3393946   -4465.1169    5891.0996    -4418.823   -14867.627   -3002.7404    1506.7345   -2753.0921    81.712299 
   94900    483.28131   -108.13797   0.43728309   -107.70068     3865.752    4.3288198    4.3288198    4.3288198     3865.752    6587.6564   -2658.9635    7668.5631    12381.024    11883.388    754.21714    81.116373 
   95000    627.03962   -108.26842   0.56735863   -107.70106    1522.3474    4.3319018    4.3319018    4.3319018    1522.3474   -4694.6264    2934.8955    6326.7731    16021.806   -7740.1611   -1415.4574    81.289754 
   95100    718.21474   -108.34951   0.64985579   -107.69965   -2365.3861    4.3361636    4.3361636    4.3361636   -2365.3861   -5341.0071     12663.79   -14418.941    -6703.941    2308.9205    1958.7926    81.529916 
   95200    518.85284   -108.17083   0.46946895   -107.70136    8088.5246    4.3280537    4.3280537    4.3280537    8088.5246    11049.388    844.56445    12371.622    19611.148     5910.801   -1668.0364    81.073311 
   95300    613.38402   -108.25415   0.55500275   -107.69914   -2975.5837    4.3371859    4.3371859    4.3371859   -2975.5837    8554.8789    -4398.175   -13083.455    453.60411   -12681.115    699.77945    81.587594 
   95400    521.59083   -108.17262   0.47194635   -107.70067    3844.6337    4.3281059    4.3281059    4.3281059    3844.6337   -2749.8686    13602.194    681.57542    1347.7444    11152.263   -808.81062    81.076248 
   95500    674.77357   -108.31162    0.6105493   -107.70107   -5049.3339    4.3352773    4.3352773    4.3352773   -5049.3339   -6407.9223   -6537.8637   -2202.2158    13941.938    384.52143   -2142.4385    81.479929 
   95600    652.26156   -108.29041   0.59017996   -107.70023    126.10942    4.3337448    4.3337448    4.3337448    126.10942    4856.8998    5326.1556   -9804.7271   -3854.0386   -10995.545   -2370.2425     81.39355 
   95700    516.92154   -108.16979   0.46772147   -107.70207    3762.6606    4.3273076    4.3273076    4.3273076    3762.6606    9236.1304    1921.3022     130.5492     9391.238    14468.727   -642.83874    81.031394 
   95800    600.24963   -108.24242   0.54311848    -107.6993   -8371.5194    4.3402614    4.3402614    4.3402614   -8371.5194   -4110.6408   -9902.0756   -11101.842    9998.6967   -7337.3859   -6654.6981    81.761277 
   95900    591.76376   -108.23643   0.53544029   -107.70099   -127.09519    4.3256617    4.3256617    4.3256617   -127.09519    -11134.27        19153   -8400.0158   -5805.1129   -3117.9987    -1570.692    80.938968 
   96000    647.81975   -108.28912   0.58616092   -107.70296   -2505.5691    4.3335376    4.3335376    4.3335376   -2505.5691    2584.9073    273.82892   -10375.444    11499.136    14587.922   -3116.2858    81.381875 
   96100    635.17333   -108.27573   0.57471818   -107.70101   -4981.1941    4.3378235    4.3378235    4.3378235   -4981.1941    11963.979   -12102.163   -14805.399   -397.99943   -16933.272   -6963.4898    81.623581 
   96200    490.39663    -108.1449   0.44372118   -107.70118    3692.6865    4.3232033    4.3232033    4.3232033    3692.6865    1044.3808    10020.375    13.303398   -2114.5958      4504.04    4126.4532    80.801042 
   96300    652.22244   -108.28877   0.59014457   -107.69863   -11737.434    4.3418291    4.3418291    4.3418291   -11737.434   -11310.038   -13041.081   -10861.183    10508.519    5568.7695   -6828.6986    81.849906 
   96400    614.26921   -108.25751   0.55580369   -107.70171    1268.0255    4.3264467    4.3264467    4.3264467    1268.0255   -1746.8623    14870.887   -9319.9478    -6926.935   -16772.013     2072.996    80.983037 
   96500    550.35922   -108.20121   0.49797659   -107.70323    587.90393    4.3320758    4.3320758    4.3320758    587.90393     8020.503    8408.4361   -14665.227    927.53667    14549.363   -774.59152    81.299547 
   96600    714.17694   -108.34455    0.6462023   -107.69835   -6285.1585    4.3383859    4.3383859    4.3383859   -6285.1585    11792.187   -13889.051   -16758.611    1946.4666   -7011.9733   -6087.3091    81.655331 
   96700    419.42993   -108.08085   0.37950901   -107.70135    5432.9181    4.3220184    4.3220184    4.3220184    5432.9181   -1977.8488    13168.625    5107.9778   -5455.8503   -10451.982     1352.842    80.734626 
   96800    680.39915   -108.31549   0.61563945   -107.69985   -12453.774    4.3419992    4.3419992    4.3419992   -12453.774   -12019.291   -9122.3172   -16219.715    242.08742    19352.146   -4264.6464    81.859527 
   96900    675.81739   -108.31216   0.61149378   -107.70066    8946.9693    4.3262828    4.3262828    4.3262828    8946.9693    17085.963    7369.3104     2385.634   -954.12146   -15671.534   -6375.3136    80.973839 
   97000     464.2637   -108.12415   0.42007555   -107.70408   -3127.1056    4.3316338    4.3316338    4.3316338   -3127.1056   -79.312214    5980.3162   -15282.321   -6137.3772     3308.829    781.73317    81.274666 
   97100    728.11863   -108.35689   0.65881704   -107.69807   -2486.6447     4.337455     4.337455     4.337455   -2486.6447    6561.9288   -8712.2683   -5309.5946   -269.92636    8246.3588   -7258.3209    81.602779 
   97200    507.11423   -108.16001   0.45884761   -107.70116    6679.2617    4.3237071    4.3237071    4.3237071    6679.2617    2448.4691     10527.25    7062.0656   -1570.2737   -19471.209   -4959.8785    80.829298 
   97300    562.10776   -108.21151   0.50860692    -107.7029   -9930.4904    4.3395545    4.3395545    4.3395545   -9930.4904   -12873.137    1767.6621   -18685.997   -4611.0764     14135.85    828.60783    81.721332 
   97400    754.42848   -108.38149   0.68262275   -107.69886    13236.428    4.3282445    4.3282445    4.3282445    13236.428    27843.702    2039.3471    9826.2335    3950.7729   -3083.4194   -8863.3346    81.084036 
   97500    474.23894   -108.13222   0.42910136   -107.70312   -5385.1315    4.3320068    4.3320068    4.3320068   -5385.1315   -4964.3501    1849.6569   -13040.701   -4965.4121   -14246.821   -517.78813    81.295666 
   97600    622.92815   -108.26327   0.56363848   -107.69963   -707.95627    4.3345871    4.3345871    4.3345871   -707.95627   -4627.9696    -5506.232    8010.3328   -1029.3297    13412.649     -335.062    81.441021 
   97700    614.61451   -108.25627   0.55611612   -107.70015    3454.9077     4.328997     4.328997     4.328997    3454.9077    8783.3246    3769.6268   -2188.2282    1878.9729   -11387.408    -9258.065    81.126333 
   97800    538.76501   -108.19037   0.48748591   -107.70289   -4189.4297    4.3350472    4.3350472    4.3350472   -4189.4297   -6404.8498    7773.2431   -13936.682   -6298.0128   -5616.0924    3660.1727    81.466956 
   97900    778.62093   -108.40335   0.70451258   -107.69884     8681.217     4.330156     4.330156     4.330156     8681.217    23559.783    1608.1067     875.7613    3237.0112     10413.17   -4765.0359    81.191511 
   98000    433.27483   -108.09531   0.39203617   -107.70327    -6936.599    4.3331948    4.3331948    4.3331948    -6936.599   -2947.7865   -8066.2436    -9795.767    1223.1849   -21616.046   -5105.0798    81.362568 
   98100    593.73403   -108.23802   0.53722303   -107.70079   -1920.7878    4.3316267    4.3316267    4.3316267   -1920.7878   -11218.799   -740.06455    6196.4996   -6676.9182    2120.0279    3687.3404    81.274268 
   98200    687.70679   -108.32284   0.62225156   -107.70059   -1848.3898    4.3329874    4.3329874    4.3329874   -1848.3898    6881.5991   -5448.6552   -6978.1133    4892.9538    2379.8069   -11268.171    81.350883 
   98300    522.48645   -108.17676   0.47275672     -107.704    -2480.213    4.3325253    4.3325253    4.3325253    -2480.213    892.86022    5185.9804    -13519.48    912.56222   -16959.489   -612.99322    81.324862 
   98400    794.87403   -108.41782   0.71921873    -107.6986    4148.7402    4.3314515    4.3314515    4.3314515    4148.7402    13400.253   -20.518312    -933.5145    -5899.631    7151.4909   -6383.3194    81.264406 
   98500    360.06027    -108.0298    0.3257901   -107.70401    -5157.195    4.3322638    4.3322638    4.3322638    -5157.195   -2801.1461   -5281.1086   -7389.3304    12952.308   -9318.9696    -9021.941    81.310136 
   98600     563.6865   -108.21349   0.51003539   -107.70345   -6165.8765    4.3326719    4.3326719    4.3326719   -6165.8765   -20103.539    2685.4488    -1079.539   -5131.7283   -14971.565    408.43143    81.333115 
   98700    870.45113   -108.48666   0.78760248   -107.69906    1933.6528    4.3325623    4.3325623    4.3325623    1933.6528    5597.6003   -1289.9194    1493.2776    1332.0085    6714.9616   -5746.0264    81.326943 
   98800    427.66177   -108.09264   0.38695735   -107.70568   -3203.3645    4.3307485    4.3307485    4.3307485   -3203.3645   -1527.9552    504.01043   -8586.1486    7558.5474   -17451.558    -6414.833    81.224844 
   98900    673.64488   -108.31019   0.60952805   -107.70066    163.03635    4.3348428    4.3348428    4.3348428    163.03635    998.05581   -4394.0917     3885.145   -4312.6925   -9388.4261    6009.6398    81.455434 
   99000    547.30058   -108.19737   0.49520907   -107.70217    6896.6348    4.3284308    4.3284308    4.3284308    6896.6348    9106.8901    5172.2527    6410.7615    7926.8696    2269.4781   -10879.932    81.094506 
   99100     419.0193   -108.08649   0.37913747   -107.70735   -8055.2995    4.3345771    4.3345771    4.3345771   -8055.2995   -25147.693    420.81474    560.97949    4580.2177   -24080.788    221.10521    81.440454 
   99200    968.00209   -108.57482   0.87586864   -107.69895    6143.5144    4.3329283    4.3329283    4.3329283    6143.5144    1961.3708    11834.383    4634.7897   -2462.0785    5057.5233     1366.495    81.347553 
   99300    483.66404   -108.14213   0.43762939    -107.7045    2188.5534    4.3288182    4.3288182    4.3288182    2188.5534    3736.1113   -4365.6499    7195.1987    7330.1703   -5244.8928   -15039.117    81.116285 
   99400    406.71059   -108.07272   0.36800029   -107.70472   -9318.6527    4.3371262    4.3371262    4.3371262   -9318.6527   -14547.966   -9351.7611   -4056.2312    213.97372   -20341.178    5201.0425    81.584221 
   99500     787.5621    -108.4101   0.71260274    -107.6975    12955.386    4.3286097    4.3286097    4.3286097    12955.386    14135.376    12176.172     12554.61   -854.15949    7235.8054   -9219.1244    81.104565 
   99600    468.75103   -108.12895   0.42413578   -107.70482   -6743.8128    4.3348044    4.3348044    4.3348044   -6743.8128    -20063.95    1047.6988    -1215.187     8624.752    -19161.28   -4320.3718    81.453267 
   99700    742.25075   -108.37316   0.67160407   -107.70155    2975.8309    4.3313428    4.3313428    4.3313428    2975.8309     -2672.08    15191.707   -3592.1341   -7683.7023   -11299.482    3656.7902    81.258287 
   99800    628.55711   -108.26958   0.56873168   -107.70085    6009.1787    4.3301634    4.3301634    4.3301634    6009.1787    4834.7531    1160.7327     12032.05    5055.3818    8396.6749   -7357.2938    81.191926 
   99900    359.62225   -108.03055   0.32539377   -107.70516   -15508.327    4.3369936    4.3369936    4.3369936   -15508.327   -21190.193   -10616.953   -14717.834    3592.7135   -27098.592   -390.06744    81.576741 
  100000    778.14163   -108.40321    0.7040789   -107.69913    12283.521    4.3269197    4.3269197    4.3269197    12283.521    12381.832    14210.939    10257.791   -383.66636    2809.0862    1603.4178    81.009604 
Loop time of 21.7803 on 1 procs for 100000 steps with 8 atoms

Pair  time (%) = 6.7301 (30.8999)
Kspce time (%) = 5.30629 (24.3628)
Neigh time (%) = 0 (0)
Comm  time (%) = 1.08465 (4.97995)
Outpt time (%) = 0.0243876 (0.111971)
Other time (%) = 8.63491 (39.6454)

Nlocal:    8 ave 8 max 8 min
Histogram: 1 0 0 0 0 0 0 0 0 0
Nghost:    2189 ave 2189 max 2189 min
Histogram: 1 0 0 0 0 0 0 0 0 0
Neighs:    2056 ave 2056 max 2056 min
Histogram: 1 0 0 0 0 0 0 0 0 0

Total # of neighbors = 2056
Ave neighs/atom = 257
Neighbor list builds = 0
Dangerous builds = 0
seeds:9038559
