   2   2   0   0
  0.9639684E+01  0.3009788E-09  0.3009788E-09  0.3009788E-09  0.5000000E-15
  1.000000000000000E-004
  CAR 
 automatically generated by pyflamestk   
     43.83128937    -16.33582940  301      3.54438942      1.00000000
    -16.336  0.0000E+00  0.0000E+00
    -16.135  0.0000E+00  0.0000E+00
    -15.935  0.0000E+00  0.0000E+00
    -15.734  0.0000E+00  0.0000E+00
    -15.534  0.0000E+00  0.0000E+00
    -15.333  0.0000E+00  0.0000E+00
    -15.132  0.0000E+00  0.0000E+00
    -14.932  0.0000E+00  0.0000E+00
    -14.731  0.0000E+00  0.0000E+00
    -14.531  0.0000E+00  0.0000E+00
    -14.330  0.0000E+00  0.0000E+00
    -14.130  0.0000E+00  0.0000E+00
    -13.929  0.0000E+00  0.0000E+00
    -13.729  0.4774E-04  0.9574E-05
    -13.528  0.3055E+00  0.6128E-01
    -13.327  0.1213E-01  0.6371E-01
    -13.127  0.9282E+00  0.2499E+00
    -12.926  0.7184E+00  0.3939E+00
    -12.726  0.8468E+00  0.5638E+00
    -12.525  0.2627E+01  0.1091E+01
    -12.325  0.2981E+01  0.1688E+01
    -12.124  0.1554E+01  0.2000E+01
    -11.924  0.1645E-06  0.2000E+01
    -11.723  0.0000E+00  0.2000E+01
    -11.522  0.0000E+00  0.2000E+01
    -11.322  0.0000E+00  0.2000E+01
    -11.121  0.0000E+00  0.2000E+01
    -10.921  0.0000E+00  0.2000E+01
    -10.720  0.0000E+00  0.2000E+01
    -10.520  0.0000E+00  0.2000E+01
    -10.319  0.0000E+00  0.2000E+01
    -10.119  0.0000E+00  0.2000E+01
     -9.918  0.0000E+00  0.2000E+01
     -9.717  0.0000E+00  0.2000E+01
     -9.517  0.0000E+00  0.2000E+01
     -9.316  0.0000E+00  0.2000E+01
     -9.116  0.0000E+00  0.2000E+01
     -8.915  0.0000E+00  0.2000E+01
     -8.715  0.0000E+00  0.2000E+01
     -8.514  0.0000E+00  0.2000E+01
     -8.314  0.0000E+00  0.2000E+01
     -8.113  0.0000E+00  0.2000E+01
     -7.912  0.0000E+00  0.2000E+01
     -7.712  0.0000E+00  0.2000E+01
     -7.511  0.0000E+00  0.2000E+01
     -7.311  0.0000E+00  0.2000E+01
     -7.110  0.0000E+00  0.2000E+01
     -6.910  0.0000E+00  0.2000E+01
     -6.709  0.0000E+00  0.2000E+01
     -6.509  0.0000E+00  0.2000E+01
     -6.308  0.0000E+00  0.2000E+01
     -6.107  0.0000E+00  0.2000E+01
     -5.907  0.0000E+00  0.2000E+01
     -5.706  0.0000E+00  0.2000E+01
     -5.506  0.0000E+00  0.2000E+01
     -5.305  0.0000E+00  0.2000E+01
     -5.105  0.0000E+00  0.2000E+01
     -4.904  0.0000E+00  0.2000E+01
     -4.704  0.0000E+00  0.2000E+01
     -4.503  0.0000E+00  0.2000E+01
     -4.302  0.0000E+00  0.2000E+01
     -4.102  0.0000E+00  0.2000E+01
     -3.901  0.0000E+00  0.2000E+01
     -3.701  0.0000E+00  0.2000E+01
     -3.500  0.0000E+00  0.2000E+01
     -3.300  0.0000E+00  0.2000E+01
     -3.099  0.0000E+00  0.2000E+01
     -2.899  0.0000E+00  0.2000E+01
     -2.698  0.0000E+00  0.2000E+01
     -2.497  0.0000E+00  0.2000E+01
     -2.297  0.0000E+00  0.2000E+01
     -2.096  0.0000E+00  0.2000E+01
     -1.896  0.0000E+00  0.2000E+01
     -1.695  0.0000E+00  0.2000E+01
     -1.495  0.0000E+00  0.2000E+01
     -1.294  0.0000E+00  0.2000E+01
     -1.093  0.6547E-10  0.2000E+01
     -0.893  0.2138E+00  0.2043E+01
     -0.692  0.7226E+00  0.2188E+01
     -0.492  0.3158E+00  0.2251E+01
     -0.291  0.1507E+01  0.2553E+01
     -0.091  0.2382E+01  0.3031E+01
      0.110  0.2526E+01  0.3538E+01
      0.310  0.1006E+01  0.3739E+01
      0.511  0.5341E-01  0.3750E+01
      0.712  0.1008E-10  0.3750E+01
      0.912  0.2444E+00  0.3799E+01
      1.113  0.2746E+01  0.4350E+01
      1.313  0.7493E+00  0.4500E+01
      1.514  0.1178E-05  0.4500E+01
      1.714  0.2128E+01  0.4927E+01
      1.915  0.6784E+00  0.5063E+01
      2.115  0.2079E+01  0.5480E+01
      2.316  0.2564E+01  0.5994E+01
      2.517  0.3649E+01  0.6726E+01
      2.717  0.2298E+01  0.7187E+01
      2.918  0.2157E+01  0.7619E+01
      3.118  0.1275E+01  0.7875E+01
      3.319  0.5968E+00  0.7995E+01
      3.519  0.2646E-01  0.8000E+01
      3.720  0.0000E+00  0.8000E+01
      3.920  0.0000E+00  0.8000E+01
      4.121  0.0000E+00  0.8000E+01
      4.322  0.0000E+00  0.8000E+01
      4.522  0.0000E+00  0.8000E+01
      4.723  0.0000E+00  0.8000E+01
      4.923  0.0000E+00  0.8000E+01
      5.124  0.0000E+00  0.8000E+01
      5.324  0.0000E+00  0.8000E+01
      5.525  0.0000E+00  0.8000E+01
      5.725  0.0000E+00  0.8000E+01
      5.926  0.0000E+00  0.8000E+01
      6.127  0.0000E+00  0.8000E+01
      6.327  0.0000E+00  0.8000E+01
      6.528  0.0000E+00  0.8000E+01
      6.728  0.0000E+00  0.8000E+01
      6.929  0.0000E+00  0.8000E+01
      7.129  0.0000E+00  0.8000E+01
      7.330  0.0000E+00  0.8000E+01
      7.530  0.0000E+00  0.8000E+01
      7.731  0.0000E+00  0.8000E+01
      7.932  0.0000E+00  0.8000E+01
      8.132  0.0000E+00  0.8000E+01
      8.333  0.0000E+00  0.8000E+01
      8.533  0.5237E-06  0.8000E+01
      8.734  0.2641E+00  0.8053E+01
      8.934  0.4757E-01  0.8062E+01
      9.135  0.0000E+00  0.8062E+01
      9.335  0.0000E+00  0.8062E+01
      9.536  0.0000E+00  0.8062E+01
      9.737  0.0000E+00  0.8062E+01
      9.937  0.0000E+00  0.8062E+01
     10.138  0.1413E-04  0.8063E+01
     10.338  0.8725E+00  0.8237E+01
     10.539  0.6236E-01  0.8250E+01
     10.739  0.1373E-07  0.8250E+01
     10.940  0.1953E+00  0.8289E+01
     11.140  0.8147E+00  0.8453E+01
     11.341  0.2366E+00  0.8500E+01
     11.542  0.1388E-06  0.8500E+01
     11.742  0.6618E+00  0.8633E+01
     11.943  0.2731E+00  0.8687E+01
     12.143  0.2317E-01  0.8692E+01
     12.344  0.9116E+00  0.8875E+01
     12.544  0.2616E+00  0.8927E+01
     12.745  0.1609E+01  0.9250E+01
     12.946  0.9297E+00  0.9437E+01
     13.146  0.9205E+00  0.9621E+01
     13.347  0.1870E-01  0.9625E+01
     13.547  0.8963E+00  0.9805E+01
     13.748  0.7524E+00  0.9956E+01
     13.948  0.1972E+01  0.1035E+02
     14.149  0.1190E+00  0.1037E+02
     14.349  0.0000E+00  0.1038E+02
     14.550  0.7154E-09  0.1038E+02
     14.751  0.8376E+00  0.1054E+02
     14.951  0.2902E+01  0.1112E+02
     15.152  0.1533E-01  0.1113E+02
     15.352  0.1885E+01  0.1151E+02
     15.553  0.2842E+01  0.1208E+02
     15.753  0.1179E+01  0.1231E+02
     15.954  0.5342E-01  0.1232E+02
     16.154  0.1649E+01  0.1265E+02
     16.355  0.1673E+00  0.1269E+02
     16.556  0.0000E+00  0.1269E+02
     16.756  0.6228E-06  0.1269E+02
     16.957  0.1418E+01  0.1297E+02
     17.157  0.8837E+00  0.1315E+02
     17.358  0.7873E+00  0.1331E+02
     17.558  0.2698E-01  0.1331E+02
     17.759  0.8346E-05  0.1331E+02
     17.959  0.8569E+00  0.1348E+02
     18.160  0.7799E-01  0.1350E+02
     18.361  0.1741E-12  0.1350E+02
     18.561  0.5200E-01  0.1351E+02
     18.762  0.8829E+00  0.1369E+02
     18.962  0.2105E-04  0.1369E+02
     19.163  0.3357E-05  0.1369E+02
     19.363  0.6158E+00  0.1381E+02
     19.564  0.2771E+01  0.1437E+02
     19.764  0.1494E+01  0.1467E+02
     19.965  0.9958E+00  0.1487E+02
     20.166  0.1750E+01  0.1522E+02
     20.366  0.1122E+01  0.1544E+02
     20.567  0.9112E+00  0.1562E+02
     20.767  0.3324E+00  0.1569E+02
     20.968  0.6043E+00  0.1581E+02
     21.168  0.9569E+00  0.1600E+02
     21.369  0.9130E+00  0.1619E+02
     21.569  0.1856E+01  0.1656E+02
     21.770  0.1149E-01  0.1656E+02
     21.971  0.2119E-04  0.1656E+02
     22.171  0.8830E+00  0.1674E+02
     22.372  0.5188E-01  0.1675E+02
     22.572  0.8992E+00  0.1693E+02
     22.773  0.1877E+01  0.1731E+02
     22.973  0.6015E+00  0.1743E+02
     23.174  0.1297E+01  0.1769E+02
     23.374  0.3772E-05  0.1769E+02
     23.575  0.5614E+00  0.1780E+02
     23.776  0.9835E+00  0.1800E+02
     23.976  0.1440E-01  0.1800E+02
     24.177  0.3100E+00  0.1806E+02
     24.377  0.8703E+00  0.1824E+02
     24.578  0.6882E+00  0.1837E+02
     24.778  0.2538E-02  0.1838E+02
     24.979  0.1219E+01  0.1862E+02
     25.179  0.2517E-01  0.1863E+02
     25.380  0.1423E+01  0.1891E+02
     25.581  0.1205E+01  0.1915E+02
     25.781  0.1768E+00  0.1919E+02
     25.982  0.8826E+00  0.1936E+02
     26.182  0.9872E+00  0.1956E+02
     26.383  0.2925E+00  0.1962E+02
     26.583  0.2512E+01  0.2012E+02
     26.784  0.7044E-02  0.2013E+02
     26.984  0.9298E+00  0.2031E+02
     27.185  0.9369E+00  0.2050E+02
     27.386  0.3077E+00  0.2056E+02
     27.586  0.5221E-04  0.2056E+02
     27.787  0.0000E+00  0.2056E+02
     27.987  0.0000E+00  0.2056E+02
     28.188  0.0000E+00  0.2056E+02
     28.388  0.3460E-16  0.2056E+02
     28.589  0.2930E-02  0.2056E+02
     28.790  0.6543E+00  0.2069E+02
     28.990  0.2765E+01  0.2125E+02
     29.191  0.9404E+00  0.2144E+02
     29.391  0.4724E+00  0.2153E+02
     29.592  0.4630E+00  0.2162E+02
     29.792  0.3608E-05  0.2163E+02
     29.993  0.2151E+01  0.2206E+02
     30.193  0.1535E+01  0.2236E+02
     30.394  0.1413E+01  0.2265E+02
     30.595  0.5099E+00  0.2275E+02
     30.795  0.6705E-07  0.2275E+02
     30.996  0.6350E+00  0.2288E+02
     31.196  0.1235E+01  0.2312E+02
     31.397  0.8744E+00  0.2330E+02
     31.597  0.1629E+01  0.2363E+02
     31.798  0.2172E+01  0.2406E+02
     31.998  0.1224E+01  0.2431E+02
     32.199  0.1280E+01  0.2456E+02
     32.400  0.4322E+01  0.2543E+02
     32.600  0.1192E+00  0.2546E+02
     32.801  0.2736E+01  0.2600E+02
     33.001  0.9136E+00  0.2619E+02
     33.202  0.7947E+00  0.2635E+02
     33.402  0.1699E+01  0.2669E+02
     33.603  0.1812E-05  0.2669E+02
     33.803  0.0000E+00  0.2669E+02
     34.004  0.0000E+00  0.2669E+02
     34.205  0.0000E+00  0.2669E+02
     34.405  0.0000E+00  0.2669E+02
     34.606  0.7176E-09  0.2669E+02
     34.806  0.3648E+00  0.2676E+02
     35.007  0.2440E+01  0.2725E+02
     35.207  0.3650E-03  0.2725E+02
     35.408  0.8342E+00  0.2742E+02
     35.608  0.2737E+01  0.2797E+02
     35.809  0.7925E+00  0.2813E+02
     36.010  0.3112E+00  0.2819E+02
     36.210  0.4523E-03  0.2819E+02
     36.411  0.1900E+01  0.2857E+02
     36.611  0.9038E+00  0.2875E+02
     36.812  0.1377E+00  0.2878E+02
     37.012  0.4856E+00  0.2888E+02
     37.213  0.1013E+01  0.2908E+02
     37.413  0.8623E+00  0.2925E+02
     37.614  0.9284E+00  0.2944E+02
     37.815  0.7369E+00  0.2959E+02
     38.015  0.1134E+01  0.2981E+02
     38.216  0.8481E+00  0.2998E+02
     38.416  0.8677E-01  0.3000E+02
     38.617  0.3722E-10  0.3000E+02
     38.817  0.2632E+00  0.3005E+02
     39.018  0.3760E+01  0.3081E+02
     39.218  0.2753E-01  0.3081E+02
     39.419  0.0000E+00  0.3081E+02
     39.620  0.0000E+00  0.3081E+02
     39.820  0.1038E-15  0.3081E+02
     40.021  0.5326E-02  0.3081E+02
     40.221  0.9288E+00  0.3100E+02
     40.422  0.7838E-03  0.3100E+02
     40.622  0.4476E-07  0.3100E+02
     40.823  0.2199E+00  0.3104E+02
     41.023  0.1462E+01  0.3134E+02
     41.224  0.3304E+01  0.3200E+02
     41.425  0.2292E-03  0.3200E+02
     41.625  0.0000E+00  0.3200E+02
     41.826  0.0000E+00  0.3200E+02
     42.026  0.0000E+00  0.3200E+02
     42.227  0.0000E+00  0.3200E+02
     42.427  0.0000E+00  0.3200E+02
     42.628  0.0000E+00  0.3200E+02
     42.829  0.0000E+00  0.3200E+02
     43.029  0.0000E+00  0.3200E+02
     43.230  0.0000E+00  0.3200E+02
     43.430  0.0000E+00  0.3200E+02
     43.631  0.0000E+00  0.3200E+02
     43.831  0.0000E+00  0.3200E+02
