LAMMPS (11 Aug 2017)
Reading data file ...
  triclinic box = (0 0 0) to (2.8005 2.8005 2.8005) with tilt (0 0 0)
  1 by 1 by 1 MPI processor grid
  reading atoms ...
  2 atoms
2 atoms in group Ni
Neighbor list info ...
  update every 1 steps, delay 0 steps, check yes
  max neighbors/atom: 2000, page size: 100000
  master list distance cutoff = 11
  ghost atom cutoff = 11
  binsize = 5.5, bins = 1 1 1
  1 neighbor lists, perpetual/occasional/extra = 1 0 0
  (1) pair eam/alloy, perpetual
      attributes: half, newton on
      pair build: half/bin/newton/tri
      stencil: half/bin/3d/newton/tri
      bin: standard
Setting up cg style minimization ...
  Unit style    : metal
  Current step  : 0
WARNING: Energy due to 3 extra global DOFs will be included in minimizer energies
Per MPI rank memory allocation (min/avg/max) = 4.286 | 4.286 | 4.286 Mbytes
Step PotEng Xhi Xlo Yhi Ylo Zhi Xy Xz Yz Press Pxx Pyy Pzz Pxy Pxz Pyz c_eatoms 
       0    -8.962006       2.8005            0       2.8005            0       2.8005            0            0            0   -19521.558   -19521.558   -19521.558   -19521.558 0.0014295749  0.001429575  0.001429575    -8.962006 
      10   -8.9634394    2.7955311 0.0049689009    2.7955311 0.0049689009    2.7955311            0            0            0 -2.0780569e-10 -2.0415936e-10 -2.2136536e-10 -1.9789235e-10 1.4226437e-10 -6.6390093e-11 -6.0843111e-11   -8.9634394 
      20   -8.9634394    2.7955311 0.0049689009    2.7955311 0.0049689009    2.7955311            0            0            0 -1.1881311e-10 -9.0558976e-11 -1.6320057e-10 -1.0267977e-10 -3.7708439e-11 4.7076356e-12 -2.1262797e-10   -8.9634394 
      21   -8.9634394    2.7955311 0.0049689009    2.7955311 0.0049689009    2.7955311            0            0            0 -1.1881311e-10 -9.0558976e-11 -1.6320057e-10 -1.0267977e-10 -3.7708439e-11 4.7076356e-12 -2.1262797e-10   -8.9634394 
Loop time of 0.00252509 on 1 procs for 21 steps with 2 atoms

96.8% CPU use with 1 MPI tasks x no OpenMP threads

Minimization stats:
  Stopping criterion = quadratic factors are zero
  Energy initial, next-to-last, final = 
        -8.96200597572     -8.96343944881     -8.96343944881
  Force two-norm initial, final = 0.463523 4.24377e-15
  Force max component initial, final = 0.267615 2.22142e-15
  Final line search alpha, max atom move = 1 2.22142e-15
  Iterations, force evaluations = 21 39

MPI task timing breakdown:
Section |  min time  |  avg time  |  max time  |%varavg| %total
---------------------------------------------------------------
Pair    | 0.0015864  | 0.0015864  | 0.0015864  |   0.0 | 62.83
Neigh   | 0          | 0          | 0          |   0.0 |  0.00
Comm    | 0.00022459 | 0.00022459 | 0.00022459 |   0.0 |  8.89
Output  | 2.8849e-05 | 2.8849e-05 | 2.8849e-05 |   0.0 |  1.14
Modify  | 0          | 0          | 0          |   0.0 |  0.00
Other   |            | 0.0006852  |            |       | 27.14

Nlocal:    2 ave 2 max 2 min
Histogram: 1 0 0 0 0 0 0 0 0 0
Nghost:    1239 ave 1239 max 1239 min
Histogram: 1 0 0 0 0 0 0 0 0 0
Neighs:    530 ave 530 max 530 min
Histogram: 1 0 0 0 0 0 0 0 0 0

Total # of neighbors = 530
Ave neighs/atom = 265
Neighbor list builds = 0
Dangerous builds = 0
pypospack:output_section:begin
tot_energy = -8.9634394488051
num_atoms = 2
a11 = 2.79056219817762
a22 = 2.79056219817762
a33 = 2.79056219817762
a12 = 0
a13 = 0
a23 = 0
tot_press = -1.18813106310298e-10
pxx = -9.05589762185895e-11
pyy = -1.6320056933326e-10
pzz = -1.02679773379043e-10
pxy = -3.77084386244339e-11
pxz = 4.70763557479911e-12
pyz = -2.12627966751193e-10
pypospack:output_section:done
pypospack:lammps_sim:done
Total wall time: 0:00:00
