# ['Ni']

107 atoms
1 atom types

    0.0000    12.4511 xlo xhi
    0.0000    12.4511 ylo yhi
    0.0000    12.4511 zlo zhi

    0.0000    -0.0000    -0.0000 xy xz yz

Atoms

1 1     2.0752     2.0752     0.0000
2 1     2.0752     0.0000     2.0752
3 1     0.0000     2.0752     2.0752
4 1     0.0000     0.0000     4.1504
5 1     2.0752     2.0752     4.1504
6 1     2.0752     0.0000     6.2255
7 1     0.0000     2.0752     6.2255
8 1     0.0000     0.0000     8.3007
9 1     2.0752     2.0752     8.3007
10 1     2.0752     0.0000    10.3759
11 1     0.0000     2.0752    10.3759
12 1     0.0000     4.1504     0.0000
13 1     2.0752     6.2255     0.0000
14 1     2.0752     4.1504     2.0752
15 1     0.0000     6.2255     2.0752
16 1     0.0000     4.1504     4.1504
17 1     2.0752     6.2255     4.1504
18 1     2.0752     4.1504     6.2255
19 1     0.0000     6.2255     6.2255
20 1     0.0000     4.1504     8.3007
21 1     2.0752     6.2255     8.3007
22 1     2.0752     4.1504    10.3759
23 1     0.0000     6.2255    10.3759
24 1     0.0000     8.3007     0.0000
25 1     2.0752    10.3759     0.0000
26 1     2.0752     8.3007     2.0752
27 1     0.0000    10.3759     2.0752
28 1     0.0000     8.3007     4.1504
29 1     2.0752    10.3759     4.1504
30 1     2.0752     8.3007     6.2255
31 1     0.0000    10.3759     6.2255
32 1     0.0000     8.3007     8.3007
33 1     2.0752    10.3759     8.3007
34 1     2.0752     8.3007    10.3759
35 1     0.0000    10.3759    10.3759
36 1     4.1504     0.0000     0.0000
37 1     6.2255     2.0752     0.0000
38 1     6.2255     0.0000     2.0752
39 1     4.1504     2.0752     2.0752
40 1     4.1504     0.0000     4.1504
41 1     6.2255     2.0752     4.1504
42 1     6.2255     0.0000     6.2255
43 1     4.1504     2.0752     6.2255
44 1     4.1504     0.0000     8.3007
45 1     6.2255     2.0752     8.3007
46 1     6.2255     0.0000    10.3759
47 1     4.1504     2.0752    10.3759
48 1     4.1504     4.1504     0.0000
49 1     6.2255     6.2255     0.0000
50 1     6.2255     4.1504     2.0752
51 1     4.1504     6.2255     2.0752
52 1     4.1504     4.1504     4.1504
53 1     6.2255     6.2255     4.1504
54 1     6.2255     4.1504     6.2255
55 1     4.1504     6.2255     6.2255
56 1     4.1504     4.1504     8.3007
57 1     6.2255     6.2255     8.3007
58 1     6.2255     4.1504    10.3759
59 1     4.1504     6.2255    10.3759
60 1     4.1504     8.3007     0.0000
61 1     6.2255    10.3759     0.0000
62 1     6.2255     8.3007     2.0752
63 1     4.1504    10.3759     2.0752
64 1     4.1504     8.3007     4.1504
65 1     6.2255    10.3759     4.1504
66 1     6.2255     8.3007     6.2255
67 1     4.1504    10.3759     6.2255
68 1     4.1504     8.3007     8.3007
69 1     6.2255    10.3759     8.3007
70 1     6.2255     8.3007    10.3759
71 1     4.1504    10.3759    10.3759
72 1     8.3007     0.0000     0.0000
73 1    10.3759     2.0752     0.0000
74 1    10.3759     0.0000     2.0752
75 1     8.3007     2.0752     2.0752
76 1     8.3007     0.0000     4.1504
77 1    10.3759     2.0752     4.1504
78 1    10.3759     0.0000     6.2255
79 1     8.3007     2.0752     6.2255
80 1     8.3007     0.0000     8.3007
81 1    10.3759     2.0752     8.3007
82 1    10.3759     0.0000    10.3759
83 1     8.3007     2.0752    10.3759
84 1     8.3007     4.1504     0.0000
85 1    10.3759     6.2255     0.0000
86 1    10.3759     4.1504     2.0752
87 1     8.3007     6.2255     2.0752
88 1     8.3007     4.1504     4.1504
89 1    10.3759     6.2255     4.1504
90 1    10.3759     4.1504     6.2255
91 1     8.3007     6.2255     6.2255
92 1     8.3007     4.1504     8.3007
93 1    10.3759     6.2255     8.3007
94 1    10.3759     4.1504    10.3759
95 1     8.3007     6.2255    10.3759
96 1     8.3007     8.3007     0.0000
97 1    10.3759    10.3759     0.0000
98 1    10.3759     8.3007     2.0752
99 1     8.3007    10.3759     2.0752
100 1     8.3007     8.3007     4.1504
101 1    10.3759    10.3759     4.1504
102 1    10.3759     8.3007     6.2255
103 1     8.3007    10.3759     6.2255
104 1     8.3007     8.3007     8.3007
105 1    10.3759    10.3759     8.3007
106 1    10.3759     8.3007    10.3759
107 1     8.3007    10.3759    10.3759
