# ['Al']

8 atoms
1 atom types

    0.0000     5.6109 xlo xhi
    0.0000     5.6109 ylo yhi
    0.0000     5.6109 zlo zhi

    0.0000     0.0000     0.0000 xy xz yz

Atoms

1 1    -0.0000    -0.0000     0.0000
2 1     1.4027     1.4027     1.4027
3 1     2.8055     2.8055     0.0000
4 1     4.2082     4.2082     1.4027
5 1     2.8055    -0.0000     2.8055
6 1     4.2082     1.4027     4.2082
7 1     0.0000     2.8055     2.8055
8 1     1.4027     4.2082     4.2082
