# ['Ni']

28 atoms
1 atom types

    0.0000     2.5353 xlo xhi
    0.0000     4.3913 ylo yhi
    0.0000    28.9810 zlo zhi

    0.0000     0.0000     0.0000 xy xz yz

Atoms

1 1     0.0000     0.0000     0.0000
2 1     1.2677     2.1956     0.0000
3 1     1.2677     0.7319     2.0701
4 1     0.0000     2.9275     2.0701
5 1     0.0000     1.4638     4.1401
6 1     1.2677     3.6594     4.1401
7 1     0.0000     0.0000     6.2102
8 1     1.2677     2.1956     6.2102
9 1     1.2677     0.7319     8.2803
10 1     0.0000     2.9275     8.2803
11 1     0.0000     1.4638    10.3504
12 1     1.2677     3.6594    10.3504
13 1     0.0000     0.0000    12.4204
14 1     1.2677     2.1956    12.4204
15 1     0.0000     1.4638    14.4905
16 1     1.2677     3.6594    14.4905
17 1     0.0000     0.0000    16.5606
18 1     1.2677     2.1956    16.5606
19 1     1.2677     0.7319    18.6306
20 1     0.0000     2.9275    18.6306
21 1     0.0000     1.4638    20.7007
22 1     1.2677     3.6594    20.7007
23 1     0.0000     0.0000    22.7708
24 1     1.2677     2.1956    22.7708
25 1     1.2677     0.7319    24.8409
26 1     0.0000     2.9275    24.8409
27 1     0.0000     1.4638    26.9109
28 1     1.2677     3.6594    26.9109
