# ['Ni']

10 atoms
1 atom types

    0.0000     3.3505 xlo xhi
    0.0000     2.3984 ylo yhi
    0.0000    23.9842 zlo zhi

    0.0000     0.0000     0.0000 xy xz yz

Atoms

1 1     0.0000     0.0000     0.0000
2 1     1.6752     1.1992     1.1992
3 1     0.0000     0.0000     2.3984
4 1     1.6752     1.1992     3.5976
5 1     0.0000     0.0000     4.7968
6 1     1.6752     1.1992     5.9961
7 1     0.0000     0.0000     7.1953
8 1     1.6752     1.1992     8.3945
9 1     0.0000     0.0000     9.5937
10 1     1.6752     1.1992    10.7929
