# ['Ni']

20 atoms
1 atom types

    0.0000     3.1360 xlo xhi
    0.0000     3.1360 ylo yhi
    0.0000    31.3596 zlo zhi

    0.0000    -0.0000     0.0000 xy xz yz

Atoms

1 1     0.0000     0.0000     0.0000
2 1     1.5680     1.5680     0.0000
3 1     1.5680     0.0000     1.5680
4 1     0.0000     1.5680     1.5680
5 1     0.0000     0.0000     3.1360
6 1     1.5680     1.5680     3.1360
7 1     1.5680     0.0000     4.7039
8 1     0.0000     1.5680     4.7039
9 1     0.0000     0.0000     6.2719
10 1     1.5680     1.5680     6.2719
11 1     1.5680     0.0000     7.8399
12 1     0.0000     1.5680     7.8399
13 1     0.0000     0.0000     9.4079
14 1     1.5680     1.5680     9.4079
15 1     1.5680     0.0000    10.9759
16 1     0.0000     1.5680    10.9759
17 1     0.0000     0.0000    12.5438
18 1     1.5680     1.5680    12.5438
19 1     1.5680     0.0000    14.1118
20 1     0.0000     1.5680    14.1118
