# ['Ni']

20 atoms
1 atom types

    0.0000     3.4945 xlo xhi
    0.0000     3.4945 ylo yhi
    0.0000    34.9453 zlo zhi

    0.0000    -0.0000     0.0000 xy xz yz

Atoms

1 1     0.0000     0.0000     0.0000
2 1     1.7473     1.7473     0.0000
3 1     1.7473     0.0000     1.7473
4 1     0.0000     1.7473     1.7473
5 1     0.0000     0.0000     3.4945
6 1     1.7473     1.7473     3.4945
7 1     1.7473     0.0000     5.2418
8 1     0.0000     1.7473     5.2418
9 1     0.0000     0.0000     6.9891
10 1     1.7473     1.7473     6.9891
11 1     1.7473     0.0000     8.7363
12 1     0.0000     1.7473     8.7363
13 1     0.0000     0.0000    10.4836
14 1     1.7473     1.7473    10.4836
15 1     1.7473     0.0000    12.2309
16 1     0.0000     1.7473    12.2309
17 1     0.0000     0.0000    13.9781
18 1     1.7473     1.7473    13.9781
19 1     1.7473     0.0000    15.7254
20 1     0.0000     1.7473    15.7254
