# ['Ni']

28 atoms
1 atom types

    0.0000     2.2961 xlo xhi
    0.0000     3.9770 ylo yhi
    0.0000    26.2470 zlo zhi

    0.0000     0.0000     0.0000 xy xz yz

Atoms

1 1     0.0000     0.0000     0.0000
2 1     1.1481     1.9885     0.0000
3 1     1.1481     0.6628     1.8748
4 1     0.0000     2.6514     1.8748
5 1     0.0000     1.3257     3.7496
6 1     1.1481     3.3142     3.7496
7 1     0.0000     0.0000     5.6244
8 1     1.1481     1.9885     5.6244
9 1     1.1481     0.6628     7.4991
10 1     0.0000     2.6514     7.4991
11 1     0.0000     1.3257     9.3739
12 1     1.1481     3.3142     9.3739
13 1     0.0000     0.0000    11.2487
14 1     1.1481     1.9885    11.2487
15 1     0.0000     1.3257    13.1235
16 1     1.1481     3.3142    13.1235
17 1     0.0000     0.0000    14.9983
18 1     1.1481     1.9885    14.9983
19 1     1.1481     0.6628    16.8731
20 1     0.0000     2.6514    16.8731
21 1     0.0000     1.3257    18.7479
22 1     1.1481     3.3142    18.7479
23 1     0.0000     0.0000    20.6226
24 1     1.1481     1.9885    20.6226
25 1     1.1481     0.6628    22.4974
26 1     0.0000     2.6514    22.4974
27 1     0.0000     1.3257    24.3722
28 1     1.1481     3.3142    24.3722
