# ['Ni']

28 atoms
1 atom types

    0.0000     2.4947 xlo xhi
    0.0000     4.3209 ylo yhi
    0.0000    28.5168 zlo zhi

    0.0000     0.0000     0.0000 xy xz yz

Atoms

1 1     0.0000     0.0000     0.0000
2 1     1.2473     2.1605     0.0000
3 1     1.2473     0.7202     2.0369
4 1     0.0000     2.8806     2.0369
5 1     0.0000     1.4403     4.0738
6 1     1.2473     3.6008     4.0738
7 1     0.0000     0.0000     6.1107
8 1     1.2473     2.1605     6.1107
9 1     1.2473     0.7202     8.1476
10 1     0.0000     2.8806     8.1476
11 1     0.0000     1.4403    10.1846
12 1     1.2473     3.6008    10.1846
13 1     0.0000     0.0000    12.2215
14 1     1.2473     2.1605    12.2215
15 1     0.0000     1.4403    14.2584
16 1     1.2473     3.6008    14.2584
17 1     0.0000     0.0000    16.2953
18 1     1.2473     2.1605    16.2953
19 1     1.2473     0.7202    18.3322
20 1     0.0000     2.8806    18.3322
21 1     0.0000     1.4403    20.3691
22 1     1.2473     3.6008    20.3691
23 1     0.0000     0.0000    22.4060
24 1     1.2473     2.1605    22.4060
25 1     1.2473     0.7202    24.4430
26 1     0.0000     2.8806    24.4430
27 1     0.0000     1.4403    26.4799
28 1     1.2473     3.6008    26.4799
