LAMMPS (11 Aug 2017)
Reading data file ...
  triclinic box = (0 0 0) to (2.2694 3.9307 33.3473) with tilt (0 0 -0.0004)
  1 by 1 by 1 MPI processor grid
  reading atoms ...
  18 atoms
18 atoms in group Ni
Neighbor list info ...
  update every 1 steps, delay 0 steps, check yes
  max neighbors/atom: 2000, page size: 100000
  master list distance cutoff = 5.64464
  ghost atom cutoff = 5.64464
  binsize = 2.82232, bins = 1 2 12
  1 neighbor lists, perpetual/occasional/extra = 1 0 0
  (1) pair eam/alloy, perpetual
      attributes: half, newton on
      pair build: half/bin/newton/tri
      stencil: half/bin/3d/newton/tri
      bin: standard
Setting up cg style minimization ...
  Unit style    : metal
  Current step  : 0
Per MPI rank memory allocation (min/avg/max) = 4.217 | 4.217 | 4.217 Mbytes
Step PotEng Lx Ly Lz Xy Xz Yz Press Pxx Pyy Pzz Pxy Pxz Pyz c_eatoms 
       0   -147.09593       2.2694       3.9307      33.3473            0            0      -0.0004   -12893.162   -15246.996   -15239.287   -8193.2035 -6.5776634e-12 -2.6908623e-12   -1.9448443   -147.09593 
       1   -147.10072       2.2694       3.9307      33.3473            0            0      -0.0004   -11443.068    -14345.42   -14337.742   -5646.0414 -2.6908623e-12 -2.989847e-13   -1.9251826   -147.10072 
       2   -147.10201       2.2694       3.9307      33.3473            0            0      -0.0004   -10233.916   -13582.121   -13574.536   -3545.0913 2.989847e-13 -1.4949235e-12   -1.8524927   -147.10201 
       3   -147.10227       2.2694       3.9307      33.3473            0            0      -0.0004   -9865.3037   -13349.845   -13342.413   -2903.6535 -5.979694e-13 -3.5878164e-12   -1.7334154   -147.10227 
       4   -147.10233       2.2694       3.9307      33.3473            0            0      -0.0004   -9625.4078   -13197.646   -13190.352   -2488.2256 -8.969541e-13 6.5776634e-12   -1.6237216   -147.10233 
       5   -147.10242       2.2694       3.9307      33.3473            0            0      -0.0004   -8910.5192   -12748.634   -12741.737   -1241.1864 -1.210888e-11 1.4949235e-12   -1.3099096   -147.10242 
       6   -147.10255       2.2694       3.9307      33.3473            0            0      -0.0004   -8160.1921   -12278.211   -12272.006    69.641307 3.8868011e-12 -2.0928929e-12   -0.7597469   -147.10255 
       7   -147.10255       2.2694       3.9307      33.3473            0            0      -0.0004   -8165.5744   -12281.832   -12275.581    60.689663 -1.1062434e-11 -7.4746175e-12  -0.79678766   -147.10255 
       8   -147.10256       2.2694       3.9307      33.3473            0            0      -0.0004   -8177.2713   -12289.372   -12283.078    40.636285 -1.3454312e-12 5.979694e-13  -0.83071107   -147.10256 
       9   -147.10256       2.2694       3.9307      33.3473            0            0      -0.0004   -8185.7782   -12294.765   -12288.439    25.869669 -3.2888317e-12            0  -0.85625388   -147.10256 
      10   -147.10256       2.2694       3.9307      33.3473            0            0      -0.0004   -8187.7625   -12296.025   -12289.664    22.400972 -4.1857858e-12 -5.0827399e-12  -0.88397717   -147.10256 
      11   -147.10256       2.2694       3.9307      33.3473            0            0      -0.0004   -8195.1157   -12300.743   -12294.205    9.6005892 5.6807093e-12 -5.3817246e-12   -1.0254855   -147.10256 
      12   -147.10256       2.2694       3.9307      33.3473            0            0      -0.0004   -8198.7612   -12303.043   -12296.478    3.2367143 2.3918776e-12 2.3918776e-12   -1.0467437   -147.10256 
      13   -147.10256       2.2694       3.9307      33.3473            0            0      -0.0004   -8199.9273   -12303.746   -12297.222    1.1861428 -2.3918776e-12 1.1959388e-12   -1.0134433   -147.10256 
      14   -147.10256       2.2694       3.9307      33.3473            0            0      -0.0004   -8199.9456   -12303.726   -12297.262    1.1508803 -8.969541e-13 2.6908623e-12  -0.96609221   -147.10256 
      15   -147.10256       2.2694       3.9307      33.3473            0            0      -0.0004   -8200.5686   -12304.057   -12297.715  0.066814298 -5.2322323e-12 -3.2888317e-12  -0.86824857   -147.10256 
      16   -147.10256       2.2694       3.9307      33.3473            0            0      -0.0004   -8200.6973    -12304.12   -12297.815  -0.15695355 1.4949235e-12 -5.979694e-13   -0.8388753   -147.10256 
      17   -147.10256       2.2694       3.9307      33.3473            0            0      -0.0004   -8200.6916     -12304.1   -12297.828   -0.1466045 -1.1062434e-11 3.2888317e-12  -0.81196353   -147.10256 
      18   -147.10256       2.2694       3.9307      33.3473            0            0      -0.0004   -8200.6981   -12304.049   -12297.888  -0.15767797 8.969541e-12 -1.7939082e-12  -0.72269168   -147.10256 
      19   -147.10256       2.2694       3.9307      33.3473            0            0      -0.0004   -8200.7064   -12304.002   -12297.945    -0.172123 -3.8868011e-12 -2.3918776e-12  -0.64033899   -147.10256 
      20   -147.10256       2.2694       3.9307      33.3473            0            0      -0.0004   -8200.5584   -12303.818   -12297.943  0.085282196 -1.973299e-11 -1.4949235e-11   -0.4940714   -147.10256 
      21   -147.10256       2.2694       3.9307      33.3473            0            0      -0.0004   -8200.4159   -12303.614   -12297.967   0.33255597 -8.6705563e-12 -1.6145174e-11  -0.31112685   -147.10256 
      22   -147.10256       2.2694       3.9307      33.3473            0            0      -0.0004   -8200.4234   -12303.483   -12298.108   0.32048161 2.8553039e-11 -9.8664951e-12 -0.093271993   -147.10256 
      23   -147.10256       2.2694       3.9307      33.3473            0            0      -0.0004   -8200.4445   -12303.462   -12298.155   0.28426626 -2.3171314e-11 -8.969541e-13 -0.038352277   -147.10256 
      24   -147.10256       2.2694       3.9307      33.3473            0            0      -0.0004   -8200.4641   -12303.463    -12298.18   0.25013691 8.521064e-12 4.7837552e-12 -0.019418706   -147.10256 
      25   -147.10256       2.2694       3.9307      33.3473            0            0      -0.0004   -8200.4889   -12303.473     -12298.2   0.20707054 2.0629944e-11 5.1724353e-11 -0.011129465   -147.10256 
      26   -147.10256       2.2694       3.9307      33.3473            0            0      -0.0004   -8200.5233   -12303.491   -12298.226   0.14680913 4.2754812e-11 1.7939082e-11 -0.0048375751   -147.10256 
      27   -147.10256       2.2694       3.9307      33.3473            0            0      -0.0004   -8200.5351   -12303.498   -12298.233   0.12609812 2.1676391e-11 3.2290348e-11 -0.0046205516   -147.10256 
      28   -147.10256       2.2694       3.9307      33.3473            0            0      -0.0004   -8200.5633   -12303.516   -12298.251  0.076952648 3.4383241e-11 -1.2856342e-11 -0.0053183091   -147.10256 
      29   -147.10256       2.2694       3.9307      33.3473            0            0      -0.0004   -8200.5797   -12303.527   -12298.261  0.048411012 1.7341113e-11 2.2124868e-11 -0.005342459   -147.10256 
      30   -147.10256       2.2694       3.9307      33.3473            0            0      -0.0004   -8200.5881   -12303.531   -12298.267  0.033810081 -8.3715716e-12 -2.0031975e-11 -0.0045081531   -147.10256 
      31   -147.10256       2.2694       3.9307      33.3473            0            0      -0.0004    -8200.596   -12303.536   -12298.272  0.020032901 5.979694e-12 -5.1126384e-11 -0.0034413516   -147.10256 
      32   -147.10256       2.2694       3.9307      33.3473            0            0      -0.0004   -8200.6028   -12303.539   -12298.278 0.0080506486 3.7672072e-11 -2.2722837e-11 -0.0018341336   -147.10256 
      33   -147.10256       2.2694       3.9307      33.3473            0            0      -0.0004   -8200.6032   -12303.539   -12298.278 0.0073908631 1.719162e-11 2.6011669e-11 -0.0012632057   -147.10256 
      34   -147.10256       2.2694       3.9307      33.3473            0            0      -0.0004   -8200.6041   -12303.539   -12298.279 0.0057825353 7.4746175e-13 1.2557357e-11 -0.00083783566   -147.10256 
      35   -147.10256       2.2694       3.9307      33.3473            0            0      -0.0004   -8200.6066    -12303.54   -12298.281  0.001414202 -1.8238067e-11 -1.7939082e-12 -0.00039629476   -147.10256 
      36   -147.10256       2.2694       3.9307      33.3473            0            0      -0.0004   -8200.6072   -12303.541   -12298.281 0.00048736057 -1.1959388e-12 4.4847705e-12 -0.00021595517   -147.10256 
Loop time of 0.00322914 on 1 procs for 36 steps with 18 atoms

100.0% CPU use with 1 MPI tasks x no OpenMP threads

Minimization stats:
  Stopping criterion = energy tolerance
  Energy initial, next-to-last, final = 
         -147.09593028     -147.102555275     -147.102555275
  Force two-norm initial, final = 0.510788 1.19351e-07
  Force max component initial, final = 0.190111 3.8377e-08
  Final line search alpha, max atom move = 1 3.8377e-08
  Iterations, force evaluations = 36 72

MPI task timing breakdown:
Section |  min time  |  avg time  |  max time  |%varavg| %total
---------------------------------------------------------------
Pair    | 0.0025499  | 0.0025499  | 0.0025499  |   0.0 | 78.96
Neigh   | 0          | 0          | 0          |   0.0 |  0.00
Comm    | 0.00019836 | 0.00019836 | 0.00019836 |   0.0 |  6.14
Output  | 0.00038123 | 0.00038123 | 0.00038123 |   0.0 | 11.81
Modify  | 0          | 0          | 0          |   0.0 |  0.00
Other   |            | 9.966e-05  |            |       |  3.09

Nlocal:    18 ave 18 max 18 min
Histogram: 1 0 0 0 0 0 0 0 0 0
Nghost:    529 ave 529 max 529 min
Histogram: 1 0 0 0 0 0 0 0 0 0
Neighs:    678 ave 678 max 678 min
Histogram: 1 0 0 0 0 0 0 0 0 0

Total # of neighbors = 678
Ave neighs/atom = 37.6667
Neighbor list builds = 0
Dangerous builds = 0
pypospack:output_section:begin
tot_energy = -147.102555274934
num_atoms = 18
a11 = 2.2694
a22 = 3.9307
a33 = 33.3473
a12 = 0
a13 = 0
a23 = -0.0004
tot_press = -8200.60717465288
pxx = -12303.5406973337
pyy = -12298.2813139855
pzz = 0.000487360568749496
pxy = -1.19593880296191e-12
pxz = 4.48477051110715e-12
pyz = -0.000215955173107886
pypospack:output_section:done
pypospack:lammps_sim:done
Total wall time: 0:00:00
