# ['Ni']

18 atoms
1 atom types

    0.0000     2.2694 xlo xhi
    0.0000     3.9307 ylo yhi
    0.0000    33.3473 zlo zhi

    0.0000     0.0000    -0.0004 xy xz yz

Atoms

1 1     0.0000     0.0000     0.0000
2 1     1.1347     0.6551     1.8526
3 1     0.0000     1.3102     3.7053
4 1     1.1347     1.9653     0.0000
5 1     0.0000     2.6204     1.8526
6 1     1.1347     3.2756     3.7053
7 1     0.0000     0.0000     5.5579
8 1     1.1347     0.6551     7.4105
9 1     0.0000     1.3102     9.2631
10 1     1.1347     1.9653     5.5579
11 1     0.0000     2.6204     7.4105
12 1     1.1347     3.2756     9.2631
13 1     0.0000     0.0000    11.1158
14 1     1.1347     0.6551    12.9684
15 1     0.0000     1.3102    14.8210
16 1     1.1347     1.9653    11.1158
17 1     0.0000     2.6204    12.9684
18 1     1.1347     3.2756    14.8210
