   8   8   0   0
  0.5396209E+01  0.3508000E-09  0.3508000E-09  0.3508000E-09  0.5000000E-15
  1.000000000000000E-004
  CAR 
 automatically generated by pyflamestk   
     36.20961198      0.83916928  301     12.26138077      1.00000000
      0.839  0.0000E+00  0.0000E+00  0.0000E+00  0.0000E+00
      0.957  0.0000E+00  0.0000E+00  0.0000E+00  0.0000E+00
      1.075  0.0000E+00  0.0000E+00  0.0000E+00  0.0000E+00
      1.193 -0.2305E-30 -0.2305E-30 -0.2717E-31 -0.2717E-31
      1.311 -0.2479E-26 -0.2478E-26 -0.2923E-27 -0.2922E-27
      1.429 -0.1322E-22 -0.1322E-22 -0.1559E-23 -0.1559E-23
      1.547 -0.3496E-19 -0.3496E-19 -0.4124E-20 -0.4123E-20
      1.664 -0.4426E-16 -0.4426E-16 -0.5223E-17 -0.5223E-17
      1.782 -0.2851E-13 -0.2850E-13 -0.3366E-14 -0.3366E-14
      1.900 -0.8981E-11 -0.8981E-11 -0.1062E-11 -0.1062E-11
      2.018 -0.1381E-08 -0.1381E-08 -0.1639E-09 -0.1639E-09
      2.136 -0.1027E-06 -0.1027E-06 -0.1227E-07 -0.1227E-07
      2.254 -0.3619E-05 -0.3619E-05 -0.4390E-06 -0.4390E-06
      2.372 -0.5805E-04 -0.5805E-04 -0.7283E-05 -0.7283E-05
      2.490 -0.3770E-03 -0.3770E-03 -0.5173E-04 -0.5173E-04
      2.608 -0.4808E-03 -0.4808E-03 -0.1084E-03 -0.1084E-03
      2.726  0.3435E-02  0.3435E-02  0.2966E-03  0.2966E-03
      2.843  0.1122E-01  0.1122E-01  0.1620E-02  0.1620E-02
      2.961  0.1078E-01  0.1078E-01  0.2890E-02  0.2890E-02
      3.079  0.2927E-02  0.2927E-02  0.3236E-02  0.3236E-02
      3.197 -0.5449E-03 -0.5449E-03  0.3171E-02  0.3171E-02
      3.315 -0.3462E-03 -0.3462E-03  0.3130E-02  0.3130E-02
      3.433 -0.1500E-03 -0.1500E-03  0.3113E-02  0.3113E-02
      3.551 -0.8220E-03 -0.8220E-03  0.3016E-02  0.3016E-02
      3.669 -0.1849E-02 -0.1849E-02  0.2798E-02  0.2798E-02
      3.787  0.6014E-02  0.6014E-02  0.3507E-02  0.3507E-02
      3.905  0.2925E-01  0.2925E-01  0.6955E-02  0.6955E-02
      4.023  0.3584E-01  0.3584E-01  0.1118E-01  0.1118E-01
      4.140  0.1364E-01  0.1364E-01  0.1279E-01  0.1279E-01
      4.258 -0.9050E-03 -0.9050E-03  0.1268E-01  0.1268E-01
      4.376 -0.1935E-02 -0.1935E-02  0.1246E-01  0.1246E-01
      4.494 -0.2107E-02 -0.2107E-02  0.1221E-01  0.1221E-01
      4.612  0.2921E-02  0.2920E-02  0.1255E-01  0.1255E-01
      4.730  0.2428E-01  0.2428E-01  0.1541E-01  0.1541E-01
      4.848  0.3638E-01  0.3638E-01  0.1970E-01  0.1970E-01
      4.966  0.1325E-01  0.1325E-01  0.2127E-01  0.2127E-01
      5.084 -0.2769E-02 -0.2773E-02  0.2094E-01  0.2094E-01
      5.202  0.4377E-01  0.4375E-01  0.2610E-01  0.2610E-01
      5.319  0.1438E+00  0.1438E+00  0.4306E-01  0.4305E-01
      5.437  0.2307E+00  0.2307E+00  0.7026E-01  0.7025E-01
      5.555  0.2773E+00  0.2773E+00  0.1030E+00  0.1029E+00
      5.673  0.2352E+00  0.2352E+00  0.1307E+00  0.1307E+00
      5.791  0.1476E+00  0.1476E+00  0.1481E+00  0.1481E+00
      5.909  0.9444E-01  0.9445E-01  0.1592E+00  0.1592E+00
      6.027  0.6715E-01  0.6715E-01  0.1671E+00  0.1671E+00
      6.145  0.8650E-01  0.8649E-01  0.1773E+00  0.1773E+00
      6.263  0.1159E+00  0.1159E+00  0.1910E+00  0.1910E+00
      6.381  0.9889E-01  0.9889E-01  0.2027E+00  0.2027E+00
      6.498  0.8963E-01  0.8963E-01  0.2132E+00  0.2132E+00
      6.616  0.9808E-01  0.9808E-01  0.2248E+00  0.2248E+00
      6.734  0.9183E-01  0.9183E-01  0.2356E+00  0.2356E+00
      6.852  0.5008E-01  0.5010E-01  0.2415E+00  0.2415E+00
      6.970  0.2364E-01  0.2363E-01  0.2443E+00  0.2443E+00
      7.088  0.1094E+00  0.1093E+00  0.2572E+00  0.2572E+00
      7.206  0.2655E+00  0.2654E+00  0.2885E+00  0.2885E+00
      7.324  0.3525E+00  0.3525E+00  0.3301E+00  0.3300E+00
      7.442  0.3359E+00  0.3359E+00  0.3697E+00  0.3697E+00
      7.560  0.2848E+00  0.2848E+00  0.4032E+00  0.4032E+00
      7.677  0.2030E+00  0.2031E+00  0.4272E+00  0.4272E+00
      7.795  0.1550E+00  0.1550E+00  0.4454E+00  0.4454E+00
      7.913  0.1548E+00  0.1548E+00  0.4637E+00  0.4637E+00
      8.031  0.1747E+00  0.1747E+00  0.4843E+00  0.4843E+00
      8.149  0.2154E+00  0.2154E+00  0.5097E+00  0.5097E+00
      8.267  0.2342E+00  0.2342E+00  0.5373E+00  0.5373E+00
      8.385  0.1581E+00  0.1581E+00  0.5559E+00  0.5559E+00
      8.503  0.4904E-01  0.4906E-01  0.5617E+00  0.5617E+00
      8.621  0.7198E-01  0.7195E-01  0.5702E+00  0.5702E+00
      8.739  0.2052E+00  0.2051E+00  0.5944E+00  0.5944E+00
      8.856  0.2336E+00  0.2337E+00  0.6219E+00  0.6219E+00
      8.974  0.1524E+00  0.1524E+00  0.6399E+00  0.6399E+00
      9.092  0.1194E+00  0.1194E+00  0.6540E+00  0.6540E+00
      9.210  0.1256E+00  0.1256E+00  0.6688E+00  0.6688E+00
      9.328  0.7018E-01  0.7020E-01  0.6771E+00  0.6771E+00
      9.446  0.2590E-01  0.2590E-01  0.6801E+00  0.6801E+00
      9.564  0.9036E-01  0.9032E-01  0.6908E+00  0.6908E+00
      9.682  0.1996E+00  0.1995E+00  0.7143E+00  0.7143E+00
      9.800  0.2074E+00  0.2074E+00  0.7388E+00  0.7388E+00
      9.918  0.1097E+00  0.1097E+00  0.7517E+00  0.7517E+00
     10.035  0.4530E-01  0.4531E-01  0.7570E+00  0.7570E+00
     10.153  0.4757E-01  0.4756E-01  0.7626E+00  0.7626E+00
     10.271  0.9367E-01  0.9366E-01  0.7737E+00  0.7737E+00
     10.389  0.1114E+00  0.1114E+00  0.7868E+00  0.7868E+00
     10.507  0.7091E-01  0.7092E-01  0.7952E+00  0.7952E+00
     10.625  0.6014E-01  0.6013E-01  0.8023E+00  0.8023E+00
     10.743  0.8849E-01  0.8848E-01  0.8127E+00  0.8127E+00
     10.861  0.1229E+00  0.1229E+00  0.8272E+00  0.8272E+00
     10.979  0.1256E+00  0.1256E+00  0.8420E+00  0.8420E+00
     11.097  0.1019E+00  0.1019E+00  0.8540E+00  0.8540E+00
     11.214  0.7993E-01  0.7994E-01  0.8634E+00  0.8634E+00
     11.332  0.4959E-01  0.4960E-01  0.8693E+00  0.8693E+00
     11.450  0.3913E-01  0.3913E-01  0.8739E+00  0.8739E+00
     11.568  0.6684E-01  0.6683E-01  0.8818E+00  0.8818E+00
     11.686  0.9166E-01  0.9165E-01  0.8926E+00  0.8926E+00
     11.804  0.1217E+00  0.1217E+00  0.9069E+00  0.9069E+00
     11.922  0.1707E+00  0.1706E+00  0.9271E+00  0.9270E+00
     12.040  0.2020E+00  0.2020E+00  0.9509E+00  0.9509E+00
     12.158  0.2109E+00  0.2109E+00  0.9757E+00  0.9757E+00
     12.276  0.2364E+00  0.2364E+00  0.1004E+01  0.1004E+01
     12.394  0.2684E+00  0.2684E+00  0.1035E+01  0.1035E+01
     12.511  0.2284E+00  0.2284E+00  0.1062E+01  0.1062E+01
     12.629  0.9359E-01  0.9364E-01  0.1073E+01  0.1073E+01
     12.747  0.4132E-03  0.4288E-03  0.1073E+01  0.1073E+01
     12.865 -0.9409E-02 -0.9411E-02  0.1072E+01  0.1072E+01
     12.983 -0.2355E-02 -0.2356E-02  0.1072E+01  0.1072E+01
     13.101 -0.1279E-02 -0.1279E-02  0.1072E+01  0.1072E+01
     13.219 -0.2396E-02 -0.2396E-02  0.1071E+01  0.1071E+01
     13.337  0.5459E-02  0.5454E-02  0.1072E+01  0.1072E+01
     13.455  0.3332E-01  0.3331E-01  0.1076E+01  0.1076E+01
     13.573  0.7091E-01  0.7090E-01  0.1084E+01  0.1084E+01
     13.690  0.8546E-01  0.8546E-01  0.1094E+01  0.1094E+01
     13.808  0.4743E-01  0.4744E-01  0.1100E+01  0.1100E+01
     13.926  0.4800E-02  0.4805E-02  0.1101E+01  0.1101E+01
     14.044 -0.3902E-02 -0.3902E-02  0.1100E+01  0.1100E+01
     14.162 -0.1177E-02 -0.1177E-02  0.1100E+01  0.1100E+01
     14.280 -0.1712E-03 -0.1712E-03  0.1100E+01  0.1100E+01
     14.398 -0.5331E-03 -0.5329E-03  0.1100E+01  0.1100E+01
     14.516 -0.1830E-02 -0.1830E-02  0.1100E+01  0.1100E+01
     14.634  0.2278E-02  0.2276E-02  0.1100E+01  0.1100E+01
     14.752  0.2273E-01  0.2272E-01  0.1103E+01  0.1103E+01
     14.869  0.3529E-01  0.3529E-01  0.1107E+01  0.1107E+01
     14.987  0.1555E-01  0.1555E-01  0.1109E+01  0.1109E+01
     15.105  0.1993E-01  0.1992E-01  0.1111E+01  0.1111E+01
     15.223  0.8102E-01  0.8101E-01  0.1121E+01  0.1121E+01
     15.341  0.1038E+00  0.1038E+00  0.1133E+01  0.1133E+01
     15.459  0.4509E-01  0.4510E-01  0.1138E+01  0.1138E+01
     15.577 -0.6135E-04 -0.5873E-04  0.1138E+01  0.1138E+01
     15.695 -0.4189E-02 -0.4189E-02  0.1138E+01  0.1138E+01
     15.813 -0.9152E-03 -0.9155E-03  0.1138E+01  0.1138E+01
     15.931 -0.7618E-04 -0.7621E-04  0.1138E+01  0.1138E+01
     16.048 -0.4590E-05 -0.4590E-05  0.1137E+01  0.1137E+01
     16.166 -0.3355E-04 -0.3353E-04  0.1137E+01  0.1137E+01
     16.284 -0.2721E-03 -0.2720E-03  0.1137E+01  0.1137E+01
     16.402 -0.6314E-03 -0.6314E-03  0.1137E+01  0.1137E+01
     16.520  0.1709E-02  0.1708E-02  0.1138E+01  0.1138E+01
     16.638  0.7423E-02  0.7422E-02  0.1138E+01  0.1138E+01
     16.756  0.6424E-02  0.6424E-02  0.1139E+01  0.1139E+01
     16.874  0.2064E-01  0.2064E-01  0.1142E+01  0.1142E+01
     16.992  0.8418E-01  0.8417E-01  0.1152E+01  0.1152E+01
     17.110  0.1074E+00  0.1074E+00  0.1164E+01  0.1164E+01
     17.227  0.4224E-01  0.4225E-01  0.1169E+01  0.1169E+01
     17.345  0.3144E-02  0.3146E-02  0.1170E+01  0.1170E+01
     17.463  0.2190E-01  0.2190E-01  0.1172E+01  0.1172E+01
     17.581  0.3205E-01  0.3205E-01  0.1176E+01  0.1176E+01
     17.699  0.2793E-01  0.2793E-01  0.1179E+01  0.1179E+01
     17.817  0.5909E-01  0.5908E-01  0.1186E+01  0.1186E+01
     17.935  0.6961E-01  0.6962E-01  0.1194E+01  0.1194E+01
     18.053  0.2585E-01  0.2585E-01  0.1197E+01  0.1197E+01
     18.171 -0.1955E-02 -0.1954E-02  0.1197E+01  0.1197E+01
     18.289 -0.2636E-02 -0.2636E-02  0.1197E+01  0.1197E+01
     18.406 -0.4840E-03 -0.4841E-03  0.1197E+01  0.1197E+01
     18.524 -0.3236E-03 -0.3235E-03  0.1197E+01  0.1197E+01
     18.642 -0.1551E-02 -0.1551E-02  0.1197E+01  0.1197E+01
     18.760 -0.1318E-02 -0.1318E-02  0.1196E+01  0.1196E+01
     18.878  0.1196E-01  0.1196E-01  0.1198E+01  0.1198E+01
     18.996  0.3930E-01  0.3930E-01  0.1203E+01  0.1203E+01
     19.114  0.6809E-01  0.6809E-01  0.1211E+01  0.1211E+01
     19.232  0.7592E-01  0.7592E-01  0.1220E+01  0.1220E+01
     19.350  0.4821E-01  0.4821E-01  0.1225E+01  0.1225E+01
     19.468  0.6031E-01  0.6030E-01  0.1232E+01  0.1232E+01
     19.586  0.9918E-01  0.9919E-01  0.1244E+01  0.1244E+01
     19.703  0.6944E-01  0.6944E-01  0.1252E+01  0.1252E+01
     19.821  0.1416E-01  0.1417E-01  0.1254E+01  0.1254E+01
     19.939 -0.3918E-02 -0.3918E-02  0.1253E+01  0.1253E+01
     20.057 -0.2056E-02 -0.2056E-02  0.1253E+01  0.1253E+01
     20.175 -0.3634E-03 -0.3634E-03  0.1253E+01  0.1253E+01
     20.293 -0.7301E-03 -0.7299E-03  0.1253E+01  0.1253E+01
     20.411 -0.3217E-02 -0.3216E-02  0.1253E+01  0.1253E+01
     20.529  0.5859E-03  0.5844E-03  0.1253E+01  0.1253E+01
     20.647  0.3588E-01  0.3587E-01  0.1257E+01  0.1257E+01
     20.765  0.7484E-01  0.7484E-01  0.1266E+01  0.1266E+01
     20.882  0.5018E-01  0.5018E-01  0.1272E+01  0.1272E+01
     21.000  0.6635E-02  0.6638E-02  0.1272E+01  0.1272E+01
     21.118 -0.3757E-02 -0.3757E-02  0.1272E+01  0.1272E+01
     21.236 -0.1330E-02 -0.1330E-02  0.1272E+01  0.1272E+01
     21.354 -0.9907E-03 -0.9906E-03  0.1272E+01  0.1272E+01
     21.472 -0.1825E-02 -0.1825E-02  0.1272E+01  0.1272E+01
     21.590  0.6578E-02  0.6577E-02  0.1272E+01  0.1272E+01
     21.708  0.2976E-01  0.2976E-01  0.1276E+01  0.1276E+01
     21.826  0.3415E-01  0.3416E-01  0.1280E+01  0.1280E+01
     21.944  0.1164E-01  0.1164E-01  0.1281E+01  0.1281E+01
     22.061  0.1038E-01  0.1038E-01  0.1282E+01  0.1282E+01
     22.179  0.3189E-01  0.3189E-01  0.1286E+01  0.1286E+01
     22.297  0.3662E-01  0.3662E-01  0.1291E+01  0.1291E+01
     22.415  0.3665E-01  0.3665E-01  0.1295E+01  0.1295E+01
     22.533  0.3381E-01  0.3381E-01  0.1299E+01  0.1299E+01
     22.651  0.1154E-01  0.1154E-01  0.1300E+01  0.1300E+01
     22.769 -0.5123E-02 -0.5122E-02  0.1300E+01  0.1300E+01
     22.887 -0.2659E-02 -0.2661E-02  0.1299E+01  0.1299E+01
     23.005  0.3978E-01  0.3978E-01  0.1304E+01  0.1304E+01
     23.123  0.1091E+00  0.1091E+00  0.1317E+01  0.1317E+01
     23.240  0.1185E+00  0.1185E+00  0.1331E+01  0.1331E+01
     23.358  0.5703E-01  0.5703E-01  0.1338E+01  0.1338E+01
     23.476  0.5797E-02  0.5800E-02  0.1338E+01  0.1338E+01
     23.594 -0.5590E-02 -0.5590E-02  0.1338E+01  0.1338E+01
     23.712 -0.2896E-02 -0.2896E-02  0.1337E+01  0.1337E+01
     23.830  0.1070E-01  0.1070E-01  0.1338E+01  0.1338E+01
     23.948  0.3408E-01  0.3408E-01  0.1342E+01  0.1342E+01
     24.066  0.3157E-01  0.3157E-01  0.1346E+01  0.1346E+01
     24.184  0.6881E-02  0.6883E-02  0.1347E+01  0.1347E+01
     24.302 -0.2488E-02 -0.2488E-02  0.1347E+01  0.1347E+01
     24.419  0.1287E-01  0.1287E-01  0.1348E+01  0.1348E+01
     24.537  0.3578E-01  0.3578E-01  0.1352E+01  0.1352E+01
     24.655  0.2866E-01  0.2866E-01  0.1356E+01  0.1356E+01
     24.773  0.4217E-02  0.4219E-02  0.1356E+01  0.1356E+01
     24.891 -0.1347E-02 -0.1348E-02  0.1356E+01  0.1356E+01
     25.009  0.1779E-01  0.1779E-01  0.1358E+01  0.1358E+01
     25.127  0.3745E-01  0.3745E-01  0.1363E+01  0.1363E+01
     25.245  0.2432E-01  0.2432E-01  0.1366E+01  0.1366E+01
     25.363  0.2451E-02  0.2452E-02  0.1366E+01  0.1366E+01
     25.481 -0.1863E-02 -0.1863E-02  0.1366E+01  0.1366E+01
     25.598  0.5081E-02  0.5080E-02  0.1366E+01  0.1366E+01
     25.716  0.1233E-01  0.1233E-01  0.1368E+01  0.1368E+01
     25.834  0.8671E-02  0.8672E-02  0.1369E+01  0.1369E+01
     25.952  0.1282E-02  0.1282E-02  0.1369E+01  0.1369E+01
     26.070 -0.6289E-03 -0.6289E-03  0.1369E+01  0.1369E+01
     26.188 -0.2222E-03 -0.2222E-03  0.1369E+01  0.1369E+01
     26.306 -0.1171E-03 -0.1170E-03  0.1369E+01  0.1369E+01
     26.424 -0.7997E-03 -0.7995E-03  0.1369E+01  0.1369E+01
     26.542 -0.2347E-02 -0.2346E-02  0.1368E+01  0.1368E+01
     26.660  0.3502E-02  0.3501E-02  0.1369E+01  0.1369E+01
     26.777  0.3072E-01  0.3072E-01  0.1372E+01  0.1372E+01
     26.895  0.5353E-01  0.5353E-01  0.1379E+01  0.1379E+01
     27.013  0.3749E-01  0.3749E-01  0.1383E+01  0.1383E+01
     27.131  0.4410E-01  0.4410E-01  0.1388E+01  0.1388E+01
     27.249  0.9752E-01  0.9752E-01  0.1400E+01  0.1400E+01
     27.367  0.9657E-01  0.9658E-01  0.1411E+01  0.1411E+01
     27.485  0.5426E-01  0.5427E-01  0.1418E+01  0.1418E+01
     27.603  0.2967E-01  0.2967E-01  0.1421E+01  0.1421E+01
     27.721  0.9056E-02  0.9056E-02  0.1422E+01  0.1422E+01
     27.839  0.4545E-02  0.4545E-02  0.1423E+01  0.1423E+01
     27.957  0.1096E-01  0.1096E-01  0.1424E+01  0.1424E+01
     28.074  0.5833E-02  0.5833E-02  0.1425E+01  0.1425E+01
     28.192 -0.2177E-02 -0.2178E-02  0.1424E+01  0.1424E+01
     28.310  0.1753E-01  0.1753E-01  0.1427E+01  0.1427E+01
     28.428  0.6332E-01  0.6332E-01  0.1434E+01  0.1434E+01
     28.546  0.6272E-01  0.6272E-01  0.1441E+01  0.1441E+01
     28.664  0.2988E-01  0.2988E-01  0.1445E+01  0.1445E+01
     28.782  0.5496E-01  0.5496E-01  0.1451E+01  0.1451E+01
     28.900  0.9670E-01  0.9670E-01  0.1463E+01  0.1463E+01
     29.018  0.1078E+00  0.1078E+00  0.1475E+01  0.1475E+01
     29.136  0.1312E+00  0.1312E+00  0.1491E+01  0.1491E+01
     29.253  0.1082E+00  0.1082E+00  0.1504E+01  0.1504E+01
     29.371  0.2953E-01  0.2954E-01  0.1507E+01  0.1507E+01
     29.489 -0.6451E-02 -0.6450E-02  0.1506E+01  0.1506E+01
     29.607  0.7223E-02  0.7221E-02  0.1507E+01  0.1507E+01
     29.725  0.3356E-01  0.3356E-01  0.1511E+01  0.1511E+01
     29.843  0.3164E-01  0.3164E-01  0.1515E+01  0.1515E+01
     29.961  0.7738E-02  0.7740E-02  0.1516E+01  0.1516E+01
     30.079 -0.1940E-02 -0.1940E-02  0.1516E+01  0.1516E+01
     30.197  0.3729E-02  0.3729E-02  0.1516E+01  0.1516E+01
     30.315  0.1189E-01  0.1189E-01  0.1518E+01  0.1518E+01
     30.432  0.9567E-02  0.9567E-02  0.1519E+01  0.1519E+01
     30.550  0.1640E-02  0.1640E-02  0.1519E+01  0.1519E+01
     30.668 -0.1717E-02 -0.1717E-02  0.1519E+01  0.1519E+01
     30.786  0.2618E-04  0.2581E-04  0.1519E+01  0.1519E+01
     30.904  0.1188E-01  0.1188E-01  0.1520E+01  0.1520E+01
     31.022  0.2326E-01  0.2326E-01  0.1523E+01  0.1523E+01
     31.140  0.1789E-01  0.1789E-01  0.1525E+01  0.1525E+01
     31.258  0.2344E-01  0.2344E-01  0.1528E+01  0.1528E+01
     31.376  0.3645E-01  0.3645E-01  0.1532E+01  0.1532E+01
     31.494  0.2027E-01  0.2027E-01  0.1534E+01  0.1534E+01
     31.611 -0.1510E-03 -0.1501E-03  0.1534E+01  0.1534E+01
     31.729  0.5816E-02  0.5815E-02  0.1535E+01  0.1535E+01
     31.847  0.3066E-01  0.3066E-01  0.1539E+01  0.1539E+01
     31.965  0.3460E-01  0.3460E-01  0.1543E+01  0.1543E+01
     32.083  0.1163E-01  0.1163E-01  0.1544E+01  0.1544E+01
     32.201 -0.1245E-02 -0.1245E-02  0.1544E+01  0.1544E+01
     32.319 -0.1441E-02 -0.1441E-02  0.1544E+01  0.1544E+01
     32.437 -0.2117E-02 -0.2117E-02  0.1543E+01  0.1543E+01
     32.555 -0.5207E-02 -0.5207E-02  0.1543E+01  0.1543E+01
     32.673  0.1101E-01  0.1101E-01  0.1544E+01  0.1544E+01
     32.790  0.6905E-01  0.6905E-01  0.1552E+01  0.1552E+01
     32.908  0.1067E+00  0.1067E+00  0.1565E+01  0.1565E+01
     33.026  0.9577E-01  0.9577E-01  0.1576E+01  0.1576E+01
     33.144  0.7690E-01  0.7690E-01  0.1585E+01  0.1585E+01
     33.262  0.3944E-01  0.3944E-01  0.1590E+01  0.1590E+01
     33.380  0.8509E-02  0.8510E-02  0.1591E+01  0.1591E+01
     33.498 -0.8609E-03 -0.8609E-03  0.1591E+01  0.1591E+01
     33.616 -0.1211E-02 -0.1211E-02  0.1591E+01  0.1591E+01
     33.734 -0.4767E-03 -0.4767E-03  0.1591E+01  0.1591E+01
     33.852 -0.1061E-02 -0.1061E-02  0.1590E+01  0.1590E+01
     33.969 -0.1636E-02 -0.1636E-02  0.1590E+01  0.1590E+01
     34.087  0.8780E-02  0.8780E-02  0.1591E+01  0.1591E+01
     34.205  0.3234E-01  0.3234E-01  0.1595E+01  0.1595E+01
     34.323  0.3366E-01  0.3367E-01  0.1599E+01  0.1599E+01
     34.441  0.1031E-01  0.1031E-01  0.1600E+01  0.1600E+01
     34.559 -0.1442E-02 -0.1442E-02  0.1600E+01  0.1600E+01
     34.677 -0.1131E-02 -0.1131E-02  0.1600E+01  0.1600E+01
     34.795 -0.1741E-03 -0.1741E-03  0.1600E+01  0.1600E+01
     34.913 -0.1086E-04 -0.1086E-04  0.1600E+01  0.1600E+01
     35.031 -0.3080E-06 -0.3081E-06  0.1600E+01  0.1600E+01
     35.148 -0.4144E-08 -0.4144E-08  0.1600E+01  0.1600E+01
     35.266 -0.2694E-10 -0.2694E-10  0.1600E+01  0.1600E+01
     35.384 -0.8549E-13 -0.8551E-13  0.1600E+01  0.1600E+01
     35.502 -0.1412E-15 -0.1412E-15  0.1600E+01  0.1600E+01
     35.620  0.0000E+00  0.0000E+00  0.1600E+01  0.1600E+01
     35.738  0.0000E+00  0.0000E+00  0.1600E+01  0.1600E+01
     35.856  0.0000E+00  0.0000E+00  0.1600E+01  0.1600E+01
     35.974  0.0000E+00  0.0000E+00  0.1600E+01  0.1600E+01
     36.092  0.0000E+00  0.0000E+00  0.1600E+01  0.1600E+01
     36.210  0.0000E+00  0.0000E+00  0.1600E+01  0.1600E+01
