    8    8   40    2
  0.5396209E+01  0.3508000E-09  0.3508000E-09  0.3508000E-09  0.5000000E-15
  1.000000000000000E-004
  CAR 
 automatically generated by pyflamestk   
     80      4     64
 
  0.1250000E+00  0.1250000E+00  0.1250000E+00  0.1250000E+00
    1        2.839169      2.839170   1.000000   1.000000
    2        5.234093      5.234120   1.000000   1.000000
    3        5.234093      5.234120   1.000000   1.000000
    4        5.234093      5.234120   1.000000   1.000000
    5        5.576380      5.576405   1.000000   1.000000
    6        5.576380      5.576405   1.000000   1.000000
    7        5.576380      5.576405   1.000000   1.000000
    8        6.261983      6.262016   1.000000   1.000000
    9        6.261983      6.262016   1.000000   1.000000
   10        7.104088      7.104123   1.000000   1.000000
   11        7.131038      7.131075   1.000000   1.000000
   12        7.131038      7.131075   1.000000   1.000000
   13        7.131038      7.131075   1.000000   1.000000
   14        7.454964      7.455000   1.000000   1.000000
   15        7.454964      7.455000   1.000000   1.000000
   16        7.516156      7.516193   1.000000   1.000000
   17        7.516156      7.516193   1.000000   1.000000
   18        7.516156      7.516193   1.000000   1.000000
   19        8.727355      8.727391   1.000000   1.000000
   20        8.727355      8.727391   1.000000   1.000000
   21        8.727355      8.727391   1.000000   1.000000
   22        8.767034      8.767056   1.000000   1.000000
   23        8.767034      8.767056   1.000000   1.000000
   24        8.767034      8.767056   1.000000   1.000000
   25        9.169276      9.169308   1.000000   1.000000
   26        9.169276      9.169308   1.000000   1.000000
   27        9.169276      9.169308   1.000000   1.000000
   28        9.532623      9.532661   1.000000   1.000000
   29        9.738420      9.738459   1.000000   1.000000
   30        9.738420      9.738459   1.000000   1.000000
   31        9.875180      9.875218   1.000000   1.000000
   32        9.875180      9.875218   1.000000   1.000000
   33        9.875180      9.875218   1.000000   1.000000
   34       11.953506     11.953551   1.025867   1.025878
   35       11.953506     11.953551   1.025867   1.025878
   36       11.953506     11.953551   1.025867   1.025878
   37       12.013628     12.013672   1.035428   1.035429
   38       12.013628     12.013672   1.035428   1.035429
   39       12.013628     12.013672   1.035428   1.035429
   40       12.304222     12.304266   0.323253   0.323083
   41       12.304222     12.304266   0.323253   0.323083
   42       13.459161     13.459191  -0.000000  -0.000000
   43       13.459161     13.459191  -0.000000  -0.000000
   44       13.459161     13.459191  -0.000000  -0.000000
   45       17.003923     17.003939  -0.000000  -0.000000
   46       17.003923     17.003939  -0.000000  -0.000000
   47       17.003923     17.003939  -0.000000  -0.000000
   48       17.492165     17.492172  -0.000000  -0.000000
   49       17.492165     17.492172  -0.000000  -0.000000
   50       17.492165     17.492172  -0.000000  -0.000000
   51       19.608141     19.608145   0.000000   0.000000
   52       19.608141     19.608145   0.000000   0.000000
   53       19.608141     19.608145   0.000000   0.000000
   54       25.678474     25.678485   0.000000   0.000000
   55       26.888155     26.888168   0.000000   0.000000
   56       26.888155     26.888168   0.000000   0.000000
   57       26.888155     26.888168   0.000000   0.000000
   58       29.077867     29.077878   0.000000   0.000000
   59       29.077867     29.077878   0.000000   0.000000
   60       29.077867     29.077878   0.000000   0.000000
   61       29.117867     29.117877   0.000000   0.000000
   62       29.117867     29.117877   0.000000   0.000000
   63       30.290389     30.290392   0.000000   0.000000
   64       33.243671     33.243675   0.000000   0.000000
 
  0.3750000E+00  0.1250000E+00  0.1250000E+00  0.3750000E+00
    1        3.926356      3.926358   1.000000   1.000000
    2        5.319672      5.319700   1.000000   1.000000
    3        5.319672      5.319700   1.000000   1.000000
    4        5.327282      5.327310   1.000000   1.000000
    5        5.491846      5.491857   1.000000   1.000000
    6        5.560871      5.560899   1.000000   1.000000
    7        5.560871      5.560899   1.000000   1.000000
    8        5.836182      5.836213   1.000000   1.000000
    9        6.732463      6.732497   1.000000   1.000000
   10        7.239156      7.239191   1.000000   1.000000
   11        7.239156      7.239191   1.000000   1.000000
   12        7.250064      7.250101   1.000000   1.000000
   13        7.276953      7.276990   1.000000   1.000000
   14        7.320049      7.320085   1.000000   1.000000
   15        7.545719      7.545749   1.000000   1.000000
   16        7.577826      7.577860   1.000000   1.000000
   17        7.851106      7.851140   1.000000   1.000000
   18        7.992819      7.992853   1.000000   1.000000
   19        7.992819      7.992853   1.000000   1.000000
   20        8.107045      8.107081   1.000000   1.000000
   21        8.252830      8.252864   1.000000   1.000000
   22        8.252830      8.252864   1.000000   1.000000
   23        8.682525      8.682556   1.000000   1.000000
   24        8.682525      8.682556   1.000000   1.000000
   25        8.736273      8.736309   1.000000   1.000000
   26        8.740645      8.740681   1.000000   1.000000
   27        9.172836      9.172868   1.000000   1.000000
   28        9.172836      9.172868   1.000000   1.000000
   29        9.725845      9.725880   1.000000   1.000000
   30        9.725845      9.725880   1.000000   1.000000
   31       10.053429     10.053467   1.000000   1.000000
   32       10.290443     10.290481   1.000000   1.000000
   33       10.869398     10.869436   1.000000   1.000000
   34       10.897296     10.897334   1.000000   1.000000
   35       11.278003     11.278045   1.000000   1.000000
   36       11.922512     11.922555   1.018795   1.018804
   37       12.187937     12.187982   0.788756   0.788605
   38       12.187937     12.187982   0.788756   0.788605
   39       12.267008     12.267052   0.476200   0.476015
   40       12.267008     12.267052   0.476200   0.476015
   41       12.457670     12.457713  -0.023093  -0.023118
   42       12.462869     12.462914  -0.025883  -0.025904
   43       13.644969     13.644989  -0.000000  -0.000000
   44       13.644969     13.644989  -0.000000  -0.000000
   45       15.273779     15.273795  -0.000000  -0.000000
   46       15.273779     15.273795  -0.000000  -0.000000
   47       17.835810     17.835823   0.000000   0.000000
   48       17.835810     17.835823   0.000000   0.000000
   49       19.175278     19.175288   0.000000   0.000000
   50       19.175278     19.175288   0.000000   0.000000
   51       19.522086     19.522098   0.000000   0.000000
   52       21.725600     21.725608   0.000000   0.000000
   53       22.164790     22.164800   0.000000   0.000000
   54       22.435204     22.435218   0.000000   0.000000
   55       25.081436     25.081446   0.000000   0.000000
   56       27.237153     27.237164   0.000000   0.000000
   57       27.496715     27.496719   0.000000   0.000000
   58       28.765347     28.765359   0.000000   0.000000
   59       29.154859     29.154867   0.000000   0.000000
   60       29.154859     29.154867   0.000000   0.000000
   61       29.717269     29.717279   0.000000   0.000000
   62       31.317010     31.317020   0.000000   0.000000
   63       33.058416     33.058424   0.000000   0.000000
   64       33.058416     33.058424   0.000000   0.000000
 
  0.3750000E+00  0.3750000E+00  0.1250000E+00  0.3750000E+00
    1        4.775602      4.775607   1.000000   1.000000
    2        5.411155      5.411181   1.000000   1.000000
    3        5.527615      5.527637   1.000000   1.000000
    4        5.527615      5.527637   1.000000   1.000000
    5        5.721658      5.721687   1.000000   1.000000
    6        5.721658      5.721687   1.000000   1.000000
    7        6.094509      6.094541   1.000000   1.000000
    8        6.215094      6.215122   1.000000   1.000000
    9        6.476580      6.476614   1.000000   1.000000
   10        6.556290      6.556322   1.000000   1.000000
   11        7.085761      7.085793   1.000000   1.000000
   12        7.085761      7.085793   1.000000   1.000000
   13        7.227198      7.227232   1.000000   1.000000
   14        7.472255      7.472289   1.000000   1.000000
   15        7.472255      7.472289   1.000000   1.000000
   16        7.524243      7.524278   1.000000   1.000000
   17        7.731807      7.731832   1.000000   1.000000
   18        7.731807      7.731832   1.000000   1.000000
   19        7.928347      7.928375   1.000000   1.000000
   20        8.109775      8.109807   1.000000   1.000000
   21        8.140676      8.140712   1.000000   1.000000
   22        8.253218      8.253253   1.000000   1.000000
   23        8.253218      8.253253   1.000000   1.000000
   24        8.380589      8.380624   1.000000   1.000000
   25        8.889462      8.889495   1.000000   1.000000
   26        8.889462      8.889495   1.000000   1.000000
   27        9.036703      9.036734   1.000000   1.000000
   28        9.631703      9.631741   1.000000   1.000000
   29        9.660701      9.660739   1.000000   1.000000
   30        9.691719      9.691750   1.000000   1.000000
   31       10.298315     10.298350   1.000000   1.000000
   32       10.298315     10.298350   1.000000   1.000000
   33       10.717688     10.717727   1.000000   1.000000
   34       11.095894     11.095930   1.000000   1.000000
   35       11.095894     11.095930   1.000000   1.000000
   36       11.553400     11.553441   1.000003   1.000003
   37       11.553400     11.553441   1.000003   1.000003
   38       11.744494     11.744520   1.000788   1.000788
   39       11.773874     11.773916   1.001524   1.001525
   40       12.125687     12.125722   0.952130   0.952066
   41       12.329658     12.329704   0.228912   0.228754
   42       12.429656     12.429700   0.000112   0.000063
   43       12.429656     12.429700   0.000112   0.000063
   44       12.447770     12.447815  -0.016547  -0.016581
   45       15.199107     15.199130  -0.000000  -0.000000
   46       17.025912     17.025930  -0.000000  -0.000000
   47       17.025912     17.025930  -0.000000  -0.000000
   48       18.965300     18.965313   0.000000   0.000000
   49       19.490728     19.490745   0.000000   0.000000
   50       20.722161     20.722173   0.000000   0.000000
   51       20.722161     20.722173   0.000000   0.000000
   52       23.072903     23.072913   0.000000   0.000000
   53       23.072903     23.072913   0.000000   0.000000
   54       23.172918     23.172926   0.000000   0.000000
   55       23.236158     23.236170   0.000000   0.000000
   56       27.270256     27.270264   0.000000   0.000000
   57       28.422742     28.422752   0.000000   0.000000
   58       28.437619     28.437622   0.000000   0.000000
   59       28.878757     28.878763   0.000000   0.000000
   60       28.878757     28.878763   0.000000   0.000000
   61       31.858717     31.858724   0.000000   0.000000
   62       32.822260     32.822269   0.000000   0.000000
   63       32.822260     32.822269   0.000000   0.000000
   64       34.209608     34.209612   0.000000   0.000000
 
  0.3750000E+00  0.3750000E+00  0.3750000E+00  0.1250000E+00
    1        5.493775      5.493785   1.000000   1.000000
    2        5.910867      5.910895   1.000000   1.000000
    3        5.910867      5.910895   1.000000   1.000000
    4        5.910867      5.910895   1.000000   1.000000
    5        6.209661      6.209686   1.000000   1.000000
    6        6.209661      6.209686   1.000000   1.000000
    7        6.209661      6.209686   1.000000   1.000000
    8        6.425543      6.425575   1.000000   1.000000
    9        6.425543      6.425575   1.000000   1.000000
   10        6.707968      6.708001   1.000000   1.000000
   11        6.707968      6.708001   1.000000   1.000000
   12        6.707968      6.708001   1.000000   1.000000
   13        7.274546      7.274581   1.000000   1.000000
   14        7.274546      7.274581   1.000000   1.000000
   15        7.274546      7.274581   1.000000   1.000000
   16        7.326568      7.326604   1.000000   1.000000
   17        7.326568      7.326604   1.000000   1.000000
   18        7.390196      7.390218   1.000000   1.000000
   19        7.390196      7.390218   1.000000   1.000000
   20        7.390196      7.390218   1.000000   1.000000
   21        7.423955      7.423986   1.000000   1.000000
   22        7.772289      7.772326   1.000000   1.000000
   23        7.772289      7.772326   1.000000   1.000000
   24        7.772289      7.772326   1.000000   1.000000
   25        8.924671      8.924692   1.000000   1.000000
   26        9.516300      9.516323   1.000000   1.000000
   27        9.516300      9.516323   1.000000   1.000000
   28        9.516300      9.516323   1.000000   1.000000
   29       10.493131     10.493170   1.000000   1.000000
   30       10.493131     10.493170   1.000000   1.000000
   31       10.623472     10.623511   1.000000   1.000000
   32       10.623472     10.623511   1.000000   1.000000
   33       10.623472     10.623511   1.000000   1.000000
   34       10.863659     10.863687   1.000000   1.000000
   35       10.863659     10.863687   1.000000   1.000000
   36       10.863659     10.863687   1.000000   1.000000
   37       11.848181     11.848226   1.006422   1.006427
   38       11.848181     11.848226   1.006422   1.006427
   39       11.848181     11.848226   1.006422   1.006427
   40       11.986889     11.986933   1.032730   1.032738
   41       11.986889     11.986933   1.032730   1.032738
   42       12.053422     12.053466   1.028779   1.028762
   43       12.053422     12.053466   1.028779   1.028762
   44       12.053422     12.053466   1.028779   1.028762
   45       14.803284     14.803313  -0.000000  -0.000000
   46       14.803284     14.803313  -0.000000  -0.000000
   47       14.803284     14.803313  -0.000000  -0.000000
   48       16.660075     16.660098  -0.000000  -0.000000
   49       23.940387     23.940397   0.000000   0.000000
   50       23.940387     23.940397   0.000000   0.000000
   51       23.940387     23.940397   0.000000   0.000000
   52       24.514556     24.514565   0.000000   0.000000
   53       24.514556     24.514565   0.000000   0.000000
   54       24.514556     24.514565   0.000000   0.000000
   55       26.790304     26.790313   0.000000   0.000000
   56       26.790304     26.790313   0.000000   0.000000
   57       27.198540     27.198546   0.000000   0.000000
   58       27.198540     27.198546   0.000000   0.000000
   59       27.198540     27.198546   0.000000   0.000000
   60       27.910994     27.910995   0.000000   0.000000
   61       30.976625     30.976633   0.000000   0.000000
   62       30.976625     30.976633   0.000000   0.000000
   63       32.820973     32.820981   0.000000   0.000000
   64       32.820973     32.820981   0.000000   0.000000
