# ['Ni']

28 atoms
1 atom types

    0.0000     2.1942 xlo xhi
    0.0000     3.8005 ylo yhi
    0.0000    25.0822 zlo zhi

    0.0000     0.0000     0.0000 xy xz yz

Atoms

1 1     0.0000     0.0000     0.0000
2 1     1.0971     1.9003     0.0000
3 1     1.0971     0.6334     1.7916
4 1     0.0000     2.5337     1.7916
5 1     0.0000     1.2668     3.5832
6 1     1.0971     3.1671     3.5832
7 1     0.0000     0.0000     5.3748
8 1     1.0971     1.9003     5.3748
9 1     1.0971     0.6334     7.1663
10 1     0.0000     2.5337     7.1663
11 1     0.0000     1.2668     8.9579
12 1     1.0971     3.1671     8.9579
13 1     0.0000     0.0000    10.7495
14 1     1.0971     1.9003    10.7495
15 1     0.0000     1.2668    12.5411
16 1     1.0971     3.1671    12.5411
17 1     0.0000     0.0000    14.3327
18 1     1.0971     1.9003    14.3327
19 1     1.0971     0.6334    16.1243
20 1     0.0000     2.5337    16.1243
21 1     0.0000     1.2668    17.9159
22 1     1.0971     3.1671    17.9159
23 1     0.0000     0.0000    19.7075
24 1     1.0971     1.9003    19.7075
25 1     1.0971     0.6334    21.4991
26 1     0.0000     2.5337    21.4991
27 1     0.0000     1.2668    23.2906
28 1     1.0971     3.1671    23.2906
