   4   4   0   0
  0.1064635E+02  0.3492102E-09  0.3492102E-09  0.3492102E-09  0.5000000E-15
  1.000000000000000E-004
  CAR 
 automatically generated by pyflamestk   
     33.67549740     -0.87984740  301      9.53703271      1.00000000
     -0.880  0.0000E+00  0.0000E+00  0.0000E+00  0.0000E+00
     -0.765  0.0000E+00  0.0000E+00  0.0000E+00  0.0000E+00
     -0.649  0.0000E+00  0.0000E+00  0.0000E+00  0.0000E+00
     -0.534 -0.4837E-29 -0.4840E-29 -0.5572E-30 -0.5575E-30
     -0.419 -0.4439E-25 -0.4441E-25 -0.5114E-26 -0.5116E-26
     -0.304 -0.2087E-21 -0.2087E-21 -0.2404E-22 -0.2405E-22
     -0.189 -0.5019E-18 -0.5021E-18 -0.5783E-19 -0.5785E-19
     -0.074 -0.6168E-15 -0.6171E-15 -0.7111E-16 -0.7113E-16
      0.042 -0.3736E-12 -0.3738E-12 -0.4311E-13 -0.4312E-13
      0.157 -0.1182E-09 -0.1182E-09 -0.1366E-10 -0.1366E-10
      0.272 -0.1888E-07 -0.1888E-07 -0.2188E-08 -0.2188E-08
      0.387 -0.1510E-05 -0.1510E-05 -0.1761E-06 -0.1761E-06
      0.502 -0.5957E-04 -0.5958E-04 -0.7038E-05 -0.7039E-05
      0.618 -0.1124E-02 -0.1124E-02 -0.1365E-03 -0.1365E-03
      0.733 -0.9389E-02 -0.9389E-02 -0.1218E-02 -0.1218E-02
      0.848 -0.2534E-01 -0.2534E-01 -0.4136E-02 -0.4137E-02
      0.963  0.5091E-01  0.5092E-01  0.1727E-02  0.1728E-02
      1.078  0.3399E+00  0.3400E+00  0.4088E-01  0.4089E-01
      1.193  0.5006E+00  0.5006E+00  0.9854E-01  0.9854E-01
      1.309  0.2493E+00  0.2493E+00  0.1273E+00  0.1273E+00
      1.424  0.9483E-02  0.9477E-02  0.1284E+00  0.1284E+00
      1.539 -0.2279E-01 -0.2279E-01  0.1257E+00  0.1257E+00
      1.654 -0.5753E-02 -0.5753E-02  0.1251E+00  0.1251E+00
      1.769 -0.5441E-03 -0.5440E-03  0.1250E+00  0.1250E+00
      1.885 -0.2563E-04 -0.2562E-04  0.1250E+00  0.1250E+00
      2.000 -0.9770E-04 -0.9772E-04  0.1250E+00  0.1250E+00
      2.115 -0.2103E-02 -0.2103E-02  0.1247E+00  0.1247E+00
      2.230 -0.2055E-01 -0.2056E-01  0.1224E+00  0.1224E+00
      2.345 -0.7225E-01 -0.7225E-01  0.1141E+00  0.1141E+00
      2.461  0.6423E-01  0.6425E-01  0.1215E+00  0.1215E+00
      2.576  0.8410E+00  0.8411E+00  0.2183E+00  0.2183E+00
      2.691  0.1515E+01  0.1515E+01  0.3928E+00  0.3928E+00
      2.806  0.9285E+00  0.9284E+00  0.4997E+00  0.4997E+00
      2.921  0.1039E+00  0.1039E+00  0.5117E+00  0.5117E+00
      3.036 -0.7483E-01 -0.7482E-01  0.5031E+00  0.5031E+00
      3.152 -0.2404E-01 -0.2404E-01  0.5003E+00  0.5003E+00
      3.267 -0.2740E-02 -0.2740E-02  0.5000E+00  0.5000E+00
      3.382 -0.2069E-02 -0.2070E-02  0.4998E+00  0.4998E+00
      3.497 -0.1944E-01 -0.1945E-01  0.4975E+00  0.4975E+00
      3.612 -0.7110E-01 -0.7111E-01  0.4893E+00  0.4893E+00
      3.728  0.5193E-01  0.5195E-01  0.4953E+00  0.4953E+00
      3.843  0.8108E+00  0.8109E+00  0.5887E+00  0.5887E+00
      3.958  0.1512E+01  0.1512E+01  0.7628E+00  0.7628E+00
      4.073  0.9552E+00  0.9552E+00  0.8729E+00  0.8729E+00
      4.188  0.1015E+00  0.1015E+00  0.8846E+00  0.8846E+00
      4.303 -0.9637E-01 -0.9636E-01  0.8735E+00  0.8735E+00
      4.419  0.9136E-01  0.9138E-01  0.8840E+00  0.8840E+00
      4.534  0.3820E+00  0.3820E+00  0.9280E+00  0.9280E+00
      4.649  0.6914E+00  0.6913E+00  0.1008E+01  0.1008E+01
      4.764  0.1298E+01  0.1298E+01  0.1157E+01  0.1157E+01
      4.879  0.1391E+01  0.1391E+01  0.1317E+01  0.1317E+01
      4.995  0.4379E+00  0.4380E+00  0.1368E+01  0.1368E+01
      5.110 -0.2521E-01 -0.2521E-01  0.1365E+01  0.1365E+01
      5.225  0.1128E+01  0.1128E+01  0.1495E+01  0.1495E+01
      5.340  0.2863E+01  0.2863E+01  0.1825E+01  0.1825E+01
      5.455  0.3522E+01  0.3522E+01  0.2230E+01  0.2230E+01
      5.570  0.3340E+01  0.3340E+01  0.2615E+01  0.2615E+01
      5.686  0.1849E+01  0.1849E+01  0.2828E+01  0.2828E+01
      5.801  0.7329E+00  0.7329E+00  0.2912E+01  0.2912E+01
      5.916  0.2781E+01  0.2780E+01  0.3233E+01  0.3233E+01
      6.031  0.5197E+01  0.5197E+01  0.3831E+01  0.3831E+01
      6.146  0.3887E+01  0.3887E+01  0.4279E+01  0.4279E+01
      6.262  0.2472E+01  0.2472E+01  0.4564E+01  0.4564E+01
      6.377  0.3888E+01  0.3889E+01  0.5012E+01  0.5012E+01
      6.492  0.3561E+01  0.3561E+01  0.5422E+01  0.5422E+01
      6.607  0.2353E+01  0.2352E+01  0.5693E+01  0.5693E+01
      6.722  0.3393E+01  0.3393E+01  0.6084E+01  0.6084E+01
      6.838  0.3544E+01  0.3544E+01  0.6492E+01  0.6492E+01
      6.953  0.2640E+01  0.2641E+01  0.6796E+01  0.6796E+01
      7.068  0.3199E+01  0.3199E+01  0.7164E+01  0.7164E+01
      7.183  0.4820E+01  0.4819E+01  0.7720E+01  0.7720E+01
      7.298  0.6689E+01  0.6689E+01  0.8490E+01  0.8490E+01
      7.413  0.6542E+01  0.6542E+01  0.9244E+01  0.9244E+01
      7.529  0.4088E+01  0.4088E+01  0.9714E+01  0.9714E+01
      7.644  0.3181E+01  0.3181E+01  0.1008E+02  0.1008E+02
      7.759  0.5408E+01  0.5408E+01  0.1070E+02  0.1070E+02
      7.874  0.7817E+01  0.7817E+01  0.1160E+02  0.1160E+02
      7.989  0.7259E+01  0.7260E+01  0.1244E+02  0.1244E+02
      8.105  0.3911E+01  0.3911E+01  0.1289E+02  0.1289E+02
      8.220  0.1966E+01  0.1966E+01  0.1312E+02  0.1312E+02
      8.335  0.3439E+01  0.3438E+01  0.1351E+02  0.1351E+02
      8.450  0.4238E+01  0.4239E+01  0.1400E+02  0.1400E+02
      8.565  0.4543E+01  0.4543E+01  0.1452E+02  0.1452E+02
      8.680  0.7200E+01  0.7199E+01  0.1535E+02  0.1535E+02
      8.796  0.7519E+01  0.7519E+01  0.1622E+02  0.1622E+02
      8.911  0.3707E+01  0.3708E+01  0.1665E+02  0.1665E+02
      9.026  0.1867E+01  0.1867E+01  0.1686E+02  0.1686E+02
      9.141  0.4358E+01  0.4358E+01  0.1736E+02  0.1736E+02
      9.256  0.6712E+01  0.6712E+01  0.1814E+02  0.1814E+02
      9.372  0.5900E+01  0.5900E+01  0.1882E+02  0.1882E+02
      9.487  0.6543E+01  0.6543E+01  0.1957E+02  0.1957E+02
      9.602  0.8718E+01  0.8718E+01  0.2057E+02  0.2057E+02
      9.717  0.6141E+01  0.6141E+01  0.2128E+02  0.2128E+02
      9.832  0.1391E+01  0.1391E+01  0.2144E+02  0.2144E+02
      9.947 -0.3433E+00 -0.3432E+00  0.2140E+02  0.2140E+02
     10.063 -0.2065E+00 -0.2066E+00  0.2138E+02  0.2138E+02
     10.178 -0.3376E-01 -0.3376E-01  0.2138E+02  0.2138E+02
     10.293 -0.2433E-02 -0.2433E-02  0.2138E+02  0.2138E+02
     10.408 -0.1160E-03 -0.1160E-03  0.2137E+02  0.2137E+02
     10.523 -0.1062E-02 -0.1062E-02  0.2137E+02  0.2137E+02
     10.639 -0.1695E-01 -0.1695E-01  0.2137E+02  0.2137E+02
     10.754 -0.1164E+00 -0.1164E+00  0.2136E+02  0.2136E+02
     10.869 -0.2099E+00 -0.2099E+00  0.2134E+02  0.2134E+02
     10.984  0.8607E+00  0.8606E+00  0.2143E+02  0.2143E+02
     11.099  0.3622E+01  0.3622E+01  0.2185E+02  0.2185E+02
     11.215  0.4274E+01  0.4274E+01  0.2234E+02  0.2234E+02
     11.330  0.1648E+01  0.1648E+01  0.2253E+02  0.2253E+02
     11.445 -0.8478E-01 -0.8476E-01  0.2252E+02  0.2252E+02
     11.560 -0.1715E+00 -0.1715E+00  0.2250E+02  0.2250E+02
     11.675 -0.3439E-01 -0.3440E-01  0.2250E+02  0.2250E+02
     11.790 -0.3546E-02 -0.3546E-02  0.2250E+02  0.2250E+02
     11.906 -0.1033E-01 -0.1033E-01  0.2250E+02  0.2250E+02
     12.021 -0.5426E-01 -0.5425E-01  0.2249E+02  0.2249E+02
     12.136 -0.3926E-01 -0.3928E-01  0.2249E+02  0.2249E+02
     12.251  0.5028E+00  0.5027E+00  0.2255E+02  0.2255E+02
     12.366  0.1400E+01  0.1400E+01  0.2271E+02  0.2271E+02
     12.482  0.1250E+01  0.1250E+01  0.2285E+02  0.2285E+02
     12.597  0.3229E+00  0.3229E+00  0.2289E+02  0.2289E+02
     12.712 -0.6710E-01 -0.6709E-01  0.2288E+02  0.2288E+02
     12.827 -0.4189E-01 -0.4189E-01  0.2288E+02  0.2288E+02
     12.942 -0.1171E-01 -0.1171E-01  0.2287E+02  0.2287E+02
     13.057 -0.3829E-01 -0.3829E-01  0.2287E+02  0.2287E+02
     13.173 -0.7148E-01 -0.7148E-01  0.2286E+02  0.2286E+02
     13.288  0.2745E+00  0.2745E+00  0.2289E+02  0.2289E+02
     13.403  0.1195E+01  0.1195E+01  0.2303E+02  0.2303E+02
     13.518  0.1435E+01  0.1435E+01  0.2320E+02  0.2320E+02
     13.633  0.5630E+00  0.5630E+00  0.2326E+02  0.2326E+02
     13.749 -0.2592E-01 -0.2592E-01  0.2326E+02  0.2326E+02
     13.864 -0.5813E-01 -0.5813E-01  0.2325E+02  0.2325E+02
     13.979 -0.1179E-01 -0.1179E-01  0.2325E+02  0.2325E+02
     14.094 -0.1910E-02 -0.1910E-02  0.2325E+02  0.2325E+02
     14.209 -0.1430E-01 -0.1429E-01  0.2325E+02  0.2325E+02
     14.325 -0.8923E-01 -0.8922E-01  0.2324E+02  0.2324E+02
     14.440 -0.1246E+00 -0.1246E+00  0.2322E+02  0.2322E+02
     14.555  0.7284E+00  0.7283E+00  0.2331E+02  0.2331E+02
     14.670  0.2583E+01  0.2583E+01  0.2361E+02  0.2361E+02
     14.785  0.2736E+01  0.2736E+01  0.2392E+02  0.2392E+02
     14.900  0.9116E+00  0.9117E+00  0.2403E+02  0.2403E+02
     15.016 -0.9650E-01 -0.9649E-01  0.2401E+02  0.2401E+02
     15.131 -0.1022E+00 -0.1022E+00  0.2400E+02  0.2400E+02
     15.246 -0.1824E-01 -0.1824E-01  0.2400E+02  0.2400E+02
     15.361 -0.1339E-02 -0.1339E-02  0.2400E+02  0.2400E+02
     15.476 -0.4606E-04 -0.4607E-04  0.2400E+02  0.2400E+02
     15.592 -0.7545E-05 -0.7547E-05  0.2400E+02  0.2400E+02
     15.707 -0.2486E-03 -0.2487E-03  0.2400E+02  0.2400E+02
     15.822 -0.4343E-02 -0.4343E-02  0.2400E+02  0.2400E+02
     15.937 -0.3311E-01 -0.3311E-01  0.2400E+02  0.2400E+02
     16.052 -0.7496E-01 -0.7496E-01  0.2399E+02  0.2399E+02
     16.167  0.2135E+00  0.2135E+00  0.2401E+02  0.2401E+02
     16.283  0.1115E+01  0.1115E+01  0.2414E+02  0.2414E+02
     16.398  0.1472E+01  0.1472E+01  0.2431E+02  0.2431E+02
     16.513  0.6385E+00  0.6385E+00  0.2438E+02  0.2438E+02
     16.628 -0.5758E-01 -0.5759E-01  0.2438E+02  0.2438E+02
     16.743 -0.1025E+00 -0.1025E+00  0.2436E+02  0.2436E+02
     16.859  0.4885E+00  0.4884E+00  0.2442E+02  0.2442E+02
     16.974  0.1399E+01  0.1399E+01  0.2458E+02  0.2458E+02
     17.089  0.1250E+01  0.1250E+01  0.2473E+02  0.2473E+02
     17.204  0.3230E+00  0.3230E+00  0.2476E+02  0.2476E+02
     17.319 -0.6718E-01 -0.6717E-01  0.2476E+02  0.2476E+02
     17.434 -0.4400E-01 -0.4400E-01  0.2475E+02  0.2475E+02
     17.550 -0.3440E-01 -0.3440E-01  0.2475E+02  0.2475E+02
     17.665 -0.1264E+00 -0.1264E+00  0.2473E+02  0.2473E+02
     17.780 -0.8742E-02 -0.8723E-02  0.2473E+02  0.2473E+02
     17.895  0.1290E+01  0.1290E+01  0.2488E+02  0.2488E+02
     18.010  0.2943E+01  0.2943E+01  0.2522E+02  0.2522E+02
     18.126  0.2237E+01  0.2237E+01  0.2548E+02  0.2548E+02
     18.241  0.4308E+00  0.4307E+00  0.2553E+02  0.2553E+02
     18.356 -0.1585E+00 -0.1585E+00  0.2551E+02  0.2551E+02
     18.471 -0.9183E-01 -0.9182E-01  0.2550E+02  0.2550E+02
     18.586  0.3442E-01  0.3443E-01  0.2550E+02  0.2550E+02
     18.702  0.3256E+00  0.3256E+00  0.2554E+02  0.2554E+02
     18.817  0.5031E+00  0.5031E+00  0.2560E+02  0.2560E+02
     18.932  0.2635E+00  0.2635E+00  0.2563E+02  0.2563E+02
     19.047  0.1466E-01  0.1466E-01  0.2563E+02  0.2563E+02
     19.162 -0.2373E-01 -0.2373E-01  0.2563E+02  0.2563E+02
     19.277 -0.1231E-01 -0.1231E-01  0.2562E+02  0.2562E+02
     19.393 -0.5323E-01 -0.5323E-01  0.2562E+02  0.2562E+02
     19.508 -0.1515E+00 -0.1515E+00  0.2560E+02  0.2560E+02
     19.623  0.2610E+00  0.2610E+00  0.2563E+02  0.2563E+02
     19.738  0.1960E+01  0.1960E+01  0.2586E+02  0.2586E+02
     19.853  0.3018E+01  0.3018E+01  0.2620E+02  0.2620E+02
     19.969  0.1577E+01  0.1577E+01  0.2639E+02  0.2639E+02
     20.084  0.8643E-01  0.8641E-01  0.2640E+02  0.2640E+02
     20.199 -0.1446E+00 -0.1446E+00  0.2638E+02  0.2638E+02
     20.314 -0.6967E-01 -0.6967E-01  0.2637E+02  0.2637E+02
     20.429 -0.7894E-01 -0.7894E-01  0.2636E+02  0.2636E+02
     20.544  0.2041E+00  0.2042E+00  0.2639E+02  0.2639E+02
     20.660  0.1102E+01  0.1102E+01  0.2651E+02  0.2651E+02
     20.775  0.1478E+01  0.1478E+01  0.2668E+02  0.2668E+02
     20.890  0.6629E+00  0.6627E+00  0.2676E+02  0.2676E+02
     21.005  0.7902E-03  0.7387E-03  0.2676E+02  0.2676E+02
     21.120 -0.6498E-01 -0.6497E-01  0.2675E+02  0.2675E+02
     21.236 -0.2901E-01 -0.2901E-01  0.2675E+02  0.2675E+02
     21.351 -0.9118E-01 -0.9120E-01  0.2674E+02  0.2674E+02
     21.466 -0.1248E+00 -0.1248E+00  0.2672E+02  0.2672E+02
     21.581  0.7221E+00  0.7224E+00  0.2681E+02  0.2681E+02
     21.696  0.2526E+01  0.2527E+01  0.2710E+02  0.2710E+02
     21.811  0.2732E+01  0.2732E+01  0.2741E+02  0.2741E+02
     21.927  0.1574E+01  0.1574E+01  0.2759E+02  0.2759E+02
     22.042  0.1383E+01  0.1383E+01  0.2775E+02  0.2775E+02
     22.157  0.9916E+00  0.9915E+00  0.2787E+02  0.2787E+02
     22.272  0.1779E+00  0.1778E+00  0.2789E+02  0.2789E+02
     22.387 -0.1015E+00 -0.1015E+00  0.2788E+02  0.2788E+02
     22.503 -0.1250E+00 -0.1250E+00  0.2786E+02  0.2786E+02
     22.618  0.1522E-01  0.1521E-01  0.2786E+02  0.2786E+02
     22.733  0.9459E+00  0.9460E+00  0.2797E+02  0.2797E+02
     22.848  0.2314E+01  0.2314E+01  0.2824E+02  0.2824E+02
     22.963  0.2381E+01  0.2381E+01  0.2851E+02  0.2851E+02
     23.079  0.1048E+01  0.1047E+01  0.2863E+02  0.2863E+02
     23.194  0.5194E-01  0.5186E-01  0.2864E+02  0.2864E+02
     23.309 -0.1018E+00 -0.1018E+00  0.2863E+02  0.2863E+02
     23.424 -0.6365E-01 -0.6365E-01  0.2862E+02  0.2862E+02
     23.539 -0.1011E+00 -0.1011E+00  0.2861E+02  0.2861E+02
     23.654  0.1040E+00  0.1040E+00  0.2862E+02  0.2862E+02
     23.770  0.1071E+01  0.1071E+01  0.2874E+02  0.2874E+02
     23.885  0.2587E+01  0.2587E+01  0.2904E+02  0.2904E+02
     24.000  0.3504E+01  0.3504E+01  0.2945E+02  0.2945E+02
     24.115  0.2392E+01  0.2392E+01  0.2972E+02  0.2972E+02
     24.230  0.4926E+00  0.4923E+00  0.2978E+02  0.2978E+02
     24.346 -0.1563E+00 -0.1563E+00  0.2976E+02  0.2976E+02
     24.461 -0.7745E-01 -0.7743E-01  0.2975E+02  0.2975E+02
     24.576 -0.1097E-01 -0.1096E-01  0.2975E+02  0.2975E+02
     24.691 -0.7006E-03 -0.7001E-03  0.2975E+02  0.2975E+02
     24.806 -0.8976E-03 -0.8980E-03  0.2975E+02  0.2975E+02
     24.921 -0.1334E-01 -0.1335E-01  0.2975E+02  0.2975E+02
     25.037 -0.8596E-01 -0.8598E-01  0.2974E+02  0.2974E+02
     25.152 -0.1321E+00 -0.1321E+00  0.2972E+02  0.2972E+02
     25.267  0.6655E+00  0.6657E+00  0.2980E+02  0.2980E+02
     25.382  0.2488E+01  0.2488E+01  0.3009E+02  0.3009E+02
     25.497  0.2854E+01  0.2854E+01  0.3042E+02  0.3042E+02
     25.613  0.1608E+01  0.1608E+01  0.3060E+02  0.3060E+02
     25.728  0.9201E+00  0.9201E+00  0.3071E+02  0.3071E+02
     25.843  0.4285E+00  0.4283E+00  0.3076E+02  0.3076E+02
     25.958  0.1269E-01  0.1260E-01  0.3076E+02  0.3076E+02
     26.073 -0.4860E-01 -0.4859E-01  0.3075E+02  0.3075E+02
     26.189 -0.1279E-01 -0.1278E-01  0.3075E+02  0.3075E+02
     26.304 -0.1509E-02 -0.1508E-02  0.3075E+02  0.3075E+02
     26.419 -0.4405E-02 -0.4404E-02  0.3075E+02  0.3075E+02
     26.534 -0.3314E-01 -0.3313E-01  0.3075E+02  0.3075E+02
     26.649 -0.7495E-01 -0.7495E-01  0.3074E+02  0.3074E+02
     26.764  0.2138E+00  0.2138E+00  0.3076E+02  0.3076E+02
     26.880  0.1116E+01  0.1116E+01  0.3089E+02  0.3089E+02
     26.995  0.1473E+01  0.1473E+01  0.3106E+02  0.3106E+02
     27.110  0.6482E+00  0.6483E+00  0.3113E+02  0.3113E+02
     27.225 -0.3480E-02 -0.3464E-02  0.3113E+02  0.3113E+02
     27.340 -0.6319E-01 -0.6319E-01  0.3113E+02  0.3113E+02
     27.456 -0.1413E-01 -0.1414E-01  0.3113E+02  0.3113E+02
     27.571 -0.1244E-02 -0.1244E-02  0.3113E+02  0.3113E+02
     27.686 -0.5332E-03 -0.5332E-03  0.3112E+02  0.3112E+02
     27.801 -0.7175E-02 -0.7176E-02  0.3112E+02  0.3112E+02
     27.916 -0.4477E-01 -0.4477E-01  0.3112E+02  0.3112E+02
     28.031 -0.6202E-01 -0.6201E-01  0.3111E+02  0.3111E+02
     28.147  0.3663E+00  0.3664E+00  0.3115E+02  0.3115E+02
     28.262  0.1293E+01  0.1293E+01  0.3130E+02  0.3130E+02
     28.377  0.1366E+01  0.1366E+01  0.3146E+02  0.3146E+02
     28.492  0.4535E+00  0.4535E+00  0.3151E+02  0.3151E+02
     28.607 -0.4868E-01 -0.4869E-01  0.3151E+02  0.3151E+02
     28.723 -0.5149E-01 -0.5149E-01  0.3150E+02  0.3150E+02
     28.838 -0.1693E-01 -0.1693E-01  0.3150E+02  0.3150E+02
     28.953 -0.4781E-01 -0.4781E-01  0.3149E+02  0.3149E+02
     29.068 -0.5749E-01 -0.5749E-01  0.3149E+02  0.3149E+02
     29.183  0.3992E+00  0.3992E+00  0.3153E+02  0.3153E+02
     29.298  0.1323E+01  0.1323E+01  0.3169E+02  0.3169E+02
     29.414  0.1339E+01  0.1339E+01  0.3184E+02  0.3184E+02
     29.529  0.4189E+00  0.4189E+00  0.3189E+02  0.3189E+02
     29.644 -0.5446E-01 -0.5447E-01  0.3188E+02  0.3188E+02
     29.759 -0.4854E-01 -0.4854E-01  0.3188E+02  0.3188E+02
     29.874 -0.8289E-02 -0.8289E-02  0.3188E+02  0.3188E+02
     29.990 -0.5883E-03 -0.5882E-03  0.3188E+02  0.3188E+02
     30.105 -0.1957E-04 -0.1956E-04  0.3188E+02  0.3188E+02
     30.220 -0.3181E-06 -0.3181E-06  0.3188E+02  0.3188E+02
     30.335 -0.2579E-08 -0.2578E-08  0.3188E+02  0.3188E+02
     30.450 -0.1053E-10 -0.1053E-10  0.3188E+02  0.3188E+02
     30.566 -0.9064E-13 -0.9079E-13  0.3187E+02  0.3187E+02
     30.681 -0.2626E-10 -0.2631E-10  0.3187E+02  0.3187E+02
     30.796 -0.5057E-08 -0.5066E-08  0.3187E+02  0.3187E+02
     30.911 -0.4891E-06 -0.4899E-06  0.3187E+02  0.3187E+02
     31.026 -0.2346E-04 -0.2349E-04  0.3187E+02  0.3187E+02
     31.141 -0.5440E-03 -0.5445E-03  0.3187E+02  0.3187E+02
     31.257 -0.5753E-02 -0.5756E-02  0.3187E+02  0.3187E+02
     31.372 -0.2279E-01 -0.2279E-01  0.3187E+02  0.3187E+02
     31.487  0.9477E-02  0.9518E-02  0.3187E+02  0.3187E+02
     31.602  0.2493E+00  0.2494E+00  0.3190E+02  0.3190E+02
     31.717  0.5006E+00  0.5006E+00  0.3196E+02  0.3196E+02
     31.833  0.3400E+00  0.3398E+00  0.3200E+02  0.3200E+02
     31.948  0.5092E-01  0.5085E-01  0.3200E+02  0.3200E+02
     32.063 -0.2534E-01 -0.2534E-01  0.3200E+02  0.3200E+02
     32.178 -0.9389E-02 -0.9384E-02  0.3200E+02  0.3200E+02
     32.293 -0.1124E-02 -0.1123E-02  0.3200E+02  0.3200E+02
     32.408 -0.5958E-04 -0.5952E-04  0.3200E+02  0.3200E+02
     32.524 -0.1510E-05 -0.1508E-05  0.3200E+02  0.3200E+02
     32.639 -0.1888E-07 -0.1885E-07  0.3200E+02  0.3200E+02
     32.754 -0.1182E-09 -0.1180E-09  0.3200E+02  0.3200E+02
     32.869 -0.3737E-12 -0.3730E-12  0.3200E+02  0.3200E+02
     32.984 -0.7229E-15 -0.7229E-15  0.3200E+02  0.3200E+02
     33.100  0.0000E+00  0.0000E+00  0.3200E+02  0.3200E+02
     33.215  0.0000E+00  0.0000E+00  0.3200E+02  0.3200E+02
     33.330  0.0000E+00  0.0000E+00  0.3200E+02  0.3200E+02
     33.445  0.0000E+00  0.0000E+00  0.3200E+02  0.3200E+02
     33.560  0.0000E+00  0.0000E+00  0.3200E+02  0.3200E+02
     33.675  0.0000E+00  0.0000E+00  0.3200E+02  0.3200E+02
