# ['Ni']

28 atoms
1 atom types

    0.0000     2.4797 xlo xhi
    0.0000     4.2949 ylo yhi
    0.0000    28.3452 zlo zhi

    0.0000     0.0000     0.0000 xy xz yz

Atoms

1 1     0.0000     0.0000     0.0000
2 1     1.2398     2.1475     0.0000
3 1     1.2398     0.7158     2.0247
4 1     0.0000     2.8633     2.0247
5 1     0.0000     1.4316     4.0493
6 1     1.2398     3.5791     4.0493
7 1     0.0000     0.0000     6.0740
8 1     1.2398     2.1475     6.0740
9 1     1.2398     0.7158     8.0986
10 1     0.0000     2.8633     8.0986
11 1     0.0000     1.4316    10.1233
12 1     1.2398     3.5791    10.1233
13 1     0.0000     0.0000    12.1479
14 1     1.2398     2.1475    12.1479
15 1     0.0000     1.4316    14.1726
16 1     1.2398     3.5791    14.1726
17 1     0.0000     0.0000    16.1973
18 1     1.2398     2.1475    16.1973
19 1     1.2398     0.7158    18.2219
20 1     0.0000     2.8633    18.2219
21 1     0.0000     1.4316    20.2466
22 1     1.2398     3.5791    20.2466
23 1     0.0000     0.0000    22.2712
24 1     1.2398     2.1475    22.2712
25 1     1.2398     0.7158    24.2959
26 1     0.0000     2.8633    24.2959
27 1     0.0000     1.4316    26.3205
28 1     1.2398     3.5791    26.3205
