# ['Ni']

18 atoms
1 atom types

    0.0000     2.3729 xlo xhi
    0.0000     4.1100 ylo yhi
    0.0000    34.8690 zlo zhi

    0.0000     0.0000    -0.0004 xy xz yz

Atoms

1 1     0.0000     0.0000     0.0000
2 1     1.1865     0.6850     1.9372
3 1     0.0000     1.3700     3.8743
4 1     1.1865     2.0550     0.0000
5 1     0.0000     2.7400     1.9372
6 1     1.1865     3.4250     3.8743
7 1     0.0000     0.0000     5.8115
8 1     1.1865     0.6850     7.7487
9 1     0.0000     1.3700     9.6858
10 1     1.1865     2.0550     5.8115
11 1     0.0000     2.7400     7.7487
12 1     1.1865     3.4250     9.6858
13 1     0.0000     0.0000    11.6230
14 1     1.1865     0.6850    13.5602
15 1     0.0000     1.3700    15.4973
16 1     1.1865     2.0550    11.6230
17 1     0.0000     2.7400    13.5602
18 1     1.1865     3.4250    15.4973
