    2    2    1    1
  0.9563318E+01  0.3001819E-09  0.3001820E-09  0.3001819E-09  0.5000000E-15
  1.000000000000000E-004
  CAR 
 automatically generated by pyflamestk   
      8     10     16
 
  0.1250000E+00  0.1250000E+00  0.1250000E+00  0.3125000E-01
    1      -13.815629   1.000000
    2        2.482310   1.000000
    3        3.343407   1.000000
    4        3.343408   1.000000
    5        8.745929   0.000000
    6       17.423134   0.000000
    7       19.438801   0.000000
    8       19.438804   0.000000
    9       23.695401   0.000000
   10       23.695404   0.000000
   11       25.028336   0.000000
   12       27.480609   0.000000
   13       28.932113   0.000000
   14       28.932117   0.000000
   15       39.256700   0.000000
   16       41.198020   0.000000
 
  0.3750000E+00  0.1250000E+00  0.1250000E+00  0.9375000E-01
    1      -13.175237   1.000000
    2        0.334142   1.000000
    3        2.499799   1.000000
    4        3.059648   1.000000
    5       11.231572   0.000000
    6       15.404591   0.000000
    7       18.799659   0.000000
    8       20.445244   0.000000
    9       22.269885   0.000000
   10       24.525036   0.000000
   11       26.631435   0.000000
   12       31.311808   0.000000
   13       32.656381   0.000000
   14       33.422514   0.000000
   15       35.781811   0.000000
   16       39.132043   0.000000
 
 -0.3750000E+00  0.1250000E+00  0.1250000E+00  0.9375000E-01
    1      -12.749843   1.000000
    2       -0.801003   1.000000
    3        2.340245   1.000000
    4        2.727314   1.000000
    5       11.804637   0.000000
    6       15.692594   0.000000
    7       18.072227   0.000000
    8       19.893113   0.000000
    9       23.885193   0.000000
   10       26.170945   0.000000
   11       26.221489   0.000000
   12       32.477061   0.000000
   13       33.167563   0.000000
   14       33.459595   0.000000
   15       36.070940   0.000000
   16       37.748409   0.000000
 
 -0.1250000E+00  0.1250000E+00  0.1250000E+00  0.9375000E-01
    1      -13.458440   1.000000
    2        1.201280   1.000000
    3        2.978185   1.000000
    4        3.000589   1.000000
    5       10.381456   0.000000
    6       15.607548   0.000000
    7       19.577767   0.000000
    8       20.065864   0.000000
    9       21.239754   0.000000
   10       25.077814   0.000000
   11       27.082485   0.000000
   12       30.199379   0.000000
   13       30.461048   0.000000
   14       31.271044   0.000000
   15       37.454793   0.000000
   16       39.271240   0.000000
 
  0.3750000E+00  0.3750000E+00  0.1250000E+00  0.9375000E-01
    1      -12.945141   1.000000
    2        0.143927   1.000000
    3        2.307043   1.000000
    4        2.551021   1.000000
    5       12.361231   0.000000
    6       14.017968   0.000000
    7       17.344788   0.000000
    8       20.999434   0.000000
    9       21.463540   0.000000
   10       27.271874   0.000000
   11       30.370655   0.000000
   12       30.651713   0.000000
   13       32.552305   0.000000
   14       35.043571   0.000000
   15       36.706719   0.000000
   16       38.110800   0.000000
 
 -0.3750000E+00  0.3750000E+00  0.1250000E+00  0.1875000E+00
    1      -12.544159   1.000000
    2        0.048808   1.000000
    3        1.046933   1.000000
    4        2.128185   1.000000
    5       13.898986   0.000000
    6       14.994744   0.000000
    7       15.770664   0.000000
    8       19.724807   0.000000
    9       23.209656   0.000000
   10       26.640560   0.000000
   11       30.192966   0.000000
   12       31.686233   0.000000
   13       32.888731   0.000000
   14       36.560945   0.000000
   15       39.132950   0.000000
   16       41.358466   0.000000
 
 -0.1250000E+00  0.3750000E+00  0.1250000E+00  0.1875000E+00
    1      -12.793676   1.000000
    2       -0.167768   1.000000
    3        1.775246   1.000000
    4        2.621469   1.000000
    5       12.711520   0.000000
    6       14.989062   0.000000
    7       17.111130   0.000000
    8       20.314864   0.000000
    9       22.877834   0.000000
   10       25.547748   0.000000
   11       29.075309   0.000000
   12       31.922796   0.000000
   13       32.470480   0.000000
   14       35.123324   0.000000
   15       35.767757   0.000000
   16       41.249324   0.000000
 
 -0.3750000E+00 -0.3750000E+00  0.1250000E+00  0.9375000E-01
    1      -12.579657   1.000000
    2       -0.322502   1.000000
    3        1.797430   1.000000
    4        2.242772   1.000000
    5       12.947811   0.000000
    6       13.643032   0.000000
    7       16.275467   0.000000
    8       21.717903   0.000000
    9       21.743514   0.000000
   10       29.109895   0.000000
   11       29.594362   0.000000
   12       32.155085   0.000000
   13       32.881622   0.000000
   14       38.024280   0.000000
   15       38.401267   0.000000
   16       41.330706   0.000000
 
  0.3750000E+00  0.3750000E+00  0.3750000E+00  0.3125000E-01
    1      -12.980443   1.000000
    2       -0.521341   1.000000
    3        2.924941   1.000000
    4        2.924941   1.000000
    5       11.001993   0.000000
    6       15.698589   0.000000
    7       19.678733   0.000000
    8       19.678735   0.000000
    9       24.275527   0.000000
   10       24.637256   0.000000
   11       24.637259   0.000000
   12       32.104468   0.000000
   13       33.530833   0.000000
   14       33.530836   0.000000
   15       37.055287   0.000000
   16       37.055293   0.000000
 
 -0.3750000E+00  0.3750000E+00  0.3750000E+00  0.9375000E-01
    1      -12.625575   1.000000
    2       -0.212047   1.000000
    3        1.140020   1.000000
    4        2.589494   1.000000
    5       13.188833   0.000000
    6       15.476559   0.000000
    7       16.313722   0.000000
    8       20.625627   0.000000
    9       22.651012   0.000000
   10       25.713261   0.000000
   11       29.303936   0.000000
   12       31.883936   0.000000
   13       32.340897   0.000000
   14       35.621341   0.000000
   15       37.466576   0.000000
   16       40.354404   0.000000
