LAMMPS (11 Aug 2017)
Reading data file ...
  triclinic box = (0 0 0) to (4.8791 4.8791 4.8791) with tilt (0 0 0)
  1 by 1 by 1 MPI processor grid
  reading atoms ...
  8 atoms
8 atoms in group Ni
Neighbor list info ...
  update every 1 steps, delay 0 steps, check yes
  max neighbors/atom: 2000, page size: 100000
  master list distance cutoff = 11
  ghost atom cutoff = 11
  binsize = 5.5, bins = 1 1 1
  1 neighbor lists, perpetual/occasional/extra = 1 0 0
  (1) pair eam/alloy, perpetual
      attributes: half, newton on
      pair build: half/bin/newton/tri
      stencil: half/bin/3d/newton/tri
      bin: standard
Setting up cg style minimization ...
  Unit style    : metal
  Current step  : 0
WARNING: Energy due to 3 extra global DOFs will be included in minimizer energies
Per MPI rank memory allocation (min/avg/max) = 4.276 | 4.276 | 4.276 Mbytes
Step PotEng Xhi Xlo Yhi Ylo Zhi Xy Xz Yz Press Pxx Pyy Pzz Pxy Pxz Pyz c_eatoms 
       0   -31.343429       4.8791            0       4.8791            0       4.8791            0            0            0   -117648.39   -117648.39   -117648.39   -117648.39   -4.2634476   -4.2634476   -4.2634476   -31.343429 
      10   -31.574416    4.8547045    0.0243955    4.8547045    0.0243955    4.8547045            0            0            0   -96232.906   -96232.906   -96232.906   -96232.906   -5.0499449   -5.0499449   -5.0499449   -31.574416 
      20   -31.751618     4.830309     0.048791     4.830309     0.048791     4.830309            0            0            0   -70955.381   -70955.381   -70955.381   -70955.381   -5.8887471   -5.8887471   -5.8887471   -31.751618 
      30   -31.868576    4.8059135    0.0731865    4.8059135    0.0731865    4.8059135            0            0            0   -41318.412   -41318.412   -41318.412   -41318.412   -6.7609871   -6.7609871   -6.7609871   -31.868576 
      40   -31.918255     4.781518     0.097582     4.781518     0.097582     4.781518            0            0            0    -6801.458    -6801.458    -6801.458    -6801.458   -7.5220745   -7.5220745   -7.5220745   -31.918255 
      50   -31.919473    4.7771706   0.10192936    4.7771706   0.10192936    4.7771706            0            0            0 5.7022622e-07 5.9833529e-07 5.8681596e-07 5.2552741e-07 0.00019593445 0.00019593452 0.00019593448   -31.919473 
Loop time of 0.00783396 on 1 procs for 50 steps with 8 atoms

99.7% CPU use with 1 MPI tasks x no OpenMP threads

Minimization stats:
  Stopping criterion = linesearch alpha is zero
  Energy initial, next-to-last, final = 
        -31.3434285464     -31.9194729866     -31.9194729866
  Force two-norm initial, final = 14.7725 2.64074e-08
  Force max component initial, final = 8.52893 1.22062e-08
  Final line search alpha, max atom move = 0.5 6.10308e-09
  Iterations, force evaluations = 50 59

MPI task timing breakdown:
Section |  min time  |  avg time  |  max time  |%varavg| %total
---------------------------------------------------------------
Pair    | 0.0060036  | 0.0060036  | 0.0060036  |   0.0 | 76.64
Neigh   | 0          | 0          | 0          |   0.0 |  0.00
Comm    | 0.00043869 | 0.00043869 | 0.00043869 |   0.0 |  5.60
Output  | 5.9843e-05 | 5.9843e-05 | 5.9843e-05 |   0.0 |  0.76
Modify  | 0          | 0          | 0          |   0.0 |  0.00
Other   |            | 0.001332   |            |       | 17.00

Nlocal:    8 ave 8 max 8 min
Histogram: 1 0 0 0 0 0 0 0 0 0
Nghost:    1522 ave 1522 max 1522 min
Histogram: 1 0 0 0 0 0 0 0 0 0
Neighs:    1520 ave 1520 max 1520 min
Histogram: 1 0 0 0 0 0 0 0 0 0

Total # of neighbors = 1520
Ave neighs/atom = 190
Neighbor list builds = 0
Dangerous builds = 0
pypospack:output_section:begin
tot_energy = -31.9194729866309
num_atoms = 8
a11 = 4.67524128052494
a22 = 4.67524128052478
a33 = 4.67524128052389
a12 = 0
a13 = 0
a23 = 0
tot_press = 5.70226219508106e-07
pxx = 5.98335291274588e-07
pyy = 5.8681595910369e-07
pzz = 5.25527408146041e-07
pxy = 0.000195934448227403
pxz = 0.000195934519924482
pyz = 0.000195934482010367
pypospack:output_section:done
pypospack:lammps_sim:done
Total wall time: 0:00:00
