# ['Si']

215 atoms
1 atom types

    0.0000    87.1184 xlo xhi
    0.0000    87.1184 ylo yhi
    0.0000    87.1184 zlo zhi

    0.0000     0.0000     0.0000 xy xz yz

Atoms

1 1     7.2598     7.2598     7.2598
2 1     0.0000    14.5198    14.5198
3 1     7.2598    21.7796    21.7796
4 1    14.5198     0.0000    14.5198
5 1    21.7796     7.2598    21.7796
6 1    14.5198    14.5198     0.0000
7 1    21.7796    21.7796     7.2598
8 1     0.0000     0.0000    29.0394
9 1     7.2598     7.2598    36.2994
10 1     0.0000    14.5198    43.5592
11 1     7.2598    21.7796    50.8190
12 1    14.5198     0.0000    43.5592
13 1    21.7796     7.2598    50.8190
14 1    14.5198    14.5198    29.0394
15 1    21.7796    21.7796    36.2994
16 1     0.0000     0.0000    58.0790
17 1     7.2598     7.2598    65.3388
18 1     0.0000    14.5198    72.5986
19 1     7.2598    21.7796    79.8585
20 1    14.5198     0.0000    72.5986
21 1    21.7796     7.2598    79.8585
22 1    14.5198    14.5198    58.0790
23 1    21.7796    21.7796    65.3388
24 1     0.0000    29.0394     0.0000
25 1     7.2598    36.2994     7.2598
26 1     0.0000    43.5592    14.5198
27 1     7.2598    50.8190    21.7796
28 1    14.5198    29.0394    14.5198
29 1    21.7796    36.2994    21.7796
30 1    14.5198    43.5592     0.0000
31 1    21.7796    50.8190     7.2598
32 1     0.0000    29.0394    29.0394
33 1     7.2598    36.2994    36.2994
34 1     0.0000    43.5592    43.5592
35 1     7.2598    50.8190    50.8190
36 1    14.5198    29.0394    43.5592
37 1    21.7796    36.2994    50.8190
38 1    14.5198    43.5592    29.0394
39 1    21.7796    50.8190    36.2994
40 1     0.0000    29.0394    58.0790
41 1     7.2598    36.2994    65.3388
42 1     0.0000    43.5592    72.5986
43 1     7.2598    50.8190    79.8585
44 1    14.5198    29.0394    72.5986
45 1    21.7796    36.2994    79.8585
46 1    14.5198    43.5592    58.0790
47 1    21.7796    50.8190    65.3388
48 1     0.0000    58.0790     0.0000
49 1     7.2598    65.3388     7.2598
50 1     0.0000    72.5986    14.5198
51 1     7.2598    79.8585    21.7796
52 1    14.5198    58.0790    14.5198
53 1    21.7796    65.3388    21.7796
54 1    14.5198    72.5986     0.0000
55 1    21.7796    79.8585     7.2598
56 1     0.0000    58.0790    29.0394
57 1     7.2598    65.3388    36.2994
58 1     0.0000    72.5986    43.5592
59 1     7.2598    79.8585    50.8190
60 1    14.5198    58.0790    43.5592
61 1    21.7796    65.3388    50.8190
62 1    14.5198    72.5986    29.0394
63 1    21.7796    79.8585    36.2994
64 1     0.0000    58.0790    58.0790
65 1     7.2598    65.3388    65.3388
66 1     0.0000    72.5986    72.5986
67 1     7.2598    79.8585    79.8585
68 1    14.5198    58.0790    72.5986
69 1    21.7796    65.3388    79.8585
70 1    14.5198    72.5986    58.0790
71 1    21.7796    79.8585    65.3388
72 1    29.0394     0.0000     0.0000
73 1    36.2994     7.2598     7.2598
74 1    29.0394    14.5198    14.5198
75 1    36.2994    21.7796    21.7796
76 1    43.5592     0.0000    14.5198
77 1    50.8190     7.2598    21.7796
78 1    43.5592    14.5198     0.0000
79 1    50.8190    21.7796     7.2598
80 1    29.0394     0.0000    29.0394
81 1    36.2994     7.2598    36.2994
82 1    29.0394    14.5198    43.5592
83 1    36.2994    21.7796    50.8190
84 1    43.5592     0.0000    43.5592
85 1    50.8190     7.2598    50.8190
86 1    43.5592    14.5198    29.0394
87 1    50.8190    21.7796    36.2994
88 1    29.0394     0.0000    58.0790
89 1    36.2994     7.2598    65.3388
90 1    29.0394    14.5198    72.5986
91 1    36.2994    21.7796    79.8585
92 1    43.5592     0.0000    72.5986
93 1    50.8190     7.2598    79.8585
94 1    43.5592    14.5198    58.0790
95 1    50.8190    21.7796    65.3388
96 1    29.0394    29.0394     0.0000
97 1    36.2994    36.2994     7.2598
98 1    29.0394    43.5592    14.5198
99 1    36.2994    50.8190    21.7796
100 1    43.5592    29.0394    14.5198
101 1    50.8190    36.2994    21.7796
102 1    43.5592    43.5592     0.0000
103 1    50.8190    50.8190     7.2598
104 1    29.0394    29.0394    29.0394
105 1    36.2994    36.2994    36.2994
106 1    29.0394    43.5592    43.5592
107 1    36.2994    50.8190    50.8190
108 1    43.5592    29.0394    43.5592
109 1    50.8190    36.2994    50.8190
110 1    43.5592    43.5592    29.0394
111 1    50.8190    50.8190    36.2994
112 1    29.0394    29.0394    58.0790
113 1    36.2994    36.2994    65.3388
114 1    29.0394    43.5592    72.5986
115 1    36.2994    50.8190    79.8585
116 1    43.5592    29.0394    72.5986
117 1    50.8190    36.2994    79.8585
118 1    43.5592    43.5592    58.0790
119 1    50.8190    50.8190    65.3388
120 1    29.0394    58.0790     0.0000
121 1    36.2994    65.3388     7.2598
122 1    29.0394    72.5986    14.5198
123 1    36.2994    79.8585    21.7796
124 1    43.5592    58.0790    14.5198
125 1    50.8190    65.3388    21.7796
126 1    43.5592    72.5986     0.0000
127 1    50.8190    79.8585     7.2598
128 1    29.0394    58.0790    29.0394
129 1    36.2994    65.3388    36.2994
130 1    29.0394    72.5986    43.5592
131 1    36.2994    79.8585    50.8190
132 1    43.5592    58.0790    43.5592
133 1    50.8190    65.3388    50.8190
134 1    43.5592    72.5986    29.0394
135 1    50.8190    79.8585    36.2994
136 1    29.0394    58.0790    58.0790
137 1    36.2994    65.3388    65.3388
138 1    29.0394    72.5986    72.5986
139 1    36.2994    79.8585    79.8585
140 1    43.5592    58.0790    72.5986
141 1    50.8190    65.3388    79.8585
142 1    43.5592    72.5986    58.0790
143 1    50.8190    79.8585    65.3388
144 1    58.0790     0.0000     0.0000
145 1    65.3388     7.2598     7.2598
146 1    58.0790    14.5198    14.5198
147 1    65.3388    21.7796    21.7796
148 1    72.5986     0.0000    14.5198
149 1    79.8585     7.2598    21.7796
150 1    72.5986    14.5198     0.0000
151 1    79.8585    21.7796     7.2598
152 1    58.0790     0.0000    29.0394
153 1    65.3388     7.2598    36.2994
154 1    58.0790    14.5198    43.5592
155 1    65.3388    21.7796    50.8190
156 1    72.5986     0.0000    43.5592
157 1    79.8585     7.2598    50.8190
158 1    72.5986    14.5198    29.0394
159 1    79.8585    21.7796    36.2994
160 1    58.0790     0.0000    58.0790
161 1    65.3388     7.2598    65.3388
162 1    58.0790    14.5198    72.5986
163 1    65.3388    21.7796    79.8585
164 1    72.5986     0.0000    72.5986
165 1    79.8585     7.2598    79.8585
166 1    72.5986    14.5198    58.0790
167 1    79.8585    21.7796    65.3388
168 1    58.0790    29.0394     0.0000
169 1    65.3388    36.2994     7.2598
170 1    58.0790    43.5592    14.5198
171 1    65.3388    50.8190    21.7796
172 1    72.5986    29.0394    14.5198
173 1    79.8585    36.2994    21.7796
174 1    72.5986    43.5592     0.0000
175 1    79.8585    50.8190     7.2598
176 1    58.0790    29.0394    29.0394
177 1    65.3388    36.2994    36.2994
178 1    58.0790    43.5592    43.5592
179 1    65.3388    50.8190    50.8190
180 1    72.5986    29.0394    43.5592
181 1    79.8585    36.2994    50.8190
182 1    72.5986    43.5592    29.0394
183 1    79.8585    50.8190    36.2994
184 1    58.0790    29.0394    58.0790
185 1    65.3388    36.2994    65.3388
186 1    58.0790    43.5592    72.5986
187 1    65.3388    50.8190    79.8585
188 1    72.5986    29.0394    72.5986
189 1    79.8585    36.2994    79.8585
190 1    72.5986    43.5592    58.0790
191 1    79.8585    50.8190    65.3388
192 1    58.0790    58.0790     0.0000
193 1    65.3388    65.3388     7.2598
194 1    58.0790    72.5986    14.5198
195 1    65.3388    79.8585    21.7796
196 1    72.5986    58.0790    14.5198
197 1    79.8585    65.3388    21.7796
198 1    72.5986    72.5986     0.0000
199 1    79.8585    79.8585     7.2598
200 1    58.0790    58.0790    29.0394
201 1    65.3388    65.3388    36.2994
202 1    58.0790    72.5986    43.5592
203 1    65.3388    79.8585    50.8190
204 1    72.5986    58.0790    43.5592
205 1    79.8585    65.3388    50.8190
206 1    72.5986    72.5986    29.0394
207 1    79.8585    79.8585    36.2994
208 1    58.0790    58.0790    58.0790
209 1    65.3388    65.3388    65.3388
210 1    58.0790    72.5986    72.5986
211 1    65.3388    79.8585    79.8585
212 1    72.5986    58.0790    72.5986
213 1    79.8585    65.3388    79.8585
214 1    72.5986    72.5986    58.0790
215 1    79.8585    79.8585    65.3388
