# ['Ni']

10 atoms
1 atom types

    0.0000     3.5902 xlo xhi
    0.0000     2.5700 ylo yhi
    0.0000    25.7005 zlo zhi

    0.0000     0.0000     0.0000 xy xz yz

Atoms

1 1     0.0000     0.0000     0.0000
2 1     1.7951     1.2850     1.2850
3 1     0.0000     0.0000     2.5700
4 1     1.7951     1.2850     3.8551
5 1     0.0000     0.0000     5.1401
6 1     1.7951     1.2850     6.4251
7 1     0.0000     0.0000     7.7101
8 1     1.7951     1.2850     8.9952
9 1     0.0000     0.0000    10.2802
10 1     1.7951     1.2850    11.5652
