# ['Ni']

18 atoms
1 atom types

    0.0000     2.4909 xlo xhi
    0.0000     4.3143 ylo yhi
    0.0000    36.6022 zlo zhi

    0.0000     0.0000    -0.0004 xy xz yz

Atoms

1 1     0.0000     0.0000     0.0000
2 1     1.2454     0.7191     2.0335
3 1     0.0000     1.4381     4.0669
4 1     1.2454     2.1572     0.0000
5 1     0.0000     2.8762     2.0335
6 1     1.2454     3.5953     4.0669
7 1     0.0000     0.0000     6.1004
8 1     1.2454     0.7191     8.1338
9 1     0.0000     1.4381    10.1673
10 1     1.2454     2.1572     6.1004
11 1     0.0000     2.8762     8.1338
12 1     1.2454     3.5953    10.1673
13 1     0.0000     0.0000    12.2007
14 1     1.2454     0.7191    14.2342
15 1     0.0000     1.4381    16.2676
16 1     1.2454     2.1572    12.2007
17 1     0.0000     2.8762    14.2342
18 1     1.2454     3.5953    16.2676
