# ['Al']

20 atoms
1 atom types

    0.0000     3.7336 xlo xhi
    0.0000     3.7336 ylo yhi
    0.0000    37.3360 zlo zhi

    0.0000    -0.0000     0.0000 xy xz yz

Atoms

1 1     0.0000     0.0000     0.0000
2 1     1.8668     1.8668     0.0000
3 1     1.8668     0.0000     1.8668
4 1     0.0000     1.8668     1.8668
5 1     0.0000     0.0000     3.7336
6 1     1.8668     1.8668     3.7336
7 1     1.8668     0.0000     5.6004
8 1     0.0000     1.8668     5.6004
9 1     0.0000     0.0000     7.4672
10 1     1.8668     1.8668     7.4672
11 1     1.8668     0.0000     9.3340
12 1     0.0000     1.8668     9.3340
13 1     0.0000     0.0000    11.2008
14 1     1.8668     1.8668    11.2008
15 1     1.8668     0.0000    13.0676
16 1     0.0000     1.8668    13.0676
17 1     0.0000     0.0000    14.9344
18 1     1.8668     1.8668    14.9344
19 1     1.8668     0.0000    16.8012
20 1     0.0000     1.8668    16.8012
