LAMMPS (11 Aug 2017)
Reading data file ...
  triclinic box = (0 0 0) to (17.3331 17.3331 173.331) with tilt (0 -0 0)
  1 by 1 by 1 MPI processor grid
  reading atoms ...
  20 atoms
20 atoms in group Ni
Neighbor list info ...
  update every 1 steps, delay 0 steps, check yes
  max neighbors/atom: 2000, page size: 100000
  master list distance cutoff = 11
  ghost atom cutoff = 11
  binsize = 5.5, bins = 4 4 32
  1 neighbor lists, perpetual/occasional/extra = 1 0 0
  (1) pair eam/alloy, perpetual
      attributes: half, newton on
      pair build: half/bin/newton/tri
      stencil: half/bin/3d/newton/tri
      bin: standard
Setting up cg style minimization ...
  Unit style    : metal
  Current step  : 0
Per MPI rank memory allocation (min/avg/max) = 4.197 | 4.197 | 4.197 Mbytes
Step PotEng Lx Ly Lz Xy Xz Yz Press Pxx Pyy Pzz Pxy Pxz Pyz c_eatoms 
       0   -3.3868191      17.3331      17.3331     173.3306            0           -0            0            0            0            0            0            0            0            0   -3.3868191 
       1   -3.3868191      17.3331      17.3331     173.3306            0           -0            0            0            0            0            0            0            0            0   -3.3868191 
Loop time of 1.5974e-05 on 1 procs for 1 steps with 20 atoms

81.4% CPU use with 1 MPI tasks x no OpenMP threads

Minimization stats:
  Stopping criterion = search direction is not downhill
  Energy initial, next-to-last, final = 
        -3.38681908902     -3.38681908902     -3.38681908902
  Force two-norm initial, final = 0 0
  Force max component initial, final = 0 0
  Final line search alpha, max atom move = 0 0
  Iterations, force evaluations = 1 0

MPI task timing breakdown:
Section |  min time  |  avg time  |  max time  |%varavg| %total
---------------------------------------------------------------
Pair    | 2.861e-06  | 2.861e-06  | 2.861e-06  |   0.0 | 17.91
Neigh   | 0          | 0          | 0          |   0.0 |  0.00
Comm    | 1.1921e-06 | 1.1921e-06 | 1.1921e-06 |   0.0 |  7.46
Output  | 0          | 0          | 0          |   0.0 |  0.00
Modify  | 0          | 0          | 0          |   0.0 |  0.00
Other   |            | 1.192e-05  |            |       | 74.63

Nlocal:    20 ave 20 max 20 min
Histogram: 1 0 0 0 0 0 0 0 0 0
Nghost:    130 ave 130 max 130 min
Histogram: 1 0 0 0 0 0 0 0 0 0
Neighs:    0 ave 0 max 0 min
Histogram: 1 0 0 0 0 0 0 0 0 0

Total # of neighbors = 0
Ave neighs/atom = 0
Neighbor list builds = 0
Dangerous builds = 0
pypospack:output_section:begin
tot_energy = -3.38681908901904
num_atoms = 20
a11 = 17.3331
a22 = 17.3331
a33 = 173.3306
a12 = 0
a13 = -0
a23 = 0
tot_press = 0
pxx = 0
pyy = 0
pzz = 0
pxy = 0
pxz = 0
pyz = 0
pypospack:output_section:done
pypospack:lammps_sim:done
Total wall time: 0:00:00
