# ['Ni']

107 atoms
1 atom types

    0.0000    10.5794 xlo xhi
    0.0000    10.5794 ylo yhi
    0.0000    10.5794 zlo zhi

    0.0000    -0.0000    -0.0000 xy xz yz

Atoms

1 1     1.7632     1.7632     0.0000
2 1     1.7632     0.0000     1.7632
3 1     0.0000     1.7632     1.7632
4 1     0.0000     0.0000     3.5265
5 1     1.7632     1.7632     3.5265
6 1     1.7632     0.0000     5.2897
7 1     0.0000     1.7632     5.2897
8 1     0.0000     0.0000     7.0530
9 1     1.7632     1.7632     7.0530
10 1     1.7632     0.0000     8.8162
11 1     0.0000     1.7632     8.8162
12 1     0.0000     3.5265     0.0000
13 1     1.7632     5.2897     0.0000
14 1     1.7632     3.5265     1.7632
15 1     0.0000     5.2897     1.7632
16 1     0.0000     3.5265     3.5265
17 1     1.7632     5.2897     3.5265
18 1     1.7632     3.5265     5.2897
19 1     0.0000     5.2897     5.2897
20 1     0.0000     3.5265     7.0530
21 1     1.7632     5.2897     7.0530
22 1     1.7632     3.5265     8.8162
23 1     0.0000     5.2897     8.8162
24 1     0.0000     7.0530     0.0000
25 1     1.7632     8.8162     0.0000
26 1     1.7632     7.0530     1.7632
27 1     0.0000     8.8162     1.7632
28 1     0.0000     7.0530     3.5265
29 1     1.7632     8.8162     3.5265
30 1     1.7632     7.0530     5.2897
31 1     0.0000     8.8162     5.2897
32 1     0.0000     7.0530     7.0530
33 1     1.7632     8.8162     7.0530
34 1     1.7632     7.0530     8.8162
35 1     0.0000     8.8162     8.8162
36 1     3.5265     0.0000     0.0000
37 1     5.2897     1.7632     0.0000
38 1     5.2897     0.0000     1.7632
39 1     3.5265     1.7632     1.7632
40 1     3.5265     0.0000     3.5265
41 1     5.2897     1.7632     3.5265
42 1     5.2897     0.0000     5.2897
43 1     3.5265     1.7632     5.2897
44 1     3.5265     0.0000     7.0530
45 1     5.2897     1.7632     7.0530
46 1     5.2897     0.0000     8.8162
47 1     3.5265     1.7632     8.8162
48 1     3.5265     3.5265     0.0000
49 1     5.2897     5.2897     0.0000
50 1     5.2897     3.5265     1.7632
51 1     3.5265     5.2897     1.7632
52 1     3.5265     3.5265     3.5265
53 1     5.2897     5.2897     3.5265
54 1     5.2897     3.5265     5.2897
55 1     3.5265     5.2897     5.2897
56 1     3.5265     3.5265     7.0530
57 1     5.2897     5.2897     7.0530
58 1     5.2897     3.5265     8.8162
59 1     3.5265     5.2897     8.8162
60 1     3.5265     7.0530     0.0000
61 1     5.2897     8.8162     0.0000
62 1     5.2897     7.0530     1.7632
63 1     3.5265     8.8162     1.7632
64 1     3.5265     7.0530     3.5265
65 1     5.2897     8.8162     3.5265
66 1     5.2897     7.0530     5.2897
67 1     3.5265     8.8162     5.2897
68 1     3.5265     7.0530     7.0530
69 1     5.2897     8.8162     7.0530
70 1     5.2897     7.0530     8.8162
71 1     3.5265     8.8162     8.8162
72 1     7.0530     0.0000     0.0000
73 1     8.8162     1.7632     0.0000
74 1     8.8162     0.0000     1.7632
75 1     7.0530     1.7632     1.7632
76 1     7.0530     0.0000     3.5265
77 1     8.8162     1.7632     3.5265
78 1     8.8162     0.0000     5.2897
79 1     7.0530     1.7632     5.2897
80 1     7.0530     0.0000     7.0530
81 1     8.8162     1.7632     7.0530
82 1     8.8162     0.0000     8.8162
83 1     7.0530     1.7632     8.8162
84 1     7.0530     3.5265     0.0000
85 1     8.8162     5.2897     0.0000
86 1     8.8162     3.5265     1.7632
87 1     7.0530     5.2897     1.7632
88 1     7.0530     3.5265     3.5265
89 1     8.8162     5.2897     3.5265
90 1     8.8162     3.5265     5.2897
91 1     7.0530     5.2897     5.2897
92 1     7.0530     3.5265     7.0530
93 1     8.8162     5.2897     7.0530
94 1     8.8162     3.5265     8.8162
95 1     7.0530     5.2897     8.8162
96 1     7.0530     7.0530     0.0000
97 1     8.8162     8.8162     0.0000
98 1     8.8162     7.0530     1.7632
99 1     7.0530     8.8162     1.7632
100 1     7.0530     7.0530     3.5265
101 1     8.8162     8.8162     3.5265
102 1     8.8162     7.0530     5.2897
103 1     7.0530     8.8162     5.2897
104 1     7.0530     7.0530     7.0530
105 1     8.8162     8.8162     7.0530
106 1     8.8162     7.0530     8.8162
107 1     7.0530     8.8162     8.8162
