# ['Ni']

28 atoms
1 atom types

    0.0000     2.2485 xlo xhi
    0.0000     3.8944 ylo yhi
    0.0000    25.7020 zlo zhi

    0.0000     0.0000     0.0000 xy xz yz

Atoms

1 1     0.0000     0.0000     0.0000
2 1     1.1242     1.9472     0.0000
3 1     1.1242     0.6491     1.8359
4 1     0.0000     2.5963     1.8359
5 1     0.0000     1.2981     3.6717
6 1     1.1242     3.2454     3.6717
7 1     0.0000     0.0000     5.5076
8 1     1.1242     1.9472     5.5076
9 1     1.1242     0.6491     7.3434
10 1     0.0000     2.5963     7.3434
11 1     0.0000     1.2981     9.1793
12 1     1.1242     3.2454     9.1793
13 1     0.0000     0.0000    11.0151
14 1     1.1242     1.9472    11.0151
15 1     0.0000     1.2981    12.8510
16 1     1.1242     3.2454    12.8510
17 1     0.0000     0.0000    14.6868
18 1     1.1242     1.9472    14.6868
19 1     1.1242     0.6491    16.5227
20 1     0.0000     2.5963    16.5227
21 1     0.0000     1.2981    18.3585
22 1     1.1242     3.2454    18.3585
23 1     0.0000     0.0000    20.1944
24 1     1.1242     1.9472    20.1944
25 1     1.1242     0.6491    22.0302
26 1     0.0000     2.5963    22.0302
27 1     0.0000     1.2981    23.8661
28 1     1.1242     3.2454    23.8661
