   2   2   0   0
  0.1090254E+02  0.2793739E-09  0.2793739E-09  0.2793739E-09  0.5000000E-15
  1.000000000000000E-004
  CAR 
 automatically generated by pyflamestk   
     29.83130467     -0.72065272  301      9.24811467      1.00000000
     -0.721  0.0000E+00  0.0000E+00  0.0000E+00  0.0000E+00
     -0.619  0.0000E+00  0.0000E+00  0.0000E+00  0.0000E+00
     -0.517  0.0000E+00  0.0000E+00  0.0000E+00  0.0000E+00
     -0.415  0.0000E+00 -0.1964E-30  0.0000E+00 -0.2000E-31
     -0.313 -0.1713E-27 -0.7955E-27 -0.1745E-28 -0.8103E-28
     -0.211 -0.4544E-24 -0.1911E-23 -0.4629E-25 -0.1947E-24
     -0.110 -0.7144E-21 -0.2720E-20 -0.7280E-22 -0.2772E-21
     -0.008 -0.6650E-18 -0.2292E-17 -0.6780E-19 -0.2337E-18
      0.094 -0.3662E-15 -0.1143E-14 -0.3736E-16 -0.1166E-15
      0.196 -0.1153E-12 -0.3251E-12 -0.1178E-13 -0.3322E-13
      0.298 -0.2197E-10 -0.5600E-10 -0.2249E-11 -0.5737E-11
      0.400 -0.2456E-08 -0.5657E-08 -0.2524E-09 -0.5818E-09
      0.501 -0.1603E-06 -0.3332E-06 -0.1658E-07 -0.3451E-07
      0.603 -0.6062E-05 -0.1134E-04 -0.6339E-06 -0.1190E-05
      0.705 -0.1309E-03 -0.2196E-03 -0.1396E-04 -0.2355E-04
      0.807 -0.1570E-02 -0.2343E-02 -0.1738E-03 -0.2622E-03
      0.909 -0.9809E-02 -0.1275E-01 -0.1173E-02 -0.1561E-02
      1.011 -0.2557E-01 -0.2594E-01 -0.3777E-02 -0.4202E-02
      1.112  0.1695E-01  0.4330E-01 -0.2051E-02  0.2081E-03
      1.214  0.2359E+00  0.2928E+00  0.2198E-01  0.3003E-01
      1.316  0.4883E+00  0.5064E+00  0.7171E-01  0.8160E-01
      1.418  0.4233E+00  0.3739E+00  0.1148E+00  0.1197E+00
      1.520  0.1405E+00  0.9562E-01  0.1291E+00  0.1294E+00
      1.622 -0.1293E-01 -0.2127E-01  0.1278E+00  0.1273E+00
      1.724 -0.2103E-01 -0.1764E-01  0.1257E+00  0.1255E+00
      1.825 -0.5669E-02 -0.4033E-02  0.1251E+00  0.1250E+00
      1.927 -0.7167E-03 -0.4504E-03  0.1250E+00  0.1250E+00
      2.029 -0.4862E-04 -0.2733E-04  0.1250E+00  0.1250E+00
      2.131 -0.1854E-05 -0.9368E-06  0.1250E+00  0.1250E+00
      2.233 -0.4061E-07 -0.1850E-07  0.1250E+00  0.1250E+00
      2.335 -0.5168E-09 -0.2126E-09  0.1250E+00  0.1250E+00
      2.436 -0.1262E-10 -0.5244E-11  0.1250E+00  0.1250E+00
      2.538 -0.1212E-08 -0.5736E-09  0.1250E+00  0.1250E+00
      2.640 -0.9799E-07 -0.5052E-07  0.1250E+00  0.1250E+00
      2.742 -0.4606E-05 -0.2590E-05  0.1250E+00  0.1250E+00
      2.844 -0.1244E-03 -0.7650E-04  0.1250E+00  0.1250E+00
      2.946 -0.1893E-02 -0.1278E-02  0.1248E+00  0.1249E+00
      3.047 -0.1551E-01 -0.1160E-01  0.1232E+00  0.1237E+00
      3.149 -0.6031E-01 -0.5169E-01  0.1171E+00  0.1184E+00
      3.251 -0.4731E-01 -0.6584E-01  0.1123E+00  0.1117E+00
      3.353  0.3817E+00  0.2724E+00  0.1511E+00  0.1395E+00
      3.455  0.1231E+01  0.1103E+01  0.2765E+00  0.2518E+00
      3.557  0.1484E+01  0.1523E+01  0.4276E+00  0.4069E+00
      3.658  0.7552E+00  0.8987E+00  0.5045E+00  0.4984E+00
      3.760  0.7067E-01  0.1407E+00  0.5117E+00  0.5127E+00
      3.862 -0.7767E-01 -0.7746E-01  0.5038E+00  0.5048E+00
      3.964 -0.3197E-01 -0.3937E-01  0.5006E+00  0.5008E+00
      4.066 -0.8129E-02 -0.7368E-02  0.4997E+00  0.5001E+00
      4.168 -0.2126E-01 -0.9333E-03  0.4976E+00  0.5000E+00
      4.270 -0.6891E-01 -0.3171E-02  0.4906E+00  0.4997E+00
      4.371 -0.1468E-01 -0.2225E-01  0.4891E+00  0.4974E+00
      4.473  0.5160E+00 -0.7070E-01  0.5416E+00  0.4902E+00
      4.575  0.1350E+01 -0.4648E-02  0.6791E+00  0.4897E+00
      4.677  0.1406E+01  0.5502E+00  0.8222E+00  0.5457E+00
      4.779  0.5770E+00  0.1375E+01  0.8810E+00  0.6858E+00
      4.881 -0.6358E-01  0.1387E+01  0.8745E+00  0.8271E+00
      4.982 -0.6096E-01  0.5661E+00  0.8683E+00  0.8847E+00
      5.084  0.5610E+00 -0.1447E-01  0.9255E+00  0.8832E+00
      5.186  0.1345E+01 -0.1334E+00  0.1062E+01  0.8697E+00
      5.288  0.1506E+01 -0.9101E-01  0.1216E+01  0.8604E+00
      5.390  0.1520E+01  0.2875E+00  0.1371E+01  0.8897E+00
      5.492  0.2011E+01  0.1118E+01  0.1575E+01  0.1004E+01
      5.593  0.2119E+01  0.1914E+01  0.1791E+01  0.1198E+01
      5.695  0.1335E+01  0.2513E+01  0.1927E+01  0.1454E+01
      5.797  0.4988E+00  0.2553E+01  0.1978E+01  0.1714E+01
      5.899  0.7044E+00  0.1440E+01  0.2050E+01  0.1861E+01
      6.001  0.2266E+01  0.3002E+00  0.2281E+01  0.1892E+01
      6.103  0.3930E+01  0.2884E+00  0.2681E+01  0.1921E+01
      6.204  0.4226E+01  0.7891E+00  0.3111E+01  0.2001E+01
      6.306  0.3400E+01  0.1151E+01  0.3457E+01  0.2119E+01
      6.408  0.2057E+01  0.1808E+01  0.3667E+01  0.2303E+01
      6.510  0.1087E+01  0.2507E+01  0.3778E+01  0.2558E+01
      6.612  0.1859E+01  0.2825E+01  0.3967E+01  0.2846E+01
      6.714  0.3238E+01  0.3336E+01  0.4297E+01  0.3185E+01
      6.815  0.2877E+01  0.3277E+01  0.4590E+01  0.3519E+01
      6.917  0.1745E+01  0.1869E+01  0.4767E+01  0.3710E+01
      7.019  0.2398E+01  0.7663E+00  0.5012E+01  0.3788E+01
      7.121  0.3848E+01  0.1370E+01  0.5403E+01  0.3927E+01
      7.223  0.3348E+01  0.2821E+01  0.5744E+01  0.4214E+01
      7.325  0.1493E+01  0.3938E+01  0.5896E+01  0.4615E+01
      7.427  0.4461E+00  0.4295E+01  0.5942E+01  0.5053E+01
      7.528  0.2311E+00  0.3891E+01  0.5965E+01  0.5449E+01
      7.630  0.1151E+00  0.2843E+01  0.5977E+01  0.5739E+01
      7.732  0.6902E+00  0.1328E+01  0.6047E+01  0.5874E+01
      7.834  0.2257E+01  0.1787E+00  0.6277E+01  0.5892E+01
      7.936  0.3167E+01 -0.4004E-01  0.6600E+01  0.5888E+01
      8.038  0.2734E+01  0.2433E+00  0.6878E+01  0.5913E+01
      8.139  0.2956E+01  0.5132E+00  0.7179E+01  0.5965E+01
      8.241  0.4219E+01  0.9480E+00  0.7609E+01  0.6062E+01
      8.343  0.4644E+01  0.1707E+01  0.8082E+01  0.6235E+01
      8.445  0.4264E+01  0.2353E+01  0.8516E+01  0.6475E+01
      8.547  0.3992E+01  0.2732E+01  0.8923E+01  0.6753E+01
      8.649  0.3973E+01  0.3225E+01  0.9327E+01  0.7082E+01
      8.750  0.4465E+01  0.4261E+01  0.9782E+01  0.7516E+01
      8.852  0.4244E+01  0.5321E+01  0.1021E+02  0.8058E+01
      8.954  0.2471E+01  0.5340E+01  0.1047E+02  0.8601E+01
      9.056  0.6110E+00  0.4046E+01  0.1053E+02  0.9013E+01
      9.158 -0.1557E+00  0.2640E+01  0.1051E+02  0.9282E+01
      9.260 -0.2031E+00  0.2520E+01  0.1049E+02  0.9539E+01
      9.361  0.7406E-01  0.3237E+01  0.1050E+02  0.9869E+01
      9.463  0.8326E+00  0.3443E+01  0.1058E+02  0.1022E+02
      9.565  0.1510E+01  0.2315E+01  0.1074E+02  0.1046E+02
      9.667  0.1159E+01  0.6667E+00  0.1086E+02  0.1052E+02
      9.769  0.3172E+00 -0.1611E+00  0.1089E+02  0.1051E+02
      9.871 -0.5916E-01 -0.1302E+00  0.1088E+02  0.1049E+02
      9.973 -0.5539E-01  0.5010E+00  0.1088E+02  0.1054E+02
     10.074 -0.1316E-01  0.1359E+01  0.1088E+02  0.1068E+02
     10.176 -0.1513E-02  0.1398E+01  0.1088E+02  0.1083E+02
     10.278 -0.9429E-04  0.5841E+00  0.1088E+02  0.1088E+02
     10.380 -0.3316E-05  0.5986E-02  0.1088E+02  0.1089E+02
     10.482 -0.6715E-07 -0.7233E-01  0.1088E+02  0.1088E+02
     10.584 -0.5172E-08 -0.2372E-01  0.1087E+02  0.1088E+02
     10.685 -0.3046E-06 -0.3436E-02  0.1087E+02  0.1088E+02
     10.787 -0.1227E-04 -0.2629E-03  0.1087E+02  0.1088E+02
     10.889 -0.2831E-03 -0.1127E-04  0.1087E+02  0.1088E+02
     10.991 -0.3643E-02 -0.2271E-05  0.1087E+02  0.1087E+02
     11.093 -0.2470E-01 -0.6133E-04  0.1087E+02  0.1087E+02
     11.195 -0.7330E-01 -0.1067E-02  0.1086E+02  0.1087E+02
     11.296  0.1331E-01 -0.1014E-01  0.1087E+02  0.1087E+02
     11.398  0.6062E+00 -0.4785E-01  0.1093E+02  0.1087E+02
     11.500  0.1410E+01 -0.7110E-01  0.1107E+02  0.1086E+02
     11.602  0.1335E+01  0.2287E+00  0.1121E+02  0.1089E+02
     11.704  0.4561E+00  0.1042E+01  0.1125E+02  0.1099E+02
     11.806 -0.9329E-01  0.1524E+01  0.1124E+02  0.1115E+02
     11.907  0.2023E+00  0.9255E+00  0.1126E+02  0.1124E+02
     12.009  0.1222E+01  0.8800E-01  0.1139E+02  0.1125E+02
     12.111  0.1949E+01 -0.3711E-02  0.1159E+02  0.1125E+02
     12.213  0.1393E+01  0.7980E+00  0.1173E+02  0.1133E+02
     12.315  0.3598E+00  0.1753E+01  0.1177E+02  0.1151E+02
     12.417 -0.7491E-01  0.1676E+01  0.1176E+02  0.1168E+02
     12.519 -0.6623E-01  0.7394E+00  0.1175E+02  0.1175E+02
     12.620 -0.1580E-01  0.6599E-01  0.1175E+02  0.1176E+02
     12.722 -0.1846E-02 -0.7353E-01  0.1175E+02  0.1175E+02
     12.824 -0.1176E-03 -0.3351E-01  0.1175E+02  0.1175E+02
     12.926 -0.4242E-05 -0.6592E-02  0.1175E+02  0.1175E+02
     13.028 -0.8832E-07 -0.7017E-03  0.1175E+02  0.1175E+02
     13.130 -0.1071E-08 -0.4259E-04  0.1175E+02  0.1175E+02
     13.231 -0.7618E-11 -0.1500E-05  0.1175E+02  0.1175E+02
     13.333 -0.3189E-13 -0.3087E-07  0.1175E+02  0.1175E+02
     13.435  0.0000E+00 -0.3729E-09  0.1175E+02  0.1175E+02
     13.537  0.0000E+00 -0.2650E-11  0.1175E+02  0.1175E+02
     13.639  0.0000E+00 -0.1117E-13  0.1175E+02  0.1175E+02
     13.741  0.0000E+00  0.0000E+00  0.1175E+02  0.1175E+02
     13.842  0.0000E+00  0.0000E+00  0.1175E+02  0.1175E+02
     13.944  0.0000E+00  0.0000E+00  0.1175E+02  0.1175E+02
     14.046 -0.9765E-29  0.0000E+00  0.1175E+02  0.1175E+02
     14.148 -0.3244E-25  0.0000E+00  0.1175E+02  0.1175E+02
     14.250 -0.6391E-22 -0.1698E-28  0.1175E+02  0.1175E+02
     14.352 -0.7457E-19 -0.5449E-25  0.1175E+02  0.1175E+02
     14.453 -0.5150E-16 -0.1037E-21  0.1175E+02  0.1175E+02
     14.555 -0.2034E-13 -0.1168E-18  0.1175E+02  0.1175E+02
     14.657 -0.4883E-11 -0.7793E-16  0.1175E+02  0.1175E+02
     14.759 -0.6873E-09 -0.2977E-13  0.1175E+02  0.1175E+02
     14.861 -0.5662E-07 -0.6889E-11  0.1175E+02  0.1175E+02
     14.963 -0.2713E-05 -0.9359E-09  0.1175E+02  0.1175E+02
     15.065 -0.7475E-04 -0.7440E-07  0.1175E+02  0.1175E+02
     15.166 -0.1162E-02 -0.3437E-05  0.1175E+02  0.1175E+02
     15.268 -0.9781E-02 -0.9122E-04  0.1175E+02  0.1175E+02
     15.370 -0.4004E-01 -0.1362E-02  0.1174E+02  0.1175E+02
     15.472 -0.4493E-01 -0.1093E-01  0.1174E+02  0.1175E+02
     15.574  0.1900E+00 -0.4151E-01  0.1176E+02  0.1174E+02
     15.676  0.7316E+00 -0.3102E-01  0.1183E+02  0.1174E+02
     15.777  0.1225E+01  0.2498E+00  0.1196E+02  0.1177E+02
     15.879  0.1566E+01  0.7678E+00  0.1212E+02  0.1184E+02
     15.981  0.1586E+01  0.9644E+00  0.1228E+02  0.1194E+02
     16.083  0.9111E+00  0.9900E+00  0.1237E+02  0.1204E+02
     16.185  0.1554E+00  0.1381E+01  0.1239E+02  0.1218E+02
     16.287 -0.7931E-01  0.1365E+01  0.1238E+02  0.1232E+02
     16.388 -0.4339E-01  0.5941E+00  0.1238E+02  0.1238E+02
     16.490 -0.8519E-02  0.1277E-01  0.1238E+02  0.1239E+02
     16.592 -0.8455E-03 -0.7391E-01  0.1238E+02  0.1238E+02
     16.694 -0.4620E-04 -0.2508E-01  0.1238E+02  0.1238E+02
     16.796 -0.6125E-05 -0.3721E-02  0.1237E+02  0.1238E+02
     16.898 -0.1187E-03 -0.2974E-03  0.1237E+02  0.1238E+02
     16.999 -0.1681E-02 -0.1704E-03  0.1237E+02  0.1237E+02
     17.101 -0.1271E-01 -0.2108E-02  0.1237E+02  0.1237E+02
     17.203 -0.4429E-01 -0.1492E-01  0.1237E+02  0.1237E+02
     17.305 -0.1746E-01 -0.4724E-01  0.1237E+02  0.1237E+02
     17.407  0.3152E+00 -0.2484E-02  0.1240E+02  0.1237E+02
     17.509  0.8731E+00  0.3688E+00  0.1249E+02  0.1241E+02
     17.611  0.9386E+00  0.9172E+00  0.1258E+02  0.1250E+02
     17.712  0.4130E+00  0.9164E+00  0.1263E+02  0.1259E+02
     17.814  0.1265E+00  0.3535E+00  0.1264E+02  0.1263E+02
     17.916  0.3387E+00 -0.4348E-02  0.1267E+02  0.1263E+02
     18.018  0.4837E+00  0.1265E+00  0.1272E+02  0.1264E+02
     18.120  0.2657E+00  0.4353E+00  0.1275E+02  0.1269E+02
     18.222  0.1043E-01  0.4581E+00  0.1275E+02  0.1273E+02
     18.323 -0.2225E-01  0.1741E+00  0.1275E+02  0.1275E+02
     18.425  0.1884E+00  0.7534E-02  0.1277E+02  0.1275E+02
     18.527  0.4672E+00  0.1772E+00  0.1282E+02  0.1277E+02
     18.629  0.4484E+00  0.4621E+00  0.1286E+02  0.1282E+02
     18.731  0.1561E+00  0.4482E+00  0.1288E+02  0.1286E+02
     18.833 -0.6709E-01  0.1670E+00  0.1287E+02  0.1288E+02
     18.934 -0.6397E-01 -0.3348E-01  0.1286E+02  0.1287E+02
     19.036  0.4047E+00 -0.9912E-01  0.1290E+02  0.1286E+02
     19.138  0.1260E+01  0.3599E-01  0.1303E+02  0.1287E+02
     19.240  0.1470E+01  0.6868E+00  0.1318E+02  0.1294E+02
     19.342  0.7192E+00  0.1456E+01  0.1326E+02  0.1309E+02
     19.444  0.5548E-01  0.1286E+01  0.1326E+02  0.1322E+02
     19.545 -0.7698E-01  0.4387E+00  0.1325E+02  0.1326E+02
     19.647 -0.2998E-01 -0.3477E-01  0.1325E+02  0.1326E+02
     19.749 -0.4841E-02 -0.6423E-01  0.1325E+02  0.1325E+02
     19.851 -0.4075E-03 -0.1768E-01  0.1325E+02  0.1325E+02
     19.953 -0.4326E-04 -0.2270E-02  0.1325E+02  0.1325E+02
     20.055 -0.5082E-03 -0.1670E-03  0.1325E+02  0.1325E+02
     20.157 -0.5947E-02 -0.2688E-03  0.1325E+02  0.1325E+02
     20.258 -0.3693E-01 -0.3543E-02  0.1325E+02  0.1325E+02
     20.360 -0.1006E+00 -0.2580E-01  0.1324E+02  0.1325E+02
     20.462  0.2965E-01 -0.8874E-01  0.1324E+02  0.1324E+02
     20.564  0.8398E+00 -0.4646E-01  0.1332E+02  0.1323E+02
     20.666  0.2019E+01  0.5858E+00  0.1353E+02  0.1329E+02
     20.768  0.2174E+01  0.1800E+01  0.1375E+02  0.1348E+02
     20.869  0.1079E+01  0.2289E+01  0.1386E+02  0.1371E+02
     20.971  0.2813E+00  0.1360E+01  0.1389E+02  0.1385E+02
     21.073  0.7269E+00  0.3685E+00  0.1396E+02  0.1389E+02
     21.175  0.1453E+01  0.6010E+00  0.1411E+02  0.1395E+02
     21.277  0.1162E+01  0.1387E+01  0.1423E+02  0.1409E+02
     21.379  0.3279E+00  0.1272E+01  0.1426E+02  0.1422E+02
     21.480 -0.5722E-01  0.4399E+00  0.1426E+02  0.1426E+02
     21.582 -0.5634E-01 -0.3415E-01  0.1425E+02  0.1426E+02
     21.684 -0.1358E-01 -0.6444E-01  0.1425E+02  0.1425E+02
     21.786 -0.1580E-02 -0.1781E-01  0.1425E+02  0.1425E+02
     21.888 -0.9947E-04 -0.2292E-02  0.1425E+02  0.1425E+02
     21.990 -0.3533E-05 -0.1579E-03  0.1425E+02  0.1425E+02
     22.091 -0.7230E-07 -0.6114E-05  0.1425E+02  0.1425E+02
     22.193 -0.1328E-07 -0.1361E-06  0.1425E+02  0.1425E+02
     22.295 -0.7608E-06 -0.2518E-07  0.1425E+02  0.1425E+02
     22.397 -0.2694E-04 -0.1325E-05  0.1425E+02  0.1425E+02
     22.499 -0.5436E-03 -0.4328E-04  0.1425E+02  0.1425E+02
     22.601 -0.6063E-02 -0.8028E-03  0.1425E+02  0.1425E+02
     22.703 -0.3478E-01 -0.8177E-02  0.1425E+02  0.1425E+02
     22.804 -0.7818E-01 -0.4204E-01  0.1424E+02  0.1424E+02
     22.906  0.9750E-01 -0.7618E-01  0.1425E+02  0.1424E+02
     23.008  0.8140E+00  0.1673E+00  0.1433E+02  0.1425E+02
     23.110  0.1504E+01  0.9456E+00  0.1448E+02  0.1435E+02
     23.212  0.1180E+01  0.1529E+01  0.1460E+02  0.1451E+02
     23.314  0.3350E+00  0.1059E+01  0.1464E+02  0.1461E+02
     23.415 -0.5613E-01  0.2399E+00  0.1463E+02  0.1464E+02
     23.517 -0.5680E-01 -0.6988E-01  0.1463E+02  0.1463E+02
     23.619 -0.1379E-01 -0.4885E-01  0.1463E+02  0.1463E+02
     23.721 -0.1614E-02 -0.1051E-01  0.1463E+02  0.1463E+02
     23.823 -0.1021E-03 -0.1119E-02  0.1463E+02  0.1463E+02
     23.925 -0.3642E-05 -0.6500E-04  0.1463E+02  0.1463E+02
     24.026 -0.7477E-07 -0.2137E-05  0.1463E+02  0.1463E+02
     24.128 -0.8928E-09 -0.4052E-07  0.1463E+02  0.1463E+02
     24.230 -0.1994E-10 -0.4476E-09  0.1462E+02  0.1463E+02
     24.332 -0.1807E-08 -0.5155E-10  0.1462E+02  0.1462E+02
     24.434 -0.1395E-06 -0.5619E-08  0.1462E+02  0.1462E+02
     24.536 -0.6255E-05 -0.3791E-06  0.1462E+02  0.1462E+02
     24.637 -0.1610E-03 -0.1482E-04  0.1462E+02  0.1462E+02
     24.739 -0.2327E-02 -0.3312E-03  0.1462E+02  0.1462E+02
     24.841 -0.1800E-01 -0.4122E-02  0.1462E+02  0.1462E+02
     24.943 -0.6476E-01 -0.2689E-01  0.1462E+02  0.1462E+02
     25.045 -0.3281E-01 -0.7513E-01  0.1461E+02  0.1461E+02
     25.147  0.4469E+00  0.3023E-01  0.1466E+02  0.1462E+02
     25.249  0.1293E+01  0.6543E+00  0.1479E+02  0.1468E+02
     25.350  0.1451E+01  0.1439E+01  0.1494E+02  0.1483E+02
     25.452  0.6779E+00  0.1312E+01  0.1501E+02  0.1496E+02
     25.554  0.3349E-01  0.4678E+00  0.1501E+02  0.1501E+02
     25.656 -0.1098E+00 -0.3462E-01  0.1500E+02  0.1501E+02
     25.758 -0.1061E+00 -0.1049E+00  0.1499E+02  0.1500E+02
     25.860  0.8468E-01 -0.9652E-01  0.1500E+02  0.1499E+02
     25.961  0.7957E+00  0.1324E+00  0.1508E+02  0.1500E+02
     26.063  0.1498E+01  0.8876E+00  0.1523E+02  0.1509E+02
     26.165  0.1196E+01  0.1521E+01  0.1535E+02  0.1525E+02
     26.267  0.3487E+00  0.1113E+01  0.1539E+02  0.1536E+02
     26.369 -0.5702E-01  0.2776E+00  0.1538E+02  0.1539E+02
     26.471 -0.8134E-01 -0.8450E-01  0.1537E+02  0.1538E+02
     26.572 -0.8636E-01 -0.1198E+00  0.1537E+02  0.1537E+02
     26.674  0.2431E-02 -0.3375E-01  0.1537E+02  0.1536E+02
     26.776  0.5782E+00  0.4885E+00  0.1542E+02  0.1541E+02
     26.878  0.1394E+01  0.1330E+01  0.1557E+02  0.1555E+02
     26.980  0.1368E+01  0.1426E+01  0.1571E+02  0.1569E+02
     27.082  0.5400E+00  0.6310E+00  0.1576E+02  0.1576E+02
     27.183 -0.7913E-02  0.2179E-01  0.1576E+02  0.1576E+02
     27.285 -0.7262E-01 -0.7519E-01  0.1575E+02  0.1575E+02
     27.387 -0.3836E-01 -0.3388E-01  0.1575E+02  0.1575E+02
     27.489 -0.5199E-01 -0.3916E-01  0.1574E+02  0.1575E+02
     27.591  0.9273E-02 -0.4286E-01  0.1574E+02  0.1574E+02
     27.693  0.4060E+00  0.1912E+00  0.1579E+02  0.1576E+02
     27.795  0.9422E+00  0.7479E+00  0.1588E+02  0.1584E+02
     27.896  0.8973E+00  0.1013E+01  0.1597E+02  0.1594E+02
     27.998  0.3403E+00  0.5857E+00  0.1601E+02  0.1600E+02
     28.100 -0.1084E-01  0.8661E-01  0.1601E+02  0.1601E+02
     28.202 -0.4572E-01 -0.5187E-01  0.1600E+02  0.1600E+02
     28.304 -0.1371E-01 -0.2550E-01  0.1600E+02  0.1600E+02
     28.406 -0.1870E-02 -0.4687E-02  0.1600E+02  0.1600E+02
     28.507 -0.1357E-03 -0.4392E-03  0.1600E+02  0.1600E+02
     28.609 -0.5513E-05 -0.2268E-04  0.1600E+02  0.1600E+02
     28.711 -0.1285E-06 -0.6664E-06  0.1600E+02  0.1600E+02
     28.813 -0.1737E-08 -0.1131E-07  0.1600E+02  0.1600E+02
     28.915 -0.1374E-10 -0.1120E-09  0.1600E+02  0.1600E+02
     29.017 -0.6377E-13 -0.6503E-12  0.1600E+02  0.1600E+02
     29.118  0.0000E+00 -0.2180E-14  0.1600E+02  0.1600E+02
     29.220  0.0000E+00  0.0000E+00  0.1600E+02  0.1600E+02
     29.322  0.0000E+00  0.0000E+00  0.1600E+02  0.1600E+02
     29.424  0.0000E+00  0.0000E+00  0.1600E+02  0.1600E+02
     29.526  0.0000E+00  0.0000E+00  0.1600E+02  0.1600E+02
     29.628  0.0000E+00  0.0000E+00  0.1600E+02  0.1600E+02
     29.729  0.0000E+00  0.0000E+00  0.1600E+02  0.1600E+02
     29.831  0.0000E+00  0.0000E+00  0.1600E+02  0.1600E+02
