    2    2    1    2
  0.1090254E+02  0.2793739E-09  0.2793739E-09  0.2793739E-09  0.5000000E-15
  1.000000000000000E-004
  CAR 
 automatically generated by pyflamestk   
     20      4     16
 
  0.1250000E+00  0.1250000E+00  0.1250000E+00  0.1250000E+00
    1        1.298665      1.279347   1.000000   1.000000
    2        5.411655      5.712142   1.000000   1.000000
    3        5.411655      5.712142   1.000000   1.000000
    4        6.788461      7.364080   1.000000   1.000000
    5        6.788461      7.364080   1.000000   1.000000
    6        7.456708      8.061945   1.000000   1.000000
    7        7.940086      8.535695   1.000000   1.000003
    8        8.307354      8.764817   1.000000   1.001668
    9        8.307354      8.764817   1.000000   1.001668
   10        8.790844      9.439273   1.002850  -0.019910
   11        8.790844      9.439273   1.002850  -0.019910
   12       17.519326     17.611227   0.000000   0.000000
   13       17.519326     17.611227   0.000000   0.000000
   14       18.522072     18.623475   0.000000   0.000000
   15       27.788518     27.831305   0.000000   0.000000
   16       27.788518     27.831305   0.000000   0.000000
 
  0.3750000E+00  0.1250000E+00  0.1250000E+00  0.3750000E+00
    1        3.477656      3.493852   1.000000   1.000000
    2        5.536845      5.757796   1.000000   1.000000
    3        6.082332      6.433418   1.000000   1.000000
    4        6.638371      7.131632   1.000000   1.000000
    5        6.702394      7.252901   1.000000   1.000000
    6        7.059027      7.600146   1.000000   1.000000
    7        7.828222      8.313758   1.000000   1.000000
    8        7.905416      8.483893   1.000000   1.000000
    9        8.223815      8.835077   1.000000   1.006440
   10        8.685179      9.188907   1.000253   0.738772
   11        8.728828      9.313503   1.000745   0.239032
   12       11.494468     11.750084  -0.000000  -0.000000
   13       20.640011     20.765731   0.000000   0.000000
   14       21.144528     21.262000   0.000000   0.000000
   15       25.262611     25.339053   0.000000   0.000000
   16       26.035724     26.127228   0.000000   0.000000
 
  0.3750000E+00  0.3750000E+00  0.1250000E+00  0.3750000E+00
    1        4.580313      4.779776   1.000000   1.000000
    2        5.176830      5.515736   1.000000   1.000000
    3        6.132747      6.669932   1.000000   1.000000
    4        6.280508      6.807259   1.000000   1.000000
    5        7.069337      7.369048   1.000000   1.000000
    6        7.178312      7.499558   1.000000   1.000000
    7        8.126779      8.643777   1.000000   1.000083
    8        8.271979      8.778522   1.000000   1.002223
    9        8.493018      8.961844   1.000001   1.030571
   10        8.864376      9.461982   1.010304  -0.030907
   11        9.533003     10.077394  -0.030845  -0.000000
   12       12.085428     12.285245  -0.000000  -0.000000
   13       15.925628     16.191382   0.000000   0.000000
   14       19.156904     19.326623   0.000000   0.000000
   15       23.080346     23.167324   0.000000   0.000000
   16       26.875620     26.886528   0.000000   0.000000
 
  0.3750000E+00  0.3750000E+00  0.3750000E+00  0.1250000E+00
    1        5.692186      6.166249   1.000000   1.000000
    2        5.938486      6.201926   1.000000   1.000000
    3        6.015480      6.492986   1.000000   1.000000
    4        6.015480      6.492986   1.000000   1.000000
    5        6.338042      6.730713   1.000000   1.000000
    6        6.338042      6.730713   1.000000   1.000000
    7        8.478964      8.965405   1.000000   1.031266
    8        8.478964      8.965405   1.000000   1.031266
    9        8.486310      8.983158   1.000001   1.034117
   10        8.486310      8.983158   1.000001   1.034117
   11       12.008333     12.391701  -0.000000  -0.000000
   12       15.701965     15.898901   0.000000   0.000000
   13       15.701965     15.898901   0.000000   0.000000
   14       17.947318     18.124179   0.000000   0.000000
   15       20.739775     20.862134   0.000000   0.000000
   16       20.739775     20.862134   0.000000   0.000000
