LAMMPS (11 Aug 2017)
# ---- initialize simulations
clear
units metal
dimension 3
boundary p p p
atom_style atomic
atom_modify map array
# ---- create atoms
read_data /ufrc/phillpot/eragasa/pareto_optimization_3.5NN/rank_38/Ni_fcc_100_s.lmps_min_pos/lammps.structure
  triclinic box = (0 0 0) to (3.6791 3.6791 36.7913) with tilt (0 -0 0)
  1 by 1 by 1 MPI processor grid
  reading atoms ...
  20 atoms
# ---- define interatomic potential
include potential.mod
mass 1 58.6934

group Ni type 1
20 atoms in group Ni

pair_style eam/alloy
pair_coeff * * /ufrc/phillpot/eragasa/pareto_optimization_3.5NN/rank_38/Ni_fcc_100_s.lmps_min_pos/Ni.eam.alloy Ni

neighbor 1.0 bin
neigh_modify every 1 delay 0 check yes
# ---- define settings
compute eng all pe/atom
compute eatoms all reduce sum c_eng

# ---- run minimization
reset_timestep 0
thermo 1
thermo_style custom step pe lx ly lz xy xz yz press pxx pyy pzz pxy pxz pyz c_eatoms
min_style cg
minimize 1e-20 1e-20 1000 100000
Neighbor list info ...
  update every 1 steps, delay 0 steps, check yes
  max neighbors/atom: 2000, page size: 100000
  master list distance cutoff = 5.64464
  ghost atom cutoff = 5.64464
  binsize = 2.82232, bins = 2 2 14
  1 neighbor lists, perpetual/occasional/extra = 1 0 0
  (1) pair eam/alloy, perpetual
      attributes: half, newton on
      pair build: half/bin/newton/tri
      stencil: half/bin/3d/newton/tri
      bin: standard
Per MPI rank memory allocation (min/avg/max) = 4.208 | 4.208 | 4.208 Mbytes
Step PotEng Lx Ly Lz Xy Xz Yz Press Pxx Pyy Pzz Pxy Pxz Pyz c_eatoms 
       0   -40.752012       3.6791       3.6791      36.7913            0           -0            0   -4470.8341   -5695.8021   -5695.8021   -2020.8979 -9.1528457e-13 -1.7022061e-13 -1.0185331e-12   -40.752012 
       1   -40.755838       3.6791       3.6791      36.7913            0           -0            0   -3886.5564   -5188.8767   -5188.8767   -1281.9158 4.9084926e-12 3.1672195e-12 8.1677986e-12   -40.755838 
       2   -40.756623       3.6791       3.6791      36.7913            0           -0            0   -3598.6377   -4926.2108   -4926.2108   -943.49136 -3.3904596e-12 -6.6441847e-12 -1.1315485e-12   -40.756623 
       3   -40.756877       3.6791       3.6791      36.7913            0           -0            0   -3375.0799   -4726.6665   -4726.6665   -671.90664 -5.656347e-12 -5.634023e-12 -1.1022482e-12   -40.756877 
       4   -40.756957       3.6791       3.6791      36.7913            0           -0            0    -3315.728   -4671.7977   -4671.7977   -603.58869 -6.4823356e-12 4.771758e-13 -3.9834412e-12   -40.756957 
       5   -40.756994       3.6791       3.6791      36.7913            0           -0            0   -3239.6182   -4601.9168   -4601.9168    -515.0211 -6.39583e-12 4.8666351e-12 5.8893539e-12   -40.756994 
       6   -40.757131       3.6791       3.6791      36.7913            0           -0            0   -2788.3943   -4194.6176   -4194.6176    24.052302 -1.540357e-12 8.6561364e-12 -7.8831674e-13   -40.757131 
       7   -40.757133       3.6791       3.6791      36.7913            0           -0            0   -2791.8578   -4197.7901   -4197.7901     20.00677 -4.2136576e-13 8.8124045e-12 8.4566156e-12   -40.757133 
       8   -40.757134       3.6791       3.6791      36.7913            0           -0            0   -2795.2998   -4200.8943   -4200.8943    15.889092 -2.3496025e-12 3.9011214e-12 -7.936187e-12   -40.757134 
       9   -40.757134       3.6791       3.6791      36.7913            0           -0            0   -2795.0562   -4200.7333   -4200.7333    16.298065 -9.5742115e-12 1.7608066e-12 3.1937293e-12   -40.757134 
      10   -40.757134       3.6791       3.6791      36.7913            0           -0            0   -2797.2149   -4202.6727   -4202.6727    13.700808 3.6192808e-12 5.3214868e-12 -3.5020797e-13   -40.757134 
      11   -40.757134       3.6791       3.6791      36.7913            0           -0            0   -2803.7439   -4208.6003   -4208.6003    5.9690604 4.5289843e-12 -2.408203e-12 -1.2920023e-12   -40.757134 
      12   -40.757134       3.6791       3.6791      36.7913            0           -0            0   -2808.6706   -4213.0347   -4213.0347  0.057664659 2.5672616e-12 -1.0098826e-11 -3.3123256e-12   -40.757134 
      13   -40.757134       3.6791       3.6791      36.7913            0           -0            0   -2809.4777   -4213.7789   -4213.7789  -0.87522335 -9.5295635e-12 -6.9539304e-12 1.8821934e-12   -40.757134 
      14   -40.757134       3.6791       3.6791      36.7913            0           -0            0   -2809.3693   -4213.6826   -4213.6826  -0.74286108 -5.3856684e-12 -2.6844627e-12 6.6972042e-12   -40.757134 
      15   -40.757134       3.6791       3.6791      36.7913            0           -0            0   -2809.2549   -4213.5768   -4213.5768  -0.61111552 -3.0500184e-12 -7.8161954e-12 2.9565366e-12   -40.757134 
      16   -40.757134       3.6791       3.6791      36.7913            0           -0            0   -2809.1685    -4213.499    -4213.499  -0.50770989 2.3216975e-12 8.2319802e-13 8.7524087e-12   -40.757134 
      17   -40.757134       3.6791       3.6791      36.7913            0           -0            0    -2809.016   -4213.3608   -4213.3608  -0.32641204 4.2415627e-13 -2.2156584e-12 2.4542463e-12   -40.757134 
      18   -40.757134       3.6791       3.6791      36.7913            0           -0            0   -2808.7489   -4213.1187   -4213.1187 -0.0094817339 -8.8849576e-12 -5.4944979e-12 7.8566577e-12   -40.757134 
      19   -40.757134       3.6791       3.6791      36.7913            0           -0            0   -2808.7198   -4213.0924   -4213.0924  0.025397993 3.3262781e-12 6.8702153e-12 1.4915232e-12   -40.757134 
      20   -40.757134       3.6791       3.6791      36.7913            0           -0            0   -2808.7168   -4213.0899   -4213.0899  0.029412626 4.4117833e-12 5.1819617e-12 3.4323172e-13   -40.757134 
      21   -40.757134       3.6791       3.6791      36.7913            0           -0            0   -2808.7206   -4213.0933   -4213.0933  0.024737494 9.3760859e-13 3.264887e-13 -3.7588059e-12   -40.757134 
      22   -40.757134       3.6791       3.6791      36.7913            0           -0            0   -2808.7222   -4213.0948   -4213.0948  0.022971308 -6.434897e-12 8.2626757e-12 -4.9168641e-12   -40.757134 
      23   -40.757134       3.6791       3.6791      36.7913            0           -0            0   -2808.7291    -4213.101    -4213.101  0.014744396 5.6200705e-12 3.3960406e-12 -8.8082188e-12   -40.757134 
      24   -40.757134       3.6791       3.6791      36.7913            0           -0            0   -2808.7341   -4213.1056   -4213.1056 0.0088412146 -3.9401885e-12 -3.8564734e-12 2.2351919e-12   -40.757134 
      25   -40.757134       3.6791       3.6791      36.7913            0           -0            0   -2808.7406   -4213.1115   -4213.1115 0.0010274164 -2.5337756e-12 -9.3621334e-12 3.5564945e-12   -40.757134 
      26   -40.757134       3.6791       3.6791      36.7913            0           -0            0   -2808.7423    -4213.113    -4213.113 -0.0010017143 5.3242773e-12 -1.8947507e-12 -6.362344e-13   -40.757134 
      27   -40.757134       3.6791       3.6791      36.7913            0           -0            0   -2808.7424   -4213.1131   -4213.1131 -0.0011246917 2.1626389e-12 -8.3715052e-13 1.929632e-12   -40.757134 
      28   -40.757134       3.6791       3.6791      36.7913            0           -0            0   -2808.7422   -4213.1129   -4213.1129 -0.00086571836 4.9057021e-12 -6.1614279e-12 2.9495603e-12   -40.757134 
      29   -40.757134       3.6791       3.6791      36.7913            0           -0            0   -2808.7421   -4213.1128   -4213.1128 -0.00074259802 4.1187806e-12 5.0284842e-12 -1.0589954e-12   -40.757134 
      30   -40.757134       3.6791       3.6791      36.7913            0           -0            0   -2808.7421   -4213.1128   -4213.1128 -0.00074259802 4.1187806e-12 5.0284842e-12 -1.0589954e-12   -40.757134 
Loop time of 0.00240397 on 1 procs for 30 steps with 20 atoms

97.8% CPU use with 1 MPI tasks x no OpenMP threads

Minimization stats:
  Stopping criterion = linesearch alpha is zero
  Energy initial, next-to-last, final = 
        -40.7520119401      -40.757134233      -40.757134233
  Force two-norm initial, final = 0.199457 1.30688e-08
  Force max component initial, final = 0.075068 3.9402e-09
  Final line search alpha, max atom move = 0.5 1.9701e-09
  Iterations, force evaluations = 30 60

MPI task timing breakdown:
Section |  min time  |  avg time  |  max time  |%varavg| %total
---------------------------------------------------------------
Pair    | 0.0018802  | 0.0018802  | 0.0018802  |   0.0 | 78.21
Neigh   | 0          | 0          | 0          |   0.0 |  0.00
Comm    | 0.00015211 | 0.00015211 | 0.00015211 |   0.0 |  6.33
Output  | 0.00029373 | 0.00029373 | 0.00029373 |   0.0 | 12.22
Modify  | 0          | 0          | 0          |   0.0 |  0.00
Other   |            | 7.796e-05  |            |       |  3.24

Nlocal:    20 ave 20 max 20 min
Histogram: 1 0 0 0 0 0 0 0 0 0
Nghost:    547 ave 547 max 547 min
Histogram: 1 0 0 0 0 0 0 0 0 0
Neighs:    480 ave 480 max 480 min
Histogram: 1 0 0 0 0 0 0 0 0 0

Total # of neighbors = 480
Ave neighs/atom = 24
Neighbor list builds = 0
Dangerous builds = 0

# ---- define output variables ----
variable natoms equal "count(all)"
variable tot_energy equal "c_eatoms"
variable a11 equal "xhi-xlo"
variable a22 equal "yhi-ylo"
variable a33 equal "zhi-zlo"
variable tilt_xy equal "xy"
variable tilt_xz equal "xz"
variable tilt_yz equal "yz"
variable tot_press equal "press"
variable press_xx equal "pxx"
variable press_yy equal "pyy"
variable press_zz equal "pzz"
variable press_xy equal "pxy"
variable press_xz equal "pxz"
variable press_yz equal "pyz"

# ---- output ----
print "pypospack:output_section:begin"
pypospack:output_section:begin
print "tot_energy = ${tot_energy}"
tot_energy = -40.7571342330203
print "num_atoms = ${natoms}"
num_atoms = 20
print "a11 = ${a11}"
a11 = 3.6791
print "a22 = ${a22}"
a22 = 3.6791
print "a33 = ${a33}"
a33 = 36.7913
print "a12 = ${tilt_xy}"
a12 = 0
print "a13 = ${tilt_xz}"
a13 = -0
print "a23 = ${tilt_yz}"
a23 = 0
print "tot_press = ${tot_press}"
tot_press = -2808.74211518072
print "pxx = ${press_xx}"
pxx = -4213.11280147208
print "pyy = ${press_yy}"
pyy = -4213.11280147208
print "pzz = ${press_zz}"
pzz = -0.000742598016284508
print "pxy = ${press_xy}"
pxy = 4.11878058290441e-12
print "pxz = ${press_xz}"
pxz = 5.02848415338329e-12
print "pyz = ${press_yz}"
pyz = -1.05899541410042e-12
print "pypospack:output_section:done"
pypospack:output_section:done
print "pypospack:lammps_sim:done"
pypospack:lammps_sim:done
Total wall time: 0:00:00
