LAMMPS (11 Aug 2017)
Reading data file ...
  triclinic box = (0 0 0) to (3.3354 2.3876 23.876) with tilt (0 0 0)
  1 by 1 by 1 MPI processor grid
  reading atoms ...
  10 atoms
10 atoms in group Ni
Neighbor list info ...
  update every 1 steps, delay 0 steps, check yes
  max neighbors/atom: 2000, page size: 100000
  master list distance cutoff = 5.64464
  ghost atom cutoff = 5.64464
  binsize = 2.82232, bins = 2 1 9
  1 neighbor lists, perpetual/occasional/extra = 1 0 0
  (1) pair eam/alloy, perpetual
      attributes: half, newton on
      pair build: half/bin/newton/tri
      stencil: half/bin/3d/newton/tri
      bin: standard
Setting up cg style minimization ...
  Unit style    : metal
  Current step  : 0
Per MPI rank memory allocation (min/avg/max) = 4.214 | 4.214 | 4.214 Mbytes
Step PotEng Lx Ly Lz Xy Xz Yz Press Pxx Pyy Pzz Pxy Pxz Pyz c_eatoms 
       0   -53.270187       3.3354       2.3876       23.876            0            0            0     -52256.1   -54951.581   -56738.214   -45078.504 2.3387809e-13 -1.2424773e-12 1.3740338e-12   -53.270187 
       1   -53.325347       3.3354       2.3876       23.876            0            0            0   -41129.325    -43475.49   -48979.465   -30933.021 5.9638912e-12 -3.0842673e-12 -1.6663814e-12   -53.325347 
       2   -53.340471       3.3354       2.3876       23.876            0            0            0   -35466.021   -37964.217   -45584.542   -22849.306 1.1693904e-12 4.3559794e-12 -4.0928665e-12   -53.340471 
       3   -53.358808       3.3354       2.3876       23.876            0            0            0   -24106.086   -27852.235   -39340.649   -5125.3729 -3.9174579e-12 -8.7704282e-13 1.461738e-13   -53.358808 
       4   -53.362731       3.3354       2.3876       23.876            0            0            0   -22307.242   -26366.412    -38508.52   -2046.7943 -3.6835799e-12 -1.2570947e-12 4.0928665e-13   -53.362731 
       5   -53.362808       3.3354       2.3876       23.876            0            0            0   -22034.962   -26218.933    -38430.12   -1455.8321 -3.9174579e-12 8.7704282e-14 1.6663814e-12   -53.362808 
       6   -53.362884       3.3354       2.3876       23.876            0            0            0   -21299.102   -25553.643   -38022.892   -320.77248 1.6956161e-12 2.0025811e-12 1.0816861e-12   -53.362884 
       7   -53.362894       3.3354       2.3876       23.876            0            0            0   -21144.533   -25406.728   -37932.128   -94.743263 -2.5726589e-12 -3.4789365e-12 -6.1392998e-13   -53.362894 
       8   -53.362895       3.3354       2.3876       23.876            0            0            0   -21100.136   -25365.638   -37905.427   -29.342946 2.1633723e-12 -5.379196e-12 -2.2803113e-12   -53.362895 
       9   -53.362895       3.3354       2.3876       23.876            0            0            0   -21094.719   -25360.292   -37902.032    -21.83252 3.5081713e-12 -2.9673282e-12 -4.9114398e-12   -53.362895 
      10   -53.362895       3.3354       2.3876       23.876            0            0            0   -21085.053   -25352.395   -37897.403   -5.3592183 -6.4316474e-13 3.610493e-12 5.6715436e-12   -53.362895 
      11   -53.362895       3.3354       2.3876       23.876            0            0            0   -21082.336    -25350.04   -37895.917   -1.0509097  1.22786e-12 -1.5640597e-12 2.4557199e-12   -53.362895 
      12   -53.362895       3.3354       2.3876       23.876            0            0            0   -21081.704   -25349.357   -37895.471  -0.28495759 -3.2158237e-12 -4.7798834e-12 -1.6079118e-12   -53.362895 
      13   -53.362895       3.3354       2.3876       23.876            0            0            0   -21081.701   -25349.342   -37895.462  -0.30007833 3.2742932e-12 -1.2424773e-12  1.22786e-12   -53.362895 
      14   -53.362895       3.3354       2.3876       23.876            0            0            0   -21081.641    -25349.29    -37895.43  -0.20305749 -6.3731778e-12 -2.4557199e-12 -1.0524514e-12   -53.362895 
      15   -53.362895       3.3354       2.3876       23.876            0            0            0   -21081.525   -25349.193   -37895.372 -0.009110239 -3.2742932e-12 1.2863295e-12 -6.723995e-13   -53.362895 
      16   -53.362895       3.3354       2.3876       23.876            0            0            0    -21081.52   -25349.186   -37895.368 -0.0052164126 7.6010378e-13 -3.0988846e-12 -1.22786e-12   -53.362895 
      17   -53.362895       3.3354       2.3876       23.876            0            0            0   -21081.518   -25349.184   -37895.367 -0.0033522871 -1.6956161e-12 -6.5778212e-13 -9.647471e-13   -53.362895 
      18   -53.362895       3.3354       2.3876       23.876            0            0            0   -21081.518   -25349.184   -37895.366 -0.0028258468 -8.185733e-13 -2.4411025e-12 2.3387809e-12   -53.362895 
      19   -53.362895       3.3354       2.3876       23.876            0            0            0   -21081.516   -25349.183   -37895.366 -0.00040398077 -3.2158237e-12 -1.6079118e-13 1.5494423e-12   -53.362895 
      20   -53.362895       3.3354       2.3876       23.876            0            0            0   -21081.516   -25349.183   -37895.365 -3.538068e-05 -2.9819456e-12 -2.3241635e-12 -3.1573542e-12   -53.362895 
      21   -53.362895       3.3354       2.3876       23.876            0            0            0   -21081.516   -25349.183   -37895.365 -5.1579685e-05 4.5606227e-12 -2.5434242e-12 -7.6010378e-13   -53.362895 
      22   -53.362895       3.3354       2.3876       23.876            0            0            0   -21081.516   -25349.183   -37895.365 -3.0048804e-05 2.3387809e-12 1.0232166e-12 2.3680156e-12   -53.362895 
      23   -53.362895       3.3354       2.3876       23.876            0            0            0   -21081.516   -25349.183   -37895.365 -1.8588519e-05 -5.2622569e-13 -2.2072244e-12 2.5141894e-12   -53.362895 
      24   -53.362895       3.3354       2.3876       23.876            0            0            0   -21081.516   -25349.183   -37895.365 -4.5761429e-06 -1.22786e-12 2.3387809e-13 -5.8469522e-14   -53.362895 
      25   -53.362895       3.3354       2.3876       23.876            0            0            0   -21081.516   -25349.183   -37895.365 -7.772274e-07 1.7540856e-13 -8.3319068e-13 2.9527108e-12   -53.362895 
Loop time of 0.00135994 on 1 procs for 25 steps with 10 atoms

100.1% CPU use with 1 MPI tasks x no OpenMP threads

Minimization stats:
  Stopping criterion = energy tolerance
  Energy initial, next-to-last, final = 
        -53.2701874582     -53.3628947766     -53.3628947766
  Force two-norm initial, final = 1.05887 3.48507e-11
  Force max component initial, final = 0.710893 1.92919e-11
  Final line search alpha, max atom move = 1 1.92919e-11
  Iterations, force evaluations = 25 50

MPI task timing breakdown:
Section |  min time  |  avg time  |  max time  |%varavg| %total
---------------------------------------------------------------
Pair    | 0.00093722 | 0.00093722 | 0.00093722 |   0.0 | 68.92
Neigh   | 0          | 0          | 0          |   0.0 |  0.00
Comm    | 0.00010061 | 0.00010061 | 0.00010061 |   0.0 |  7.40
Output  | 0.00026083 | 0.00026083 | 0.00026083 |   0.0 | 19.18
Modify  | 0          | 0          | 0          |   0.0 |  0.00
Other   |            | 6.127e-05  |            |       |  4.51

Nlocal:    10 ave 10 max 10 min
Histogram: 1 0 0 0 0 0 0 0 0 0
Nghost:    357 ave 357 max 357 min
Histogram: 1 0 0 0 0 0 0 0 0 0
Neighs:    320 ave 320 max 320 min
Histogram: 1 0 0 0 0 0 0 0 0 0

Total # of neighbors = 320
Ave neighs/atom = 32
Neighbor list builds = 0
Dangerous builds = 0
pypospack:output_section:begin
tot_energy = -53.3628947766435
num_atoms = 10
a11 = 3.3354
a22 = 2.3876
a33 = 23.876
a12 = 0
a13 = 0
a23 = 0
tot_press = -21081.5160306136
pxx = -25349.1826382634
pyy = -37895.3654528001
pzz = -7.77227397462232e-07
pxy = 1.75408564503985e-13
pxz = -8.33190681393927e-13
pyz = 2.95271083581708e-12
pypospack:output_section:done
pypospack:lammps_sim:done
Total wall time: 0:00:00
