# ['Al']

107 atoms
1 atom types

    0.0000    11.8032 xlo xhi
    0.0000    11.8032 ylo yhi
    0.0000    11.8032 zlo zhi

    0.0000    -0.0000    -0.0000 xy xz yz

Atoms

1 1     1.9672     1.9672     0.0000
2 1     1.9672     0.0000     1.9672
3 1     0.0000     1.9672     1.9672
4 1     0.0000     0.0000     3.9344
5 1     1.9672     1.9672     3.9344
6 1     1.9672     0.0000     5.9016
7 1     0.0000     1.9672     5.9016
8 1     0.0000     0.0000     7.8688
9 1     1.9672     1.9672     7.8688
10 1     1.9672     0.0000     9.8360
11 1     0.0000     1.9672     9.8360
12 1     0.0000     3.9344     0.0000
13 1     1.9672     5.9016     0.0000
14 1     1.9672     3.9344     1.9672
15 1     0.0000     5.9016     1.9672
16 1     0.0000     3.9344     3.9344
17 1     1.9672     5.9016     3.9344
18 1     1.9672     3.9344     5.9016
19 1     0.0000     5.9016     5.9016
20 1     0.0000     3.9344     7.8688
21 1     1.9672     5.9016     7.8688
22 1     1.9672     3.9344     9.8360
23 1     0.0000     5.9016     9.8360
24 1     0.0000     7.8688     0.0000
25 1     1.9672     9.8360     0.0000
26 1     1.9672     7.8688     1.9672
27 1     0.0000     9.8360     1.9672
28 1     0.0000     7.8688     3.9344
29 1     1.9672     9.8360     3.9344
30 1     1.9672     7.8688     5.9016
31 1     0.0000     9.8360     5.9016
32 1     0.0000     7.8688     7.8688
33 1     1.9672     9.8360     7.8688
34 1     1.9672     7.8688     9.8360
35 1     0.0000     9.8360     9.8360
36 1     3.9344     0.0000     0.0000
37 1     5.9016     1.9672     0.0000
38 1     5.9016     0.0000     1.9672
39 1     3.9344     1.9672     1.9672
40 1     3.9344     0.0000     3.9344
41 1     5.9016     1.9672     3.9344
42 1     5.9016     0.0000     5.9016
43 1     3.9344     1.9672     5.9016
44 1     3.9344     0.0000     7.8688
45 1     5.9016     1.9672     7.8688
46 1     5.9016     0.0000     9.8360
47 1     3.9344     1.9672     9.8360
48 1     3.9344     3.9344     0.0000
49 1     5.9016     5.9016     0.0000
50 1     5.9016     3.9344     1.9672
51 1     3.9344     5.9016     1.9672
52 1     3.9344     3.9344     3.9344
53 1     5.9016     5.9016     3.9344
54 1     5.9016     3.9344     5.9016
55 1     3.9344     5.9016     5.9016
56 1     3.9344     3.9344     7.8688
57 1     5.9016     5.9016     7.8688
58 1     5.9016     3.9344     9.8360
59 1     3.9344     5.9016     9.8360
60 1     3.9344     7.8688     0.0000
61 1     5.9016     9.8360     0.0000
62 1     5.9016     7.8688     1.9672
63 1     3.9344     9.8360     1.9672
64 1     3.9344     7.8688     3.9344
65 1     5.9016     9.8360     3.9344
66 1     5.9016     7.8688     5.9016
67 1     3.9344     9.8360     5.9016
68 1     3.9344     7.8688     7.8688
69 1     5.9016     9.8360     7.8688
70 1     5.9016     7.8688     9.8360
71 1     3.9344     9.8360     9.8360
72 1     7.8688     0.0000     0.0000
73 1     9.8360     1.9672     0.0000
74 1     9.8360     0.0000     1.9672
75 1     7.8688     1.9672     1.9672
76 1     7.8688     0.0000     3.9344
77 1     9.8360     1.9672     3.9344
78 1     9.8360     0.0000     5.9016
79 1     7.8688     1.9672     5.9016
80 1     7.8688     0.0000     7.8688
81 1     9.8360     1.9672     7.8688
82 1     9.8360     0.0000     9.8360
83 1     7.8688     1.9672     9.8360
84 1     7.8688     3.9344     0.0000
85 1     9.8360     5.9016     0.0000
86 1     9.8360     3.9344     1.9672
87 1     7.8688     5.9016     1.9672
88 1     7.8688     3.9344     3.9344
89 1     9.8360     5.9016     3.9344
90 1     9.8360     3.9344     5.9016
91 1     7.8688     5.9016     5.9016
92 1     7.8688     3.9344     7.8688
93 1     9.8360     5.9016     7.8688
94 1     9.8360     3.9344     9.8360
95 1     7.8688     5.9016     9.8360
96 1     7.8688     7.8688     0.0000
97 1     9.8360     9.8360     0.0000
98 1     9.8360     7.8688     1.9672
99 1     7.8688     9.8360     1.9672
100 1     7.8688     7.8688     3.9344
101 1     9.8360     9.8360     3.9344
102 1     9.8360     7.8688     5.9016
103 1     7.8688     9.8360     5.9016
104 1     7.8688     7.8688     7.8688
105 1     9.8360     9.8360     7.8688
106 1     9.8360     7.8688     9.8360
107 1     7.8688     9.8360     9.8360
