LAMMPS (11 Aug 2017)
Reading data file ...
  triclinic box = (0 0 0) to (10.4836 10.4836 10.4836) with tilt (0 -0 -0)
  1 by 1 by 1 MPI processor grid
  reading atoms ...
  107 atoms
107 atoms in group Ni
Neighbor list info ...
  update every 1 steps, delay 0 steps, check yes
  max neighbors/atom: 2000, page size: 100000
  master list distance cutoff = 11
  ghost atom cutoff = 11
  binsize = 5.5, bins = 2 2 2
  1 neighbor lists, perpetual/occasional/extra = 1 0 0
  (1) pair eam/alloy, perpetual
      attributes: half, newton on
      pair build: half/bin/newton/tri
      stencil: half/bin/3d/newton/tri
      bin: standard
Setting up cg style minimization ...
  Unit style    : metal
  Current step  : 0
Per MPI rank memory allocation (min/avg/max) = 4.384 | 4.384 | 4.384 Mbytes
Step PotEng Lx Ly Lz Xy Xz Yz Press Pxx Pyy Pzz Pxy Pxz Pyz c_eatoms 
       0   -485.26966      10.4836      10.4836      10.4836            0           -0           -0   -7482.1218   -7482.1218   -7482.1218   -7482.1218 -1.4715796e-11 -5.0133023e-11 -7.2363576e-11   -485.26966 
       1   -485.56221      10.4836      10.4836      10.4836            0           -0           -0   -10037.417   -10037.417   -10037.417   -10037.417 8.7456836e-11 1.3949378e-11 5.2148473e-11   -485.56221 
       2   -485.62553      10.4836      10.4836      10.4836            0           -0           -0   -10610.778   -10610.778   -10610.778   -10610.778 -1.0850814e-11 4.6089629e-11 2.0511199e-11   -485.62553 
       3   -485.63478      10.4836      10.4836      10.4836            0           -0           -0   -10726.634   -10726.634   -10726.634   -10726.634 -2.9005046e-11  2.88259e-11 6.5197166e-11   -485.63478 
       4   -485.63605      10.4836      10.4836      10.4836            0           -0           -0    -10730.07    -10730.07    -10730.07    -10730.07 3.8711936e-11 4.4820126e-11 2.0493522e-12   -485.63605 
       5   -485.63612      10.4836      10.4836      10.4836            0           -0           -0   -10719.993   -10719.993   -10719.993   -10719.993 3.1782716e-11 5.4894982e-11 5.434591e-11   -485.63612 
       6   -485.63614      10.4836      10.4836      10.4836            0           -0           -0   -10721.678   -10721.678   -10721.678   -10721.678 3.8292199e-11 1.8703667e-11 2.5030357e-11   -485.63614 
       7   -485.63614      10.4836      10.4836      10.4836            0           -0           -0   -10721.587   -10721.587   -10721.587   -10721.587 -4.5761342e-11 -8.7235085e-12 -9.1500682e-13   -485.63614 
       8   -485.63614      10.4836      10.4836      10.4836            0           -0           -0   -10721.035   -10721.035   -10721.035   -10721.035 -6.2614327e-11 -8.1025386e-11 -7.0721015e-11   -485.63614 
       9   -485.63614      10.4836      10.4836      10.4836            0           -0           -0   -10720.688   -10720.688   -10720.688   -10720.688 -2.2711599e-11 2.7071248e-11 -1.4686713e-11   -485.63614 
      10   -485.63614      10.4836      10.4836      10.4836            0           -0           -0   -10720.677   -10720.677   -10720.677   -10720.677 -8.3102997e-11 6.6654442e-11 5.9938468e-11   -485.63614 
      11   -485.63614      10.4836      10.4836      10.4836            0           -0           -0    -10720.69    -10720.69    -10720.69    -10720.69 -1.196319e-11 -3.3944428e-11 -4.4659622e-11   -485.63614 
      12   -485.63614      10.4836      10.4836      10.4836            0           -0           -0   -10720.693   -10720.693   -10720.693   -10720.693 8.5142526e-11 -3.3213236e-11 -1.2917927e-11   -485.63614 
      13   -485.63614      10.4836      10.4836      10.4836            0           -0           -0   -10720.696   -10720.696   -10720.696   -10720.696 5.2168382e-11 -4.7955184e-11 -6.2489346e-12   -485.63614 
      14   -485.63614      10.4836      10.4836      10.4836            0           -0           -0   -10720.698   -10720.698   -10720.698   -10720.698 -2.2590797e-11 8.4490291e-12 6.5492809e-11   -485.63614 
      15   -485.63614      10.4836      10.4836      10.4836            0           -0           -0   -10720.698   -10720.698   -10720.698   -10720.698 6.2062942e-11 8.7080065e-11 1.1188645e-10   -485.63614 
      16   -485.63614      10.4836      10.4836      10.4836            0           -0           -0   -10720.698   -10720.698   -10720.698   -10720.698 3.8437429e-11 6.5558183e-11 4.6363581e-11   -485.63614 
      17   -485.63614      10.4836      10.4836      10.4836            0           -0           -0   -10720.698   -10720.698   -10720.698   -10720.698 -3.639806e-11 9.7087587e-11 6.1813541e-11   -485.63614 
      18   -485.63614      10.4836      10.4836      10.4836            0           -0           -0   -10720.698   -10720.698   -10720.698   -10720.698 5.4732278e-11 1.508378e-11 4.4574141e-11   -485.63614 
      19   -485.63614      10.4836      10.4836      10.4836            0           -0           -0   -10720.698   -10720.698   -10720.698   -10720.698 1.4492255e-11 -6.7035359e-12 5.1152846e-11   -485.63614 
      20   -485.63614      10.4836      10.4836      10.4836            0           -0           -0   -10720.698   -10720.698   -10720.698   -10720.698 4.6365592e-11 3.9327635e-11 4.7738597e-11   -485.63614 
      21   -485.63614      10.4836      10.4836      10.4836            0           -0           -0   -10720.698   -10720.698   -10720.698   -10720.698 1.8788612e-11 -2.508612e-11 -1.1572498e-11   -485.63614 
      22   -485.63614      10.4836      10.4836      10.4836            0           -0           -0   -10720.698   -10720.698   -10720.698   -10720.698 -6.5907901e-12 8.4480284e-11 7.2959724e-11   -485.63614 
      23   -485.63614      10.4836      10.4836      10.4836            0           -0           -0   -10720.698   -10720.698   -10720.698   -10720.698 7.2012689e-12 1.5553797e-11 1.624368e-11   -485.63614 
      24   -485.63614      10.4836      10.4836      10.4836            0           -0           -0   -10720.698   -10720.698   -10720.698   -10720.698 8.1029838e-11 2.8326014e-11 -2.1516511e-11   -485.63614 
      25   -485.63614      10.4836      10.4836      10.4836            0           -0           -0   -10720.698   -10720.698   -10720.698   -10720.698 3.8555974e-11 -8.2941786e-11 -5.0293414e-11   -485.63614 
      26   -485.63614      10.4836      10.4836      10.4836            0           -0           -0   -10720.698   -10720.698   -10720.698   -10720.698 5.6626332e-11 -4.7683475e-12 -9.8854997e-12   -485.63614 
      27   -485.63614      10.4836      10.4836      10.4836            0           -0           -0   -10720.698   -10720.698   -10720.698   -10720.698 -2.6757618e-11 -1.1228574e-11 6.4879663e-12   -485.63614 
      28   -485.63614      10.4836      10.4836      10.4836            0           -0           -0   -10720.698   -10720.698   -10720.698   -10720.698 6.2503815e-11 -1.4013753e-11 4.2873386e-11   -485.63614 
      29   -485.63614      10.4836      10.4836      10.4836            0           -0           -0   -10720.698   -10720.698   -10720.698   -10720.698 1.1533507e-12 -3.6090776e-11 -5.5913599e-11   -485.63614 
      30   -485.63614      10.4836      10.4836      10.4836            0           -0           -0   -10720.698   -10720.698   -10720.698   -10720.698 -3.3395191e-11 -6.2198999e-11 -2.9314874e-11   -485.63614 
      31   -485.63614      10.4836      10.4836      10.4836            0           -0           -0   -10720.698   -10720.698   -10720.698   -10720.698 -1.7179322e-12 2.7539342e-12 5.6221453e-12   -485.63614 
      32   -485.63614      10.4836      10.4836      10.4836            0           -0           -0   -10720.698   -10720.698   -10720.698   -10720.698 -2.3789532e-11 3.2275464e-11 -1.660577e-12   -485.63614 
Loop time of 0.187315 on 1 procs for 32 steps with 107 atoms

64.4% CPU use with 1 MPI tasks x no OpenMP threads

Minimization stats:
  Stopping criterion = energy tolerance
  Energy initial, next-to-last, final = 
         -485.26965822      -485.63614233      -485.63614233
  Force two-norm initial, final = 2.13222 5.8979e-14
  Force max component initial, final = 0.43392 1.24623e-14
  Final line search alpha, max atom move = 1 1.24623e-14
  Iterations, force evaluations = 32 64

MPI task timing breakdown:
Section |  min time  |  avg time  |  max time  |%varavg| %total
---------------------------------------------------------------
Pair    | 0.18093    | 0.18093    | 0.18093    |   0.0 | 96.59
Neigh   | 0          | 0          | 0          |   0.0 |  0.00
Comm    | 0.0052307  | 0.0052307  | 0.0052307  |   0.0 |  2.79
Output  | 0.00071478 | 0.00071478 | 0.00071478 |   0.0 |  0.38
Modify  | 0          | 0          | 0          |   0.0 |  0.00
Other   |            | 0.0004351  |            |       |  0.23

Nlocal:    107 ave 107 max 107 min
Histogram: 1 0 0 0 0 0 0 0 0 0
Nghost:    3259 ave 3259 max 3259 min
Histogram: 1 0 0 0 0 0 0 0 0 0
Neighs:    28093 ave 28093 max 28093 min
Histogram: 1 0 0 0 0 0 0 0 0 0

Total # of neighbors = 28093
Ave neighs/atom = 262.551
Neighbor list builds = 0
Dangerous builds = 0
pypospack:output_section:begin
tot_energy = -485.636142329634
num_atoms = 107
a11 = 10.4836
a22 = 10.4836
a33 = 10.4836
a12 = 0
a13 = -0
a23 = -0
tot_press = -10720.6978000939
pxx = -10720.6978000938
pyy = -10720.6978000939
pzz = -10720.6978000941
pxy = -2.37895318745704e-11
pxz = 3.22754644402376e-11
pyz = -1.66057700621511e-12
pypospack:output_section:done
pypospack:lammps_sim:done
Total wall time: 0:00:00
