# ['Ni']

107 atoms
1 atom types

    0.0000    10.4836 xlo xhi
    0.0000    10.4836 ylo yhi
    0.0000    10.4836 zlo zhi

    0.0000    -0.0000    -0.0000 xy xz yz

Atoms

1 1     1.7473     1.7473     0.0000
2 1     1.7473     0.0000     1.7473
3 1     0.0000     1.7473     1.7473
4 1     0.0000     0.0000     3.4945
5 1     1.7473     1.7473     3.4945
6 1     1.7473     0.0000     5.2418
7 1     0.0000     1.7473     5.2418
8 1     0.0000     0.0000     6.9891
9 1     1.7473     1.7473     6.9891
10 1     1.7473     0.0000     8.7363
11 1     0.0000     1.7473     8.7363
12 1     0.0000     3.4945     0.0000
13 1     1.7473     5.2418     0.0000
14 1     1.7473     3.4945     1.7473
15 1     0.0000     5.2418     1.7473
16 1     0.0000     3.4945     3.4945
17 1     1.7473     5.2418     3.4945
18 1     1.7473     3.4945     5.2418
19 1     0.0000     5.2418     5.2418
20 1     0.0000     3.4945     6.9891
21 1     1.7473     5.2418     6.9891
22 1     1.7473     3.4945     8.7363
23 1     0.0000     5.2418     8.7363
24 1     0.0000     6.9891     0.0000
25 1     1.7473     8.7363     0.0000
26 1     1.7473     6.9891     1.7473
27 1     0.0000     8.7363     1.7473
28 1     0.0000     6.9891     3.4945
29 1     1.7473     8.7363     3.4945
30 1     1.7473     6.9891     5.2418
31 1     0.0000     8.7363     5.2418
32 1     0.0000     6.9891     6.9891
33 1     1.7473     8.7363     6.9891
34 1     1.7473     6.9891     8.7363
35 1     0.0000     8.7363     8.7363
36 1     3.4945     0.0000     0.0000
37 1     5.2418     1.7473     0.0000
38 1     5.2418     0.0000     1.7473
39 1     3.4945     1.7473     1.7473
40 1     3.4945     0.0000     3.4945
41 1     5.2418     1.7473     3.4945
42 1     5.2418     0.0000     5.2418
43 1     3.4945     1.7473     5.2418
44 1     3.4945     0.0000     6.9891
45 1     5.2418     1.7473     6.9891
46 1     5.2418     0.0000     8.7363
47 1     3.4945     1.7473     8.7363
48 1     3.4945     3.4945     0.0000
49 1     5.2418     5.2418     0.0000
50 1     5.2418     3.4945     1.7473
51 1     3.4945     5.2418     1.7473
52 1     3.4945     3.4945     3.4945
53 1     5.2418     5.2418     3.4945
54 1     5.2418     3.4945     5.2418
55 1     3.4945     5.2418     5.2418
56 1     3.4945     3.4945     6.9891
57 1     5.2418     5.2418     6.9891
58 1     5.2418     3.4945     8.7363
59 1     3.4945     5.2418     8.7363
60 1     3.4945     6.9891     0.0000
61 1     5.2418     8.7363     0.0000
62 1     5.2418     6.9891     1.7473
63 1     3.4945     8.7363     1.7473
64 1     3.4945     6.9891     3.4945
65 1     5.2418     8.7363     3.4945
66 1     5.2418     6.9891     5.2418
67 1     3.4945     8.7363     5.2418
68 1     3.4945     6.9891     6.9891
69 1     5.2418     8.7363     6.9891
70 1     5.2418     6.9891     8.7363
71 1     3.4945     8.7363     8.7363
72 1     6.9891     0.0000     0.0000
73 1     8.7363     1.7473     0.0000
74 1     8.7363     0.0000     1.7473
75 1     6.9891     1.7473     1.7473
76 1     6.9891     0.0000     3.4945
77 1     8.7363     1.7473     3.4945
78 1     8.7363     0.0000     5.2418
79 1     6.9891     1.7473     5.2418
80 1     6.9891     0.0000     6.9891
81 1     8.7363     1.7473     6.9891
82 1     8.7363     0.0000     8.7363
83 1     6.9891     1.7473     8.7363
84 1     6.9891     3.4945     0.0000
85 1     8.7363     5.2418     0.0000
86 1     8.7363     3.4945     1.7473
87 1     6.9891     5.2418     1.7473
88 1     6.9891     3.4945     3.4945
89 1     8.7363     5.2418     3.4945
90 1     8.7363     3.4945     5.2418
91 1     6.9891     5.2418     5.2418
92 1     6.9891     3.4945     6.9891
93 1     8.7363     5.2418     6.9891
94 1     8.7363     3.4945     8.7363
95 1     6.9891     5.2418     8.7363
96 1     6.9891     6.9891     0.0000
97 1     8.7363     8.7363     0.0000
98 1     8.7363     6.9891     1.7473
99 1     6.9891     8.7363     1.7473
100 1     6.9891     6.9891     3.4945
101 1     8.7363     8.7363     3.4945
102 1     8.7363     6.9891     5.2418
103 1     6.9891     8.7363     5.2418
104 1     6.9891     6.9891     6.9891
105 1     8.7363     8.7363     6.9891
106 1     8.7363     6.9891     8.7363
107 1     6.9891     8.7363     8.7363
