   2   2   0   0
  0.9563318E+01  0.3001819E-09  0.3001820E-09  0.3001819E-09  0.5000000E-15
  1.000000000000000E-004
  CAR 
 automatically generated by pyflamestk   
     44.07883308    -16.37071967  301      3.62800736      1.00000000
    -16.371  0.0000E+00  0.0000E+00
    -16.169  0.0000E+00  0.0000E+00
    -15.968  0.0000E+00  0.0000E+00
    -15.766  0.0000E+00  0.0000E+00
    -15.565  0.0000E+00  0.0000E+00
    -15.363  0.0000E+00  0.0000E+00
    -15.162  0.0000E+00  0.0000E+00
    -14.960  0.0000E+00  0.0000E+00
    -14.759  0.0000E+00  0.0000E+00
    -14.557  0.0000E+00  0.0000E+00
    -14.356  0.0000E+00  0.0000E+00
    -14.154  0.0000E+00  0.0000E+00
    -13.953  0.0000E+00  0.0000E+00
    -13.751  0.4451E-04  0.8968E-05
    -13.550  0.3042E+00  0.6131E-01
    -13.348  0.1096E-01  0.6351E-01
    -13.147  0.9247E+00  0.2498E+00
    -12.945  0.6893E+00  0.3887E+00
    -12.744  0.8150E+00  0.5530E+00
    -12.542  0.2547E+01  0.1066E+01
    -12.341  0.2912E+01  0.1653E+01
    -12.139  0.1722E+01  0.2000E+01
    -11.938  0.3618E-06  0.2000E+01
    -11.736  0.0000E+00  0.2000E+01
    -11.535  0.0000E+00  0.2000E+01
    -11.333  0.0000E+00  0.2000E+01
    -11.132  0.0000E+00  0.2000E+01
    -10.930  0.0000E+00  0.2000E+01
    -10.729  0.0000E+00  0.2000E+01
    -10.527  0.0000E+00  0.2000E+01
    -10.326  0.0000E+00  0.2000E+01
    -10.124  0.0000E+00  0.2000E+01
     -9.923  0.0000E+00  0.2000E+01
     -9.721  0.0000E+00  0.2000E+01
     -9.520  0.0000E+00  0.2000E+01
     -9.318  0.0000E+00  0.2000E+01
     -9.117  0.0000E+00  0.2000E+01
     -8.915  0.0000E+00  0.2000E+01
     -8.714  0.0000E+00  0.2000E+01
     -8.512  0.0000E+00  0.2000E+01
     -8.311  0.0000E+00  0.2000E+01
     -8.109  0.0000E+00  0.2000E+01
     -7.908  0.0000E+00  0.2000E+01
     -7.706  0.0000E+00  0.2000E+01
     -7.505  0.0000E+00  0.2000E+01
     -7.303  0.0000E+00  0.2000E+01
     -7.102  0.0000E+00  0.2000E+01
     -6.900  0.0000E+00  0.2000E+01
     -6.699  0.0000E+00  0.2000E+01
     -6.497  0.0000E+00  0.2000E+01
     -6.296  0.0000E+00  0.2000E+01
     -6.094  0.0000E+00  0.2000E+01
     -5.893  0.0000E+00  0.2000E+01
     -5.691  0.0000E+00  0.2000E+01
     -5.490  0.0000E+00  0.2000E+01
     -5.288  0.0000E+00  0.2000E+01
     -5.087  0.0000E+00  0.2000E+01
     -4.885  0.0000E+00  0.2000E+01
     -4.684  0.0000E+00  0.2000E+01
     -4.482  0.0000E+00  0.2000E+01
     -4.281  0.0000E+00  0.2000E+01
     -4.079  0.0000E+00  0.2000E+01
     -3.878  0.0000E+00  0.2000E+01
     -3.676  0.0000E+00  0.2000E+01
     -3.475  0.0000E+00  0.2000E+01
     -3.273  0.0000E+00  0.2000E+01
     -3.072  0.0000E+00  0.2000E+01
     -2.870  0.0000E+00  0.2000E+01
     -2.669  0.0000E+00  0.2000E+01
     -2.467  0.0000E+00  0.2000E+01
     -2.266  0.0000E+00  0.2000E+01
     -2.064  0.0000E+00  0.2000E+01
     -1.863  0.0000E+00  0.2000E+01
     -1.661  0.0000E+00  0.2000E+01
     -1.460  0.0000E+00  0.2000E+01
     -1.258  0.0000E+00  0.2000E+01
     -1.057  0.1524E-09  0.2000E+01
     -0.855  0.2596E+00  0.2052E+01
     -0.654  0.6731E+00  0.2188E+01
     -0.452  0.3177E+00  0.2252E+01
     -0.251  0.1547E+01  0.2564E+01
     -0.049  0.2351E+01  0.3037E+01
      0.152  0.2469E+01  0.3535E+01
      0.354  0.1021E+01  0.3741E+01
      0.555  0.4668E-01  0.3750E+01
      0.757  0.6502E-11  0.3750E+01
      0.958  0.2295E+00  0.3796E+01
      1.160  0.2674E+01  0.4335E+01
      1.361  0.8187E+00  0.4500E+01
      1.563  0.1102E-05  0.4500E+01
      1.764  0.1987E+01  0.4900E+01
      1.966  0.8057E+00  0.5063E+01
      2.167  0.1980E+01  0.5462E+01
      2.369  0.2616E+01  0.5989E+01
      2.570  0.3373E+01  0.6669E+01
      2.772  0.2567E+01  0.7186E+01
      2.973  0.1817E+01  0.7552E+01
      3.175  0.1603E+01  0.7875E+01
      3.376  0.5655E+00  0.7989E+01
      3.578  0.5484E-01  0.8000E+01
      3.779  0.0000E+00  0.8000E+01
      3.981  0.0000E+00  0.8000E+01
      4.182  0.0000E+00  0.8000E+01
      4.384  0.0000E+00  0.8000E+01
      4.585  0.0000E+00  0.8000E+01
      4.787  0.0000E+00  0.8000E+01
      4.988  0.0000E+00  0.8000E+01
      5.190  0.0000E+00  0.8000E+01
      5.391  0.0000E+00  0.8000E+01
      5.593  0.0000E+00  0.8000E+01
      5.794  0.0000E+00  0.8000E+01
      5.996  0.0000E+00  0.8000E+01
      6.197  0.0000E+00  0.8000E+01
      6.399  0.0000E+00  0.8000E+01
      6.600  0.0000E+00  0.8000E+01
      6.802  0.0000E+00  0.8000E+01
      7.003  0.0000E+00  0.8000E+01
      7.205  0.0000E+00  0.8000E+01
      7.406  0.0000E+00  0.8000E+01
      7.608  0.0000E+00  0.8000E+01
      7.809  0.0000E+00  0.8000E+01
      8.011  0.0000E+00  0.8000E+01
      8.212  0.0000E+00  0.8000E+01
      8.414  0.0000E+00  0.8000E+01
      8.615  0.2219E-08  0.8000E+01
      8.817  0.1587E+00  0.8032E+01
      9.018  0.1514E+00  0.8062E+01
      9.220  0.0000E+00  0.8062E+01
      9.421  0.0000E+00  0.8062E+01
      9.623  0.0000E+00  0.8062E+01
      9.824  0.0000E+00  0.8062E+01
     10.026  0.0000E+00  0.8062E+01
     10.227  0.7161E-07  0.8063E+01
     10.429  0.6273E+00  0.8189E+01
     10.630  0.3032E+00  0.8250E+01
     10.832  0.1554E-08  0.8250E+01
     11.033  0.1512E+00  0.8280E+01
     11.235  0.5770E+00  0.8397E+01
     11.436  0.5124E+00  0.8500E+01
     11.638  0.3983E-07  0.8500E+01
     11.839  0.5685E+00  0.8615E+01
     12.041  0.3621E+00  0.8687E+01
     12.242  0.9213E-03  0.8688E+01
     12.444  0.9253E+00  0.8874E+01
     12.645  0.6904E-01  0.8888E+01
     12.847  0.1799E+01  0.9251E+01
     13.048  0.9261E+00  0.9437E+01
     13.250  0.8886E+00  0.9616E+01
     13.451  0.4310E-01  0.9625E+01
     13.653  0.7446E+00  0.9775E+01
     13.854  0.7764E+00  0.9931E+01
     14.056  0.2152E+01  0.1037E+02
     14.257  0.4941E-01  0.1037E+02
     14.459  0.0000E+00  0.1038E+02
     14.660  0.6124E-12  0.1038E+02
     14.862  0.2112E+00  0.1042E+02
     15.063  0.3511E+01  0.1112E+02
     15.265  0.3689E-02  0.1113E+02
     15.466  0.1850E+01  0.1150E+02
     15.668  0.2378E+01  0.1198E+02
     15.869  0.1662E+01  0.1231E+02
     16.071  0.4163E-02  0.1231E+02
     16.272  0.1337E+01  0.1258E+02
     16.474  0.5194E+00  0.1269E+02
     16.675  0.1288E-07  0.1269E+02
     16.877  0.5543E-08  0.1269E+02
     17.078  0.8426E+00  0.1286E+02
     17.280  0.1178E+01  0.1309E+02
     17.481  0.1072E+01  0.1331E+02
     17.683  0.9530E-02  0.1331E+02
     17.884  0.7516E-06  0.1331E+02
     18.086  0.7600E+00  0.1347E+02
     18.287  0.1706E+00  0.1350E+02
     18.489  0.2531E-14  0.1350E+02
     18.690  0.1598E-01  0.1350E+02
     18.892  0.9144E+00  0.1369E+02
     19.093  0.1578E-03  0.1369E+02
     19.295  0.5715E-04  0.1369E+02
     19.496  0.6417E+00  0.1382E+02
     19.698  0.2135E+01  0.1425E+02
     19.899  0.1995E+01  0.1465E+02
     20.101  0.1079E+01  0.1487E+02
     20.302  0.1427E+01  0.1515E+02
     20.504  0.1396E+01  0.1544E+02
     20.705  0.9417E+00  0.1562E+02
     20.907  0.1209E+00  0.1565E+02
     21.108  0.8114E+00  0.1581E+02
     21.310  0.9304E+00  0.1600E+02
     21.511  0.9287E+00  0.1619E+02
     21.712  0.1698E+01  0.1653E+02
     21.914  0.1636E+00  0.1656E+02
     22.115  0.6054E-04  0.1656E+02
     22.317  0.9021E+00  0.1674E+02
     22.518  0.2844E-01  0.1675E+02
     22.720  0.8862E+00  0.1693E+02
     22.921  0.1877E+01  0.1731E+02
     23.123  0.3030E+00  0.1737E+02
     23.324  0.1586E+01  0.1769E+02
     23.526  0.7383E-05  0.1769E+02
     23.727  0.5661E+00  0.1780E+02
     23.929  0.9623E+00  0.1800E+02
     24.130  0.2256E-01  0.1800E+02
     24.332  0.3051E+00  0.1806E+02
     24.533  0.8791E+00  0.1824E+02
     24.735  0.6767E+00  0.1837E+02
     24.936  0.2342E-02  0.1838E+02
     25.138  0.1226E+01  0.1862E+02
     25.339  0.1260E-01  0.1863E+02
     25.541  0.1367E+01  0.1890E+02
     25.742  0.1344E+01  0.1917E+02
     25.944  0.7996E-01  0.1919E+02
     26.145  0.7843E+00  0.1935E+02
     26.347  0.1077E+01  0.1956E+02
     26.548  0.1240E+00  0.1959E+02
     26.750  0.2667E+01  0.2012E+02
     26.951  0.9016E-03  0.2013E+02
     27.153  0.9302E+00  0.2031E+02
     27.354  0.9298E+00  0.2050E+02
     27.556  0.3095E+00  0.2056E+02
     27.757  0.9013E-03  0.2056E+02
     27.959  0.0000E+00  0.2056E+02
     28.160  0.0000E+00  0.2056E+02
     28.362  0.0000E+00  0.2056E+02
     28.563  0.0000E+00  0.2056E+02
     28.765  0.8802E-04  0.2056E+02
     28.966  0.6195E+00  0.2069E+02
     29.168  0.2724E+01  0.2124E+02
     29.369  0.9944E+00  0.2144E+02
     29.571  0.5458E+00  0.2155E+02
     29.772  0.3889E+00  0.2162E+02
     29.974  0.6781E-07  0.2163E+02
     30.175  0.1593E+01  0.2195E+02
     30.377  0.1966E+01  0.2234E+02
     30.578  0.1218E+01  0.2259E+02
     30.780  0.8063E+00  0.2275E+02
     30.981  0.2067E-05  0.2275E+02
     31.183  0.2317E+00  0.2280E+02
     31.384  0.1629E+01  0.2312E+02
     31.586  0.4460E+00  0.2321E+02
     31.787  0.1580E+01  0.2353E+02
     31.989  0.2627E+01  0.2406E+02
     32.190  0.1186E+01  0.2430E+02
     32.392  0.1208E+01  0.2454E+02
     32.593  0.4279E+01  0.2541E+02
     32.795  0.2251E+00  0.2545E+02
     32.996  0.2719E+01  0.2600E+02
     33.198  0.9266E+00  0.2619E+02
     33.399  0.5694E+00  0.2630E+02
     33.601  0.1915E+01  0.2669E+02
     33.802  0.3281E-05  0.2669E+02
     34.004  0.0000E+00  0.2669E+02
     34.205  0.0000E+00  0.2669E+02
     34.407  0.0000E+00  0.2669E+02
     34.608  0.0000E+00  0.2669E+02
     34.810  0.5453E-09  0.2669E+02
     35.011  0.3445E+00  0.2676E+02
     35.213  0.2446E+01  0.2725E+02
     35.414  0.6915E-03  0.2725E+02
     35.616  0.7755E+00  0.2741E+02
     35.817  0.2782E+01  0.2797E+02
     36.019  0.6158E+00  0.2809E+02
     36.220  0.4793E+00  0.2819E+02
     36.422  0.6555E-03  0.2819E+02
     36.623  0.1896E+01  0.2857E+02
     36.825  0.8946E+00  0.2875E+02
     37.026  0.1947E+00  0.2879E+02
     37.228  0.4256E+00  0.2887E+02
     37.429  0.6809E+00  0.2901E+02
     37.631  0.1184E+01  0.2925E+02
     37.832  0.9256E+00  0.2944E+02
     38.034  0.7621E+00  0.2959E+02
     38.235  0.1100E+01  0.2981E+02
     38.437  0.8598E+00  0.2999E+02
     38.638  0.7070E-01  0.3000E+02
     38.840  0.1420E-11  0.3000E+02
     39.041  0.1409E+00  0.3003E+02
     39.243  0.3767E+01  0.3079E+02
     39.444  0.1242E+00  0.3081E+02
     39.646  0.0000E+00  0.3081E+02
     39.847  0.0000E+00  0.3081E+02
     40.049  0.1550E-15  0.3081E+02
     40.250  0.6384E-02  0.3081E+02
     40.452  0.9236E+00  0.3100E+02
     40.653  0.5664E-03  0.3100E+02
     40.855  0.5114E-11  0.3100E+02
     41.056  0.5438E-01  0.3101E+02
     41.258  0.1652E+01  0.3134E+02
     41.459  0.3256E+01  0.3200E+02
     41.661  0.2906E-03  0.3200E+02
     41.862  0.0000E+00  0.3200E+02
     42.064  0.0000E+00  0.3200E+02
     42.265  0.0000E+00  0.3200E+02
     42.467  0.0000E+00  0.3200E+02
     42.668  0.0000E+00  0.3200E+02
     42.870  0.0000E+00  0.3200E+02
     43.071  0.0000E+00  0.3200E+02
     43.273  0.0000E+00  0.3200E+02
     43.474  0.0000E+00  0.3200E+02
     43.676  0.0000E+00  0.3200E+02
     43.877  0.0000E+00  0.3200E+02
     44.079  0.0000E+00  0.3200E+02
