    2    2    1    1
  0.9563318E+01  0.3001819E-09  0.3001820E-09  0.3001819E-09  0.5000000E-15
  1.000000000000000E-004
  CAR 
 automatically generated by pyflamestk   
      8     10     16
 
  0.1250000E+00  0.1250000E+00  0.1250000E+00  0.3125000E-01
    1      -13.623013   1.000000
    2        2.485169   1.000000
    3        3.328380   1.000000
    4        3.328381   1.000000
    5        8.815549   0.000000
    6       17.414904   0.000000
    7       19.426733   0.000000
    8       19.426736   0.000000
    9       23.679565   0.000000
   10       23.679569   0.000000
   11       25.023904   0.000000
   12       27.458437   0.000000
   13       28.893273   0.000000
   14       28.893277   0.000000
   15       39.183446   0.000000
   16       41.089356   0.000000
 
  0.3750000E+00  0.1250000E+00  0.1250000E+00  0.9375000E-01
    1      -12.967984   1.000000
    2        0.295558   1.000000
    3        2.467190   1.000000
    4        3.022454   1.000000
    5       11.239080   0.000000
    6       15.360277   0.000000
    7       18.764829   0.000000
    8       20.429763   0.000000
    9       22.250773   0.000000
   10       24.484661   0.000000
   11       26.604964   0.000000
   12       31.269085   0.000000
   13       32.552954   0.000000
   14       33.411264   0.000000
   15       35.780563   0.000000
   16       39.086552   0.000000
 
 -0.3750000E+00  0.1250000E+00  0.1250000E+00  0.9375000E-01
    1      -12.530156   1.000000
    2       -0.834620   1.000000
    3        2.314027   1.000000
    4        2.688766   1.000000
    5       11.829114   0.000000
    6       15.579368   0.000000
    7       18.053606   0.000000
    8       19.869953   0.000000
    9       23.859185   0.000000
   10       26.115817   0.000000
   11       26.205905   0.000000
   12       32.484943   0.000000
   13       33.100233   0.000000
   14       33.433982   0.000000
   15       36.020235   0.000000
   16       37.724261   0.000000
 
 -0.1250000E+00  0.1250000E+00  0.1250000E+00  0.9375000E-01
    1      -13.258141   1.000000
    2        1.191015   1.000000
    3        2.961882   1.000000
    4        2.966573   1.000000
    5       10.412622   0.000000
    6       15.595268   0.000000
    7       19.558023   0.000000
    8       20.041120   0.000000
    9       21.215571   0.000000
   10       25.059613   0.000000
   11       27.062214   0.000000
   12       30.161766   0.000000
   13       30.445538   0.000000
   14       31.207714   0.000000
   15       37.426142   0.000000
   16       39.200947   0.000000
 
  0.3750000E+00  0.3750000E+00  0.1250000E+00  0.9375000E-01
    1      -12.731586   1.000000
    2        0.115045   1.000000
    3        2.264003   1.000000
    4        2.501602   1.000000
    5       12.351429   0.000000
    6       13.998437   0.000000
    7       17.313099   0.000000
    8       20.946468   0.000000
    9       21.400524   0.000000
   10       27.242477   0.000000
   11       30.347437   0.000000
   12       30.617666   0.000000
   13       32.529317   0.000000
   14       35.025005   0.000000
   15       36.678551   0.000000
   16       38.093184   0.000000
 
 -0.3750000E+00  0.3750000E+00  0.1250000E+00  0.1875000E+00
    1      -12.318656   1.000000
    2       -0.004022   1.000000
    3        0.999117   1.000000
    4        2.085043   1.000000
    5       13.870860   0.000000
    6       14.917408   0.000000
    7       15.708868   0.000000
    8       19.708216   0.000000
    9       23.159975   0.000000
   10       26.610724   0.000000
   11       30.172719   0.000000
   12       31.610968   0.000000
   13       32.866273   0.000000
   14       36.541669   0.000000
   15       39.110446   0.000000
   16       41.331126   0.000000
 
 -0.1250000E+00  0.3750000E+00  0.1250000E+00  0.1875000E+00
    1      -12.575520   1.000000
    2       -0.208620   1.000000
    3        1.745971   1.000000
    4        2.585565   1.000000
    5       12.709215   0.000000
    6       14.917605   0.000000
    7       17.082230   0.000000
    8       20.278909   0.000000
    9       22.844831   0.000000
   10       25.518804   0.000000
   11       29.055287   0.000000
   12       31.858257   0.000000
   13       32.433908   0.000000
   14       35.093624   0.000000
   15       35.739795   0.000000
   16       41.238661   0.000000
 
 -0.3750000E+00 -0.3750000E+00  0.1250000E+00  0.9375000E-01
    1      -12.355113   1.000000
    2       -0.370846   1.000000
    3        1.741168   1.000000
    4        2.204373   1.000000
    5       12.941707   0.000000
    6       13.622774   0.000000
    7       16.162976   0.000000
    8       21.653348   0.000000
    9       21.672447   0.000000
   10       29.116477   0.000000
   11       29.563614   0.000000
   12       32.141908   0.000000
   13       32.858466   0.000000
   14       38.007620   0.000000
   15       38.386223   0.000000
   16       41.316072   0.000000
 
  0.3750000E+00  0.3750000E+00  0.3750000E+00  0.3125000E-01
    1      -12.767702   1.000000
    2       -0.567092   1.000000
    3        2.881814   1.000000
    4        2.881815   1.000000
    5       11.034178   0.000000
    6       15.579877   0.000000
    7       19.663401   0.000000
    8       19.663404   0.000000
    9       24.256222   0.000000
   10       24.597702   0.000000
   11       24.597705   0.000000
   12       32.104835   0.000000
   13       33.441972   0.000000
   14       33.441975   0.000000
   15       37.043526   0.000000
   16       37.043532   0.000000
 
 -0.3750000E+00  0.3750000E+00  0.3750000E+00  0.9375000E-01
    1      -12.402303   1.000000
    2       -0.245620   1.000000
    3        1.106760   1.000000
    4        2.561206   1.000000
    5       13.190106   0.000000
    6       15.380891   0.000000
    7       16.277123   0.000000
    8       20.592921   0.000000
    9       22.661133   0.000000
   10       25.694165   0.000000
   11       29.277004   0.000000
   12       31.827043   0.000000
   13       32.257782   0.000000
   14       35.581741   0.000000
   15       37.459749   0.000000
   16       40.337493   0.000000
