# ['Al']

20 atoms
1 atom types

    0.0000     3.8057 xlo xhi
    0.0000     3.8057 ylo yhi
    0.0000    38.0570 zlo zhi

    0.0000    -0.0000     0.0000 xy xz yz

Atoms

1 1     0.0000     0.0000     0.0000
2 1     1.9029     1.9029     0.0000
3 1     1.9029     0.0000     1.9029
4 1     0.0000     1.9029     1.9029
5 1     0.0000     0.0000     3.8057
6 1     1.9029     1.9029     3.8057
7 1     1.9029     0.0000     5.7086
8 1     0.0000     1.9029     5.7086
9 1     0.0000     0.0000     7.6114
10 1     1.9029     1.9029     7.6114
11 1     1.9029     0.0000     9.5143
12 1     0.0000     1.9029     9.5143
13 1     0.0000     0.0000    11.4171
14 1     1.9029     1.9029    11.4171
15 1     1.9029     0.0000    13.3200
16 1     0.0000     1.9029    13.3200
17 1     0.0000     0.0000    15.2228
18 1     1.9029     1.9029    15.2228
19 1     1.9029     0.0000    17.1257
20 1     0.0000     1.9029    17.1257
