# ['Ni']

107 atoms
1 atom types

    0.0000     9.6563 xlo xhi
    0.0000     9.6563 ylo yhi
    0.0000     9.6563 zlo zhi

    0.0000    -0.0000    -0.0000 xy xz yz

Atoms

1 1     1.6094     1.6094     0.0000
2 1     1.6094     0.0000     1.6094
3 1     0.0000     1.6094     1.6094
4 1     0.0000     0.0000     3.2188
5 1     1.6094     1.6094     3.2188
6 1     1.6094     0.0000     4.8282
7 1     0.0000     1.6094     4.8282
8 1     0.0000     0.0000     6.4376
9 1     1.6094     1.6094     6.4376
10 1     1.6094     0.0000     8.0469
11 1     0.0000     1.6094     8.0469
12 1     0.0000     3.2188     0.0000
13 1     1.6094     4.8282     0.0000
14 1     1.6094     3.2188     1.6094
15 1     0.0000     4.8282     1.6094
16 1     0.0000     3.2188     3.2188
17 1     1.6094     4.8282     3.2188
18 1     1.6094     3.2188     4.8282
19 1     0.0000     4.8282     4.8282
20 1     0.0000     3.2188     6.4376
21 1     1.6094     4.8282     6.4376
22 1     1.6094     3.2188     8.0469
23 1     0.0000     4.8282     8.0469
24 1     0.0000     6.4376     0.0000
25 1     1.6094     8.0469     0.0000
26 1     1.6094     6.4376     1.6094
27 1     0.0000     8.0469     1.6094
28 1     0.0000     6.4376     3.2188
29 1     1.6094     8.0469     3.2188
30 1     1.6094     6.4376     4.8282
31 1     0.0000     8.0469     4.8282
32 1     0.0000     6.4376     6.4376
33 1     1.6094     8.0469     6.4376
34 1     1.6094     6.4376     8.0469
35 1     0.0000     8.0469     8.0469
36 1     3.2188     0.0000     0.0000
37 1     4.8282     1.6094     0.0000
38 1     4.8282     0.0000     1.6094
39 1     3.2188     1.6094     1.6094
40 1     3.2188     0.0000     3.2188
41 1     4.8282     1.6094     3.2188
42 1     4.8282     0.0000     4.8282
43 1     3.2188     1.6094     4.8282
44 1     3.2188     0.0000     6.4376
45 1     4.8282     1.6094     6.4376
46 1     4.8282     0.0000     8.0469
47 1     3.2188     1.6094     8.0469
48 1     3.2188     3.2188     0.0000
49 1     4.8282     4.8282     0.0000
50 1     4.8282     3.2188     1.6094
51 1     3.2188     4.8282     1.6094
52 1     3.2188     3.2188     3.2188
53 1     4.8282     4.8282     3.2188
54 1     4.8282     3.2188     4.8282
55 1     3.2188     4.8282     4.8282
56 1     3.2188     3.2188     6.4376
57 1     4.8282     4.8282     6.4376
58 1     4.8282     3.2188     8.0469
59 1     3.2188     4.8282     8.0469
60 1     3.2188     6.4376     0.0000
61 1     4.8282     8.0469     0.0000
62 1     4.8282     6.4376     1.6094
63 1     3.2188     8.0469     1.6094
64 1     3.2188     6.4376     3.2188
65 1     4.8282     8.0469     3.2188
66 1     4.8282     6.4376     4.8282
67 1     3.2188     8.0469     4.8282
68 1     3.2188     6.4376     6.4376
69 1     4.8282     8.0469     6.4376
70 1     4.8282     6.4376     8.0469
71 1     3.2188     8.0469     8.0469
72 1     6.4376     0.0000     0.0000
73 1     8.0469     1.6094     0.0000
74 1     8.0469     0.0000     1.6094
75 1     6.4376     1.6094     1.6094
76 1     6.4376     0.0000     3.2188
77 1     8.0469     1.6094     3.2188
78 1     8.0469     0.0000     4.8282
79 1     6.4376     1.6094     4.8282
80 1     6.4376     0.0000     6.4376
81 1     8.0469     1.6094     6.4376
82 1     8.0469     0.0000     8.0469
83 1     6.4376     1.6094     8.0469
84 1     6.4376     3.2188     0.0000
85 1     8.0469     4.8282     0.0000
86 1     8.0469     3.2188     1.6094
87 1     6.4376     4.8282     1.6094
88 1     6.4376     3.2188     3.2188
89 1     8.0469     4.8282     3.2188
90 1     8.0469     3.2188     4.8282
91 1     6.4376     4.8282     4.8282
92 1     6.4376     3.2188     6.4376
93 1     8.0469     4.8282     6.4376
94 1     8.0469     3.2188     8.0469
95 1     6.4376     4.8282     8.0469
96 1     6.4376     6.4376     0.0000
97 1     8.0469     8.0469     0.0000
98 1     8.0469     6.4376     1.6094
99 1     6.4376     8.0469     1.6094
100 1     6.4376     6.4376     3.2188
101 1     8.0469     8.0469     3.2188
102 1     8.0469     6.4376     4.8282
103 1     6.4376     8.0469     4.8282
104 1     6.4376     6.4376     6.4376
105 1     8.0469     8.0469     6.4376
106 1     8.0469     6.4376     8.0469
107 1     6.4376     8.0469     8.0469
