# ['Ni']

28 atoms
1 atom types

    0.0000     2.2760 xlo xhi
    0.0000     3.9422 ylo yhi
    0.0000    26.0170 zlo zhi

    0.0000     0.0000     0.0000 xy xz yz

Atoms

1 1     0.0000     0.0000     0.0000
2 1     1.1380     1.9711     0.0000
3 1     1.1380     0.6570     1.8584
4 1     0.0000     2.6281     1.8584
5 1     0.0000     1.3141     3.7167
6 1     1.1380     3.2851     3.7167
7 1     0.0000     0.0000     5.5751
8 1     1.1380     1.9711     5.5751
9 1     1.1380     0.6570     7.4334
10 1     0.0000     2.6281     7.4334
11 1     0.0000     1.3141     9.2918
12 1     1.1380     3.2851     9.2918
13 1     0.0000     0.0000    11.1502
14 1     1.1380     1.9711    11.1502
15 1     0.0000     1.3141    13.0085
16 1     1.1380     3.2851    13.0085
17 1     0.0000     0.0000    14.8669
18 1     1.1380     1.9711    14.8669
19 1     1.1380     0.6570    16.7252
20 1     0.0000     2.6281    16.7252
21 1     0.0000     1.3141    18.5836
22 1     1.1380     3.2851    18.5836
23 1     0.0000     0.0000    20.4420
24 1     1.1380     1.9711    20.4420
25 1     1.1380     0.6570    22.3003
26 1     0.0000     2.6281    22.3003
27 1     0.0000     1.3141    24.1587
28 1     1.1380     3.2851    24.1587
