LAMMPS (11 Aug 2017)
# ---- initialize simulations
clear
units metal
dimension 3
boundary p p p
atom_style atomic
atom_modify map array
# ---- create atoms
read_data /home/sullberg/repos/pypospack/examples/Ni__eam__born_exp_rose/01_preconditioning_3.5NN/rank_5/Ni_fcc_110_unit.lmps_min_all/lammps.structure
  triclinic box = (0 0 0) to (3.4851 2.4947 2.4947) with tilt (0 0 0)
  1 by 1 by 1 MPI processor grid
  reading atoms ...
  2 atoms
# ---- define interatomic potential
include potential.mod
mass 1 58.6934

group Ni type 1
2 atoms in group Ni

pair_style eam/alloy
pair_coeff * * /home/sullberg/repos/pypospack/examples/Ni__eam__born_exp_rose/01_preconditioning_3.5NN/rank_5/Ni_fcc_110_unit.lmps_min_all/Ni.eam.alloy Ni

neighbor 1.0 bin
neigh_modify every 1 delay 0 check yes
# ---- define settings
compute eng all pe/atom
compute eatoms all reduce sum c_eng
# ---- run minimization
reset_timestep 0
fix 1 all box/relax aniso 0.0 vmax 0.001
thermo 10
thermo_style custom step pe xhi xlo yhi ylo zhi xy xz yz press pxx pyy pzz pxy pxz pyz c_eatoms
min_style cg
minimize 1e-25 1e-25 5000 10000
Neighbor list info ...
  update every 1 steps, delay 0 steps, check yes
  max neighbors/atom: 2000, page size: 100000
  master list distance cutoff = 11
  ghost atom cutoff = 11
  binsize = 5.5, bins = 1 1 1
  1 neighbor lists, perpetual/occasional/extra = 1 0 0
  (1) pair eam/alloy, perpetual
      attributes: half, newton on
      pair build: half/bin/newton/tri
      stencil: half/bin/3d/newton/tri
      bin: standard
Per MPI rank memory allocation (min/avg/max) = 4.313 | 4.313 | 4.313 Mbytes
Step PotEng Xhi Xlo Yhi Ylo Zhi Xy Xz Yz Press Pxx Pyy Pzz Pxy Pxz Pyz c_eatoms 
       0   -11.750909       3.4851            0       2.4947            0       2.4947            0            0            0    69610.821    68606.542    70112.961    70112.961 0.0011315858 0.0011315858 -0.00044862527   -11.750909 
      10   -11.767714    3.5018336 -0.016733577    2.5071735   -0.0124735    2.5071735            0            0            0    14859.377    13811.356    15383.388    15383.388 0.0014140884 0.0014140884 -0.00051799818   -11.767714 
      20   -11.768776    3.4966218 -0.011521831    2.5142693 -0.019569341    2.5142693            0            0            0    758.48353   -913.96535     1594.708     1594.708  0.025787085  0.025787085 -0.0032562902   -11.768776 
      30   -11.769266    3.4793863 0.0057137172    2.5208098 -0.026109834    2.5208098            0            0            0    98.134424   -2485.1605    1389.7819    1389.7819   0.73861133   0.73861133 -0.028079009   -11.769266 
      40   -11.770911    3.4619608  0.023139217    2.5273246 -0.032624633    2.5273246            0            0            0    120.86813   -3068.7649    1715.6847    1715.6847    9.2794431    9.2794431  -0.14684511   -11.770911 
      50   -11.814624    3.4454993  0.039600747    2.5356715 -0.040971481    2.5356715            0            0            0    1552.9372    2540.5417    1059.1349    1059.1349    154.70626    154.70626   -1.1074478   -11.814624 
      60    -11.93977    3.4629248  0.022175247    2.5360537 -0.041353729    2.5360537            0            0            0    4520.6358     18352.76   -2395.4262   -2395.4262    432.58165    432.58165   -2.9214168    -11.93977 
      70   -12.024556    3.4803503 0.0047497471    2.5344222  -0.03972218    2.5344222            0            0            0     6754.031    27974.264   -3856.0854   -3856.0854    588.11535    588.11535   -4.1962866   -12.024556 
      80   -12.105073    3.4977758 -0.012675753    2.5327907 -0.038090741    2.5327907            0            0            0    8928.9487    36130.071   -4671.6125   -4671.6125     725.8435     725.8435   -5.5676777   -12.105073 
      90     -12.1832    3.5152013 -0.030101253    2.5312787 -0.036578668    2.5312787            0            0            0     11047.83    43112.215   -4984.3623   -4984.3623    854.48522    854.48522   -7.0998416     -12.1832 
     100   -12.259572    3.5326268 -0.047526753    2.5299343  -0.03523432    2.5299343            0            0            0    13094.205    49049.725   -4883.5551   -4883.5551    978.18849    978.18849   -8.8434179   -12.259572 
     110   -12.334441    3.5500523 -0.064952253    2.5287844 -0.034084409    2.5287844            0            0            0    15047.181    54024.501   -4441.4786   -4441.4786    1099.5878    1099.5878   -10.851253   -12.334441 
     120   -12.407906    3.5674778 -0.082377753    2.5278474 -0.033147352    2.5278474            0            0            0    16889.102    58104.615   -3718.6545   -3718.6545    1220.6797    1220.6797   -13.185096   -12.407906 
     130   -12.479998    3.5849033 -0.099803253    2.5271365 -0.032436457    2.5271365            0            0            0    18594.724    61346.202   -2781.0157   -2781.0157    1343.2006    1343.2006   -15.920605   -12.479998 
     140   -12.550727    3.6023288  -0.11722875    2.5266608 -0.031960828    2.5266608            0            0            0    20142.873    63806.763   -1689.0722   -1689.0722    1468.8036    1468.8036   -19.155288   -12.550727 
     150   -12.620089    3.6197543  -0.13465425    2.5264268 -0.031726765    2.5264268            0            0            0    21518.582    65547.599   -495.92636   -495.92636    1599.1536    1599.1536   -23.013965   -12.620089 
     160   -12.688073    3.6371798  -0.15207975    2.5264393 -0.031739317    2.5264393            0            0            0    22713.693     66633.91    753.58456    753.58456    1735.9864    1735.9864   -27.656597   -12.688073 
     170   -12.754668    3.6546053  -0.16950525    2.5267014 -0.032001428    2.5267014            0            0            0    23716.005     67127.06    2010.4779    2010.4779    1881.2204    1881.2204    -33.29398   -12.754668 
     180   -12.819866    3.6720308  -0.18693075    2.5272133 -0.032513332    2.5272133            0            0            0    24519.193    67091.384    3233.0975    3233.0975    2036.9984    2036.9984   -40.206287   -12.819866 
     190   -12.883661    3.6894563  -0.20435625    2.5279729 -0.033272927    2.5279729            0            0            0    25123.393    66593.305    4388.4375    4388.4375    2205.8021    2205.8021   -48.765599   -12.883661 
     200   -12.946044    3.7068818  -0.22178175    2.5289764 -0.034276419    2.5289764            0            0            0    25533.938    65699.172    5451.3205    5451.3205    2390.4498    2390.4498   -59.476062   -12.946044 
     210   -13.007003    3.7243073  -0.23920725    2.5302176 -0.035517605    2.5302176            0            0            0    25755.404    64471.274     6397.469     6397.469    2594.2871    2594.2871   -73.023842   -13.007003 
     220   -13.066526    3.7417328  -0.25663275    2.5316875 -0.036987473    2.5316875            0            0            0    25796.947    62970.459    7210.1913    7210.1913     2821.285     2821.285   -90.356576   -13.066526 
     230   -13.124597    3.7591583  -0.27405825    2.5333744 -0.038674389    2.5333744            0            0            0     25671.62    61254.855    7880.0023    7880.0023    3076.1964    3076.1964   -112.79708   -13.124597 
     240   -13.181193    3.7765838  -0.29148375    2.5352647 -0.040564741    2.5352647            0            0            0    25398.048    59379.843    8407.1508    8407.1508    3364.7227    3364.7227   -142.21091   -13.181193 
     250   -13.236289    3.7940093  -0.30890925     2.537343 -0.042643036     2.537343            0            0            0    24991.782    57393.421    8790.9622    8790.9622    3693.8149    3693.8149   -181.26369   -13.236289 
     260   -13.289864    3.8114348  -0.32633475    2.5395912  -0.04489123    2.5395912            0            0            0    24469.694    55338.011    9035.5352    9035.5352    4071.9894    4071.9894    -233.8131   -13.289864 
     270   -13.341899    3.8288603  -0.34376025    2.5419893 -0.047289344    2.5419893            0            0            0    23850.474    53250.696    9150.3629    9150.3629    4509.7353    4509.7353   -305.51831   -13.341899 
     280   -13.392393    3.8462858  -0.36118575    2.5445162 -0.049816229    2.5445162            0            0            0    23153.407    51162.558    9148.8312    9148.8312    5020.1129    5020.1129   -404.79081   -13.392393 
     290   -13.441372    3.8637113  -0.37861125    2.5471506 -0.052450606    2.5471506            0            0            0    22399.328     49098.58    9049.7026    9049.7026    5619.3924    5619.3924   -544.31645   -13.441372 
     300   -13.488908    3.8811368  -0.39603675    2.5498725 -0.055172513    2.5498725            0            0            0    21607.357    47077.042    8872.5142    8872.5142    6328.1248    6328.1248   -743.51129   -13.488908 
     310   -13.535155    3.8985623  -0.41346225    2.5526643 -0.057964281    2.5526643            0            0            0    20796.625    45110.087    8639.8946    8639.8946    7172.5048    7172.5048    -1032.556   -13.535155 
     320   -13.580398    3.9159878  -0.43088775     2.555513 -0.060812989     2.555513            0            0            0    19987.716    43203.689    8379.7304    8379.7304    8186.3006    8186.3006   -1459.1679   -13.580398 
     330   -13.625139    3.9334133  -0.44831325    2.5584142 -0.063714154    2.5584142            0            0            0    19204.373    41358.108    8127.5057    8127.5057    9413.6626    9413.6626   -2100.1023   -13.625139 
     340    -13.67025    3.9508388  -0.46573875    2.5613775 -0.066677528    2.5613775            0            0            0    18476.488    39567.106     7931.179     7931.179    10913.517    10913.517   -3081.1983    -13.67025 
     350   -13.717249    3.9682643  -0.48316425    2.5644372 -0.069737184    2.5644372            0            0            0    17847.483    37817.047    7862.7019    7862.7019    12766.225    12766.225   -4612.8161   -13.717249 
     360   -13.768826    3.9856898  -0.50058975    2.5676701 -0.072970069    2.5676701            0            0            0     17385.17    36083.568    8035.9717    8035.9717    15085.209    15085.209   -7054.8081   -13.768826 
     370    -13.82993    4.0031153  -0.51801525    2.5712316 -0.076531626    2.5712316            0            0            0    17209.546    34326.202    8651.2176    8651.2176    18037.486    18037.486    -11038.38    -13.82993 
     380   -13.910169    4.0205408  -0.53544075    2.5754336 -0.080733598    2.5754336            0            0            0    17555.486    32476.753    10094.852    10094.852    21883.087    21883.087   -17702.666   -13.910169 
     390   -14.029783    4.0379663  -0.55286625    2.5809296  -0.08622961    2.5809296            0            0            0    18933.813    30413.289    13194.075    13194.075    27052.461    27052.461   -29164.521   -14.029783 
     400   -14.236913    4.0553918  -0.57029175    2.5892322 -0.094532168    2.5892322            0            0            0    22625.515    27903.011    19986.767    19986.767    34286.439    34286.439   -49418.898   -14.236913 
     410   -14.579658    4.0701999  -0.58509987    2.6014798  -0.10677977    2.6014798            0            0            0    30255.839    25072.885    32847.316    32847.316    42923.014    42923.014   -78751.574   -14.579658 
     420    -14.95334    4.0789915  -0.59389149    2.6139533  -0.11925327    2.6139533            0            0            0    39405.293    22894.922    47660.479    47660.479    49291.027    49291.027   -103470.08    -14.95334 
     430   -15.338612    4.0848268  -0.59972683    2.6264268  -0.13172677    2.6264268            0            0            0    49162.996    21251.532    63118.728    63118.728    53520.048    53520.048   -121863.11   -15.338612 
     440   -15.726186    4.0890926  -0.60399264    2.6389003  -0.14420027    2.6389003            0            0            0      59000.9    20051.845    78475.427    78475.427    55915.581    55915.581   -134221.63   -15.726186 
     450   -16.108972    4.0924454   -0.6073454    2.6513738  -0.15667377    2.6513738            0            0            0    68536.918    19227.507    93191.623    93191.623    56770.388    56770.388   -141300.02   -16.108972 
     460   -16.481458    4.0952352  -0.61013522    2.6638473  -0.16914727    2.6638473            0            0            0    77495.839     18716.26    106885.63    106885.63      56363.5      56363.5   -143980.45   -16.481458 
     470   -16.839437    4.0976654  -0.61256541    2.6763208  -0.18162077    2.6763208            0            0            0    85680.909    18457.894    119292.42    119292.42    54956.692    54956.692      -143139   -16.839437 
     480   -17.179859     4.099862  -0.61476197    2.6887943  -0.19409427    2.6887943            0            0            0    92969.825    18396.516    130256.48    130256.48    52786.262    52786.262   -139578.29   -17.179859 
     490   -17.500703    4.1019069  -0.61680687    2.7012678  -0.20656777    2.7012678            0            0            0    99289.806    18479.988    139694.71    139694.71    50062.312    50062.312   -134007.41   -17.500703 
     500   -17.800843    4.1038555  -0.61875548    2.7137413  -0.21904127    2.7137413            0            0            0    104601.64    18660.173    147572.38    147572.38    46968.825    46968.825   -127037.72   -17.800843 
     510   -18.079887    4.1057463   -0.6206463    2.7262148  -0.23151477    2.7262148            0            0            0    108912.46    18897.463    153919.96    153919.96    43656.778    43656.778   -119168.66   -18.079887 
     520   -18.338057    4.1076068  -0.62250675    2.7386883  -0.24398827    2.7386883            0            0            0    112245.23    19157.112    158789.29    158789.29     40252.45     40252.45   -110810.93   -18.338057 
     530   -18.576049    4.1094568  -0.62435676    2.7511618  -0.25646177    2.7511618            0            0            0    114647.01    19411.767    162264.64    162264.64    36854.938    36854.938   -102285.39   -18.576049 
     540   -18.794881     4.111311    -0.626211    2.7636353  -0.26893527    2.7636353            0            0            0    116177.95    19640.221    164446.82    164446.82    33540.556    33540.556   -93838.136   -18.794881 
     550   -18.995815    4.1131805  -0.62808049    2.7761088  -0.28140877    2.7761088            0            0            0    116909.23    19827.178    165450.26    165450.26    30364.968    30364.968    -85649.82   -18.995815 
     560   -19.180259    4.1150735  -0.62997355    2.7885823  -0.29388227    2.7885823            0            0            0    116906.22    19960.125    165379.27    165379.27     27371.35     27371.35   -77858.392   -19.180259 
     570    -19.34965    4.1169966  -0.63189659    2.8010558  -0.30635577    2.8010558            0            0            0    116250.47    20033.317    164359.04    164359.04    24583.623    24583.623   -70545.992    -19.34965 
     580   -19.505434    4.1189546   -0.6338546    2.8135293  -0.31882927    2.8135293            0            0            0     115029.4    20045.645    162521.28    162521.28     22011.91     22011.91   -63754.205   -19.505434 
     590   -19.648995    4.1209515  -0.63585154    2.8260028  -0.33130277    2.8260028            0            0            0    113303.15    19993.702    159957.87    159957.87    19667.621    19667.621    -57522.12   -19.648995 
     600   -19.781639    4.1229906  -0.63789059    2.8384763  -0.34377627    2.8384763            0            0            0    111154.79    19881.258    156791.55    156791.55    17544.733    17544.733   -51842.908   -19.781639 
     610   -19.904555    4.1250743  -0.63997435    2.8509498  -0.35624977    2.8509498            0            0            0    108653.57    19711.884    153124.42    153124.42    15635.876    15635.876   -46703.442   -19.904555 
     620   -20.018811     4.127205  -0.64210503    2.8634233  -0.36872327    2.8634233            0            0            0    105863.96    19490.259    149050.81    149050.81    13930.035    13930.035   -42079.701   -20.018811 
     630   -20.125363    4.1293846  -0.64428455    2.8758968  -0.38119677    2.8758968            0            0            0    102841.96    19221.081     144652.4     144652.4    12415.207    12415.207   -37943.737   -20.125363 
     640   -20.225054    4.1316146  -0.64651461    2.8883703  -0.39367027    2.8883703            0            0            0    99637.999    18909.393     140002.3     140002.3    11078.041    11078.041   -34263.339   -20.225054 
     650   -20.318617    4.1338967  -0.64879675    2.9008438  -0.40614377    2.9008438            0            0            0    96313.391    18563.777     135188.2     135188.2     9897.072     9897.072   -30986.076   -20.318617 
     660   -20.406654    4.1362325  -0.65113248    2.9133173  -0.41861727    2.9133173            0            0            0    92915.857    18191.151    130278.21    130278.21    8854.1517    8854.1517   -28067.195   -20.406654 
     670   -20.489703    4.1386232  -0.65352322    2.9257908  -0.43109077    2.9257908            0            0            0    89464.381    17793.193    125299.98    125299.98    7942.4334    7942.4334   -25488.772   -20.489703 
     680   -20.568237    4.1410704  -0.65597037    2.9382643  -0.44356427    2.9382643            0            0            0    85994.485    17375.731    120303.86    120303.86    7145.9336    7145.9336   -23210.751   -20.568237 
     690    -20.64265    4.1435753  -0.65847531    2.9507378  -0.45603777    2.9507378            0            0            0    82543.811    16945.677    115342.88    115342.88    6446.2896    6446.2896    -21187.38    -20.64265 
     700   -20.713272    4.1461395  -0.66103946    2.9632113  -0.46851127    2.9632113            0            0            0    79134.623    16507.171    110448.35    110448.35    5831.2682    5831.2682   -19387.792   -20.713272 
     710   -20.780389    4.1487643  -0.66366426    2.9756848  -0.48098477    2.9756848            0            0            0    75783.911    16063.562    105644.09    105644.09    5290.4464    5290.4464   -17785.492   -20.780389 
     720   -20.844254    4.1514512  -0.66635117    2.9881583  -0.49345827    2.9881583            0            0            0    72506.036    15617.916     100950.1     100950.1    4814.1325    4814.1325   -16355.824   -20.844254 
     730   -20.905082    4.1542017  -0.66910168    3.0006318  -0.50593177    3.0006318            0            0            0    69313.372    15173.094    96383.511    96383.511    4393.1904    4393.1904   -15075.587   -20.905082 
     740   -20.963066    4.1570173  -0.67191729    3.0131053  -0.51840527    3.0131053            0            0            0    66214.657    14731.334    91956.318    91956.318    4019.9916    4019.9916   -13925.326   -20.963066 
     750   -21.018376    4.1598996  -0.67479956    3.0255788  -0.53087877    3.0255788            0            0            0    63216.214    14294.479    87677.082    87677.082    3687.9032    3687.9032   -12888.096   -21.018376 
     760   -21.071164      4.16285  -0.67775005    3.0380523  -0.54335227    3.0380523            0            0            0    60322.151    13863.979    83551.238    83551.238    3391.2671    3391.2671   -11949.324   -21.071164 
     770   -21.121568    4.1658704  -0.68077035    3.0505258  -0.55582577    3.0505258            0            0            0    57534.641    13440.916    79581.504    79581.504    3125.3705    3125.3705   -11096.837   -21.121568 
     780   -21.169712    4.1689621   -0.6838621    3.0629993  -0.56829927    3.0629993            0            0            0    54854.846    13026.192    75769.173    75769.173    2886.0194    2886.0194   -10319.791   -21.169712 
     790   -21.215712    4.1721269  -0.68702691    3.0754728  -0.58077277    3.0754728            0            0            0     52282.65    12620.464    72113.744    72113.744      2669.72      2669.72   -9609.0696   -21.215712 
     800   -21.259674    4.1753664  -0.69026644    3.0879463  -0.59324627    3.0879463            0            0            0    49816.926    12224.157    68613.311    68613.311    2473.5412    2473.5412   -8957.0114   -21.259674 
     810   -21.301695    4.1786824  -0.69358236    3.1004198  -0.60571977    3.1004198            0            0            0    47455.785    11837.523    65264.917    65264.917    2295.0313    2295.0313   -8357.1555   -21.301695 
     820   -21.341868    4.1820763  -0.69697632    3.1128933  -0.61819327    3.1128933            0            0            0    45196.803    11460.704    62064.853    62064.853    2132.1271    2132.1271   -7804.0097   -21.341868 
     830   -21.380279      4.18555  -0.70045002    3.1253668  -0.63066677    3.1253668            0            0            0    43037.164    11093.737    59008.877    59008.877    1983.0804    1983.0804   -7292.8854   -21.380279 
     840   -21.417009    4.1891051  -0.70400511    3.1378403  -0.64314027    3.1378403            0            0            0    40973.783    10736.576    56092.386    56092.386    1846.3974    1846.3974   -6819.7051   -21.417009 
     850   -21.452135    4.1927433  -0.70764327    3.1503138  -0.65561377    3.1503138            0            0            0    39003.443    10389.134    53310.597    53310.597    1720.7787    1720.7787   -6380.9064   -21.452135 
     860    -21.48573    4.1964662  -0.71136617    3.1627873  -0.66808727    3.1627873            0            0            0    37122.742    10051.263    50658.481    50658.481    1605.1441    1605.1441   -5973.4772    -21.48573 
     870   -21.517863    4.2002755  -0.71517548    3.1752608  -0.68056077    3.1752608            0            0            0    35328.271    9722.8001    48131.007    48131.007    1498.5448    1498.5448   -5594.7626   -21.517863 
     880   -21.548599    4.2041728  -0.71907284    3.1877343  -0.69303427    3.1877343            0            0            0    33616.621     9403.547    45723.158    45723.158    1400.1321    1400.1321    -5242.358   -21.548599 
     890      -21.578    4.2081599   -0.7230599    3.2002078  -0.70550777    3.2002078            0            0            0      31984.5    9093.3495    43430.075    43430.075    1309.1578    1309.1578   -4914.1212      -21.578 
     900   -21.606126    4.2122383   -0.7271383    3.2126813  -0.71798127    3.2126813            0            0            0     30428.59    8791.9806    41246.894    41246.894    1224.9574    1224.9574    -4608.131   -21.606126 
     910   -21.633033    4.2164096  -0.73130964    3.2251548  -0.73045477    3.2251548            0            0            0    28945.629    8499.1968    39168.845    39168.845    1146.9365    1146.9365   -4322.6525   -21.633033 
     920   -21.658776    4.2206755  -0.73557549    3.2376283  -0.74292827    3.2376283            0            0            0    27532.474    8214.7768    37191.322    37191.322     1074.562     1074.562   -4056.1084   -21.658776 
     930   -21.683405    4.2250374  -0.73993741    3.2501018  -0.75540177    3.2501018            0            0            0    26186.085    7938.5082    35309.874    35309.874    1007.3543    1007.3543   -3807.0714   -21.683405 
     940    -21.70697    4.2294969  -0.74439693    3.2625753  -0.76787527    3.2625753            0            0            0    24903.526    7670.1862    33520.196    33520.196    944.87908    944.87908   -3574.2516    -21.70697 
     950   -21.729517    4.2340555  -0.74895551    3.2750488  -0.78034877    3.2750488            0            0            0    23681.951    7409.5988    31818.126    31818.126    886.75427    886.75427   -3356.4783   -21.729517 
     960   -21.751091    4.2387146  -0.75361463    3.2875223  -0.79282227    3.2875223            0            0            0    22518.602     7156.532    30199.637    30199.637     832.6327     832.6327   -3152.6629   -21.751091 
     970   -21.771734    4.2434757  -0.75837567    3.2999958  -0.80529577    3.2999958            0            0            0    21410.844    6910.7892    28660.871    28660.871    782.19619    782.19619   -2961.8168   -21.771734 
     980   -21.791488      4.24834  -0.76324001    3.3124693  -0.81776927    3.3124693            0            0            0    20356.146    6672.1859    27198.126    27198.126      735.164      735.164   -2783.0337   -21.791488 
     990   -21.810391     4.253309  -0.76820896    3.3249428  -0.83024277    3.3249428            0            0            0    19352.074    6440.5262    25807.848    25807.848     691.2776     691.2776   -2615.4765   -21.810391 
    1000    -21.82848    4.2583838  -0.77328378    3.3374163  -0.84271627    3.3374163            0            0            0    18396.286    6215.6128    24486.623    24486.623    650.28666    650.28666   -2458.3763    -21.82848 
    1010   -21.845791    4.2635657  -0.77846568    3.3498898  -0.85518977    3.3498898            0            0            0     17486.53    5997.2674    23231.162    23231.162    611.97348    611.97348   -2311.0417   -21.845791 
    1020   -21.862358    4.2688558  -0.78375579    3.3623633  -0.86766327    3.3623633            0            0            0    16620.664    5785.3184    22038.337    22038.337     576.1379     576.1379   -2172.8184   -21.862358 
    1030   -21.878212    4.2742552  -0.78915519    3.3748368  -0.88013677    3.3748368            0            0            0    15796.643    5579.6048    20905.162    20905.162      542.591      542.591   -2043.0973   -21.878212 
    1040   -21.893385    4.2797649  -0.79466491    3.3873103  -0.89261027    3.3873103            0            0            0    15012.495    5379.9576    19828.763    19828.763    511.17545    511.17545   -1921.3293   -21.893385 
    1050   -21.907907    4.2853859  -0.80028587    3.3997838  -0.90508377    3.3997838            0            0            0    14266.344    5186.2217    18806.405    18806.405    481.73826    481.73826   -1806.9972   -21.907907 
    1060   -21.921805     4.291119  -0.80601897    3.4122573  -0.91755727    3.4122573            0            0            0    13556.434    4998.2753    17835.513    17835.513    454.13988    454.13988   -1699.6232   -21.921805 
    1070   -21.935108     4.296965  -0.81186499    3.4247308  -0.93003077    3.4247308            0            0            0    12881.013     4815.945    16913.546    16913.546    428.25154    428.25154   -1598.7616   -21.935108 
    1080   -21.947839    4.3029247  -0.81782467    3.4372043  -0.94250427    3.4372043            0            0            0    12238.456     4639.088     16038.14     16038.14    403.95367    403.95367   -1504.0086   -21.947839 
    1090   -21.960025    4.3089986  -0.82389864    3.4496778  -0.95497777    3.4496778            0            0            0    11627.193    4467.5674    15207.006    15207.006    381.13691    381.13691   -1414.9665   -21.960025 
    1100   -21.971689    4.3151874  -0.83008744    3.4621513  -0.96745127    3.4621513            0            0            0    11045.736    4301.2525    14417.977    14417.977    359.70033    359.70033   -1331.2761   -21.971689 
    1110   -21.982852    4.3214915  -0.83639154    3.4746248  -0.97992477    3.4746248            0            0            0    10492.664     4140.017    13668.987    13668.987    339.55115    339.55115    -1252.604   -21.982852 
    1120   -21.993538    4.3279113  -0.84281131    3.4870983  -0.99239827    3.4870983            0            0            0    9966.6449    3983.7442    12958.095    12958.095    320.60766    320.60766   -1178.6391   -21.993538 
    1130   -22.003766     4.334447  -0.84934704    3.4995718   -1.0048718    3.4995718            0            0            0    9466.3933    3832.3106    12283.435    12283.435    302.78779    302.78779   -1109.0915   -22.003766 
    1140   -22.013556    4.3410989  -0.85599891    3.5120453   -1.0173453    3.5120453            0            0            0    8990.6472    3685.5993    11643.171    11643.171    286.01572    286.01572   -1043.6877   -22.013556 
    1150   -22.022927     4.347867  -0.86276704    3.5245188   -1.0298188    3.5245188            0            0            0    8538.2341    3543.4981    11035.602    11035.602    270.22335    270.22335   -982.17369   -22.022927 
    1160   -22.031896    4.3547514  -0.86965143    3.5369923   -1.0422923    3.5369923            0            0            0    8108.0428     3405.898    10459.115    10459.115    255.34785    255.34785   -924.32079   -22.031896 
    1170   -22.040482     4.361752  -0.87665202    3.5494658   -1.0547658    3.5494658            0            0            0    7699.0112    3272.6983    9912.1676    9912.1676     241.3263     241.3263    -869.9031   -22.040482 
    1180     -22.0487    4.3688686  -0.88376864    3.5619393   -1.0672393    3.5619393            0            0            0    7310.1136    3143.7896    9393.2757    9393.2757    228.10864    228.10864   -818.70704     -22.0487 
    1190   -22.056566     4.376101  -0.89100103    3.5744128   -1.0797128    3.5744128            0            0            0    6940.3817    3019.0697    8901.0377    8901.0377     215.6453     215.6453   -770.53821   -22.056566 
    1200   -22.064096    4.3834488  -0.89834884    3.5868863   -1.0921863    3.5868863            0            0            0    6588.8936    2898.4392    8434.1207    8434.1207    203.88945    203.88945   -725.21463   -22.064096 
    1210   -22.071303    4.3909116  -0.90581163    3.5993598   -1.1046598    3.5993598            0            0            0    6254.7711     2781.801    7991.2562    7991.2562    192.79755    192.79755    -682.5657   -22.071303 
    1220   -22.078201    4.3984889  -0.91338888    3.6118333   -1.1171333    3.6118333            0            0            0    5937.1778    2669.0594    7571.2369    7571.2369    182.32905    182.32905   -642.43149   -22.078201 
    1230   -22.084803      4.40618  -0.92107997    3.6243068   -1.1296068    3.6243068            0            0            0    5635.3225    2560.1207    7172.9235    7172.9235    172.44623    172.44623   -604.66151   -22.084803 
    1240   -22.091123    4.4139842  -0.92888418    3.6367803   -1.1420803    3.6367803            0            0            0    5348.4402    2454.8927     6795.214     6795.214      163.114      163.114   -569.11559   -22.091123 
    1250   -22.097171    4.4219007  -0.93680073    3.6492538   -1.1545538    3.6492538            0            0            0    5075.8152    2353.2848    6437.0804    6437.0804    154.29962    154.29962   -535.65117   -22.097171 
    1260    -22.10296    4.4299287  -0.94482873    3.6617273   -1.1670273    3.6617273            0            0            0    4816.7484    2255.2073     6097.519     6097.519    145.97226    145.97226   -504.15584    -22.10296 
    1270   -22.108501    4.4380672  -0.95296723    3.6742008   -1.1795008    3.6742008            0            0            0    4570.5836    2160.5721    5775.5893    5775.5893    138.10328    138.10328   -474.51282   -22.108501 
    1280   -22.113803    4.4463152  -0.96121523    3.6866743   -1.1919743    3.6866743            0            0            0    4336.6955    2069.2919    5470.3973    5470.3973    130.66593    130.66593   -446.61251   -22.113803 
    1290   -22.118878    4.4546716   -0.9695716    3.6991478   -1.2044478    3.6991478            0            0            0    4114.4885    1981.2807    5181.0924    5181.0924    123.63522    123.63522   -420.35195   -22.118878 
    1300   -22.123734    4.4631352   -0.9780352    3.7116213   -1.2169213    3.7116213            0            0            0    3903.3952    1896.4534    4906.8661    4906.8661    116.98774    116.98774   -395.63439   -22.123734 
    1310   -22.128381    4.4717048  -0.98660477    3.7240948   -1.2293948    3.7240948            0            0            0    3702.8753    1814.7262    4646.9498    4646.9498    110.70161    110.70161   -372.36888   -22.128381 
    1320   -22.132828     4.480379  -0.99527903    3.7365683   -1.2418683    3.7365683            0            0            0    3512.4139    1736.0159    4400.6128    4400.6128    104.75629    104.75629   -350.46993   -22.132828 
    1330   -22.137084    4.4891566   -1.0040566    3.7490418   -1.2543418    3.7490418            0            0            0    3331.5229    1660.2405    4167.1642    4167.1642    99.132554    99.132554   -329.85715   -22.137084 
    1340   -22.141155     4.498036    -1.012936    3.7615153   -1.2668153    3.7615153            0            0            0    3159.7438    1587.3189    3945.9563    3945.9563    93.812609    93.812609   -310.45547   -22.141155 
    1350   -22.145051    4.5070159   -1.0219159    3.7739888   -1.2792888    3.7739888            0            0            0    2996.6196    1517.1713    3736.3438    3736.3438    88.779216    88.779216   -292.19315   -22.145051 
    1360   -22.148778    4.5160946   -1.0309946    3.7864623   -1.2917623    3.7864623            0            0            0    2841.7267    1449.7182    3537.7309    3537.7309    84.016453    84.016453   -275.00327   -22.148778 
    1370   -22.152344    4.5252705   -1.0401705    3.7989358   -1.3042358    3.7989358            0            0            0    2694.6616    1384.8816    3349.5516    3349.5516    79.509363    79.509363   -258.82289   -22.152344 
    1380   -22.155755    4.5345422   -1.0494422    3.8114093   -1.3167093    3.8114093            0            0            0      2555.04    1322.5841     3171.268     3171.268    75.243883    75.243883   -243.59279   -22.155755 
    1390   -22.159019    4.5439079   -1.0588079    3.8238828   -1.3291828    3.8238828            0            0            0     2422.496    1262.7494    3002.3693    3002.3693    71.206779    71.206779   -229.25722   -22.159019 
    1400    -22.16214     4.553366    -1.068266    3.8363563   -1.3416563    3.8363563            0            0            0     2296.681    1205.3023    2842.3704    2842.3704    67.385596    67.385596   -215.76374    -22.16214 
    1410   -22.165126    4.5629147   -1.0778147    3.8488298   -1.3541298    3.8488298            0            0            0    2177.2635     1150.169    2690.8107    2690.8107    63.768332    63.768332   -203.06272   -22.165126 
    1420   -22.167982    4.5725523   -1.0874523    3.8613033   -1.3666033    3.8613033            0            0            0    2063.9289    1097.2783    2547.2543    2547.2543    60.342122    60.342122   -191.10608   -22.167982 
    1430   -22.170713    4.5822771   -1.0971771    3.8737768   -1.3790768    3.8737768            0            0            0    1956.3758    1046.5558    2411.2857    2411.2857    57.098877    57.098877   -179.85234   -22.170713 
    1440   -22.173325    4.5920872   -1.1069872    3.8862503   -1.3915503    3.8862503            0            0            0    1854.3205    997.93099    2282.5153    2282.5153    54.028807    54.028807   -169.26064   -22.173325 
    1450   -22.175823    4.6019809   -1.1168809    3.8987238   -1.4040238    3.8987238            0            0            0    1757.4852    951.33423    2160.5607    2160.5607    51.122503    51.122503   -159.29157   -22.175823 
    1460   -22.178211    4.6119563   -1.1268563    3.9111973   -1.4164973    3.9111973            0            0            0    1665.6103    906.69724    2045.0668    2045.0668    48.371194    48.371194   -149.90863   -22.178211 
    1470   -22.180495    4.6220117   -1.1369117    3.9236708   -1.4289708    3.9236708            0            0            0    1578.4484    863.95298    1935.6961    1935.6961    45.766598    45.766598   -141.07745   -22.180495 
    1480   -22.182679    4.6321451   -1.1470451    3.9361443   -1.4414443    3.9361443            0            0            0    1495.7644    823.03571    1832.1287    1832.1287     43.30089     43.30089   -132.76568   -22.182679 
    1490   -22.184766    4.6423549   -1.1572549    3.9486178   -1.4539178    3.9486178            0            0            0     1417.336    783.88272    1734.0626    1734.0626    40.968638    40.968638   -124.94101   -22.184766 
    1500   -22.186762    4.6526391   -1.1675391    3.9610913   -1.4663913    3.9610913            0            0            0    1342.9485    746.42936    1641.2081    1641.2081    38.761067    38.761067   -117.57646   -22.186762 
    1510    -22.18867     4.662996    -1.177896    3.9735648   -1.4788648    3.9735648            0            0            0    1272.3987    710.61363    1553.2913    1553.2913    36.671188    36.671188   -110.64536    -22.18867 
    1520   -22.190493    4.6734238   -1.1883238    3.9860383   -1.4913383    3.9860383            0            0            0    1205.4937    676.37529    1470.0528    1470.0528    34.692764    34.692764   -104.12227   -22.190493 
    1530   -22.192236    4.6839206   -1.1988206    3.9985118   -1.5038118    3.9985118            0            0            0    1142.0497    643.65552    1391.2468    1391.2468    32.819896    32.819896   -97.983236   -22.192236 
    1540   -22.193901    4.6944847   -1.2093847    4.0109853   -1.5162853    4.0109853            0            0            0    1081.8921    612.39693    1316.6397    1316.6397       31.047       31.047   -92.205716   -22.193901 
    1550   -22.195493    4.7051143   -1.2200143    4.0234588   -1.5287588    4.0234588            0            0            0    1024.8573    582.54656    1246.0127    1246.0127    29.368612    29.368612   -86.771017   -22.195493 
    1560   -22.197014    4.7158077   -1.2307077    4.0359323   -1.5412323    4.0359323            0            0            0      970.786    554.04852    1179.1547    1179.1547    27.779817    27.779817   -81.658018   -22.197014 
    1570   -22.198468    4.7265631   -1.2414631    4.0484058   -1.5537058    4.0484058            0            0            0    919.52612    526.84775    1115.8653    1115.8653    26.275994    26.275994   -76.846118   -22.198468 
    1580   -22.199856    4.7373788   -1.2522788    4.0608793   -1.5661793    4.0608793            0            0            0    870.93477    500.89278    1055.9558    1055.9558    24.852651    24.852651   -72.317626   -22.199856 
    1590   -22.201183    4.7482532   -1.2631532    4.0733528   -1.5786528    4.0733528            0            0            0    824.87725    476.13493    999.24842    999.24842    23.505536    23.505536    -68.05589   -22.201183 
    1600   -22.202451    4.7591847   -1.2740847    4.0858263   -1.5911263    4.0858263            0            0            0    781.23791    452.54042    945.58665    945.58665    22.230804    22.230804   -64.045592   -22.202451 
    1610   -22.203662    4.7701717   -1.2850717    4.0982998   -1.6035998    4.0982998            0            0            0    739.87843    430.04447    894.79541    894.79541    21.023801    21.023801   -60.270382   -22.203662 
    1620   -22.204818    4.7812126   -1.2961126    4.1107733   -1.6160733    4.1107733            0            0            0    700.71917    408.61531     846.7711     846.7711    19.855223    19.855223   -56.667811   -22.204818 
    1630   -22.205923    4.7923068   -1.3072068    4.1232468   -1.6285468    4.1232468            0            0            0    667.02317    389.46432     805.8026     805.8026    16.370417    16.370417   -48.798941   -22.205923 
    1640   -22.206979    4.8034548   -1.3183548    4.1357203   -1.6410203    4.1357203            0            0            0    647.04699    375.69632    782.72232    782.72232    4.6943319    4.6943319   -25.677337   -22.206979 
    1650   -22.207986    4.8146485   -1.3295485    4.1481938   -1.6534938    4.1481938            0            0            0    617.59174    358.66633    747.05444    747.05444   0.95852338   0.95852338   -17.632465   -22.207986 
    1660   -22.208948    4.8258925   -1.3407925    4.1606673   -1.6659673    4.1606673            0            0            0    598.46737    345.78726    724.80743    724.80743   -8.7763196   -8.7763196     1.474774   -22.208948 
    1670   -22.209866      4.83718     -1.35208    4.1731408   -1.6784408    4.1731408            0            0            0    571.95828    330.37013    692.75235    692.75235   -12.129898   -12.129898    8.5438074   -22.209866 
    1680   -22.210741    4.8484917   -1.3633917    4.1856143   -1.6909143    4.1856143            0            0            0     477.7782    289.24168    572.04646    572.04646    33.531268    33.531268   -75.145776   -22.210741 
    1690    -22.21158    4.8598666   -1.3747666    4.1980878   -1.7033878    4.1980878            0            0            0    452.72755    274.65517    541.76374    541.76374    31.521151    31.521151   -70.415378    -22.21158 
    1700   -22.212246    4.8694173   -1.3843173    4.2085337   -1.7138337    4.2085337            0            0            0    405.42661     252.3877    481.94607    481.94607    49.354935    49.354935   -102.36972   -22.212246 
    1710    -22.21282    4.8779022   -1.3928022    4.2177793   -1.7230793    4.2177793            0            0            0    388.04306    242.23347    460.94785    460.94785    48.358033    48.358033   -99.764699    -22.21282 
    1720   -22.213396    4.8868074   -1.4017074    4.2274177   -1.7327177    4.2274177            0            0            0    492.09323    279.57851    598.35059    598.35059   -39.338211   -39.338211    61.232751   -22.213396 
    1730    -22.21391    4.8949659   -1.4098659     4.236264    -1.741564     4.236264            0            0            0    470.91169    268.47731    572.12888    572.12888   -36.201806   -36.201806    55.793219    -22.21391 
    1740   -22.214432    4.9035634   -1.4184634    4.2456002   -1.7509002    4.2456002            0            0            0    339.50439    213.75056    402.38131    402.38131    45.777834    45.777834   -92.895417   -22.214432 
    1750   -22.214895    4.9114917   -1.4263917    4.2541549   -1.7594549    4.2541549            0            0            0    325.49464    205.52283    385.48054    385.48054    45.211619    45.211619   -91.251518   -22.214895 
    1760   -22.215372    4.9199181   -1.4348181     4.263194    -1.768494     4.263194            0            0            0    412.12476    237.34125    499.51652    499.51652   -27.945353   -27.945353    41.631709   -22.215372 
    1770   -22.215792    4.9276225   -1.4425225    4.2714728   -1.7767728    4.2714728            0            0            0    395.39775    228.42275    478.88525    478.88525   -25.580349   -25.580349    37.604697   -22.215792 
    1780   -22.216229    4.9359738   -1.4508738    4.2804588   -1.7857588    4.2804588            0            0            0    285.14142    181.76754    336.82836    336.82836    43.903008    43.903008   -87.115705   -22.216229 
    1790   -22.216614    4.9435442   -1.4584442    4.2885598   -1.7938598    4.2885598            0            0            0    273.24749    174.79611    322.47318    322.47318    43.801413    43.801413    -86.42096   -22.216614 
    1800   -22.216984    4.9510539   -1.4659539    4.2965812   -1.8018812    4.2965812            0            0            0    261.70886    168.04618     308.5402     308.5402    43.829352    43.829352   -85.977739   -22.216984 
    1810   -22.217374    4.9591102   -1.4740102    4.3051435   -1.8104435    4.3051435            0            0            0    333.37389    195.09397    402.51386    402.51386   -16.800564   -16.800564    22.791964   -22.217374 
    1820   -22.217717    4.9665375   -1.4814375    4.3130493   -1.8183493    4.3130493            0            0            0    320.29922    187.98789    386.45489    386.45489    -15.05807    -15.05807    19.896038   -22.217717 
    1830   -22.218081    4.9748566   -1.4897566    4.3219148   -1.8272148    4.3219148            0            0            0    226.36664    147.51697    265.79147    265.79147    44.985177    44.985177   -86.555516   -22.218081 
    1840   -22.218404    4.9823522   -1.4972522    4.3298652   -1.8351652    4.3298652            0            0            0    214.98869     141.0533    251.95639    251.95639    46.111992    46.111992   -88.108479   -22.218404 
    1850    -22.21875    4.9903979   -1.5052979    4.3383601   -1.8436601    4.3383601            0            0            0    280.20946    166.23052    337.19893    337.19893    -8.993699    -8.993699    9.7927943    -22.21875 
    1860   -22.219061    4.9980955   -1.5129955    4.3464988   -1.8517988    4.3464988            0            0            0    268.46348    159.78847    322.80099    322.80099   -7.3369022   -7.3369022    7.0741533   -22.219061 
    1870     -22.2194    5.0071652   -1.5220652    4.3560986   -1.8613986    4.3560986            0            0            0    172.91805    118.10848    200.32284    200.32284    54.908163    54.908163    -102.1708     -22.2194 
    1880   -22.219724    5.0158052   -1.5307052    4.3652024   -1.8705024    4.3652024            0            0            0    161.62895    111.61003     186.6384     186.6384    56.131664    56.131664   -103.81061   -22.219724 
    1890   -22.220038    5.0244792   -1.5393792    4.3743269   -1.8796269    4.3743269            0            0            0     151.5541    105.66482    174.49874    174.49874     56.73186     56.73186   -104.35898   -22.220038 
    1900   -22.220356    5.0330382   -1.5479382    4.3832896   -1.8885896    4.3832896            0            0            0    224.25952    134.85679    268.96089    268.96089   -3.4031521   -3.4031521    1.0484307   -22.220356 
    1910    -22.22064    5.0414671   -1.5563671    4.3921288   -1.8974288    4.3921288            0            0            0    215.99802     129.9769    259.00858    259.00858   -3.5292704   -3.5292704    1.4615551    -22.22064 
    1920   -22.220944    5.0511357   -1.5660357    4.4022735   -1.9075735    4.4022735            0            0            0    139.57551    95.803466    161.46154    161.46154    46.247112    46.247112   -84.690163   -22.220944 
    1930    -22.22121    5.0596696   -1.5745696    4.4111956   -1.9164956    4.4111956            0            0            0    129.89624    90.264375    149.71217    149.71217    47.715955    47.715955   -86.828428    -22.22121 
    1940   -22.221466    5.0676713   -1.5825713    4.4195277   -1.9248277    4.4195277            0            0            0    191.04167    115.39698    228.86402    228.86402   -2.9292383   -2.9292383    0.9686587   -22.221466 
    1950    -22.22171    5.0760018   -1.5909018    4.4282142   -1.9335142    4.4282142            0            0            0     183.2245    110.89155    219.39097    219.39097   -2.3700814   -2.3700814    0.1644648    -22.22171 
    1960   -22.221963    5.0852009   -1.6001009    4.4378087   -1.9431087    4.4378087            0            0            0    126.05077    84.819921    146.66619    146.66619    34.737574    34.737574   -63.373906   -22.221963 
    1970   -22.222164    5.0926525   -1.6075525    4.4455603   -1.9508603    4.4455603            0            0            0    113.04581    78.138621     130.4994     130.4994    40.166615    40.166615   -72.396735   -22.222164 
    1980   -22.222382    5.1008959   -1.6157959    4.4541235   -1.9594235    4.4541235            0            0            0     107.0146    74.417904    123.31295    123.31295    40.107069    40.107069   -71.972233   -22.222382 
    1990   -22.222612    5.1095158   -1.6244158      4.46305     -1.96835      4.46305            0            0            0    155.64293    94.786227    186.07128    186.07128   -1.0104791   -1.0104791   -1.5766268   -22.222612 
    2000   -22.222811    5.1175455   -1.6324455    4.4713705   -1.9766705    4.4713705            0            0            0    155.46798    93.848243    186.27785    186.27785   -5.0832793   -5.0832793    5.4744522   -22.222811 
    2010   -22.222993    5.1253854   -1.6402854    4.4795012   -1.9848012    4.4795012            0            0            0    104.24247    70.277144    121.22513    121.22513    29.541462    29.541462   -53.137257   -22.222993 
    2020    -22.22316    5.1327007   -1.6476007    4.4870697   -1.9923697    4.4870697            0            0            0    91.490072    63.797322    105.33645    105.33645    35.639939    35.639939   -63.232492    -22.22316 
    2030   -22.223362    5.1413424   -1.6562424     4.495982    -2.001282     4.495982            0            0            0    140.06457    84.665519    167.76409    167.76409   -5.0872269   -5.0872269     5.779049   -22.223362 
    2040   -22.223502    5.1477466   -1.6626466    4.5025933   -2.0078933    4.5025933            0            0            0    134.84724    81.748796    161.39646    161.39646   -4.0613183   -4.0613183    4.1240656   -22.223502 
    2050   -22.223662    5.1555587   -1.6704587    4.5106635   -2.0159635    4.5106635            0            0            0     88.37831    60.093552    102.52069    102.52069    27.722412    27.722412   -49.190232   -22.223662 
    2060   -22.223812    5.1630685   -1.6779685    4.5184055   -2.0237055    4.5184055            0            0            0    72.404022    52.163015    82.524526    82.524526    36.697163    36.697163   -64.032663   -22.223812 
    2070    -22.22396    5.1701535   -1.6850535    4.5256935   -2.0309935    4.5256935            0            0            0    90.384161    59.699721    105.72638    105.72638    20.150531    20.150531   -36.135296    -22.22396 
    2080   -22.224102    5.1773712   -1.6922712    4.5331096   -2.0384096    4.5331096            0            0            0    116.36099    70.967264    139.05785    139.05785   -2.4958283   -2.4958283    1.8210821   -22.224102 
    2090   -22.224231    5.1842075   -1.6991075    4.5401376   -2.0454376    4.5401376            0            0            0    111.34891    68.171766    132.93749    132.93749   -1.3250034   -1.3250034 -0.058903248   -22.224231 
    2100   -22.224403    5.1936724   -1.7085724    4.5498597   -2.0551597    4.5498597            0            0            0    103.92232    64.091049    123.83796    123.83796   0.81070233   0.81070233   -3.5075802   -22.224403 
    2110   -22.224539    5.2014086   -1.7163086    4.5577963   -2.0630963    4.5577963            0            0            0    108.21105    65.555233    129.53896    129.53896   -5.2565271   -5.2565271    6.6295001   -22.224539 
    2120   -22.224658    5.2084785   -1.7233785    4.5650534   -2.0703534    4.5650534            0            0            0    78.545508     51.34505    92.145737    92.145737    15.024246    15.024246    -26.84661   -22.224658 
    2130   -22.224759     5.214567    -1.729467    4.5712931   -2.0765931    4.5712931            0            0            0    73.064076    48.388508     85.40186     85.40186    17.193256    17.193256    -30.32015   -22.224759 
    2140   -22.224875    5.2216492   -1.7365492    4.5785386   -2.0838386    4.5785386            0            0            0    94.790251    58.081564    113.14459    113.14459    -1.816711    -1.816711     1.110898   -22.224875 
    2150   -22.224984    5.2285425   -1.7434425     4.585594    -2.090894     4.585594            0            0            0     89.80239    55.353178      107.027      107.027  -0.17432717  -0.17432717   -1.5309318   -22.224984 
    2160   -22.225129    5.2380839   -1.7529839    4.5953523   -2.1006523    4.5953523            0            0            0    84.933778    52.541739     101.1298     101.1298   0.64927145   0.64927145    -2.797314   -22.225129 
    2170   -22.225279    5.2483188   -1.7632188    4.6058127   -2.1111127    4.6058127            0            0            0    73.739919    46.713628    87.253064    87.253064    6.2946723    6.2946723   -11.929486   -22.225279 
    2180   -22.225364    5.2544062   -1.7693062    4.6120294   -2.1173294    4.6120294            0            0            0    66.769307    43.091541     78.60819     78.60819    9.9724159    9.9724159   -17.857774   -22.225364 
    2190   -22.225458    5.2612069   -1.7761069    4.6189641   -2.1242641    4.6189641            0            0            0    83.278209    50.621022    99.606803    99.606803   -4.6912911   -4.6912911    6.0862636   -22.225458 
    2200   -22.225536    5.2669379   -1.7818379    4.6248098   -2.1301098    4.6248098            0            0            0    80.539479    49.059372    96.279533    96.279533    -4.108967    -4.108967    5.1702999   -22.225536 
    2210   -22.225625    5.2737902   -1.7886902    4.6318008   -2.1371008    4.6318008            0            0            0    59.649428    38.744675    70.101804    70.101804    10.336471    10.336471   -18.206959   -22.225625 
    2220   -22.225699    5.2795475   -1.7944475    4.6376675   -2.1429675    4.6376675            0            0            0     56.89087    37.155734    66.758437    66.758437    11.033551    11.033551   -19.265074   -22.225699 
    2230   -22.225784    5.2863444   -1.8012444    4.6445855   -2.1498855    4.6445855            0            0            0    71.802768    44.057373    85.675466    85.675466   -2.2539454   -2.2539454    2.2728839   -22.225784 
    2240   -22.225857    5.2923095   -1.8072095    4.6506585   -2.1559585    4.6506585            0            0            0    68.619056    42.286431    81.785369    81.785369   -1.2056473   -1.2056473   0.61618124   -22.225857 
    2250   -22.225937    5.2991052   -1.8140052    4.6575741   -2.1628741    4.6575741            0            0            0    64.408966    39.987765    76.619566    76.619566    0.4950007    0.4950007   -2.0792146   -22.225937 
    2260   -22.226041    5.3081083   -1.8230083     4.666732    -2.172032     4.666732            0            0            0    56.210182    35.662942    66.483802    66.483802    4.8838158    4.8838158   -9.0596276   -22.226041 
    2270   -22.226117    5.3153871   -1.8302871    4.6741363   -2.1794363    4.6741363            0            0            0    31.191275    23.144721    35.214551    35.214551    22.923763    22.923763   -37.872094   -22.226117 
    2280   -22.226214    5.3243133   -1.8392133    4.6831902   -2.1884902    4.6831902            0            0            0    80.294243    46.963021    96.959853    96.959853   -17.482199   -17.482199    26.776974   -22.226214 
    2290   -22.226278    5.3301304   -1.8450304    4.6891006   -2.1944006    4.6891006            0            0            0    62.862594    38.209347    75.189217    75.189217   -4.9770936   -4.9770936    6.8348874   -22.226278 
    2300   -22.226347    5.3368944   -1.8517944    4.6959701   -2.2012701    4.6959701            0            0            0    43.222599    28.289995      50.6889      50.6889    9.1440458    9.1440458   -15.599771   -22.226347 
    2310   -22.226436    5.3460115   -1.8609115    4.7052126   -2.2105126    4.7052126            0            0            0    64.787745    38.738109    77.812563    77.812563   -9.5978187   -9.5978187    14.209666   -22.226436 
    2320   -22.226502    5.3528074   -1.8677074    4.7121088   -2.2174088    4.7121088            0            0            0    40.138795    26.269891    47.073247    47.073247     8.609378     8.609378   -14.601845   -22.226502 
    2330   -22.226565    5.3597279   -1.8746279    4.7191152   -2.2244152    4.7191152            0            0            0    64.684009    38.376052    77.837988    77.837988   -12.035388   -12.035388    18.064644   -22.226565 
    2340   -22.226629    5.3665782   -1.8814782     4.726056    -2.231356     4.726056            0            0            0    51.118961    31.416859    60.970012    60.970012   -2.4937217   -2.4937217    3.0196237   -22.226629 
    2350   -22.226688    5.3732661   -1.8881661    4.7328284   -2.2381284    4.7328284            0            0            0    38.402659    24.852779    45.177599    45.177599    6.4640329    6.4640329   -11.047512   -22.226688 
    2360    -22.22675    5.3807746   -1.8956746     4.740427    -2.245727     4.740427            0            0            0    26.293966    18.540611    30.170644    30.170644     14.86739     14.86739    -24.17954    -22.22675 
    2370   -22.226834     5.390942    -1.905842    4.7507058   -2.2560058    4.7507058            0            0            0    24.848051     17.54718    28.498487    28.498487    14.451799    14.451799   -23.414066   -22.226834 
    2380    -22.22691    5.4012121   -1.9161121    4.7610857   -2.2663857    4.7610857            0            0            0    6.8907118    8.1161395    6.2779979    6.2779979    27.262994    27.262994   -43.284956    -22.22691 
    2390   -22.226962    5.4069697   -1.9218697    4.7668871   -2.2721871    4.7668871            0            0            0    49.070606    29.597844    58.806988    58.806988   -7.2270393   -7.2270393    10.515052   -22.226962 
    2400   -22.227007    5.4130505   -1.9279505    4.7730224   -2.2783224    4.7730224            0            0            0    48.163564     29.03712    57.726786    57.726786   -7.3698621   -7.3698621    10.739602   -22.227007 
    2410   -22.227063     5.421166    -1.936066    4.7812036   -2.2865036    4.7812036            0            0            0    60.091156    35.080627    72.596421    72.596421   -18.045964   -18.045964    27.292598   -22.227063 
    2420   -22.227119    5.4292854   -1.9441854    4.7893866   -2.2946866    4.7893866            0            0            0    62.473224    36.231335    75.594169    75.594169   -21.057862   -21.057862    31.910025   -22.227119 
    2430   -22.227172    5.4362241   -1.9511241    4.7963838   -2.3016838    4.7963838            0            0            0    33.024038    20.842352    39.114881    39.114881    1.6817452    1.6817452   -3.2330937   -22.227172 
    2440   -22.227226    5.4443288   -1.9592288    4.8045458   -2.3098458    4.8045458            0            0            0    31.469945    19.906547    37.251644    37.251644    1.9318288    1.9318288   -3.5868104   -22.227226 
    2450   -22.227271    5.4514454   -1.9663454     4.811707    -2.317007     4.811707            0            0            0    43.058271    25.879674     51.64757     51.64757    -8.253645    -8.253645    12.090171   -22.227271 
    2460   -22.227321    5.4594287   -1.9743287    4.8197402   -2.3250402    4.8197402            0            0            0    42.600853    25.553957    51.124301    51.124301   -8.8228991   -8.8228991    12.955311   -22.227321 
    2470   -22.227364    5.4662872   -1.9811872    4.8266423   -2.3319423    4.8266423            0            0            0    27.393693    17.453083    32.363998    32.363998    2.6821582    2.6821582   -4.6520623   -22.227364 
    2480   -22.227412    5.4743993   -1.9892993    4.8348008   -2.3401008    4.8348008            0            0            0    19.350238    13.082623    22.484045    22.484045    8.3133028    8.3133028   -13.213328   -22.227412 
    2490   -22.227455    5.4820331   -1.9969331      4.84247     -2.34777      4.84247            0            0            0    37.911964    22.857308    45.439292    45.439292   -7.5199341   -7.5199341    10.940508   -22.227455 
    2500   -22.227498      5.49043     -2.00533    4.8509042   -2.3562042    4.8509042            0            0            0    51.708039    30.162931    62.480594    62.480594   -19.584071   -19.584071    29.253225   -22.227498 
    2510   -22.227547    5.4990347   -2.0139347     4.859549    -2.364849     4.859549            0            0            0     41.39911    24.596172    49.800578    49.800578   -12.077154   -12.077154    17.826265   -22.227547 
    2520   -22.227587    5.5063586   -2.0212586    4.8669061   -2.3722061    4.8669061            0            0            0    24.182475    15.278815    28.634305    28.634305    1.2310931    1.2310931    -2.311379   -22.227587 
    2530   -22.227631    5.5151103   -2.0300103    4.8756907   -2.3809907    4.8756907            0            0            0    22.808956    14.453345    26.986762    26.986762    1.5529929    1.5529929   -2.7727191   -22.227631 
    2540    -22.22767      5.52298     -2.03788    4.8835879   -2.3888879    4.8835879            0            0            0    19.616021    12.648291    23.099887    23.099887    3.4688661    3.4688661   -5.6321192    -22.22767 
    2550   -22.227706    5.5307949   -2.0456949    4.8914247   -2.3967247    4.8914247            0            0            0     30.88557    18.721718    36.967496    36.967496   -6.4118459   -6.4118459    9.2209716   -22.227706 
    2560   -22.227738    5.5374759   -2.0523759    4.8981253   -2.4034253    4.8981253            0            0            0    26.556449    16.316712    31.676317    31.676317   -3.4267546   -3.4267546     4.744799   -22.227738 
    2570    -22.22777    5.5447162   -2.0596162    4.9053854   -2.4106854    4.9053854            0            0            0     20.63828     13.02375    24.445546    24.445546   0.84123988   0.84123988   -1.6299387    -22.22777 
    2580     -22.2278    5.5516079   -2.0665079    4.9122935   -2.4175935    4.9122935            0            0            0    17.680182     11.34592    20.847313    20.847313    2.7348847    2.7348847   -4.4390906     -22.2278 
    2590   -22.227836     5.560193    -2.075093    4.9208967   -2.4261967    4.9208967            0            0            0    10.466414    7.2942518    12.052495    12.052495     8.026354     8.026354   -12.285063   -22.227836 
    2600    -22.22786     5.566569    -2.081469    4.9272846   -2.4325846    4.9272846            0            0            0    1.9356114    2.5063945    1.6502199    1.6502199    14.596575    14.596575   -22.006062    -22.22786 
    2610   -22.227885    5.5721974   -2.0870974    4.9329179   -2.4382179    4.9329179            0            0            0    18.061025    11.418959    21.382058    21.382058   0.91691483   0.91691483   -1.6879696   -22.227885 
    2620   -22.227908    5.5781958   -2.0930958    4.9389215   -2.4442215    4.9389215            0            0            0    26.205985    15.929405    31.344274    31.344274   -6.2210081   -6.2210081    8.8826378   -22.227908 
    2630   -22.227934    5.5849913   -2.0998913    4.9457232   -2.4510232    4.9457232            0            0            0    24.377337    14.884627    29.123692    29.123692   -5.1764189   -5.1764189    7.3314368   -22.227934 
    2640   -22.227955    5.5904837   -2.1053837    4.9512201   -2.4565201    4.9512201            0            0            0    16.462159    10.424128    19.481174    19.481174    1.0052968    1.0052968   -1.7850008   -22.227955 
    2650   -22.227979    5.5971442   -2.1120442    4.9578831   -2.4631831    4.9578831            0            0            0     15.70883    9.9667397    18.579874    18.579874    1.2037621    1.2037621   -2.0651371   -22.227979 
    2660   -22.227999    5.6026613   -2.1175613    4.9634003   -2.4687003    4.9634003            0            0            0    20.277442    12.519682    24.156321    24.156321   -2.9275462   -2.9275462     4.012181   -22.227999 
    2670   -22.228022    5.6093009   -2.1242009     4.970039    -2.475339     4.970039            0            0            0    22.406174    13.704027    26.757248    26.757248   -5.1023117   -5.1023117    7.1996106   -22.228022 
    2680   -22.228041    5.6148969   -2.1297969    4.9756347   -2.4809347    4.9756347            0            0            0    11.902719    7.7254407    13.991358    13.991358    3.2896855    3.2896855   -5.0857502   -22.228041 
    2690    -22.22806    5.6213008   -2.1362008     4.982037    -2.487337     4.982037            0            0            0   0.14660408    0.9966103  -0.27839902  -0.27839902    12.705072    12.705072   -18.820136    -22.22806 
    2700   -22.228079    5.6266669   -2.1415669    4.9873972   -2.4926972    4.9873972            0            0            0    14.139524    8.9474687    16.735552    16.735552   0.76135413   0.76135413   -1.3684062   -22.228079 
    2710   -22.228097    5.6322542   -2.1471542    4.9929785   -2.4982785    4.9929785            0            0            0    19.987665    12.276389    23.843303    23.843303   -4.4209876   -4.4209876     6.183859   -22.228097 
    2720   -22.228117     5.638855    -2.153755    4.9995722   -2.5048722    4.9995722            0            0            0    19.225539    11.826846    22.924886    22.924886   -4.1441389   -4.1441389    5.7762435   -22.228117 
    2730   -22.228134    5.6442367   -2.1591367    5.0049477   -2.5102477    5.0049477            0            0            0    12.997958    8.2303958    15.381738    15.381738   0.77393046   0.77393046   -1.3616268   -22.228134 
    2740   -22.228153    5.6508586   -2.1657586    5.0115599   -2.5168599    5.0115599            0            0            0    12.303372    7.8082238    14.550945    14.550945    1.0185327    1.0185327   -1.7066875   -22.228153 
    2750   -22.228169    5.6563307   -2.1712307    5.0170225   -2.5223225    5.0170225            0            0            0    15.598124    9.7003836    18.546994    18.546994   -2.0111421   -2.0111421    2.6801993   -22.228169 
    2760   -22.228187    5.6630237   -2.1779237    5.0237029   -2.5290029    5.0237029            0            0            0     18.84143    11.572878    22.475707    22.475707   -5.0566837   -5.0566837    7.0741472   -22.228187 
    2770   -22.228204    5.6690119   -2.1839119    5.0296805   -2.5349805    5.0296805            0            0            0     7.023521    4.6794788    8.1955421    8.1955421    4.5752103    4.5752103   -6.8018554   -22.228204 
    2780    -22.22822      5.67593     -2.19083    5.0365851   -2.5418851    5.0365851            0            0            0   -3.2998265   -1.3842643   -4.2576076   -4.2576076     12.93977     12.93977   -18.801176    -22.22822 
    2790   -22.228238    5.6816449   -2.1965449    5.0422855   -2.5475855    5.0422855            0            0            0    10.871288    6.8893137    12.862274    12.862274   0.77717811   0.77717811   -1.3160558   -22.228238 
    2800   -22.228252    5.6874887   -2.2023887    5.0481152   -2.5534152    5.0481152            0            0            0    13.978391    8.7032612    16.615956    16.615956   -2.0926543   -2.0926543    2.8012702   -22.228252 
    2810    -22.22827    5.6945564   -2.2094564    5.0551654   -2.5604654    5.0551654            0            0            0    13.521347    8.4253339    16.069354    16.069354   -2.0089283   -2.0089283     2.681908    -22.22827 
    2820   -22.228284    5.7004521   -2.2153521    5.0610462   -2.5663462    5.0610462            0            0            0    9.9962019    6.3331398    11.827733    11.827733   0.72190983   0.72190983    -1.213541   -22.228284 
    2830   -22.228301    5.7076468   -2.2225468    5.0682215   -2.5735215    5.0682215            0            0            0    9.4178977    5.9765189    11.138587    11.138587   0.92362925   0.92362925   -1.4922293   -22.228301 
    2840   -22.228315    5.7137141   -2.2286141    5.0742717   -2.5795717    5.0742717            0            0            0    11.762389    7.3616976    13.962735    13.962735   -1.2951667   -1.2951667    1.6681064   -22.228315 
    2850   -22.228331    5.7210777   -2.2359777    5.0816135   -2.5869135    5.0816135            0            0            0     16.42204    10.139293    19.563413    19.563413   -5.5231733   -5.5231733    7.6648747   -22.228331 
    2860   -22.228347    5.7285219   -2.2434219    5.0890366   -2.5943366    5.0890366            0            0            0    1.6808271    1.3041964    1.8691425    1.8691425    6.7022893    6.7022893   -9.6424933   -22.228347 
    2870   -22.228363    5.7361492   -2.2510492    5.0966405   -2.6019405    5.0966405            0            0            0   -1.3080823  -0.52019679    -1.702025    -1.702025    8.9796461    8.9796461   -12.829914   -22.228363 
    2880   -22.228377     5.742657    -2.257557    5.1031268   -2.6084268    5.1031268            0            0            0    8.4955791    5.3719942    10.057372    10.057372   0.42801759   0.42801759  -0.75283929   -22.228377 
    2890   -22.228393    5.7503752   -2.2652752    5.1108197   -2.6161197    5.1108197            0            0            0    11.089633    6.9357472    13.166576    13.166576   -2.0386417   -2.0386417     2.721179   -22.228393 
    2900   -22.228404    5.7560125   -2.2709125    5.1164385   -2.6217385    5.1164385            0            0            0    7.5691801    4.7963132    8.9556136    8.9556136   0.77730671   0.77730671    -1.231255   -22.228404 
    2910   -22.228419    5.7643511   -2.2792511    5.1247483   -2.6300483    5.1247483            0            0            0    15.599731    9.6862589    18.556467    18.556467   -6.3406961   -6.3406961    8.7407354   -22.228419 
    2920   -22.228433    5.7719431   -2.2868431    5.1323145   -2.6376145    5.1323145            0            0            0    8.6595588    5.4497755     10.26445     10.26445  -0.64770164  -0.64770164    0.7745146   -22.228433 
    2930   -22.228449    5.7810362   -2.2959362    5.1413754   -2.6466754    5.1413754            0            0            0    11.122942    6.9615574    13.203634    13.203634   -3.0257791   -3.0257791    4.0900614   -22.228449 
    2940   -22.228462    5.7885916   -2.3034916    5.1489042   -2.6542042    5.1489042            0            0            0    3.9129125    2.5180888    4.6103243    4.6103243    2.9371821    2.9371821   -4.2020988   -22.228462 
    2950   -22.228473    5.7953258   -2.3102258    5.1556142   -2.6609142    5.1556142            0            0            0  0.080979899   0.13754023  0.052699734  0.052699734    6.0442002    6.0442002   -8.4995908   -22.228473 
    2960   -22.228484    5.8017851   -2.3166851    5.1620498   -2.6673498    5.1620498            0            0            0    6.0370484    3.8198008    7.1456722    7.1456722   0.75946167   0.75946167   -1.1640308   -22.228484 
    2970   -22.228495    5.8085896   -2.3234896    5.1688295   -2.6741295    5.1688295            0            0            0    6.1886452    3.9109811    7.3274773    7.3274773   0.45251656   0.45251656  -0.73421341   -22.228495 
    2980   -22.228505    5.8149943   -2.3298943    5.1752105   -2.6805105    5.1752105            0            0            0    8.7555699    5.5123695     10.37717     10.37717   -1.9203017   -1.9203017     2.542258   -22.228505 
    2990   -22.228514    5.8209886   -2.3358886    5.1811828   -2.6864828    5.1811828            0            0            0    5.5943585     3.535481    6.6237973    6.6237973   0.65531522   0.65531522   -1.0047451   -22.228514 
    3000   -22.228524     5.828551    -2.343451    5.1887173   -2.6940173    5.1887173            0            0            0    12.694255    7.9965893    15.043087    15.043087   -5.6549521   -5.6549521    7.6674985   -22.228524 
    3010   -22.228534    5.8350224   -2.3499224    5.1951648   -2.7004648    5.1951648            0            0            0    12.518699    7.8984207    14.828839    14.828839    -5.660276    -5.660276    7.6629436   -22.228534 
    3020   -22.228541    5.8395366   -2.3544366    5.1996625   -2.7049625    5.1996625            0            0            0    5.5074518    3.4771517    6.5226018    6.5226018   0.29714087   0.29714087  -0.50069459   -22.228541 
    3030   -22.228548    5.8448344   -2.3597344    5.2049408   -2.7102408    5.2049408            0            0            0    5.0244839    3.1710686    5.9511915    5.9511915   0.59745489   0.59745489  -0.90815424   -22.228548 
    3040   -22.228554    5.8492333   -2.3641333    5.2093236   -2.7146236    5.2093236            0            0            0    6.4243134    4.0591375    7.6069013    7.6069013  -0.71097449  -0.71097449   0.88084666   -22.228554 
    3050    -22.22856    5.8541126   -2.3690126    5.2141853   -2.7194853    5.2141853            0            0            0    10.947607    6.9386471    12.952087    12.952087   -4.7383511   -4.7383511     6.370957    -22.22856 
    3060   -22.228566     5.858372    -2.373272    5.2184291   -2.7237291    5.2184291            0            0            0     5.074491    3.2023955    6.0105387    6.0105387   0.26523396   0.26523396  -0.44684145   -22.228566 
    3070   -22.228572    5.8633663   -2.3782663    5.2234055   -2.7287055    5.2234055            0            0            0    4.6737934    2.9468616    5.5372593    5.5372593   0.51060429   0.51060429  -0.77779722   -22.228572 
    3080   -22.228577    5.8675315   -2.3824315    5.2275558   -2.7328558    5.2275558            0            0            0    5.9552203    3.7673674    7.0491468    7.0491468  -0.68687883  -0.68687883   0.85044643   -22.228577 
    3090   -22.228583    5.8723568   -2.3872568    5.2323641   -2.7376641    5.2323641            0            0            0    10.942075    6.9693928    12.928416    12.928416   -5.1208121   -5.1208121    6.8619458   -22.228583 
    3100   -22.228589    5.8776644   -2.3925644     5.237653    -2.742953     5.237653            0            0            0    10.753448    6.8588455    12.700749    12.700749   -5.0641732   -5.0641732    6.7763804   -22.228589 
    3110   -22.228594    5.8816956   -2.3965956      5.24167     -2.74697      5.24167            0            0            0    4.5573227     2.874051    5.3989585    5.3989585   0.25383473   0.25383473  -0.41981791   -22.228594 
    3120     -22.2286    5.8864012   -2.4013012    5.2463594   -2.7516594    5.2463594            0            0            0     4.135741    2.6028197    4.9022017    4.9022017   0.53375337   0.53375337  -0.79551873     -22.2286 
    3130   -22.228604    5.8903566   -2.4052566    5.2503014   -2.7556014    5.2503014            0            0            0    5.3199613    3.3696186    6.2951326    6.2951326  -0.57161767  -0.57161767   0.69727833   -22.228604 
    3140   -22.228609    5.8946294   -2.4095294      5.25456     -2.75986      5.25456            0            0            0    8.6084919    5.5039856    10.160745    10.160745   -3.5202828   -3.5202828    4.6688735   -22.228609 
    3150   -22.228613    5.8984886   -2.4133886    5.2584062   -2.7637062    5.2584062            0            0            0    4.2506538    2.6797044    5.0361286    5.0361286    0.2164641    0.2164641  -0.36187748   -22.228613 
    3160   -22.228618    5.9029863   -2.4178863    5.2628891   -2.7681891    5.2628891            0            0            0     3.945657    2.4825769     4.677197     4.677197   0.40504356   0.40504356  -0.61330951   -22.228618 
    3170   -22.228622    5.9067835   -2.4216835    5.2666742   -2.7719742    5.2666742            0            0            0    5.0184168    3.1829877    5.9361314    5.9361314  -0.59817625  -0.59817625   0.73476573   -22.228622 
    3180   -22.228627    5.9114303   -2.4263303    5.2713065   -2.7766065    5.2713065            0            0            0      10.0428    6.4688747    11.829763    11.829763   -5.0759715   -5.0759715    6.7355492   -22.228627 
    3190   -22.228632     5.916741    -2.431641    5.2766007   -2.7819007    5.2766007            0            0            0    10.600268    6.8456966    12.477554    12.477554   -5.6563754   -5.6563754    7.5030356   -22.228632 
    3200   -22.228637    5.9208428   -2.4357428    5.2806895   -2.7859895    5.2806895            0            0            0    3.8385816    2.4180574    4.5488437    4.5488437   0.20340528   0.20340528   -0.3352728   -22.228637 
    3210   -22.228641    5.9249921   -2.4398921    5.2848265   -2.7901265    5.2848265            0            0            0    3.5329398    2.2187033     4.190058     4.190058   0.40603821   0.40603821   -0.6041228   -22.228641 
    3220   -22.228644    5.9284973   -2.4433973    5.2883215   -2.7936215    5.2883215            0            0            0    4.5103731    2.8636039    5.3337578    5.3337578  -0.50662985  -0.50662985   0.61430488   -22.228644 
    3230   -22.228648    5.9324542   -2.4473542    5.2922674   -2.7975674    5.2922674            0            0            0    7.9917186    5.1632764    9.4059397    9.4059397   -3.6266234   -3.6266234     4.769519   -22.228648 
    3240   -22.228651    5.9359801   -2.4508801     5.295783    -2.801083     5.295783            0            0            0    3.5782761    2.2526273    4.2411004    4.2411004   0.19822767   0.19822767  -0.32269308   -22.228651 
    3250   -22.228655    5.9402871   -2.4551871    5.3000782   -2.8053782    5.3000782            0            0            0    3.1700554    1.9841763     3.762995     3.762995   0.49354688   0.49354688  -0.71349996   -22.228655 
    3260   -22.228658    5.9435432   -2.4584432    5.3033257   -2.8086257    5.3033257            0            0            0    4.2009044    2.6689633    4.9668749    4.9668749  -0.46122823  -0.46122823   0.55531383   -22.228658 
    3270   -22.228662    5.9473509   -2.4622509    5.3071237   -2.8124237    5.3071237            0            0            0    6.5086804    4.2048331    7.6606041    7.6606041   -2.5491502   -2.5491502     3.323826   -22.228662 
    3280   -22.228666    5.9521302   -2.4670302     5.311891    -2.817191     5.311891            0            0            0    6.1799091    3.9927377    7.2734948    7.2734948   -2.3289419   -2.3289419    3.0287619   -22.228666 
    3290   -22.228669     5.955484    -2.470384    5.3152363   -2.8205363    5.3152363            0            0            0     3.296769    2.0745341    3.9078864    3.9078864   0.16616085   0.16616085  -0.27345289   -22.228669 
    3300   -22.228673    5.9593972   -2.4742972    5.3191402   -2.8244402    5.3191402            0            0            0    3.0949961    1.9416587    3.6716648    3.6716648   0.29077986   0.29077986  -0.43682073   -22.228673 
    3310   -22.228676    5.9628756   -2.4777756    5.3226108   -2.8279108    5.3226108            0            0            0    3.8864815    2.4728903    4.5932771    4.5932771   -0.4549003   -0.4549003   0.54852386   -22.228676 
    3320   -22.228679    5.9668387   -2.4817387    5.3265657   -2.8318657    5.3265657            0            0            0    7.6569284    5.0035053      8.98364      8.98364   -3.8396638   -3.8396638     5.010373   -22.228679 
    3330   -22.228682    5.9707094   -2.4856094    5.3304277   -2.8357277    5.3304277            0            0            0    3.0193992    1.8963405    3.5809286    3.5809286    0.2080983    0.2080983  -0.32386598   -22.228682 
    3340   -22.228685    5.9739313   -2.4888313    5.3336431   -2.8389431    5.3336431            0            0            0    2.9616544      1.85913    3.5129166    3.5129166   0.21787767   0.21787767  -0.33569559   -22.228685 
    3350   -22.228689    5.9792961   -2.4941961    5.3389972   -2.8442972    5.3389972            0            0            0    1.1000045   0.60662629    1.3466937    1.3466937    1.7988101    1.7988101   -2.4101538   -22.228689 
    3360   -22.228694    5.9853237   -2.5002237    5.3450143   -2.8503143    5.3450143            0            0            0    2.4369685    1.5104248    2.9002404    2.9002404   0.54124448   0.54124448  -0.75599433   -22.228694 
    3370   -22.228696    5.9886042   -2.5035042    5.3482898   -2.8535898    5.3482898            0            0            0    5.3094725     3.456972    6.2357227    6.2357227   -2.0455679   -2.0455679    2.6331731   -22.228696 
    3380     -22.2287    5.9944668   -2.5093668    5.3541422   -2.8594422    5.3541422            0            0            0   -3.6108605   -2.5921872   -4.1201972   -4.1201972    5.8014742    5.8014742   -7.6289599     -22.2287 
[...]
    4270    -22.22884    6.3454277   -2.8603277    5.7086644   -3.2139644    5.7086644            0            0            0   0.12289325 -0.0037529768   0.18621636   0.18621636   0.41274207   0.41274207  -0.49288132    -22.22884 
    4280   -22.228841    6.3493519   -2.8642519    5.7127165   -3.2180165    5.7127165            0            0            0    2.5199729    1.9122532    2.8238328    2.8238328   -1.8449566   -1.8449566    2.1579249   -22.228841 
    4290   -22.228841    6.3511575   -2.8660575    5.7145799   -3.2198799    5.7145799            0            0            0   0.18452594  0.047223592   0.25317712   0.25317712   0.34026784   0.34026784  -0.40676078   -22.228841 
    4300   -22.228842    6.3555846   -2.8704846    5.7191559   -3.2244559    5.7191559            0            0            0    1.4410059    1.0552275    1.6338951    1.6338951  -0.85007589  -0.85007589   0.98844195   -22.228842 
    4310   -22.228843    6.3594865   -2.8743865     5.723191    -3.228491     5.723191            0            0            0 -0.044449765  -0.13388179 0.00026624849 0.00026624849   0.53450928   0.53450928  -0.63266886   -22.228843 
    4320   -22.228843     6.361147    -2.876047    5.7249102   -3.2302102    5.7249102            0            0            0   0.48774825   0.29395593   0.58464441   0.58464441  0.030628362  0.030628362 -0.043019924   -22.228843 
    4330   -22.228843     6.364589    -2.879489    5.7284754   -3.2337754    5.7284754            0            0            0    1.2877121   0.93897475    1.4620808    1.4620808  -0.72959346  -0.72959346   0.84521774   -22.228843 
    4340   -22.228844    6.3675208   -2.8824208    5.7315128   -3.2368128    5.7315128            0            0            0   0.70516173   0.47184231   0.82182143   0.82182143  -0.18934806  -0.18934806    0.2140205   -22.228844 
    4350   -22.228845    6.3715246   -2.8864246    5.7356654   -3.2409654    5.7356654            0            0            0   0.77521255   0.53042839   0.89760464   0.89760464  -0.26494285  -0.26494285   0.30200023   -22.228845 
    4360   -22.228845    6.3732822   -2.8881822    5.7374896   -3.2427896    5.7374896            0            0            0   0.50549283   0.31352675   0.60147586   0.60147586 -0.015379621 -0.015379621  0.011157069   -22.228845 
    4370   -22.228845    6.3777067   -2.8926067    5.7420852   -3.2473852    5.7420852            0            0            0   0.98479726   0.70338739    1.1255022    1.1255022  -0.47700544  -0.47700544   0.54831533   -22.228845 
    4380   -22.228846    6.3804511   -2.8953511    5.7449373   -3.2502373    5.7449373            0            0            0 -0.046661249  -0.13077965 -0.0046020474 -0.0046020474   0.48804393   0.48804393   -0.5737788   -22.228846 
    4390   -22.228846    6.3828757   -2.8977757    5.7474607   -3.2527607    5.7474607            0            0            0    1.3970994    1.0410756    1.5751112    1.5751112  -0.87768476  -0.87768476     1.012947   -22.228846 
    4400   -22.228847    6.3867869   -2.9016869    5.7515313   -3.2568313    5.7515313            0            0            0  -0.17740743  -0.23558092  -0.14832069  -0.14832069    0.5974655    0.5974655  -0.69935414   -22.228847 
    4410   -22.228847    6.3882692   -2.9031692     5.753076    -3.258376     5.753076            0            0            0   0.41803716     0.248968   0.50257175   0.50257175  0.032806711  0.032806711 -0.044285446   -22.228847 
    4420   -22.228847     6.391309    -2.906209    5.7562445   -3.2615445    5.7562445            0            0            0    0.0547478 -0.045683437   0.10496342   0.10496342   0.36887219   0.36887219  -0.43342332   -22.228847 
    4430   -22.228848    6.3955597   -2.9104597    5.7606794   -3.2659794    5.7606794            0            0            0   0.41801444    0.2519025   0.50107042   0.50107042  0.016982028  0.016982028 -0.025655691   -22.228848 
    4440   -22.228848    6.3983645   -2.9132645    5.7636086   -3.2689086    5.7636086            0            0            0   0.58720529   0.39128838   0.68516375   0.68516375  -0.14876902  -0.14876902   0.16601337   -22.228848 
    4450   -22.228849    6.4001574   -2.9150574    5.7654822   -3.2707822    5.7654822            0            0            0   0.34010919   0.19005185   0.41513787   0.41513787  0.080820675  0.080820675 -0.099219826   -22.228849 
    4460   -22.228849    6.4033961   -2.9182961    5.7688698   -3.2741698    5.7688698            0            0            0    1.3338509    1.0051822    1.4981852    1.4981852  -0.86505905  -0.86505905   0.99239799   -22.228849 
    4470    -22.22885    6.4092401   -2.9241401     5.774986    -3.280286     5.774986            0            0            0  0.063684061 -0.033567663   0.11230992   0.11230992   0.32364843   0.32364843  -0.37833994    -22.22885 
    4480   -22.228851    6.4157338   -2.9306338    5.7817929   -3.2870929    5.7817929            0            0            0   0.36611567   0.21729758   0.44052471   0.44052471  0.024667194  0.024667194 -0.033749667   -22.228851 
    4490   -22.228851     6.417976    -2.932876    5.7841477   -3.2894477    5.7841477            0            0            0   0.10902018   0.00615125   0.16045464   0.16045464   0.26376969   0.26376969   -0.3082709   -22.228851 
    4500   -22.228851    6.4210268   -2.9359268    5.7873548   -3.2926548    5.7873548            0            0            0   0.35407597   0.20938409   0.42642191   0.42642191  0.025789318  0.025789318 -0.034837601   -22.228851 
    4510   -22.228852    6.4237084   -2.9386084    5.7901761   -3.2954761    5.7901761            0            0            0   0.36004974   0.21533774   0.43240574   0.43240574  0.015005221  0.015005221 -0.022374273   -22.228852 
    4520   -22.228852    6.4275322   -2.9424322    5.7942031   -3.2995031    5.7942031            0            0            0   0.36474004   0.22067633   0.43677189   0.43677189 0.0033474792 0.0033474792 -0.0088998844   -22.228852 
    4530   -22.228853    6.4301838   -2.9450838    5.7969984   -3.3022984    5.7969984            0            0            0   0.10791887 0.0086962981   0.15753016   0.15753016   0.24206945   0.24206945  -0.28191568   -22.228853 
    4540   -22.228853    6.4328627   -2.9477627    5.7998251   -3.3051251    5.7998251            0            0            0   0.11104243   0.01204419   0.16054155   0.16054155   0.23426742   0.23426742  -0.27268607   -22.228853 
    4550   -22.228853    6.4360138   -2.9509138    5.8031533   -3.3084533    5.8031533            0            0            0   0.47337781   0.31425467   0.55293937   0.55293937  -0.11540829  -0.11540829   0.12693494   -22.228853 
    4560   -22.228853    6.4386665   -2.9535665    5.8059574   -3.3112574    5.8059574            0            0            0  0.096961924 0.0019559685    0.1444649    0.1444649   0.23734389   0.23734389  -0.27553925   -22.228853 
    4570   -22.228854    6.4412419   -2.9561419    5.8086829   -3.3139829    5.8086829            0            0            0   0.55917385   0.38799016   0.64476569   0.64476569  -0.20636407  -0.20636407   0.23052518   -22.228854 
    4580   -22.228854    6.4467839   -2.9616839     5.814553    -3.319853     5.814553            0            0            0  -0.19568207  -0.24041319  -0.17331652  -0.17331652   0.50168032   0.50168032  -0.57538505   -22.228854 
    4590   -22.228855    6.4481786   -2.9630786    5.8160333   -3.3213333    5.8160333            0            0            0   0.31457601    0.1865765   0.37857576   0.37857576  0.014017561  0.014017561 -0.020471121   -22.228855 
    4600   -22.228855    6.4508809   -2.9657809    5.8189023   -3.3242023    5.8189023            0            0            0   0.59972126   0.42634035   0.68641171   0.68641171   -0.2619252   -0.2619252    0.2931625   -22.228855 
    4610   -22.228855    6.4536742   -2.9685742    5.8218704   -3.3271704    5.8218704            0            0            0  0.053686448 -0.030217747  0.095638545  0.095638545   0.25306891   0.25306891  -0.29169312   -22.228855 
    4620   -22.228856    6.4575111   -2.9724111    5.8259532   -3.3312532    5.8259532            0            0            0   0.59450703   0.42508644   0.67921732   0.67921732  -0.26829804  -0.26829804   0.29990259   -22.228856 
    4630   -22.228856    6.4599849   -2.9748849    5.8285883   -3.3338883    5.8285883            0            0            0   0.25513336   0.14081719   0.31229144   0.31229144  0.050916952  0.050916952 -0.061928374   -22.228856 
    4640   -22.228856    6.4664198   -2.9813198    5.8354518   -3.3407518    5.8354518            0            0            0   0.92223459   0.70573731    1.0304832    1.0304832  -0.59561843  -0.59561843   0.66926082   -22.228856 
    4650   -22.228857    6.4682618   -2.9831618    5.8374177   -3.3427177    5.8374177            0            0            0    0.2472145   0.13688595   0.30237878   0.30237878  0.045265716  0.045265716 -0.055196276   -22.228857 
    4660   -22.228857    6.4719854   -2.9868854    5.8414035   -3.3467035    5.8414035            0            0            0     1.110118   0.86799554    1.2311792    1.2311792  -0.78416036  -0.78416036   0.88090796   -22.228857 
    4670   -22.228857     6.476059    -2.990959     5.845769    -3.351069     5.845769            0            0            0    1.0783496   0.84382583    1.1956115    1.1956115  -0.76054252  -0.76054252   0.85318909   -22.228857 
    4680   -22.228858    6.4784372   -2.9933372    5.8483204   -3.3536204    5.8483204            0            0            0   0.26724548    0.1572269   0.32225477   0.32225477  0.010500617  0.010500617 -0.015653451   -22.228858 
    4690   -22.228858    6.4813215   -2.9962215    5.8514195   -3.3567195    5.8514195            0            0            0   0.25966415   0.15175441   0.31361902   0.31361902  0.013426182  0.013426182 -0.018871599   -22.228858 
    4700   -22.228858    6.4837344   -2.9986344    5.8540149   -3.3593149    5.8540149            0            0            0   0.34507931   0.22520942   0.40501425   0.40501425 -0.071812257 -0.071812257  0.077003582   -22.228858 
    4710   -22.228859    6.4881796   -3.0030796    5.8588031   -3.3641031    5.8588031            0            0            0  -0.11813717  -0.16800669 -0.093202412 -0.093202412   0.36481368   0.36481368  -0.41308521   -22.228859 
    4720   -22.228859    6.4942972   -3.0091972    5.8653977   -3.3706977    5.8653977            0            0            0   0.23606818   0.13587262   0.28616596   0.28616596  0.017230118  0.017230118 -0.022800379   -22.228859 
    4730   -22.228859     6.495877    -3.010777    5.8671073   -3.3724073    5.8671073            0            0            0    0.2462529   0.14509301   0.29683285   0.29683285 0.0052581264 0.0052581264 -0.0093560817   -22.228859 
    4740   -22.228859    6.4987675   -3.0136675    5.8702384   -3.3755384    5.8702384            0            0            0   0.23784211   0.13882548   0.28735042   0.28735042 0.0092933689 0.0092933689 -0.013806484   -22.228859 
    4750    -22.22886    6.5013349   -3.0162349    5.8730238   -3.3783238    5.8730238            0            0            0   0.59819363   0.44875583   0.67291254   0.67291254  -0.33964779  -0.33964779   0.37617409    -22.22886 
    4760    -22.22886    6.5054093   -3.0203093    5.8774502   -3.3827502    5.8774502            0            0            0    1.0286683   0.82065135    1.1326767    1.1326767  -0.75824681  -0.75824681   0.84284733    -22.22886 
    4770    -22.22886    6.5075882   -3.0224882      5.87982     -3.38512      5.87982            0            0            0     0.225811   0.13129735   0.27306783   0.27306783  0.008858319  0.008858319 -0.013121456    -22.22886 
    4780    -22.22886    6.5101265   -3.0250265    5.8825855   -3.3878855    5.8825855            0            0            0   0.22251857   0.12925864   0.26914854   0.26914854 0.0086547162 0.0086547162 -0.012838758    -22.22886 
    4790   -22.228861    6.5126408   -3.0275408    5.8853286   -3.3906286    5.8853286            0            0            0   0.40290687   0.28562702    0.4615468    0.4615468  -0.16783264  -0.16783264    0.1836769   -22.228861 
    4800   -22.228861    6.5162289   -3.0311289    5.8892495   -3.3945495    5.8892495            0            0            0   0.39175645   0.27738327   0.44894304   0.44894304  -0.16185723  -0.16185723   0.17687048   -22.228861 
    4810   -22.228861    6.5186701   -3.0335701    5.8919213   -3.3972213    5.8919213            0            0            0   0.20219285   0.11434129   0.24611864   0.24611864  0.017122246  0.017122246 -0.022061889   -22.228861 
    4820   -22.228861    6.5211558   -3.0360558    5.8946456   -3.3999456    5.8946456            0            0            0   0.13184921  0.054170993   0.17068832   0.17068832  0.081602261  0.081602261 -0.093570959   -22.228861 
    4830   -22.228861    6.5235913   -3.0384913    5.8973189   -3.4026189    5.8973189            0            0            0   0.28260663   0.18555471   0.33113259   0.33113259 -0.066391685 -0.066391685  0.070675386   -22.228861 
    4840   -22.228862    6.5260285   -3.0409285    5.8999977   -3.4052977    5.8999977            0            0            0    0.3895141   0.27922545   0.44465843   0.44465843  -0.17226084  -0.17226084   0.18796573   -22.228862 
    4850   -22.228862    6.5295745   -3.0444745    5.9038972   -3.4091972    5.9038972            0            0            0   0.37654193   0.26947897   0.43007341   0.43007341  -0.16412897  -0.16412897   0.17878025   -22.228862 
    4860   -22.228862    6.5319898   -3.0468898    5.9065527   -3.4118527    5.9065527            0            0            0   0.19516998   0.11259089   0.23645952   0.23645952 0.0075734159 0.0075734159 -0.011210298   -22.228862 
    4870   -22.228862    6.5344312   -3.0493312    5.9092368   -3.4145368    5.9092368            0            0            0    0.1918587   0.11054715   0.23251447   0.23251447 0.0079031102 0.0079031102 -0.011535622   -22.228862 
    4880   -22.228862    6.5368816   -3.0517816    5.9119309   -3.4172309    5.9119309            0            0            0   0.35214882   0.25128276   0.40258185   0.40258185  -0.14937131  -0.14937131   0.16212204   -22.228862 
    4890   -22.228863    6.5403992   -3.0552992    5.9157978   -3.4210978    5.9157978            0            0            0   0.31246417   0.21802497   0.35968377   0.35968377  -0.11521402  -0.11521402   0.12430193   -22.228863 
    4900   -22.228863    6.5429725   -3.0578725    5.9186262   -3.4239262    5.9186262            0            0            0   0.14625601  0.073520882   0.18262358   0.18262358  0.042125886  0.042125886 -0.049099368   -22.228863 
    4910   -22.228863    6.5455418   -3.0604418    5.9214505   -3.4267505    5.9214505            0            0            0   0.17922399   0.10322804   0.21722196   0.21722196 0.0074767547 0.0074767547 -0.010892635   -22.228863 
    4920   -22.228863    6.5469647   -3.0618647    5.9230146   -3.4283146    5.9230146            0            0            0   0.15145701  0.079336296   0.18751737   0.18751737   0.03270205   0.03270205  -0.03861844   -22.228863 
    4930   -22.228863    6.5484674   -3.0633674    5.9246665   -3.4299665    5.9246665            0            0            0   0.28516833   0.19719186   0.32915657   0.32915657 -0.097986699 -0.097986699   0.10509615   -22.228863 
    4940   -22.228863    6.5524985   -3.0673985    5.9290983   -3.4343983    5.9290983            0            0            0   0.89392726   0.73421714   0.97378232   0.97378232  -0.69029799  -0.69029799   0.75521559   -22.228863 
    4950   -22.228864    6.5543987   -3.0692987    5.9311863   -3.4364863    5.9311863            0            0            0   0.16992954  0.097918874   0.20593487   0.20593487 0.0068592055 0.0068592055 -0.010083529   -22.228864 
    4960   -22.228864    6.5568231   -3.0717231    5.9338515   -3.4391515    5.9338515            0            0            0   0.16738765  0.096444472   0.20285924   0.20285924 0.0067583155 0.0067583155 -0.0099382995   -22.228864 
    4970   -22.228864    6.5592157   -3.0741157     5.936482    -3.441782     5.936482            0            0            0   0.27154882   0.18914387   0.31275129   0.31275129 -0.096430216 -0.096430216   0.10309572   -22.228864 
    4980   -22.228864    6.5628009   -3.0777009     5.940424    -3.445724     5.940424            0            0            0   0.32011054   0.23338147   0.36347507   0.36347507  -0.14714529  -0.14714529   0.15845923   -22.228864 
    4990   -22.228864    6.5651683   -3.0800683    5.9430271   -3.4483271    5.9430271            0            0            0   0.14967765  0.083359866   0.18283655   0.18283655  0.015304898  0.015304898 -0.019160382   -22.228864 
    5000   -22.228864     6.567765    -3.082665    5.9458826   -3.4511826    5.9458826            0            0            0  -0.05999927  -0.10179193  -0.03910294  -0.03910294    0.2156646    0.2156646  -0.23782833   -22.228864 
Loop time of 0.249987 on 1 procs for 5000 steps with 2 atoms

34.4% CPU use with 1 MPI tasks x no OpenMP threads

Minimization stats:
  Stopping criterion = max iterations
  Energy initial, next-to-last, final = 
        -11.7509094549     -22.2288643658     -22.2288643672
  Force two-norm initial, final = 1.63231 0.000645682
  Force max component initial, final = 0.949161 0.000271645
  Final line search alpha, max atom move = 1 0.000271645
  Iterations, force evaluations = 5000 6805

MPI task timing breakdown:
Section |  min time  |  avg time  |  max time  |%varavg| %total
---------------------------------------------------------------
Pair    | 0.13822    | 0.13822    | 0.13822    |   0.0 | 55.29
Neigh   | 0.00030375 | 0.00030375 | 0.00030375 |   0.0 |  0.12
Comm    | 0.055171   | 0.055171   | 0.055171   |   0.0 | 22.07
Output  | 0.018341   | 0.018341   | 0.018341   |   0.0 |  7.34
Modify  | 0          | 0          | 0          |   0.0 |  0.00
Other   |            | 0.03795    |            |       | 15.18

Nlocal:    2 ave 2 max 2 min
Histogram: 1 0 0 0 0 0 0 0 0 0
Nghost:    52 ave 52 max 52 min
Histogram: 1 0 0 0 0 0 0 0 0 0
Neighs:    13 ave 13 max 13 min
Histogram: 1 0 0 0 0 0 0 0 0 0

Total # of neighbors = 13
Ave neighs/atom = 6.5
Neighbor list builds = 20
Dangerous builds = 0
# ---- define output variables ----
variable natoms equal "count(all)"
variable tot_energy equal "c_eatoms"
variable a11 equal "xhi-xlo"
variable a22 equal "yhi-ylo"
variable a33 equal "zhi-zlo"
variable tilt_xy equal "xy"
variable tilt_xz equal "xz"
variable tilt_yz equal "yz"
variable tot_press equal "press"
variable press_xx equal "pxx"
variable press_yy equal "pyy"
variable press_zz equal "pzz"
variable press_xy equal "pxy"
variable press_xz equal "pxz"
variable press_yz equal "pyz"

# ---- output ----
print "pypospack:output_section:begin"
pypospack:output_section:begin
print "tot_energy = ${tot_energy}"
tot_energy = -22.2288643671739
print "num_atoms = ${natoms}"
num_atoms = 2
print "a11 = ${a11}"
a11 = 9.65043005138234
print "a22 = ${a22}"
a22 = 9.3970651299688
print "a33 = ${a33}"
a33 = 9.3970651299691
print "a12 = ${tilt_xy}"
a12 = 0
print "a13 = ${tilt_xz}"
a13 = 0
print "a23 = ${tilt_yz}"
a23 = 0
print "tot_press = ${tot_press}"
tot_press = -0.0599992700751235
print "pxx = ${press_xx}"
pxx = -0.101791929713552
print "pyy = ${press_yy}"
pyy = -0.0391029402555765
print "pzz = ${press_zz}"
pzz = -0.0391029402562418
print "pxy = ${press_xy}"
pxy = 0.215664596661384
print "pxz = ${press_xz}"
pxz = 0.215664596661692
print "pyz = ${press_yz}"
pyz = -0.237828330862905
print "pypospack:output_section:done"
pypospack:output_section:done
print "pypospack:lammps_sim:done"
pypospack:lammps_sim:done
Total wall time: 0:00:00
