# ['Ni']

20 atoms
1 atom types

    0.0000     3.5104 xlo xhi
    0.0000     3.5104 ylo yhi
    0.0000    35.1042 zlo zhi

    0.0000    -0.0000     0.0000 xy xz yz

Atoms

1 1     0.0000     0.0000     0.0000
2 1     1.7552     1.7552     0.0000
3 1     1.7552     0.0000     1.7552
4 1     0.0000     1.7552     1.7552
5 1     0.0000     0.0000     3.5104
6 1     1.7552     1.7552     3.5104
7 1     1.7552     0.0000     5.2656
8 1     0.0000     1.7552     5.2656
9 1     0.0000     0.0000     7.0208
10 1     1.7552     1.7552     7.0208
11 1     1.7552     0.0000     8.7760
12 1     0.0000     1.7552     8.7760
13 1     0.0000     0.0000    10.5313
14 1     1.7552     1.7552    10.5313
15 1     1.7552     0.0000    12.2865
16 1     0.0000     1.7552    12.2865
17 1     0.0000     0.0000    14.0417
18 1     1.7552     1.7552    14.0417
19 1     1.7552     0.0000    15.7969
20 1     0.0000     1.7552    15.7969
