    4    4    1    2
  0.1064635E+02  0.3492102E-09  0.3492102E-09  0.3492102E-09  0.5000000E-15
  1.000000000000000E-004
  CAR 
 automatically generated by pyflamestk   
     40      4     32
 
  0.1250000E+00  0.1250000E+00  0.1250000E+00  0.1250000E+00
    1        1.120159      1.120153   1.000000   1.000000
    2        5.336057      5.336083   1.000000   1.000000
    3        5.336057      5.336083   1.000000   1.000000
    4        5.336057      5.336083   1.000000   1.000000
    5        5.906770      5.906759   1.000000   1.000000
    6        5.906770      5.906759   1.000000   1.000000
    7        5.906770      5.906759   1.000000   1.000000
    8        7.446058      7.446036   1.000000   1.000000
    9        7.730242      7.730220   1.000000   1.000000
   10        7.730242      7.730220   1.000000   1.000000
   11        8.708959      8.709016   1.000000   1.000000
   12        8.708959      8.709016   1.000000   1.000000
   13        8.729390      8.729381   1.000000   1.000000
   14        8.729390      8.729381   1.000000   1.000000
   15        8.729390      8.729381   1.000000   1.000000
   16        9.210643      9.210684   1.021595   1.021605
   17        9.210643      9.210684   1.021595   1.021605
   18        9.210643      9.210684   1.021595   1.021605
   19        9.613912      9.613910   0.199811   0.199816
   20        9.613912      9.613910   0.199811   0.199816
   21        9.613912      9.613910   0.199811   0.199816
   22       12.353985     12.353997  -0.000000  -0.000000
   23       12.353985     12.353997  -0.000000  -0.000000
   24       12.353985     12.353997  -0.000000  -0.000000
   25       20.691592     20.691572   0.000000   0.000000
   26       20.691592     20.691572   0.000000   0.000000
   27       20.691592     20.691572   0.000000   0.000000
   28       22.008866     22.008850   0.000000   0.000000
   29       22.008866     22.008850   0.000000   0.000000
   30       22.008866     22.008850   0.000000   0.000000
   31       25.660584     25.660543   0.000000   0.000000
   32       25.660584     25.660543   0.000000   0.000000
 
  0.3750000E+00  0.1250000E+00  0.1250000E+00  0.3750000E+00
    1        2.638311      2.638305   1.000000   1.000000
    2        4.786042      4.786047   1.000000   1.000000
    3        6.000689      6.000716   1.000000   1.000000
    4        6.000689      6.000716   1.000000   1.000000
    5        6.353734      6.353721   1.000000   1.000000
    6        6.363468      6.363461   1.000000   1.000000
    7        6.363468      6.363461   1.000000   1.000000
    8        7.004621      7.004603   1.000000   1.000000
    9        7.403780      7.403773   1.000000   1.000000
   10        7.403780      7.403773   1.000000   1.000000
   11        7.815125      7.815144   1.000000   1.000000
   12        7.885820      7.885830   1.000000   1.000000
   13        8.038245      8.038233   1.000000   1.000000
   14        8.556964      8.556986   1.000000   1.000000
   15        8.624219      8.624226   1.000000   1.000000
   16        8.757994      8.758044   1.000000   1.000000
   17        8.757994      8.758044   1.000000   1.000000
   18        9.017079      9.017126   1.000733   1.000734
   19        9.407743      9.407775   0.939769   0.939706
   20        9.527688      9.527673   0.539495   0.539556
   21        9.527688      9.527673   0.539495   0.539556
   22        9.626280      9.626282   0.160842   0.160839
   23       14.676355     14.676361  -0.000000  -0.000000
   24       14.676355     14.676361  -0.000000  -0.000000
   25       17.980566     17.980562   0.000000   0.000000
   26       17.980566     17.980562   0.000000   0.000000
   27       21.701997     21.701977   0.000000   0.000000
   28       21.701997     21.701977   0.000000   0.000000
   29       23.798762     23.798753   0.000000   0.000000
   30       23.980582     23.980559   0.000000   0.000000
   31       23.980582     23.980559   0.000000   0.000000
   32       26.909819     26.909826   0.000000   0.000000
 
  0.3750000E+00  0.3750000E+00  0.1250000E+00  0.3750000E+00
    1        3.908803      3.908798   1.000000   1.000000
    2        5.537864      5.537863   1.000000   1.000000
    3        5.537864      5.537863   1.000000   1.000000
    4        6.048838      6.048830   1.000000   1.000000
    5        6.642718      6.642750   1.000000   1.000000
    6        6.750260      6.750262   1.000000   1.000000
    7        6.750260      6.750262   1.000000   1.000000
    8        7.028280      7.028265   1.000000   1.000000
    9        7.214019      7.214027   1.000000   1.000000
   10        7.214019      7.214027   1.000000   1.000000
   11        7.331919      7.331908   1.000000   1.000000
   12        7.652126      7.652139   1.000000   1.000000
   13        7.988294      7.988312   1.000000   1.000000
   14        8.339888      8.339928   1.000000   1.000000
   15        8.340839      8.340868   1.000000   1.000000
   16        8.340839      8.340868   1.000000   1.000000
   17        8.646714      8.646730   1.000000   1.000000
   18        9.176095      9.176099   1.014252   1.014253
   19        9.176095      9.176099   1.014252   1.014253
   20        9.243781      9.243776   1.029127   1.029125
   21        9.588762      9.588782   0.289021   0.288948
   22       11.112736     11.112741  -0.000000  -0.000000
   23       11.112736     11.112741  -0.000000  -0.000000
   24       13.422957     13.422954  -0.000000  -0.000000
   25       16.961383     16.961386   0.000000   0.000000
   26       19.784728     19.784726   0.000000   0.000000
   27       19.784728     19.784726   0.000000   0.000000
   28       22.788917     22.788918   0.000000   0.000000
   29       22.915684     22.915666   0.000000   0.000000
   30       25.391842     25.391827   0.000000   0.000000
   31       25.391842     25.391827   0.000000   0.000000
   32       28.267818     28.267812   0.000000   0.000000
 
  0.3750000E+00  0.3750000E+00  0.3750000E+00  0.1250000E+00
    1        4.526846      4.526839   1.000000   1.000000
    2        5.283398      5.283390   1.000000   1.000000
    3        5.283398      5.283390   1.000000   1.000000
    4        5.283398      5.283390   1.000000   1.000000
    5        7.250993      7.251024   1.000000   1.000000
    6        7.250993      7.251024   1.000000   1.000000
    7        7.250993      7.251024   1.000000   1.000000
    8        7.657066      7.657084   1.000000   1.000000
    9        7.657066      7.657084   1.000000   1.000000
   10        7.814587      7.814610   1.000000   1.000000
   11        7.814587      7.814610   1.000000   1.000000
   12        7.814587      7.814610   1.000000   1.000000
   13        7.870724      7.870710   1.000000   1.000000
   14        7.902702      7.902689   1.000000   1.000000
   15        7.902702      7.902689   1.000000   1.000000
   16        7.902702      7.902689   1.000000   1.000000
   17        9.283702      9.283719   1.035202   1.035203
   18        9.283702      9.283719   1.035202   1.035203
   19        9.522456      9.522468   0.561498   0.561448
   20        9.522456      9.522468   0.561498   0.561448
   21        9.522456      9.522468   0.561498   0.561448
   22       11.126984     11.126986  -0.000000  -0.000000
   23       11.126984     11.126986  -0.000000  -0.000000
   24       11.126984     11.126986  -0.000000  -0.000000
   25       16.312908     16.312902   0.000000   0.000000
   26       16.312908     16.312902   0.000000   0.000000
   27       16.312908     16.312902   0.000000   0.000000
   28       18.748270     18.748266   0.000000   0.000000
   29       29.299840     29.299837   0.000000   0.000000
   30       29.299840     29.299837   0.000000   0.000000
   31       29.299840     29.299837   0.000000   0.000000
   32       31.675497     31.675458   0.000000   0.000000
