# ['Ni']

20 atoms
1 atom types

    0.0000     3.3123 xlo xhi
    0.0000     3.3123 ylo yhi
    0.0000    33.1228 zlo zhi

    0.0000    -0.0000     0.0000 xy xz yz

Atoms

1 1     0.0000     0.0000     0.0000
2 1     1.6561     1.6561     0.0000
3 1     1.6561     0.0000     1.6561
4 1     0.0000     1.6561     1.6561
5 1     0.0000     0.0000     3.3123
6 1     1.6561     1.6561     3.3123
7 1     1.6561     0.0000     4.9684
8 1     0.0000     1.6561     4.9684
9 1     0.0000     0.0000     6.6246
10 1     1.6561     1.6561     6.6246
11 1     1.6561     0.0000     8.2807
12 1     0.0000     1.6561     8.2807
13 1     0.0000     0.0000     9.9369
14 1     1.6561     1.6561     9.9369
15 1     1.6561     0.0000    11.5930
16 1     0.0000     1.6561    11.5930
17 1     0.0000     0.0000    13.2491
18 1     1.6561     1.6561    13.2491
19 1     1.6561     0.0000    14.9053
20 1     0.0000     1.6561    14.9053
