   4   4   0   0
  0.1064635E+02  0.3492102E-09  0.3492102E-09  0.3492102E-09  0.5000000E-15
  1.000000000000000E-004
  CAR 
 automatically generated by pyflamestk   
     33.67817491     -0.88040522  301      9.54540892      1.00000000
     -0.880  0.0000E+00  0.0000E+00  0.0000E+00  0.0000E+00
     -0.765  0.0000E+00  0.0000E+00  0.0000E+00  0.0000E+00
     -0.650  0.0000E+00  0.0000E+00  0.0000E+00  0.0000E+00
     -0.535 -0.4829E-29 -0.4852E-29 -0.5563E-30 -0.5590E-30
     -0.420 -0.4435E-25 -0.4455E-25 -0.5110E-26 -0.5133E-26
     -0.304 -0.2087E-21 -0.2095E-21 -0.2404E-22 -0.2414E-22
     -0.189 -0.5022E-18 -0.5041E-18 -0.5788E-19 -0.5810E-19
     -0.074 -0.6176E-15 -0.6198E-15 -0.7120E-16 -0.7145E-16
      0.041 -0.3743E-12 -0.3754E-12 -0.4319E-13 -0.4332E-13
      0.156 -0.1184E-09 -0.1187E-09 -0.1368E-10 -0.1372E-10
      0.272 -0.1892E-07 -0.1896E-07 -0.2193E-08 -0.2198E-08
      0.387 -0.1513E-05 -0.1516E-05 -0.1765E-06 -0.1769E-06
      0.502 -0.5970E-04 -0.5980E-04 -0.7054E-05 -0.7066E-05
      0.617 -0.1126E-02 -0.1128E-02 -0.1368E-03 -0.1370E-03
      0.732 -0.9401E-02 -0.9409E-02 -0.1220E-02 -0.1221E-02
      0.848 -0.2534E-01 -0.2534E-01 -0.4139E-02 -0.4140E-02
      0.963  0.5109E-01  0.5119E-01  0.1747E-02  0.1757E-02
      1.078  0.3403E+00  0.3405E+00  0.4095E-01  0.4098E-01
      1.193  0.5005E+00  0.5004E+00  0.9860E-01  0.9862E-01
      1.308  0.2489E+00  0.2488E+00  0.1273E+00  0.1273E+00
      1.424  0.9326E-02  0.9266E-02  0.1283E+00  0.1283E+00
      1.539 -0.2276E-01 -0.2276E-01  0.1257E+00  0.1257E+00
      1.654 -0.5736E-02 -0.5730E-02  0.1251E+00  0.1251E+00
      1.769 -0.5416E-03 -0.5408E-03  0.1250E+00  0.1250E+00
      1.884 -0.2549E-04 -0.2545E-04  0.1250E+00  0.1250E+00
      1.999 -0.9768E-04 -0.9782E-04  0.1250E+00  0.1250E+00
      2.115 -0.2103E-02 -0.2105E-02  0.1247E+00  0.1247E+00
      2.230 -0.2056E-01 -0.2057E-01  0.1224E+00  0.1224E+00
      2.345 -0.7226E-01 -0.7227E-01  0.1141E+00  0.1141E+00
      2.460  0.6437E-01  0.6454E-01  0.1215E+00  0.1215E+00
      2.575  0.8414E+00  0.8418E+00  0.2184E+00  0.2185E+00
      2.691  0.1515E+01  0.1515E+01  0.3929E+00  0.3929E+00
      2.806  0.9279E+00  0.9275E+00  0.4998E+00  0.4998E+00
      2.921  0.1036E+00  0.1034E+00  0.5117E+00  0.5117E+00
      3.036 -0.7481E-01 -0.7480E-01  0.5031E+00  0.5031E+00
      3.151 -0.2401E-01 -0.2399E-01  0.5003E+00  0.5003E+00
      3.267 -0.2732E-02 -0.2729E-02  0.5000E+00  0.5000E+00
      3.382 -0.2045E-02 -0.2045E-02  0.4998E+00  0.4998E+00
      3.497 -0.1928E-01 -0.1928E-01  0.4975E+00  0.4975E+00
      3.612 -0.7093E-01 -0.7092E-01  0.4894E+00  0.4894E+00
      3.727  0.5025E-01  0.5022E-01  0.4952E+00  0.4952E+00
      3.843  0.8066E+00  0.8066E+00  0.5881E+00  0.5881E+00
      3.958  0.1511E+01  0.1511E+01  0.7622E+00  0.7622E+00
      4.073  0.9593E+00  0.9594E+00  0.8727E+00  0.8727E+00
      4.188  0.1039E+00  0.1040E+00  0.8846E+00  0.8847E+00
      4.303 -0.9716E-01 -0.9723E-01  0.8735E+00  0.8735E+00
      4.419  0.8685E-01  0.8642E-01  0.8835E+00  0.8834E+00
      4.534  0.3775E+00  0.3771E+00  0.9269E+00  0.9268E+00
      4.649  0.6849E+00  0.6849E+00  0.1006E+01  0.1006E+01
      4.764  0.1289E+01  0.1289E+01  0.1154E+01  0.1154E+01
      4.879  0.1401E+01  0.1401E+01  0.1316E+01  0.1316E+01
      4.995  0.4562E+00  0.4569E+00  0.1368E+01  0.1368E+01
      5.110 -0.4132E-01 -0.4267E-01  0.1363E+01  0.1363E+01
      5.225  0.1058E+01  0.1053E+01  0.1485E+01  0.1485E+01
      5.340  0.2818E+01  0.2815E+01  0.1810E+01  0.1809E+01
      5.455  0.3543E+01  0.3544E+01  0.2218E+01  0.2217E+01
      5.571  0.3382E+01  0.3384E+01  0.2608E+01  0.2607E+01
      5.686  0.1897E+01  0.1901E+01  0.2826E+01  0.2826E+01
      5.801  0.6879E+00  0.6847E+00  0.2905E+01  0.2905E+01
      5.916  0.2629E+01  0.2619E+01  0.3208E+01  0.3207E+01
      6.031  0.5168E+01  0.5167E+01  0.3804E+01  0.3802E+01
      6.147  0.4006E+01  0.4014E+01  0.4265E+01  0.4264E+01
      6.262  0.2448E+01  0.2444E+01  0.4547E+01  0.4546E+01
      6.377  0.3821E+01  0.3814E+01  0.4987E+01  0.4985E+01
      6.492  0.3642E+01  0.3650E+01  0.5407E+01  0.5405E+01
      6.607  0.2354E+01  0.2357E+01  0.5678E+01  0.5677E+01
      6.722  0.3331E+01  0.3326E+01  0.6062E+01  0.6060E+01
      6.838  0.3586E+01  0.3587E+01  0.6475E+01  0.6473E+01
      6.953  0.2651E+01  0.2650E+01  0.6780E+01  0.6779E+01
      7.068  0.3132E+01  0.3127E+01  0.7141E+01  0.7139E+01
      7.183  0.4715E+01  0.4708E+01  0.7684E+01  0.7681E+01
      7.298  0.6622E+01  0.6616E+01  0.8447E+01  0.8443E+01
      7.414  0.6631E+01  0.6636E+01  0.9211E+01  0.9208E+01
      7.529  0.4206E+01  0.4217E+01  0.9695E+01  0.9694E+01
      7.644  0.3124E+01  0.3121E+01  0.1006E+02  0.1005E+02
      7.759  0.5258E+01  0.5246E+01  0.1066E+02  0.1066E+02
      7.874  0.7758E+01  0.7753E+01  0.1155E+02  0.1155E+02
      7.990  0.7372E+01  0.7380E+01  0.1240E+02  0.1240E+02
      8.105  0.4088E+01  0.4102E+01  0.1287E+02  0.1287E+02
      8.220  0.1956E+01  0.1958E+01  0.1310E+02  0.1310E+02
      8.335  0.3319E+01  0.3311E+01  0.1348E+02  0.1348E+02
      8.450  0.4253E+01  0.4253E+01  0.1397E+02  0.1397E+02
      8.566  0.4446E+01  0.4438E+01  0.1448E+02  0.1448E+02
      8.681  0.7031E+01  0.7019E+01  0.1529E+02  0.1529E+02
      8.796  0.7658E+01  0.7669E+01  0.1618E+02  0.1617E+02
      8.911  0.3954E+01  0.3973E+01  0.1663E+02  0.1663E+02
      9.026  0.1826E+01  0.1823E+01  0.1684E+02  0.1684E+02
      9.142  0.4124E+01  0.4105E+01  0.1732E+02  0.1731E+02
      9.257  0.6662E+01  0.6657E+01  0.1809E+02  0.1808E+02
      9.372  0.5974E+01  0.5980E+01  0.1877E+02  0.1877E+02
      9.487  0.6392E+01  0.6378E+01  0.1951E+02  0.1950E+02
      9.602  0.8694E+01  0.8690E+01  0.2051E+02  0.2051E+02
      9.718  0.6464E+01  0.6491E+01  0.2126E+02  0.2125E+02
      9.833  0.1623E+01  0.1644E+01  0.2144E+02  0.2144E+02
      9.948 -0.3212E+00 -0.3190E+00  0.2141E+02  0.2141E+02
     10.063 -0.2245E+00 -0.2261E+00  0.2138E+02  0.2138E+02
     10.178 -0.3878E-01 -0.3924E-01  0.2138E+02  0.2138E+02
     10.294 -0.2922E-02 -0.2967E-02  0.2138E+02  0.2138E+02
     10.409 -0.1326E-03 -0.1342E-03  0.2137E+02  0.2137E+02
     10.524 -0.9317E-03 -0.9216E-03  0.2137E+02  0.2137E+02
     10.639 -0.1536E-01 -0.1524E-01  0.2137E+02  0.2137E+02
     10.754 -0.1097E+00 -0.1092E+00  0.2136E+02  0.2136E+02
     10.870 -0.2167E+00 -0.2172E+00  0.2134E+02  0.2134E+02
     10.985  0.7742E+00  0.7672E+00  0.2142E+02  0.2142E+02
     11.100  0.3519E+01  0.3510E+01  0.2183E+02  0.2183E+02
     11.215  0.4333E+01  0.4337E+01  0.2233E+02  0.2233E+02
     11.330  0.1760E+01  0.1770E+01  0.2253E+02  0.2253E+02
     11.445 -0.5814E-01 -0.5579E-01  0.2253E+02  0.2253E+02
     11.561 -0.1785E+00 -0.1790E+00  0.2250E+02  0.2250E+02
     11.676 -0.3733E-01 -0.3758E-01  0.2250E+02  0.2250E+02
     11.791 -0.3839E-02 -0.3864E-02  0.2250E+02  0.2250E+02
     11.906 -0.9999E-02 -0.9965E-02  0.2250E+02  0.2250E+02
     12.021 -0.5330E-01 -0.5320E-01  0.2249E+02  0.2249E+02
     12.137 -0.4213E-01 -0.4243E-01  0.2249E+02  0.2249E+02
     12.252  0.4885E+00  0.4870E+00  0.2254E+02  0.2254E+02
     12.367  0.1391E+01  0.1390E+01  0.2270E+02  0.2270E+02
     12.482  0.1263E+01  0.1264E+01  0.2285E+02  0.2285E+02
     12.597  0.3348E+00  0.3361E+00  0.2289E+02  0.2289E+02
     12.713 -0.6581E-01 -0.6567E-01  0.2288E+02  0.2288E+02
     12.828 -0.4274E-01 -0.4284E-01  0.2288E+02  0.2288E+02
     12.943 -0.1160E-01 -0.1160E-01  0.2287E+02  0.2287E+02
     13.058 -0.3685E-01 -0.3674E-01  0.2287E+02  0.2287E+02
     13.173 -0.7280E-01 -0.7289E-01  0.2286E+02  0.2286E+02
     13.289  0.2558E+00  0.2543E+00  0.2289E+02  0.2289E+02
     13.404  0.1172E+01  0.1171E+01  0.2303E+02  0.2303E+02
     13.519  0.1447E+01  0.1448E+01  0.2319E+02  0.2319E+02
     13.634  0.5878E+00  0.5898E+00  0.2326E+02  0.2326E+02
     13.749 -0.1985E-01 -0.1934E-01  0.2326E+02  0.2326E+02
     13.865 -0.5964E-01 -0.5976E-01  0.2325E+02  0.2325E+02
     13.980 -0.1245E-01 -0.1250E-01  0.2325E+02  0.2325E+02
     14.095 -0.1924E-02 -0.1925E-02  0.2325E+02  0.2325E+02
     14.210 -0.1362E-01 -0.1357E-01  0.2325E+02  0.2325E+02
     14.325 -0.8678E-01 -0.8657E-01  0.2324E+02  0.2324E+02
     14.441 -0.1287E+00 -0.1290E+00  0.2322E+02  0.2322E+02
     14.556  0.6953E+00  0.6925E+00  0.2330E+02  0.2330E+02
     14.671  0.2551E+01  0.2548E+01  0.2360E+02  0.2360E+02
     14.786  0.2762E+01  0.2764E+01  0.2392E+02  0.2392E+02
     14.901  0.9478E+00  0.9510E+00  0.2402E+02  0.2402E+02
     15.017 -0.8989E-01 -0.8929E-01  0.2401E+02  0.2401E+02
     15.132 -0.1046E+00 -0.1049E+00  0.2400E+02  0.2400E+02
     15.247 -0.1907E-01 -0.1914E-01  0.2400E+02  0.2400E+02
     15.362 -0.1423E-02 -0.1431E-02  0.2400E+02  0.2400E+02
     15.477 -0.4963E-04 -0.4996E-04  0.2400E+02  0.2400E+02
     15.593 -0.6883E-05 -0.6829E-05  0.2400E+02  0.2400E+02
     15.708 -0.2264E-03 -0.2245E-03  0.2400E+02  0.2400E+02
     15.823 -0.4044E-02 -0.4019E-02  0.2400E+02  0.2400E+02
     15.938 -0.3166E-01 -0.3153E-01  0.2400E+02  0.2400E+02
     16.053 -0.7554E-01 -0.7558E-01  0.2399E+02  0.2399E+02
     16.168  0.1955E+00  0.1939E+00  0.2401E+02  0.2401E+02
     16.284  0.1089E+01  0.1087E+01  0.2414E+02  0.2413E+02
     16.399  0.1482E+01  0.1482E+01  0.2431E+02  0.2431E+02
     16.514  0.6664E+00  0.6689E+00  0.2438E+02  0.2438E+02
     16.629 -0.4836E-01 -0.4747E-01  0.2438E+02  0.2438E+02
     16.744 -0.1072E+00 -0.1077E+00  0.2436E+02  0.2436E+02
     16.860  0.4716E+00  0.4698E+00  0.2442E+02  0.2442E+02
     16.975  0.1388E+01  0.1387E+01  0.2458E+02  0.2458E+02
     17.090  0.1264E+01  0.1266E+01  0.2472E+02  0.2472E+02
     17.205  0.3365E+00  0.3380E+00  0.2476E+02  0.2476E+02
     17.320 -0.6571E-01 -0.6554E-01  0.2476E+02  0.2476E+02
     17.436 -0.4490E-01 -0.4500E-01  0.2475E+02  0.2475E+02
     17.551 -0.3382E-01 -0.3378E-01  0.2475E+02  0.2475E+02
     17.666 -0.1248E+00 -0.1247E+00  0.2473E+02  0.2473E+02
     17.781 -0.1677E-01 -0.1745E-01  0.2473E+02  0.2473E+02
     17.896  0.1262E+01  0.1260E+01  0.2488E+02  0.2488E+02
     18.012  0.2932E+01  0.2931E+01  0.2521E+02  0.2521E+02
     18.127  0.2264E+01  0.2266E+01  0.2547E+02  0.2547E+02
     18.242  0.4495E+00  0.4512E+00  0.2553E+02  0.2553E+02
     18.357 -0.1574E+00 -0.1573E+00  0.2551E+02  0.2551E+02
     18.472 -0.9321E-01 -0.9333E-01  0.2550E+02  0.2550E+02
     18.588  0.3098E-01  0.3064E-01  0.2550E+02  0.2550E+02
     18.703  0.3197E+00  0.3191E+00  0.2554E+02  0.2554E+02
     18.818  0.5039E+00  0.5039E+00  0.2560E+02  0.2560E+02
     18.933  0.2694E+00  0.2700E+00  0.2563E+02  0.2563E+02
     19.048  0.1696E-01  0.1720E-01  0.2563E+02  0.2563E+02
     19.164 -0.2396E-01 -0.2398E-01  0.2563E+02  0.2563E+02
     19.279 -0.1229E-01 -0.1229E-01  0.2562E+02  0.2562E+02
     19.394 -0.5192E-01 -0.5180E-01  0.2562E+02  0.2562E+02
     19.509 -0.1511E+00 -0.1510E+00  0.2560E+02  0.2560E+02
     19.624  0.2454E+00  0.2440E+00  0.2563E+02  0.2563E+02
     19.740  0.1931E+01  0.1928E+01  0.2585E+02  0.2585E+02
     19.855  0.3022E+01  0.3022E+01  0.2620E+02  0.2620E+02
     19.970  0.1607E+01  0.1609E+01  0.2638E+02  0.2638E+02
     20.085  0.9771E-01  0.9876E-01  0.2640E+02  0.2640E+02
     20.200 -0.1454E+00 -0.1455E+00  0.2638E+02  0.2638E+02
     20.316 -0.6880E-01 -0.6885E-01  0.2637E+02  0.2637E+02
     20.431 -0.7964E-01 -0.7967E-01  0.2636E+02  0.2636E+02
     20.546  0.1808E+00  0.1803E+00  0.2638E+02  0.2638E+02
     20.661  0.1067E+01  0.1066E+01  0.2651E+02  0.2651E+02
     20.776  0.1490E+01  0.1490E+01  0.2668E+02  0.2668E+02
     20.892  0.6996E+00  0.7005E+00  0.2676E+02  0.2676E+02
     21.007  0.1211E-01  0.1240E-01  0.2676E+02  0.2676E+02
     21.122 -0.6683E-01 -0.6688E-01  0.2675E+02  0.2675E+02
     21.237 -0.2906E-01 -0.2906E-01  0.2675E+02  0.2675E+02
     21.352 -0.8746E-01 -0.8738E-01  0.2674E+02  0.2674E+02
     21.467 -0.1313E+00 -0.1314E+00  0.2672E+02  0.2672E+02
     21.583  0.6698E+00  0.6687E+00  0.2680E+02  0.2680E+02
     21.698  0.2476E+01  0.2475E+01  0.2709E+02  0.2709E+02
     21.813  0.2773E+01  0.2774E+01  0.2741E+02  0.2740E+02
     21.928  0.1631E+01  0.1631E+01  0.2759E+02  0.2759E+02
     22.043  0.1393E+01  0.1393E+01  0.2775E+02  0.2775E+02
     22.159  0.9887E+00  0.9891E+00  0.2787E+02  0.2787E+02
     22.274  0.1773E+00  0.1776E+00  0.2789E+02  0.2789E+02
     22.389 -0.1007E+00 -0.1007E+00  0.2788E+02  0.2788E+02
     22.504 -0.1234E+00 -0.1234E+00  0.2786E+02  0.2786E+02
     22.619  0.8513E-02  0.8047E-02  0.2786E+02  0.2786E+02
     22.735  0.9158E+00  0.9145E+00  0.2797E+02  0.2797E+02
     22.850  0.2281E+01  0.2281E+01  0.2823E+02  0.2823E+02
     22.965  0.2393E+01  0.2394E+01  0.2851E+02  0.2851E+02
     23.080  0.1088E+01  0.1089E+01  0.2863E+02  0.2863E+02
     23.195  0.6892E-01  0.6921E-01  0.2864E+02  0.2864E+02
     23.311 -0.1026E+00 -0.1026E+00  0.2863E+02  0.2863E+02
     23.426 -0.6402E-01 -0.6402E-01  0.2862E+02  0.2862E+02
     23.541 -0.1012E+00 -0.1012E+00  0.2861E+02  0.2861E+02
     23.656  0.9175E-01  0.9136E-01  0.2862E+02  0.2862E+02
     23.771  0.1045E+01  0.1044E+01  0.2874E+02  0.2874E+02
     23.887  0.2568E+01  0.2568E+01  0.2904E+02  0.2904E+02
     24.002  0.3511E+01  0.3511E+01  0.2944E+02  0.2944E+02
     24.117  0.2422E+01  0.2423E+01  0.2972E+02  0.2972E+02
     24.232  0.5115E+00  0.5120E+00  0.2978E+02  0.2978E+02
     24.347 -0.1553E+00 -0.1553E+00  0.2976E+02  0.2976E+02
     24.463 -0.7904E-01 -0.7909E-01  0.2975E+02  0.2975E+02
     24.578 -0.1133E-01 -0.1134E-01  0.2975E+02  0.2975E+02
     24.693 -0.7269E-03 -0.7277E-03  0.2975E+02  0.2975E+02
     24.808 -0.8155E-03 -0.8145E-03  0.2975E+02  0.2975E+02
     24.923 -0.1239E-01 -0.1238E-01  0.2975E+02  0.2975E+02
     25.039 -0.8232E-01 -0.8228E-01  0.2974E+02  0.2974E+02
     25.154 -0.1373E+00 -0.1374E+00  0.2972E+02  0.2972E+02
     25.269  0.6169E+00  0.6163E+00  0.2979E+02  0.2979E+02
     25.384  0.2438E+01  0.2437E+01  0.3008E+02  0.3007E+02
     25.499  0.2891E+01  0.2891E+01  0.3041E+02  0.3041E+02
     25.615  0.1664E+01  0.1665E+01  0.3060E+02  0.3060E+02
     25.730  0.9314E+00  0.9315E+00  0.3071E+02  0.3071E+02
     25.845  0.4249E+00  0.4247E+00  0.3076E+02  0.3076E+02
     25.960  0.1137E-01  0.1130E-01  0.3076E+02  0.3076E+02
     26.075 -0.4874E-01 -0.4874E-01  0.3075E+02  0.3075E+02
     26.190 -0.1279E-01 -0.1279E-01  0.3075E+02  0.3075E+02
     26.306 -0.1480E-02 -0.1480E-02  0.3075E+02  0.3075E+02
     26.421 -0.4015E-02 -0.4023E-02  0.3075E+02  0.3075E+02
     26.536 -0.3123E-01 -0.3127E-01  0.3075E+02  0.3075E+02
     26.651 -0.7567E-01 -0.7566E-01  0.3074E+02  0.3074E+02
     26.766  0.1902E+00  0.1907E+00  0.3076E+02  0.3076E+02
     26.882  0.1081E+01  0.1082E+01  0.3088E+02  0.3088E+02
     26.997  0.1485E+01  0.1485E+01  0.3105E+02  0.3105E+02
     27.112  0.6847E+00  0.6839E+00  0.3113E+02  0.3113E+02
     27.227  0.7428E-02  0.7171E-02  0.3113E+02  0.3113E+02
     27.342 -0.6517E-01 -0.6513E-01  0.3113E+02  0.3113E+02
     27.458 -0.1522E-01 -0.1520E-01  0.3113E+02  0.3113E+02
     27.573 -0.1378E-02 -0.1375E-02  0.3113E+02  0.3113E+02
     27.688 -0.5061E-03 -0.5056E-03  0.3112E+02  0.3112E+02
     27.803 -0.6798E-02 -0.6793E-02  0.3112E+02  0.3112E+02
     27.918 -0.4341E-01 -0.4339E-01  0.3112E+02  0.3112E+02
     28.034 -0.6430E-01 -0.6433E-01  0.3111E+02  0.3111E+02
     28.149  0.3479E+00  0.3477E+00  0.3115E+02  0.3115E+02
     28.264  0.1276E+01  0.1276E+01  0.3130E+02  0.3130E+02
     28.379  0.1381E+01  0.1381E+01  0.3146E+02  0.3146E+02
     28.494  0.4736E+00  0.4739E+00  0.3151E+02  0.3151E+02
     28.610 -0.4502E-01 -0.4497E-01  0.3151E+02  0.3151E+02
     28.725 -0.5278E-01 -0.5279E-01  0.3150E+02  0.3150E+02
     28.840 -0.1661E-01 -0.1661E-01  0.3150E+02  0.3150E+02
     28.955 -0.4514E-01 -0.4516E-01  0.3149E+02  0.3149E+02
     29.070 -0.6261E-01 -0.6260E-01  0.3149E+02  0.3149E+02
     29.186  0.3619E+00  0.3620E+00  0.3153E+02  0.3153E+02
     29.301  0.1289E+01  0.1289E+01  0.3168E+02  0.3168E+02
     29.416  0.1370E+01  0.1369E+01  0.3183E+02  0.3183E+02
     29.531  0.4581E+00  0.4579E+00  0.3189E+02  0.3189E+02
     29.646 -0.4786E-01 -0.4788E-01  0.3188E+02  0.3188E+02
     29.762 -0.5125E-01 -0.5123E-01  0.3188E+02  0.3188E+02
     29.877 -0.9165E-02 -0.9162E-02  0.3188E+02  0.3188E+02
     29.992 -0.6742E-03 -0.6738E-03  0.3188E+02  0.3188E+02
     30.107 -0.2317E-04 -0.2315E-04  0.3188E+02  0.3188E+02
     30.222 -0.3887E-06 -0.3884E-06  0.3188E+02  0.3188E+02
     30.338 -0.3249E-08 -0.3246E-08  0.3188E+02  0.3188E+02
     30.453 -0.1367E-10 -0.1365E-10  0.3188E+02  0.3188E+02
     30.568 -0.9758E-13 -0.9752E-13  0.3187E+02  0.3187E+02
     30.683 -0.2592E-10 -0.2590E-10  0.3187E+02  0.3187E+02
     30.798 -0.5002E-08 -0.4999E-08  0.3187E+02  0.3187E+02
     30.913 -0.4848E-06 -0.4845E-06  0.3187E+02  0.3187E+02
     31.029 -0.2329E-04 -0.2328E-04  0.3187E+02  0.3187E+02
     31.144 -0.5410E-03 -0.5408E-03  0.3187E+02  0.3187E+02
     31.259 -0.5732E-02 -0.5730E-02  0.3187E+02  0.3187E+02
     31.374 -0.2276E-01 -0.2276E-01  0.3187E+02  0.3187E+02
     31.489  0.9283E-02  0.9266E-02  0.3187E+02  0.3187E+02
     31.605  0.2488E+00  0.2488E+00  0.3190E+02  0.3190E+02
     31.720  0.5004E+00  0.5004E+00  0.3196E+02  0.3196E+02
     31.835  0.3404E+00  0.3405E+00  0.3200E+02  0.3200E+02
     31.950  0.5116E-01  0.5119E-01  0.3200E+02  0.3200E+02
     32.065 -0.2534E-01 -0.2534E-01  0.3200E+02  0.3200E+02
     32.181 -0.9407E-02 -0.9409E-02  0.3200E+02  0.3200E+02
     32.296 -0.1127E-02 -0.1128E-02  0.3200E+02  0.3200E+02
     32.411 -0.5977E-04 -0.5980E-04  0.3200E+02  0.3200E+02
     32.526 -0.1515E-05 -0.1516E-05  0.3200E+02  0.3200E+02
     32.641 -0.1895E-07 -0.1896E-07  0.3200E+02  0.3200E+02
     32.757 -0.1186E-09 -0.1187E-09  0.3200E+02  0.3200E+02
     32.872 -0.3751E-12 -0.3751E-12  0.3200E+02  0.3200E+02
     32.987 -0.7228E-15 -0.7228E-15  0.3200E+02  0.3200E+02
     33.102  0.0000E+00  0.0000E+00  0.3200E+02  0.3200E+02
     33.217  0.0000E+00  0.0000E+00  0.3200E+02  0.3200E+02
     33.333  0.0000E+00  0.0000E+00  0.3200E+02  0.3200E+02
     33.448  0.0000E+00  0.0000E+00  0.3200E+02  0.3200E+02
     33.563  0.0000E+00  0.0000E+00  0.3200E+02  0.3200E+02
     33.678  0.0000E+00  0.0000E+00  0.3200E+02  0.3200E+02
