# ['Ni']

107 atoms
1 atom types

    0.0000    10.5308 xlo xhi
    0.0000    10.5308 ylo yhi
    0.0000    10.5308 zlo zhi

    0.0000    -0.0000    -0.0000 xy xz yz

Atoms

1 1     1.7551     1.7551     0.0000
2 1     1.7551     0.0000     1.7551
3 1     0.0000     1.7551     1.7551
4 1     0.0000     0.0000     3.5103
5 1     1.7551     1.7551     3.5103
6 1     1.7551     0.0000     5.2654
7 1     0.0000     1.7551     5.2654
8 1     0.0000     0.0000     7.0205
9 1     1.7551     1.7551     7.0205
10 1     1.7551     0.0000     8.7757
11 1     0.0000     1.7551     8.7757
12 1     0.0000     3.5103     0.0000
13 1     1.7551     5.2654     0.0000
14 1     1.7551     3.5103     1.7551
15 1     0.0000     5.2654     1.7551
16 1     0.0000     3.5103     3.5103
17 1     1.7551     5.2654     3.5103
18 1     1.7551     3.5103     5.2654
19 1     0.0000     5.2654     5.2654
20 1     0.0000     3.5103     7.0205
21 1     1.7551     5.2654     7.0205
22 1     1.7551     3.5103     8.7757
23 1     0.0000     5.2654     8.7757
24 1     0.0000     7.0205     0.0000
25 1     1.7551     8.7757     0.0000
26 1     1.7551     7.0205     1.7551
27 1     0.0000     8.7757     1.7551
28 1     0.0000     7.0205     3.5103
29 1     1.7551     8.7757     3.5103
30 1     1.7551     7.0205     5.2654
31 1     0.0000     8.7757     5.2654
32 1     0.0000     7.0205     7.0205
33 1     1.7551     8.7757     7.0205
34 1     1.7551     7.0205     8.7757
35 1     0.0000     8.7757     8.7757
36 1     3.5103     0.0000     0.0000
37 1     5.2654     1.7551     0.0000
38 1     5.2654     0.0000     1.7551
39 1     3.5103     1.7551     1.7551
40 1     3.5103     0.0000     3.5103
41 1     5.2654     1.7551     3.5103
42 1     5.2654     0.0000     5.2654
43 1     3.5103     1.7551     5.2654
44 1     3.5103     0.0000     7.0205
45 1     5.2654     1.7551     7.0205
46 1     5.2654     0.0000     8.7757
47 1     3.5103     1.7551     8.7757
48 1     3.5103     3.5103     0.0000
49 1     5.2654     5.2654     0.0000
50 1     5.2654     3.5103     1.7551
51 1     3.5103     5.2654     1.7551
52 1     3.5103     3.5103     3.5103
53 1     5.2654     5.2654     3.5103
54 1     5.2654     3.5103     5.2654
55 1     3.5103     5.2654     5.2654
56 1     3.5103     3.5103     7.0205
57 1     5.2654     5.2654     7.0205
58 1     5.2654     3.5103     8.7757
59 1     3.5103     5.2654     8.7757
60 1     3.5103     7.0205     0.0000
61 1     5.2654     8.7757     0.0000
62 1     5.2654     7.0205     1.7551
63 1     3.5103     8.7757     1.7551
64 1     3.5103     7.0205     3.5103
65 1     5.2654     8.7757     3.5103
66 1     5.2654     7.0205     5.2654
67 1     3.5103     8.7757     5.2654
68 1     3.5103     7.0205     7.0205
69 1     5.2654     8.7757     7.0205
70 1     5.2654     7.0205     8.7757
71 1     3.5103     8.7757     8.7757
72 1     7.0205     0.0000     0.0000
73 1     8.7757     1.7551     0.0000
74 1     8.7757     0.0000     1.7551
75 1     7.0205     1.7551     1.7551
76 1     7.0205     0.0000     3.5103
77 1     8.7757     1.7551     3.5103
78 1     8.7757     0.0000     5.2654
79 1     7.0205     1.7551     5.2654
80 1     7.0205     0.0000     7.0205
81 1     8.7757     1.7551     7.0205
82 1     8.7757     0.0000     8.7757
83 1     7.0205     1.7551     8.7757
84 1     7.0205     3.5103     0.0000
85 1     8.7757     5.2654     0.0000
86 1     8.7757     3.5103     1.7551
87 1     7.0205     5.2654     1.7551
88 1     7.0205     3.5103     3.5103
89 1     8.7757     5.2654     3.5103
90 1     8.7757     3.5103     5.2654
91 1     7.0205     5.2654     5.2654
92 1     7.0205     3.5103     7.0205
93 1     8.7757     5.2654     7.0205
94 1     8.7757     3.5103     8.7757
95 1     7.0205     5.2654     8.7757
96 1     7.0205     7.0205     0.0000
97 1     8.7757     8.7757     0.0000
98 1     8.7757     7.0205     1.7551
99 1     7.0205     8.7757     1.7551
100 1     7.0205     7.0205     3.5103
101 1     8.7757     8.7757     3.5103
102 1     8.7757     7.0205     5.2654
103 1     7.0205     8.7757     5.2654
104 1     7.0205     7.0205     7.0205
105 1     8.7757     8.7757     7.0205
106 1     8.7757     7.0205     8.7757
107 1     7.0205     8.7757     8.7757
