LAMMPS (11 Aug 2017)
# ---- initialize simulations
clear
units metal
dimension 3
boundary p p p
atom_style atomic
atom_modify map array
# ---- create atoms
read_data /home/sullberg/repos/pypospack/examples/Ni__eam__born_exp_rose/01_preconditioning_3.5NN/rank_39/Ni_hcp.lmps_min_all/lammps.structure
  triclinic box = (0 0 0) to (3.6 6.2354 5.8788) with tilt (0 0 0)
  1 by 1 by 1 MPI processor grid
  reading atoms ...
  4 atoms
# ---- define interatomic potential
include potential.mod
mass 1 58.6934

group Ni type 1
4 atoms in group Ni

pair_style eam/alloy
pair_coeff * * /home/sullberg/repos/pypospack/examples/Ni__eam__born_exp_rose/01_preconditioning_3.5NN/rank_39/Ni_hcp.lmps_min_all/Ni.eam.alloy Ni

neighbor 1.0 bin
neigh_modify every 1 delay 0 check yes
# ---- define settings
compute eng all pe/atom
compute eatoms all reduce sum c_eng
# ---- run minimization
reset_timestep 0
fix 1 all box/relax aniso 0.0 vmax 0.001
thermo 10
thermo_style custom step pe xhi xlo yhi ylo zhi xy xz yz press pxx pyy pzz pxy pxz pyz c_eatoms
min_style cg
minimize 1e-25 1e-25 5000 10000
Neighbor list info ...
  update every 1 steps, delay 0 steps, check yes
  max neighbors/atom: 2000, page size: 100000
  master list distance cutoff = 11
  ghost atom cutoff = 11
  binsize = 5.5, bins = 1 2 2
  1 neighbor lists, perpetual/occasional/extra = 1 0 0
  (1) pair eam/alloy, perpetual
      attributes: half, newton on
      pair build: half/bin/newton/tri
      stencil: half/bin/3d/newton/tri
      bin: standard
Per MPI rank memory allocation (min/avg/max) = 4.231 | 4.231 | 4.231 Mbytes
Step PotEng Xhi Xlo Yhi Ylo Zhi Xy Xz Yz Press Pxx Pyy Pzz Pxy Pxz Pyz c_eatoms 
       0   -13.757582          3.6            0       6.2354            0       5.8788            0            0            0   -112299.53   -112259.51   -112258.72   -112380.36 9.3624303e-13 9.9894152e-12 2.6661144e-11   -13.757582 
      10   -14.041232    3.5820197  0.017980325    6.2042573  0.031142704     5.849406            0            0            0   -119813.08   -119769.24   -119768.43   -119901.59 7.8470834e-12 -6.8988215e-12 1.2418517e-11   -14.041232 
      20   -14.337517    3.5640401   0.03595994    6.1731158  0.062284187     5.820012            0            0            0   -127621.33   -127573.44   -127572.62   -127717.92 2.0621103e-12 -7.7739294e-12 -3.7410909e-11   -14.337517 
      30   -14.646524    3.5460611  0.053938858    6.1419755  0.093424472     5.790618            0            0            0   -135754.24    -135702.1   -135701.28   -135859.32 -4.7975577e-13 2.089589e-11 2.3375729e-11   -14.646524 
      40   -14.968281    3.5280829  0.071917094    6.1108364   0.12456359     5.761224            0            0            0   -144197.24   -144140.62   -144139.81   -144311.31 -7.5369117e-12 3.1227115e-11 2.3976172e-11   -14.968281 
      50   -15.302745    3.5101054  0.089894597    6.0796986   0.15570144      5.73183            0            0            0   -152932.25    -152870.7    -152869.9   -153056.14 -6.9995141e-12 1.6469075e-12 -1.7835896e-11   -15.302745 
      60   -15.649821    3.4921287   0.10787134     6.048562   0.18683799     5.702436            0            0            0    -161992.7   -161926.01   -161925.24   -162126.86 -3.1052993e-12 9.5560213e-12 1.2893205e-11   -15.649821 
      70   -16.009551    3.4741527   0.12584735    6.0174267   0.21797328     5.673042            0            0            0    -171390.5   -171318.47   -171317.73   -171535.31 -1.7614256e-11 1.0053872e-11 1.6223376e-11   -16.009551 
      80   -16.381703    3.4561774   0.14382265    5.9862926   0.24910735     5.643648            0            0            0   -180995.34      -180918   -180917.31   -181150.71 1.466041e-11 -3.4549683e-12 -3.4398685e-11   -16.381703 
      90   -16.765884    3.4382027   0.16179733    5.9551596   0.28024038     5.614254            0            0            0   -190765.34    -190682.8   -190682.18   -190931.04 -5.3579078e-13 -4.8613118e-11 2.4665286e-11   -16.765884 
     100   -17.161623    3.4202285   0.17977147    5.9240275   0.31137246      5.58486            0            0            0    -200697.9   -200610.22   -200609.68   -200873.79 5.2303268e-11 -4.8177224e-12 -5.2152545e-11   -17.161623 
     110   -17.568414    3.4022549    0.1977451    5.8928963    0.3425037     5.555466            0            0            0   -210694.67   -210602.08   -210601.65   -210880.28 -3.953025e-11 1.8545134e-11 9.7613479e-11   -17.568414 
     120    -17.98545    3.3842817   0.21571833    5.8617657   0.37363426     5.526072            0            0            0   -220623.31   -220526.24   -220525.94   -220817.76 9.197731e-12 4.2440047e-11 1.2258814e-10    -17.98545 
     130   -18.411774    3.3663087   0.23369127    5.8306357   0.40476433     5.496678            0            0            0   -230426.56   -230325.77   -230325.62    -230628.3 5.4646319e-12 -5.0875524e-11 4.078172e-12   -18.411774 
     140   -18.846299    3.3483359   0.25166407    5.7995058   0.43589419     5.467284            0            0            0    -239933.1   -239829.32   -239829.35   -240140.63  2.60378e-11 -2.1131419e-11 -6.0203472e-11   -18.846299 
     150   -19.287602    3.3303632   0.26963684     5.768376   0.46702401      5.43789            0            0            0   -248971.88   -248865.94   -248866.18   -249183.53 -1.0253089e-12 -6.5983644e-11 6.2515422e-11   -19.287602 
     160   -19.734084    3.3123903   0.28760969     5.737246   0.49815401     5.408496            0            0            0   -257381.57   -257274.56   -257275.05   -257595.11 -1.1359363e-11 7.9004479e-11 1.1708952e-10   -19.734084 
     170   -20.183801    3.2944172   0.30558282    5.7061155   0.52928452     5.379102            0            0            0   -264877.96   -264771.69   -264772.47   -265089.72 -5.0666122e-12 -7.0139928e-11 -2.1202261e-10   -20.183801 
     180   -20.634525    3.2764435   0.32355649     5.674984   0.56041601     5.349708            0            0            0   -271227.26   -271123.76   -271124.86   -271433.16 -6.8204489e-11 -4.1207893e-11 6.049614e-11   -20.634525 
     190   -21.083631     3.258469   0.34153099     5.643851   0.59154896     5.320314            0            0            0   -276068.29   -275969.68   -275971.15   -276264.04 -3.0713239e-11 -5.9172775e-11 1.2047072e-10   -21.083631 
     200   -21.528123    3.2404934   0.35950655    5.6127162    0.6226838      5.29092            0            0            0   -279019.55   -278928.14   -278930.04   -279200.47 2.2643329e-11 -3.2578828e-11 -6.6977185e-11   -21.528123 
     210   -21.964531    3.2225164   0.37748358    5.5815788   0.65382123     5.261526            0            0            0   -279637.31   -279556.51   -279558.87   -279796.56 1.0839093e-13 -3.6649395e-11 -9.1533453e-11   -21.964531 
     220   -22.388893    3.2045374   0.39546259    5.5504379   0.68496214     5.232132            0            0            0   -277370.75   -277304.04   -277306.92   -277501.27 4.1194196e-11 8.901106e-13 -1.9341421e-10   -22.388893 
     230   -22.796695    3.1865558   0.41344422    5.5192923   0.71610767     5.202738            0            0            0   -271593.75   -271545.35   -271548.79    -271687.1 -1.7423621e-11 4.3488086e-11 4.6541253e-10   -22.796695 
     240   -23.182803    3.1685705   0.43142948    5.4881404   0.74725956     5.173344            0            0            0   -261583.83   -261559.59   -261563.63   -261628.28 -6.4011365e-11 7.3727801e-11 2.4792765e-10   -23.182803 
     250   -23.541395    3.1505802   0.44941978    5.4569797    0.7784203      5.14395            0            0            0   -246483.12   -246488.27   -246492.95   -246468.13 5.3856971e-12 6.9777764e-11 6.6525274e-11   -23.541395 
     260   -23.865889    3.1325832   0.46741678    5.4258072   0.80959276    5.1145563            0            0            0   -225294.52   -225333.68      -225339   -225210.87 -1.3988867e-10 5.0819307e-11 4.1676966e-11   -23.865889 
     270   -24.148746    3.1145837    0.4854163    5.3946302   0.84076976    5.0851745            0            0            0   -196867.22   -196945.11   -196951.03   -196705.54 5.7190188e-11 -5.9708715e-12 1.2608272e-10   -24.148746 
     280    -24.38158    3.0965843   0.50341566    5.3634532   0.87194676    5.0558172            0            0            0    -159870.8   -159989.92   -159996.36   -159626.13 -1.0426886e-10 4.8061888e-11 1.141019e-10    -24.38158 
     290   -24.555037    3.0785852   0.52141478    5.3322762   0.90312376    5.0265019            0            0            0   -112788.41   -112946.49   -112953.18   -112465.55 -6.8462898e-11 2.292363e-10 5.1462223e-11   -24.555037 
     300   -24.658709    3.0605867   0.53941333    5.3010992   0.93430076    4.9972812            0            0            0   -53839.923   -54017.358    -54023.62    -53478.79 3.2646283e-11 1.2838945e-10 1.1255126e-10   -24.658709 
     310   -24.683853    3.0468132   0.55318679    5.2772329   0.95816709    4.9755686            0            0            0  -0.15989011  -0.19057705  -0.63189642   0.34280315 -1.7768817e-10 1.4151496e-10 1.0252234e-10   -24.683853 
     320   -24.683853    3.0468098   0.55319015     5.277238   0.95816199    4.9755691            0            0            0 2.3697619e-09 3.7752059e-08 1.512746e-08 -4.5770233e-08 1.5591703e-10 4.0749129e-11 9.0403064e-11   -24.683853 
     321   -24.683853    3.0468098   0.55319015     5.277238   0.95816199    4.9755691            0            0            0 -6.3533496e-09 1.0832603e-08 -3.6652178e-08 6.7595265e-09 -2.3937824e-10 1.1327278e-10 -3.036377e-10   -24.683853 
Loop time of 0.022526 on 1 procs for 321 steps with 4 atoms

97.1% CPU use with 1 MPI tasks x no OpenMP threads

Minimization stats:
  Stopping criterion = energy tolerance
  Energy initial, next-to-last, final = 
        -13.7575822356     -24.6838529487     -24.6838529487
  Force two-norm initial, final = 16.0208 1.60849e-12
  Force max component initial, final = 9.25626 1.44853e-12
  Final line search alpha, max atom move = 1 1.44853e-12
  Iterations, force evaluations = 321 335

MPI task timing breakdown:
Section |  min time  |  avg time  |  max time  |%varavg| %total
---------------------------------------------------------------
Pair    | 0.015256   | 0.015256   | 0.015256   |   0.0 | 67.73
Neigh   | 0.00024319 | 0.00024319 | 0.00024319 |   0.0 |  1.08
Comm    | 0.0016224  | 0.0016224  | 0.0016224  |   0.0 |  7.20
Output  | 0.00046873 | 0.00046873 | 0.00046873 |   0.0 |  2.08
Modify  | 0          | 0          | 0          |   0.0 |  0.00
Other   |            | 0.004936   |            |       | 21.91

Nlocal:    4 ave 4 max 4 min
Histogram: 1 0 0 0 0 0 0 0 0 0
Nghost:    1424 ave 1424 max 1424 min
Histogram: 1 0 0 0 0 0 0 0 0 0
Neighs:    848 ave 848 max 848 min
Histogram: 1 0 0 0 0 0 0 0 0 0

Total # of neighbors = 848
Ave neighs/atom = 212
Neighbor list builds = 5
Dangerous builds = 0
# ---- define output variables ----
variable natoms equal "count(all)"
variable tot_energy equal "c_eatoms"
variable a11 equal "xhi-xlo"
variable a22 equal "yhi-ylo"
variable a33 equal "zhi-zlo"
variable tilt_xy equal "xy"
variable tilt_xz equal "xz"
variable tilt_yz equal "yz"
variable tot_press equal "press"
variable press_xx equal "pxx"
variable press_yy equal "pyy"
variable press_zz equal "pzz"
variable press_xy equal "pxy"
variable press_xz equal "pxz"
variable press_yz equal "pyz"

# ---- output ----
print "pypospack:output_section:begin"
pypospack:output_section:begin
print "tot_energy = ${tot_energy}"
tot_energy = -24.6838529486924
print "num_atoms = ${natoms}"
num_atoms = 4
print "a11 = ${a11}"
a11 = 2.49361969941123
print "a22 = ${a22}"
a22 = 4.31907601413496
print "a33 = ${a33}"
a33 = 4.07233827954448
print "a12 = ${tilt_xy}"
a12 = 0
print "a13 = ${tilt_xz}"
a13 = 0
print "a23 = ${tilt_yz}"
a23 = 0
print "tot_press = ${tot_press}"
tot_press = -6.35334963875866e-09
print "pxx = ${press_xx}"
pxx = 1.08326029688755e-08
print "pyy = ${press_yy}"
pyy = -3.66521784063387e-08
print "pzz = ${press_zz}"
pzz = 6.75952652118716e-09
print "pxy = ${press_xy}"
pxy = -2.39378236294016e-10
print "pxz = ${press_xz}"
pxz = 1.13272776424266e-10
print "pyz = ${press_yz}"
pyz = -3.03637696906656e-10
print "pypospack:output_section:done"
pypospack:output_section:done
print "pypospack:lammps_sim:done"
pypospack:lammps_sim:done
Total wall time: 0:00:00
