LAMMPS (11 Aug 2017)
Reading data file ...
  triclinic box = (0 0 0) to (3.5167 3.5167 3.5167) with tilt (0 -0 0)
  1 by 1 by 1 MPI processor grid
  reading atoms ...
  4 atoms
4 atoms in group Ni
Neighbor list info ...
  update every 1 steps, delay 0 steps, check yes
  max neighbors/atom: 2000, page size: 100000
  master list distance cutoff = 5.64464
  ghost atom cutoff = 5.64464
  binsize = 2.82232, bins = 2 2 2
  1 neighbor lists, perpetual/occasional/extra = 1 0 0
  (1) pair eam/alloy, perpetual
      attributes: half, newton on
      pair build: half/bin/newton/tri
      stencil: half/bin/3d/newton/tri
      bin: standard
Setting up cg style minimization ...
  Unit style    : metal
  Current step  : 0
WARNING: Energy due to 3 extra global DOFs will be included in minimizer energies
Per MPI rank memory allocation (min/avg/max) = 4.211 | 4.211 | 4.211 Mbytes
Step PotEng Xhi Xlo Yhi Ylo Zhi Xy Xz Yz Press Pxx Pyy Pzz Pxy Pxz Pyz c_eatoms 
       0   -17.831642       3.5167            0       3.5167            0       3.5167            0           -0            0    8784.0279    8784.0279    8784.0279    8784.0279 -1.4059094e-12 1.9171492e-12 -3.1952486e-12   -17.831642 
      10   -44.050086    3.5286293 -0.011929312    3.5286293 -0.011929312    3.5286293            0           -0            0   -504672.66   -504672.66   -504672.66   -504672.66 1.8715664e-07 -1.674512e-07 -1.072288e-07   -44.050086 
      20   -49.122212    3.5110458 0.0056541877    3.5110458 0.0056541877    3.5110458            0           -0            0   -658895.22   -658895.22   -658895.22   -658895.22 2.2935749e-07 -2.0846247e-07 -1.327489e-07   -49.122212 
      30   -52.279181    3.4934623  0.023237688    3.4934623  0.023237688    3.4934623            0           -0            0   -771155.07   -771155.07   -771155.07   -771155.07 2.8847883e-07 -2.7511383e-07 -1.6988225e-07   -52.279181 
      40   -55.866102    3.4758788  0.040821188    3.4758788  0.040821188    3.4758788            0           -0            0   -1364394.4   -1364394.4   -1364394.4   -1364394.4 5.3684283e-07 -5.2315365e-07 -3.3489679e-07   -55.866102 
      50    -60.45366    3.4582953  0.058404688    3.4582953  0.058404688    3.4582953            0           -0            0   -2366754.4   -2366754.4   -2366754.4   -2366754.4 7.3358338e-07 -7.0881463e-07 -4.5814181e-07    -60.45366 
      60   -66.498464    3.4407118  0.075988188    3.4407118  0.075988188    3.4407118            0           -0            0   -3566059.2   -3566059.2   -3566059.2   -3566059.2 9.7570502e-07 -9.5039125e-07 -6.1801608e-07   -66.498464 
      70   -74.360849    3.4231283  0.093571688    3.4231283  0.093571688    3.4231283            0           -0            0   -5025184.9   -5025184.9   -5025184.9   -5025184.9 1.2563475e-06 -1.233417e-06 -7.7631903e-07   -74.360849 
      80   -84.430448    3.4055448   0.11115519    3.4055448   0.11115519    3.4055448            0           -0            0   -6804932.3   -6804932.3   -6804932.3   -6804932.3 1.5986144e-06 -1.5100637e-06 -9.8528278e-07   -84.430448 
      90    -97.15778    3.3879613   0.12873869    3.3879613   0.12873869    3.3879613            0           -0            0   -8973316.7   -8973316.7   -8973316.7   -8973316.7 2.0006117e-06 -1.89222e-06 -1.2221183e-06    -97.15778 
     100   -113.07103    3.3703778   0.14632219    3.3703778   0.14632219    3.3703778            0           -0            0    -11610749    -11610749    -11610749    -11610749 2.4859784e-06 -2.3479856e-06 -1.5315802e-06   -113.07103 
     110   -132.79172    3.3527943   0.16390569    3.3527943   0.16390569    3.3527943            0           -0            0    -14811567    -14811567    -14811567    -14811567 3.0256753e-06 -2.9412565e-06 -1.8921443e-06   -132.79172 
     120   -157.05248    3.3352108   0.18148919    3.3352108   0.18148919    3.3352108            0           -0            0    -18686707    -18686707    -18686707    -18686707 3.7412243e-06 -3.6098923e-06 -2.4027625e-06   -157.05248 
     130     -186.717    3.3176273   0.19907269    3.3176273   0.19907269    3.3176273            0           -0            0    -23366542    -23366542    -23366542    -23366542 4.5821912e-06 -4.3451977e-06 -2.9813514e-06     -186.717 
     140   -222.80386    3.3000438   0.21665619    3.3000438   0.21665619    3.3000438            0           -0            0    -29007240    -29007240    -29007240    -29007240 5.5615908e-06 -5.2520084e-06 -3.6150192e-06   -222.80386 
     150   -266.51422    3.2824603   0.23423969    3.2824603   0.23423969    3.2824603            0           -0            0    -35792929    -35792929    -35792929    -35792929 6.7761392e-06 -6.4724112e-06 -4.3782303e-06   -266.51422 
     160   -319.26466    3.2648768   0.25182319    3.2648768   0.25182319    3.2648768            0           -0            0    -43941489    -43941489    -43941489    -43941489 8.1877066e-06 -7.9364939e-06 -5.1770224e-06   -319.26466 
     170   -382.72646    3.2472933   0.26940669    3.2472933   0.26940669    3.2472933            0           -0            0    -53710808    -53710808    -53710808    -53710808 9.7748142e-06 -9.6965199e-06 -6.2924936e-06   -382.72646 
     180   -458.87196    3.2297098   0.28699019    3.2297098   0.28699019    3.2297098            0           -0            0    -65406004    -65406004    -65406004    -65406004 1.1752955e-05 -1.1590563e-05 -7.3036402e-06   -458.87196 
     190   -550.03017    3.2121263   0.30457369    3.2121263   0.30457369    3.2121263            0           -0            0    -79387969    -79387969    -79387969    -79387969 1.386157e-05 -1.4176813e-05 -8.9441088e-06   -550.03017 
     200   -658.95358    3.1945428   0.32215719    3.1945428   0.32215719    3.1945428            0           -0            0    -96083481    -96083481    -96083481    -96083481 1.6571497e-05 -1.6934928e-05 -1.0690665e-05   -658.95358 
     210   -788.89759    3.1769593   0.33974069    3.1769593   0.33974069    3.1769593            0           -0            0 -1.1599609e+08 -1.1599609e+08 -1.1599609e+08 -1.1599609e+08 2.0000288e-05 -2.0150025e-05 -1.2522886e-05   -788.89759 
     220   -943.71701    3.1593758   0.35732419    3.1593758   0.35732419    3.1593758            0           -0            0 -1.3972032e+08 -1.3972032e+08 -1.3972032e+08 -1.3972032e+08 2.3393271e-05 -2.4145264e-05 -1.5134284e-05   -943.71701 
     230   -1127.9838    3.1417923   0.37490769    3.1417923   0.37490769    3.1417923            0           -0            0 -1.6796265e+08 -1.6796265e+08 -1.6796265e+08 -1.6796265e+08 2.7509612e-05 -2.8171218e-05 -1.7951884e-05   -1127.9838 
     240   -1347.1276    3.1242088   0.39249119    3.1242088   0.39249119    3.1242088            0           -0            0 -2.0155508e+08 -2.0155508e+08 -2.0155508e+08 -2.0155508e+08 3.2115727e-05 -3.3614674e-05 -2.1218561e-05   -1347.1276 
     250    -1607.609    3.1066253   0.41007469    3.1066253   0.41007469    3.1066253            0           -0            0 -2.4148021e+08 -2.4148021e+08 -2.4148021e+08 -2.4148021e+08 3.7495337e-05 -3.9874745e-05 -2.5288495e-05    -1607.609 
     260   -1917.1346    3.0890418   0.42765819    3.0890418   0.42765819    3.0890418            0           -0            0 -2.8889706e+08 -2.8889706e+08 -2.8889706e+08 -2.8889706e+08 4.3790826e-05 -4.6032126e-05 -2.9176063e-05   -1917.1346 
     270   -2284.9182    3.0714583   0.44524169    3.0714583   0.44524169    3.0714583            0           -0            0 -3.4517351e+08 -3.4517351e+08 -3.4517351e+08 -3.4517351e+08 5.0293214e-05 -5.3695169e-05 -3.3366633e-05   -2284.9182 
     280   -2722.0102    3.0538748   0.46282519    3.0538748   0.46282519    3.0538748            0           -0            0 -4.1192387e+08 -4.1192387e+08 -4.1192387e+08 -4.1192387e+08 5.7437603e-05 -6.1116385e-05 -3.7539542e-05   -2722.0102 
     290   -3241.7139    3.0362913   0.48040869    3.0362913   0.48040869    3.0362913            0           -0            0 -4.9105761e+08 -4.9105761e+08 -4.9105761e+08 -4.9105761e+08 6.497165e-05 -6.995055e-05 -4.4272861e-05   -3241.7139 
     300    -3860.102    3.0187078   0.49799219    3.0187078   0.49799219    3.0187078            0           -0            0 -5.8482454e+08 -5.8482454e+08 -5.8482454e+08 -5.8482454e+08 7.1612603e-05 -7.8485853e-05 -4.9265068e-05    -3860.102 
     310   -4596.6872    3.0011243   0.51557569    3.0011243   0.51557569    3.0011243            0           -0            0 -6.9587562e+08 -6.9587562e+08 -6.9587562e+08 -6.9587562e+08 8.1092296e-05 -8.7224655e-05 -5.6448208e-05   -4596.6872 
     320   -5475.2965    2.9835408   0.53315919    2.9835408   0.53315919    2.9835408            0           -0            0 -8.2733463e+08 -8.2733463e+08 -8.2733463e+08 -8.2733463e+08 8.6644255e-05 -9.6071596e-05 -6.3466375e-05   -5475.2965 
     330   -6525.1972    2.9659573   0.55074269    2.9659573   0.55074269    2.9659573            0           -0            0 -9.8287793e+08 -9.8287793e+08 -9.8287793e+08 -9.8287793e+08 9.3542886e-05 -0.00010520924 -7.0219308e-05   -6525.1972 
     340   -7782.6143    2.9483738   0.56832619    2.9483738   0.56832619    2.9483738            0           -0            0 -1.1668272e+09 -1.1668272e+09 -1.1668272e+09 -1.1668272e+09  9.66378e-05 -9.9642908e-05 -6.5752861e-05   -7782.6143 
     350   -9292.7952    2.9307903   0.58590969    2.9307903   0.58590969    2.9307903            0           -0            0 -1.3842528e+09 -1.3842528e+09 -1.3842528e+09 -1.3842528e+09 8.9073724e-05 -9.729025e-05 -6.5534792e-05   -9292.7952 
     360   -11112.817    2.9132068   0.60349319    2.9132068   0.60349319    2.9132068            0           -0            0 -1.6410865e+09 -1.6410865e+09 -1.6410865e+09 -1.6410865e+09 7.8985273e-05 -7.4332505e-05 -4.5829979e-05   -11112.817 
     370   -13315.584    2.8956233   0.62107669    2.8956233   0.62107669    2.8956233            0           -0            0 -1.9442407e+09 -1.9442407e+09 -1.9442407e+09 -1.9442407e+09 4.5908418e-05 -4.2158274e-05 -2.6172073e-05   -13315.584 
     380   -15995.637    2.8780398   0.63866019    2.8780398   0.63866019    2.8780398            0           -0            0 -2.3017244e+09 -2.3017244e+09 -2.3017244e+09 -2.3017244e+09 -4.7966707e-07 -3.767054e-06 -5.6096752e-06   -15995.637 
     390    -19277.71    2.8604563   0.65624369    2.8604563   0.65624369    2.8604563            0           -0            0 -2.7226961e+09 -2.7226961e+09 -2.7226961e+09 -2.7226961e+09 -9.0027999e-05 0.00010047301 6.8214842e-05    -19277.71 
     400   -23330.032    2.8428728   0.67382719    2.8428728   0.67382719    2.8428728            0           -0            0 -3.2174367e+09 -3.2174367e+09 -3.2174367e+09 -3.2174367e+09 -0.00023069708 0.0002399489 0.00015831856   -23330.032 
     410   -28385.869    2.8252893   0.69141069    2.8252893   0.69141069    2.8252893            0           -0            0 -3.7970998e+09 -3.7970998e+09 -3.7970998e+09 -3.7970998e+09 -0.00046850556 0.0004770487 0.00031009569   -28385.869 
     420   -34779.753    2.8077058   0.70899419    2.8077058   0.70899419    2.8077058            0           -0            0 -4.4728799e+09 -4.4728799e+09 -4.4728799e+09 -4.4728799e+09 -0.00083175029 0.00089299107 0.00059692448   -34779.753 
     430   -43013.386    2.7901223   0.72657769    2.7901223   0.72657769    2.7901223            0           -0            0 -5.2539776e+09 -5.2539776e+09 -5.2539776e+09 -5.2539776e+09 -0.0013750599 0.0015212357 0.0010247587   -43013.386 
     440    -53886.34    2.7725388   0.74416119    2.7725388   0.74416119    2.7725388            0           -0            0 -6.1424086e+09 -6.1424086e+09 -6.1424086e+09 -6.1424086e+09 -0.0022817565 0.0024580287 0.0016512227    -53886.34 
     450   -68784.442    2.7549553   0.76174469    2.7549553   0.76174469    2.7549553            0           -0            0 -7.1190314e+09 -7.1190314e+09 -7.1190314e+09 -7.1190314e+09 -0.0037443269 0.0039792131 0.0026591913   -68784.442 
     460   -90440.406    2.7373718   0.77932819    2.7373718   0.77932819    2.7373718            0           -0            0 -8.1007359e+09 -8.1007359e+09 -8.1007359e+09 -8.1007359e+09 -0.0062070061 0.0066951706  0.004497044   -90440.406 
     470   -125611.92    2.7197883   0.79691169    2.7197883   0.79691169    2.7197883            0           -0            0 -8.7687316e+09 -8.7687316e+09 -8.7687316e+09 -8.7687316e+09 -0.010898358  0.011488968 0.0076355995   -125611.92 
     480      -203347    2.7022048   0.81449519    2.7022048   0.81449519    2.7022048            0           -0            0 -7.2200951e+09 -7.2200951e+09 -7.2200951e+09 -7.2200951e+09 -0.019459061  0.021948164  0.014856233      -203347 
     490   -312661.46    2.6951755   0.82152451    2.6951755   0.82152451    2.6951755            0           -0            0     77867768     77867768     77867768     77867768 -0.00042043492 0.00048674954 0.00037602895   -312661.46 
     500    -312663.6    2.6972885   0.81941152    2.6972885   0.81941152    2.6972885            0           -0            0     77778026     77778026     77778026     77778026 0.0098124156  0.016992658 -0.0082750966    -312663.6 
     510   -312666.55    2.7002015   0.81649849    2.7002015   0.81649849    2.7002015            0           -0            0     76734053     76734053     76734053     76734053  0.041597342  0.071815526  -0.03513548   -312666.55 
     520   -312677.02    2.7106866   0.80601343    2.7106866   0.80601343    2.7106866            0           -0            0     72753974     72753906     72754012     72754004     7.011812    12.100711   -5.9323031   -312677.02 
     530   -312678.93    2.7126953    0.8040047    2.7126953    0.8040047    2.7126953            0           -0            0     69711254     69707293     69713461     69713008   -179.66027   -310.05483    152.02308   -312678.93 
     540   -312682.76      2.71655   0.80015004      2.71655   0.80015004      2.71655            0           -0            0     70194820     70194580     70194954     70194927  -0.89022781   -1.5360121   0.75607631   -312682.76 
     550   -312689.47    2.7246391   0.79206092    2.7246391   0.79206087    2.7246391            0           -0            0     59221908     59931447     58826085     58908191    586.68834    1012.4174    -494.3147   -312689.47 
     560   -312692.63    2.7271851   0.78951485    2.7271854   0.78951459    2.7271854            0           -0            0     66314497     69670892     64443850     64828749    862.77275    1509.5888   -599.89066   -312692.63 
     570    -312696.3    2.7307227   0.78597729    2.7307227   0.78597725    2.7307228            0           -0            0     65528286     65401450     65599978     65583430   -220.72189   -388.51076    116.02658    -312696.3 
     580   -312698.75    2.7333537   0.78334632    2.7333537   0.78334628    2.7333537            0           -0            0     66165865     65827773     66411895     66257927    264.44736    470.26939   -136.46247   -312698.75 
     590    -312698.8    2.7334029   0.78329713    2.7334029   0.78329711    2.7334029            0           -0            0     65315040     64749998     65723006     65472115    16.970428    26.800026   -11.236172    -312698.8 
     600   -312700.76    2.7355076   0.78119236    2.7355077   0.78119228    2.7355077            0           -0            0     64565925     64624858     64525339     64547579    1498.4356    2467.9723   -896.18071   -312700.76 
     610   -312703.04    2.7379829   0.77871714    2.7379829   0.77871706     2.737983            0           -0            0     64520644     64510051     64530864     64521016    45.427066   -4.1490438   -584.07567   -312703.04 
     620   -312703.05    2.7379951   0.77870485    2.7379952   0.77870477    2.7379953            0           -0            0     63326121     63322083     63329332     63326948    10.674719  -0.96325496   -137.68778   -312703.05 
     630   -312703.07    2.7380071   0.77869289    2.7380072   0.77869281    2.7380072            0           -0            0     63850941     63851622     63850398     63850804 -0.029281045 -0.0010390439   0.31227453   -312703.07 
     640   -312705.68    2.7408742   0.77582579    2.7408743   0.77582572    2.7408743            0           -0            0     63216090     63038047     63357942     63252281    3.6435434   0.62097611   -29.373361   -312705.68 
     650   -312706.27    2.7419909   0.77470914    2.7419912   0.77470877    2.7419912            0           -0            0     59484681     62489669     57143716     58820658    370.89289   -52.323223   -4074.3098   -312706.27 
     660    -312708.3     2.743761   0.77293896    2.7437612   0.77293885    2.7437612            0           -0            0     61997047     61970990     62004452     62015700    197.98964    -18.52558   -2133.0629    -312708.3 
     670   -312713.83    2.7500931    0.7666069    2.7500934   0.76660665    2.7500934            0           -0            0     60112110     61500124     59860225     58975979   -127552.41    11217.072    1498343.5   -312713.83 
     680   -312717.11    2.7536995   0.76300051    2.7536997   0.76300032    2.7536997            0           -0            0     59154360     58957262     59202970     59302848   -18079.463    2898.7463    234718.44   -312717.11 
     690   -312717.41    2.7540612   0.76263876    2.7540614   0.76263857    2.7540614            0           -0            0     59774112     59525582     59841115     59955639    2224.5751   -2107.9742   -51598.293   -312717.41 
     700   -312717.45    2.7540821   0.76261795    2.7540823   0.76261774    2.7540822            0           -0            0     58740267     58815126     58720375     58685300     9266.128   -2067.9938   -121716.36   -312717.45 
     710   -312718.25    2.7558615   0.76083851    2.7558619   0.76083808     2.755862            0           -0            0     56450188     59628407     55615118     54107039    343418.26    -69929.66   -3876817.9   -312718.25 
     720   -312722.43    2.7598661   0.75683395    2.7598662   0.75683375    2.7598662            0           -0            0     57255555     56987526     57301175     57477963    1649.0536    266.32629    23556.589   -312722.43 
     730   -312722.47    2.7599031   0.75679689    2.7599033   0.75679667    2.7599033            0           -0            0     57016562     57115257     57000537     56933892    398.35541     62.15149    6356.3127   -312722.47 
     740   -312722.51    2.7599615   0.75673851    2.7599617   0.75673832    2.7599616            0           -0            0     56887197     56523931     56947111     57190551   -3577.6392   -573.98949    -57773.28   -312722.51 
     750   -312722.59    2.7600478   0.75665224     2.760048   0.75665203    2.7600479            0           -0            0     56940572     56985245     56932505     56903965   -22955.118   -3219.1268   -354934.05   -312722.59 
     760    -312726.3    2.7645724   0.75212764    2.7645726   0.75212743    2.7645725            0           -0            0     55369972     55128667     55250005     55731243   -185912.21   -37017.146   -2223074.4    -312726.3 
     770   -312731.09    2.7701968   0.74650319     2.770197   0.74650295     2.770197            0           -0            0     54055077     54462163     53942581     53760487   -54430.711    22957.822    291874.05   -312731.09 
     780   -312731.13    2.7702419   0.74645811    2.7702421   0.74645789     2.770242            0           -0            0     53195714     53324711     53160082     53102350   -33525.751    13424.989    182857.94   -312731.13 
     790    -312733.4    2.7734258   0.74327417    2.7734259   0.74327408    2.7734258            0           -0            0     55486619     53377295     55941016     57141546    52987.088   -19918.932    -185245.9    -312733.4 
     800   -312733.75    2.7734393   0.74326067    2.7734396   0.74326044    2.7734395            0           -0            0     52711138     52628336     52722965     52782113   -2032.5719    817.97941    8496.6916   -312733.75 
     810   -312733.95    2.7737165   0.74298354    2.7737167   0.74298332    2.7737166            0           -0            0     53430946     53335810     53477687     53479340    103188.08   -43812.465   -416843.45   -312733.95 
     820   -312735.07    2.7753212   0.74137875    2.7753216   0.74137845    2.7753215            0           -0            0     55139487     55940675     54746018     54731769    58930.668   -14229.947    143487.09   -312735.07 
     830   -312736.61    2.7769908   0.73970924     2.776991   0.73970898    2.7769909            0           -0            0     51551981     51415080     51618054     51622808    35645.481   -15475.019   -39099.922   -312736.61 
     840   -312736.89    2.7774294   0.73927056    2.7774297   0.73927027    2.7774296            0           -0            0     53010527     53109662     52959644     52962274    767156.36   -335840.48   -808501.63   -312736.89 
     850   -312738.34    2.7794013   0.73729875    2.7794014   0.73729857    2.7794013            0           -0            0     48794760     47569701     49448307     49366270    1065405.1   -479946.48   -1196885.3   -312738.34 
     860    -312743.5    2.7857304   0.73096957    2.7857307   0.73096926    2.7857306            0           -0            0     48998818     49149131     48917472     48929851    2929.2996   -1840.3546   -5617.3628    -312743.5 
     870   -312749.55    2.7937836   0.72291644    2.7937838   0.72291616    2.7937838            0           -0            0     48730147     48396558     48902343     48891540   -155809.29    93466.407    260048.63   -312749.55 
     880   -312749.67     2.793831   0.72286901    2.7938313   0.72286873    2.7938312            0           -0            0     46769280     46411060     46954063     46942717   -104304.18    62630.813    174005.16   -312749.67 
     890    -312749.7    2.7938563   0.72284375    2.7938566   0.72284344    2.7938565            0           -0            0     46847921     46889141     46826624     46827998    530.92276   -337.81092   -1022.0053    -312749.7 
     900   -312756.48    2.8041133   0.71258672    2.8041133    0.7125867    2.8041132            0           -0            0     43104053     38914713     45241315     45156131    752931.74   -479871.19   -1287856.3   -312756.48 
     910   -312757.24    2.8041273   0.71257274    2.8041276   0.71257239    2.8041275            0           -0            0     43570601     43510113     43601847     43599843   -3729.7981     2425.252    4979.8458   -312757.24 
     920   -312759.99    2.8081607   0.70853928    2.8081612   0.70853878    2.8081611            0           -0            0     42348663     43984978     41491735     41569276   -34335.178    16436.399    112393.43   -312759.99 
     930   -312760.12    2.8081691   0.70853087    2.8081695   0.70853052    2.8081694            0           -0            0     43110820     43100090     43116000     43116368   -1417.0204    661.55153    4487.6212   -312760.12 
     940   -312762.78    2.8119679   0.70473207    2.8119683    0.7047317    2.8119682            0           -0            0     42276772     42268051     42279387     42282878    8210.3405   -3735.7491   -17157.556   -312762.78 
     950    -312762.8    2.8119835    0.7047165    2.8119839   0.70471613    2.8119838            0           -0            0     41877675     41934729     41850255     41848040    4131.6979   -1893.7917   -9513.6822    -312762.8 
     960   -312762.82    2.8120126   0.70468741     2.812013   0.70468704    2.8120129            0           -0            0     41885062     41872546     41891040     41891599    20585.844   -9504.9373   -47604.606   -312762.82 
     970   -312765.55    2.8163255    0.7003745    2.8163257   0.70037427    2.8163256            0           -0            0     40113216     38567715     40847496     40924437   -685035.18    290485.39    1876198.2   -312765.55 
     980   -312769.52    2.8218595   0.69484054    2.8218598    0.6948402    2.8218597            0           -0            0     39776746     39624886     39846442     39858911    -147564.3    94687.787   -33506.348   -312769.52 
     990   -312769.53    2.8218797    0.6948203      2.82188   0.69481996      2.82188            0           -0            0     39037072     38928913     39086945     39095359   -772.69583    504.26468   -288.17884   -312769.53 
    1000   -312769.61    2.8219883   0.69471172    2.8219886   0.69471137    2.8219886            0           -0            0     39316516     39280005     39333396     39336147   -212.55013    138.51585    -80.42263   -312769.61 
    1010   -312769.72    2.8222089   0.69449105    2.8222092   0.69449077    2.8222092            0           -0            0     38760452     37975170     39156552     39149635    70828.764   -46436.386    23330.955   -312769.72 
    1020   -312773.05    2.8275492   0.68915075    2.8275498   0.68915025    2.8275497            0           -0            0     40817575     41375381     40532225     40545119     5570.191   -4086.8413    5214.8632   -312773.05 
    1030   -312775.34    2.8321945   0.68450551    2.8321949   0.68450512    2.8321948            0           -0            0     41640190     40533450     42214896     42172223    1898580.1   -1381007.2    1536460.6   -312775.34 
    1040   -312777.39    2.8339676   0.68273243    2.8339681   0.68273192     2.833968            0           -0            0     36423447     36498972     36384573     36386795    217.75331   -96.572316      -1090.4   -312777.39 
    1050   -312780.57    2.8397637   0.67693633     2.839764   0.67693604    2.8397639            0           -0            0     34405902     31869487     35702751     35645469    594199.96    -311719.8   -1637457.3   -312780.57 
    1060   -312781.01    2.8397742   0.67692583    2.8397747   0.67692533    2.8397746            0           -0            0     35137057     34941536     35237850     35231785   -9662.1169    4371.1821    55321.951   -312781.01 
    1070   -312781.83    2.8417476   0.67495235    2.8417479   0.67495207    2.8417479            0           -0            0     33903723     31215373     35286236     35209561    162465.68    -76738.68   -844787.37   -312781.83 
    1080   -312784.24    2.8451085   0.67159153     2.845109   0.67159098     2.845109            0           -0            0     34175206     34307361     34111355     34106901    75143.441   -30204.045   -324840.59   -312784.24 
    1090    -312784.4    2.8455923   0.67110769    2.8455929   0.67110714    2.8455928            0           -0            0     32504223     32552253     32481374     32479042    366042.25   -145767.82   -1587135.2    -312784.4 
    1100   -312786.48    2.8488747   0.66782527    2.8488753   0.66782472    2.8488752            0           -0            0     32758874     32971462     32665372     32639786    65231.552    -15418.59   -291328.53   -312786.48 
    1110   -312789.22    2.8536085   0.66309148     2.853609   0.66309098    2.8536089            0           -0            0     32674052     31987163     32973901     33061091     4728.821   -8027.1231    273472.91   -312789.22 
    1120   -312789.26    2.8536189   0.66308105    2.8536195   0.66308049    2.8536194            0           -0            0     32143652     32145776     32142680     32142500   -897.62433    1873.6891   -70339.766   -312789.26 
    1130   -312790.45    2.8556898   0.66101017    2.8556904    0.6610096    2.8556903            0           -0            0     31753752     31899475     31689689     31672091   -864.66592    1797.5333   -59032.002   -312790.45 
    1140    -312792.7    2.8596821   0.65701786    2.8596826   0.65701735    2.8596826            0           -0            0     30671487     30224339     30860449     30929674    3129.5733    -8899.323     261780.8    -312792.7 
    1150   -312792.72     2.859694   0.65700604    2.8596945   0.65700549    2.8596944            0           -0            0     31043227     31036335     31046182     31047165    215.68784   -785.35703    24093.177   -312792.72 
    1160   -312792.74    2.8597305   0.65696951     2.859731   0.65696896     2.859731            0           -0            0     30997918     31003624     30995542     30994589    1654.1097   -6307.9532    196384.45   -312792.74 
    1170   -312795.33    2.8644565   0.65224349     2.864457     0.652243    2.8644569            0           -0            0     30921811     30652100     31029697     31083638   -3752.0635    5211.2153   -255080.92   -312795.33 
    1180   -312795.38    2.8644893   0.65221067    2.8644899   0.65221013    2.8644898            0           -0            0     30063761     30218765     30002672     29969848   -1842.1284    2274.6413   -94468.142   -312795.38 
    1190   -312795.39    2.8644962   0.65220382    2.8644967    0.6522033    2.8644966            0           -0            0     29920560     29909753     29924764     29927163   -251.91701    342.44488   -16722.525   -312795.39 
    1200   -312796.97    2.8673944   0.64930564    2.8673949   0.64930513    2.8673948            0           -0            0     29404883     29350341     29426884     29437425    279.05492   -318.11838    37233.067   -312796.97 
    1210   -312797.19    2.8680101   0.64868987    2.8680106   0.64868941    2.8680105            0           -0            0     30689842     30018164     30960970     31090391   -1851.4269    3275.3782   -708327.29   -312797.19 
    1220   -312798.25    2.8697857   0.64691429    2.8697862   0.64691376    2.8697862            0           -0            0     28648261     28752025     28608436     28584321   -196.85823    205.18433   -41284.385   -312798.25 
    1230   -312801.47     2.876107   0.64059303    2.8761074   0.64059257    2.8761073            0           -0            0     27586633     26267006     28024185     28468707     2347.423   -1748.0875   -32814.088   -312801.47 
    1240   -312801.59    2.8761204   0.64057962     2.876121   0.64057904    2.8761209            0           -0            0     27836832     27986900     27791922     27731672   -265.47567    234.33027   -371.45429   -312801.59 
    1250    -312801.6    2.8761441   0.64055592    2.8761447   0.64055534    2.8761446            0           -0            0     27920544     27968355     27905802     27887475   -85.356187    74.719706   -101.14907    -312801.6 
    1260   -312801.61    2.8761589   0.64054114    2.8761594   0.64054057    2.8761593            0           -0            0     27752139     27733962     27757464     27764991    33.581773      -31.995   -48.594165   -312801.61 
    1270   -312801.63    2.8761882    0.6405118    2.8761888   0.64051123    2.8761887            0           -0            0     27765631     27736616     27774081     27786195    52.007136   -47.713941    12.878533   -312801.63 
    1280   -312802.26      2.87818   0.63852003    2.8781807   0.63851928    2.8781807            0           -0            0     25468709     27489543     24875593     24040992   -3636.6871    3341.7634   -371.54764   -312802.26 
    1290   -312803.56     2.879946   0.63675405    2.8799465   0.63675345    2.8799465            0           -0            0     27139416     27193334     27119818     27105095   -101.31962    83.994563     21.76422   -312803.56 
    1300   -312806.29    2.8854737   0.63122631    2.8854743   0.63122569    2.8854742            0           -0            0     25073870     25503262     24903016     24815333   -825.48316     651.3442    218.85561   -312806.29 
    1310   -312806.42    2.8856984   0.63100162     2.885699     0.631001    2.8856989            0           -0            0     26635709     27081191     26456343     26369594   -869.27113    689.68739   -54.268166   -312806.42 
    1320   -312811.77     2.896768   0.61993199    2.8967686   0.61993137    2.8967685            0           -0            0     24725279     24876592     24659568     24639678   -301.49714    228.92375    3.9764989   -312811.77 
    1330    -312811.8    2.8968188   0.61988119    2.8968194   0.61988058    2.8968193            0           -0            0     24135301     24167596     24121511     24116798   -64.497817    49.989779   -26.742909    -312811.8 
    1340   -312812.24    2.8977662   0.61893382    2.8977668   0.61893323    2.8977667            0           -0            0     24033152     23936807     24072287     24090362    207.86749   -182.82578    820.59519   -312812.24 
    1350   -312812.25    2.8977811   0.61891885    2.8977818   0.61891825    2.8977817            0           -0            0     24058839     24051142     24061956     24063420    15.083694   -11.906009   0.34830234   -312812.25 
    1360   -312813.54    2.9007174   0.61598258    2.9007181   0.61598191     2.900718            0           -0            0     24571151     25141300     24337595     24234557   -1148.5737    931.27699   -1100.0186   -312813.54 
    1370   -312814.13    2.9021723   0.61452767    2.9021728   0.61452717    2.9021727            0           -0            0     24211914     22972160     24691759     24971823    2365.0291   -1888.9374   -1036.0985   -312814.13 
    1380   -312815.14    2.9040799   0.61262011    2.9040805   0.61261949    2.9040804            0           -0            0     23308105     23246372     23321021     23356921    29.721781    24.400802   -3153.2916   -312815.14 
    1390   -312815.15    2.9040858   0.61261418    2.9040864   0.61261355    2.9040863            0           -0            0     23006435     23027703     23001179     22990423    -48.75879    57.120294   -506.60129   -312815.15 
    1400   -312815.21     2.904294   0.61240605    2.9042946   0.61240543    2.9042945            0           -0            0     22084287     21916481     22126299     22210080   -2109.5245    3968.0309   -101806.61   -312815.21 
    1410   -312816.35    2.9067827   0.60991732    2.9067833   0.60991667    2.9067832            0           -0            0     22514196     22727977     22457224     22357386    1437.8038   -2810.9591     68415.04   -312816.35 
    1420   -312816.37    2.9068086   0.60989135    2.9068093   0.60989073    2.9068092            0           -0            0     22377744     22331817     22389883     22411533    -285.3373    559.47595   -13665.911   -312816.37 
    1430   -312817.62    2.9096489   0.60705114    2.9096495   0.60705051    2.9096494            0           -0            0     22240414     22256097     22233264     22231881    3535.2546   -6064.7424    126786.78   -312817.62 
    1440   -312820.37    2.9161977   0.60050232    2.9161982   0.60050179    2.9161981            0           -0            0     20804314     20176915     21085362     21150666    27773.116   -47068.066    960543.59   -312820.37 
    1450   -312820.46    2.9162306   0.60046937    2.9162312   0.60046881    2.9162311            0           -0            0     21048295     20800147     21158336     21186402    1005.3797    -1283.749    20570.582   -312820.46 
    1460    -312820.5    2.9162961   0.60040393    2.9162967   0.60040334    2.9162965            0           -0            0     21196012     21206220     21191472     21190344    12.606651   -43.847077    1287.4624    -312820.5 
    1470   -312823.27    2.9230157   0.59368431    2.9230163   0.59368372    2.9230162            0           -0            0     20974223     21007468     20958519     20956681   -11384.045    19581.552   -410579.24   -312823.27 
    1480    -312823.3    2.9230251   0.59367491    2.9230257   0.59367433    2.9230256            0           -0            0     20170010     20168724     20170604     20170702    106.64942   -179.31894    3719.1335    -312823.3 
    1490   -312824.73    2.9265184   0.59018164    2.9265189   0.59018107    2.9265188            0           -0            0     19806143     19827537     19795377     19795515    413.86155    -842.1812    17204.975   -312824.73 
    1500   -312827.34    2.9333491   0.58335094    2.9333495   0.58335049    2.9333494            0           -0            0     18987470     18047819     19461293     19453298    14796.013   -26636.419    469260.85   -312827.34 
    1510   -312827.45    2.9333967   0.58330326    2.9333973   0.58330271    2.9333972            0           -0            0     18857397     18789252     18891653     18891286    4569.3412   -9033.7885    175920.91   -312827.45 
    1520   -312828.76    2.9368109   0.57988913    2.9368114   0.57988857    2.9368113            0           -0            0     18407565     18571277     18325845     18325574    2088.4468   -6126.0499    137543.23   -312828.76 
    1530   -312828.79    2.9368855   0.57981446    2.9368861   0.57981392     2.936886            0           -0            0     18520127     18487191     18536583     18536606   -23.095001    190.83206   -5569.6418   -312828.79 
    1540    -312828.8    2.9369116   0.57978844    2.9369121    0.5797879     2.936912            0           -0            0     18409819     18427331     18401105     18401021    796.32863   -2157.8917    50369.574    -312828.8 
    1550   -312828.83    2.9370906   0.57960937    2.9370912   0.57960877    2.9370911            0           -0            0     17977084     18545779     17693000     17692473    3093.8648   -8840.9096    230930.68   -312828.83 
    1560   -312830.43     2.941336     0.575364    2.9413366   0.57536344    2.9413364            0           -0            0     18061654     18186127     17998787     18000047    -14979.97     29403.81   -847655.41   -312830.43 
    1570   -312830.64    2.9420899   0.57461007    2.9420904   0.57460962    2.9420903            0           -0            0     17559262     16694412     17990377     17992999   -14062.778    29862.073   -951143.48   -312830.64 
    1580   -312831.55    2.9442463   0.57245373    2.9442468   0.57245319    2.9442467            0           -0            0     17510480     17523208     17504121     17504111   -54.199246    75.267729   -1928.1794   -312831.55 
    1590   -312832.51    2.9468791   0.56982091    2.9468797   0.56982034    2.9468796            0           -0            0     17354167     17609376     17226713     17226410   -715.02917     733.6036   -7340.4857   -312832.51 
    1600   -312832.52    2.9468909   0.56980913    2.9468914   0.56980859    2.9468913            0           -0            0     17259972     17263564     17258175     17258177   -7.3520688     4.905137   -91.903927   -312832.52 
    1610   -312832.54     2.946979   0.56972103    2.9469795   0.56972047    2.9469794            0           -0            0     17494028     17745196     17368601     17368286   -528.59831    374.80342   -90.930118   -312832.54 
    1620   -312832.58    2.9470453   0.56965472    2.9470458   0.56965418    2.9470457            0           -0            0     17139418     17136291     17140978     17140986    6.6243484   -4.7063631   -1.9284472   -312832.58 
    1630   -312833.64    2.9500563   0.56664374    2.9500568   0.56664323    2.9500567            0           -0            0     17389251     17190975     17488255     17488522    415.81111    -292.2521    906.63262   -312833.64 
    1640   -312833.66    2.9500621   0.56663789    2.9500627   0.56663735    2.9500625            0           -0            0     16766683     16798550     16750768     16750731   -67.170461    47.863553    61.716141   -312833.66 
    1650   -312836.49    2.9589215    0.5577785    2.9589219   0.55777814    2.9589218            0           -0            0     15755845     14070251     16597574     16599711    3530.5899   -2473.2047     9412.786   -312836.49 
    1660   -312836.75    2.9589321   0.55776788    2.9589326   0.55776735    2.9589325            0           -0            0     15624044     15522816     15674565     15674752    213.92725   -153.43331   -330.57106   -312836.75 
    1670   -312837.28    2.9613408   0.55535924    2.9613411   0.55535887     2.961341            0           -0            0     16026007     14343016     16866071     16868933    3543.0027   -2515.1606   -50.976008   -312837.28 
    1680   -312838.16    2.9631208   0.55357919    2.9631214   0.55357864    2.9631213            0           -0            0     15430000     15450310     15419868     15419822   -42.674735    30.230189   -12.025439   -312838.16 
    1690   -312838.17    2.9631407   0.55355927    2.9631413   0.55355872    2.9631412            0           -0            0     15456450     15440735     15464285     15464330     33.10857   -23.519804  -0.98909957   -312838.17 
    1700   -312838.17    2.9631474   0.55355258     2.963148   0.55355203    2.9631479            0           -0            0     15376356     15373204     15377926     15377939    6.6685912   -4.7364594 -0.040717881   -312838.17 
    1710    -312840.5    2.9703846   0.54631545     2.970385   0.54631496    2.9703849            0           -0            0     14717184     14176243     14986805     14988505    1138.2188   -808.69508   0.51652402    -312840.5 
    1720   -312840.54    2.9703925    0.5463075    2.9703931   0.54630694     2.970393            0           -0            0     14560415     14614314     14533557     14533374   -113.36114    80.560342  -0.19094067   -312840.54 
    1730   -312840.63    2.9706768   0.54602324    2.9706773    0.5460227    2.9706772            0           -0            0     14514959     14442459     14551098     14551320    152.58502   -108.39885   0.23472146   -312840.63 
    1740   -312840.65    2.9707288   0.54597116    2.9707294   0.54597061    2.9707293            0           -0            0     14558335     14557345     14558827     14558834    2.1170022   -1.5036823 0.0010157282   -312840.65 
    1750    -312842.7    2.9773146   0.53938545     2.977315   0.53938496    2.9773149            0           -0            0     13952885     13566008     14145724     14146923    814.05863   -578.35655    1.3115084    -312842.7 
    1760   -312842.72     2.977325   0.53937496    2.9773256   0.53937443    2.9773255            0           -0            0     13706438     13679581     13719821     13719912    56.539735   -40.172372  0.092490211   -312842.72 
    1770   -312844.39    2.9828361   0.53386387    2.9828367   0.53386331    2.9828366            0           -0            0     13341831     13450913     13287181     13287400   -230.67659    163.57383    1.4075964   -312844.39 
    1780    -312844.4    2.9828579   0.53384208    2.9828585   0.53384155    2.9828584            0           -0            0     13196095     13106914     13240770     13240602    188.07136   -133.19496 -0.035257231    -312844.4 
    1790   -312845.38    2.9861653   0.53053474    2.9861658    0.5305342    2.9861657            0           -0            0     12991802     12913526     13031012     13030869    164.97605   -116.81415   0.10779934   -312845.38 
    1800   -312845.39    2.9861958   0.53050424    2.9861963   0.53050369    2.9861962            0           -0            0     13143974     13106454     13162767     13162700    79.339734   -56.249617  -0.40583806   -312845.39 
    1810   -312846.32    2.9898698   0.52683021    2.9898704   0.52682961    2.9898703            0           -0            0     14111704     14572373     13880960     13881781   -972.13463     688.8153    3.4252982   -312846.32 
    1820   -312848.13     2.995751   0.52094895    2.9957515   0.52094845    2.9957515            0           -0            0     12253491     12026076     12367276     12367121    474.33059    -334.7216    7.3041908   -312848.13 
    1830   -312848.17    2.9958846   0.52081538    2.9958851   0.52081486     2.995885            0           -0            0     12179648     12072348     12233338     12233258    226.36617   -160.49161  -0.21600536   -312848.17 
    1840   -312848.28    2.9965575   0.52014247    2.9965581   0.52014186    2.9965581            0           -0            0     11478245     12155569     11139321     11139845   -1423.1111    1007.3258   -9.0794689   -312848.28 
    1850   -312849.53    3.0008088   0.51589117    3.0008094   0.51589064    3.0008093            0           -0            0     11701590     11619543     11742640     11742587    192.85344   -142.60412   -25.486314   -312849.53 
    1860   -312849.54    3.0008326   0.51586735    3.0008332   0.51586682    3.0008331            0           -0            0     11760949     11733490     11774687     11774672    56.264011   -39.392666    2.0340663   -312849.54 
    1870   -312849.57    3.0009617    0.5157383    3.0009622   0.51573776    3.0009622            0           -0            0     11823056     11810490     11829343     11829336    -5.320201     13.23015    38.017193   -312849.57 
    1880   -312849.59    3.0010475   0.51565248     3.001048   0.51565197    3.0010479            0           -0            0     11647450     11368078     11787239     11787032      561.067   -389.41108    34.282767   -312849.59 
    1890    -312851.6    3.0085891    0.5081109    3.0085897   0.50811035    3.0085896            0           -0            0     11139329     11179687     11119135     11119165   -1929.7482    1915.8598     2301.362    -312851.6 
    1900   -312853.15    3.0152812   0.50141879    3.0152817   0.50141829    3.0152816            0           -0            0     11755232     11181109     12043038     12041551   -312501.39    314946.87    483869.26   -312853.15 
    1910   -312854.39    3.0196137    0.4970863    3.0196143   0.49708572    3.0196142            0           -0            0     10241329     10242071     10240941     10240973    7963.9707   -8025.3875   -15703.798   -312854.39 
    1920    -312854.9    3.0217104   0.49498963    3.0217109   0.49498909    3.0217108            0           -0            0    9960789.5      9726903     10077320     10078146   -60043.426    60600.095    114326.15    -312854.9 
    1926   -312854.91    3.0217132   0.49498677    3.0217138   0.49498619    3.0217137            0           -0            0     10211790     10221513     10206944     10206913    3279.7699   -3308.2173   -6304.7187   -312854.91 
Loop time of 0.521322 on 1 procs for 1926 steps with 4 atoms

99.9% CPU use with 1 MPI tasks x no OpenMP threads

Minimization stats:
  Stopping criterion = max force evaluations
  Energy initial, next-to-last, final = 
        -17.8316421117     -312854.907385     -312854.907485
  Force two-norm initial, final = 0.413036 800.288
  Force max component initial, final = 0.238446 277.193
  Final line search alpha, max atom move = 2.72425e-08 7.55143e-06
  Iterations, force evaluations = 1926 10008

MPI task timing breakdown:
Section |  min time  |  avg time  |  max time  |%varavg| %total
---------------------------------------------------------------
Pair    | 0.31101    | 0.31101    | 0.31101    |   0.0 | 59.66
Neigh   | 0.00022817 | 0.00022817 | 0.00022817 |   0.0 |  0.04
Comm    | 0.050781   | 0.050781   | 0.050781   |   0.0 |  9.74
Output  | 0.0027015  | 0.0027015  | 0.0027015  |   0.0 |  0.52
Modify  | 0          | 0          | 0          |   0.0 |  0.00
Other   |            | 0.1566     |            |       | 30.04

Nlocal:    4 ave 4 max 4 min
Histogram: 1 0 0 0 0 0 0 0 0 0
Nghost:    860 ave 860 max 860 min
Histogram: 1 0 0 0 0 0 0 0 0 0
Neighs:    646 ave 646 max 646 min
Histogram: 1 0 0 0 0 0 0 0 0 0

Total # of neighbors = 646
Ave neighs/atom = 161.5
Neighbor list builds = 8
Dangerous builds = 0
pypospack:output_section:begin
tot_energy = -312854.90748481
num_atoms = 4
a11 = 2.52672646257078
a22 = 2.52672761899037
a33 = 2.52672746303894
a12 = 0
a13 = -0
a23 = 0
tot_press = 10211789.9805837
pxx = 10221512.7560621
pyy = 10206944.2750744
pzz = 10206912.9106145
pxy = 3279.76994835908
pxz = -3308.21725345293
pyz = -6304.71873167288
pypospack:output_section:done
pypospack:lammps_sim:done
Total wall time: 0:00:00
