LAMMPS (10 Feb 2015)
# ---- initialize simulations
clear
units metal
dimension 3
boundary p p p
atom_style charge
atom_modify map array
# ---- create atoms
read_data /Users/eugeneragasa/pyflamestk_git/pypospack/tests/tests_integration/workflow/WorkflowLammpsThermalExpansion/param_3101/MgO_NaCl_unit.npt.T1500/lammps.structure
  triclinic box = (0 0 0) to (4.2565 4.2565 4.2565) with tilt (0 0 0)
  1 by 1 by 1 MPI processor grid
  reading atoms ...
  8 atoms
# ---- define interatomic potential
include potential.mod
mass 1 24.305
mass 2 15.999

group Mg type 1
4 atoms in group Mg
group O type 2
4 atoms in group O

set group Mg charge 1.61886676565
  4 settings made for charge
set group O charge -1.61886676565
  4 settings made for charge

variable R_cut equal 10.0

pair_style buck/coul/long ${R_cut}
pair_style buck/coul/long 10
pair_coeff 1 1 0.0 0.5 0.0 ${R_cut}
pair_coeff 1 1 0.0 0.5 0.0 10
pair_coeff 1 2 1642.32869573 0.278339228763 0.0 ${R_cut}
pair_coeff 1 2 1642.32869573 0.278339228763 0.0 10
pair_coeff 2 2 10249.6145692 0.172187509684 14.0611166933 ${R_cut}
pair_coeff 2 2 10249.6145692 0.172187509684 14.0611166933 10

kspace_style pppm 1.0e-5

neighbor 1.0 bin
neigh_modify every 1 delay 0 check yes
# ---- define settings
compute eng all pe/atom
compute eatoms all reduce sum c_eng
# ---- run minimization
reset_timestep 0
fix 1 all box/relax iso 0.0 vmax 0.001
thermo 10
thermo_style custom step pe lx ly lz xy xz yz press pxx pyy pzz pxy pxz pyz c_eatoms
min_style cg
minimize 1e-25 1e-25 5000 10000
PPPM initialization ...
  G vector (1/distance) = 0.352512
  grid = 8 8 8
  stencil order = 5
  estimated absolute RMS force accuracy = 3.81673e-05
  estimated relative force accuracy = 2.65057e-06
  using double precision FFTs
  3d grid and FFT values/proc = 3375 512
Neighbor list info ...
  1 neighbor list requests
  update every 1 steps, delay 0 steps, check yes
  master list distance cutoff = 11
Memory usage per processor = 4.06549 Mbytes
Step PotEng Lx Ly Lz Xy Xz Yz Press Pxx Pyy Pzz Pxy Pxz Pyz eatoms 
       0   -105.55076       4.2565       4.2565       4.2565            0            0            0    126453.59    126453.59    126453.59    126453.59 4.0363335e-11 4.044677e-11 1.0723156e-10   -105.55076 
      10   -105.69165     4.299065     4.299065     4.299065            0            0            0    68786.015    68786.015    68786.015    68786.015 -1.0242962e-10 -4.708445e-11 -3.569371e-11   -105.69165 
      20   -105.75532      4.34163      4.34163      4.34163            0            0            0    18126.479    18126.479    18126.479    18126.479 7.5197513e-11 1.703257e-11 -3.0007315e-11   -105.75532 
      27   -105.76066    4.3583247    4.3583247    4.3583247            0            0            0    1.3863117    1.3863117    1.3863117    1.3863117 -6.2572681e-11 -1.3142723e-10 -3.2118437e-11   -105.76066 
Loop time of 0.0137091 on 1 procs for 27 steps with 8 atoms

Minimization stats:
  Stopping criterion = linesearch alpha is zero
  Energy initial, next-to-last, final = 
        -105.550764672     -105.760658065     -105.760658065
  Force two-norm initial, final = 18.26 0.000217628
  Force max component initial, final = 18.26 0.000209876
  Final line search alpha, max atom move = 0.25 5.24691e-05
  Iterations, force evaluations = 27 40

Pair  time (%) = 0.00378275 (27.593)
Kspce time (%) = 0.00215673 (15.7322)
Neigh time (%) = 0 (0)
Comm  time (%) = 0.000410318 (2.99304)
Outpt time (%) = 2.93255e-05 (0.213913)
Other time (%) = 0.00732994 (53.4678)

Nlocal:    8 ave 8 max 8 min
Histogram: 1 0 0 0 0 0 0 0 0 0
Nghost:    2189 ave 2189 max 2189 min
Histogram: 1 0 0 0 0 0 0 0 0 0
Neighs:    2344 ave 2344 max 2344 min
Histogram: 1 0 0 0 0 0 0 0 0 0

Total # of neighbors = 2344
Ave neighs/atom = 293
Neighbor list builds = 0
Dangerous builds = 0
unfix 1
# ---- define output variables ----
variable natoms equal "count(all)"
variable tot_energy equal "c_eatoms"
variable length_x equal "lx"
variable length_y equal "ly"
variable length_z equal "lz"
variable tilt_xy equal "xy"
variable tilt_xz equal "xz"
variable tilt_yz equal "yz"
variable tot_press equal "press"
variable press_xx equal "pxx"
variable press_yy equal "pyy"
variable press_zz equal "pzz"
variable press_xy equal "pxy"
variable press_xz equal "pxz"
variable press_yz equal "pyz"

# ---- output ----
print "pypospack:output_section:begin"
pypospack:output_section:begin
print "tot_energy = ${tot_energy}"
tot_energy = -105.760658064539
print "num_atoms = ${natoms}"
num_atoms = 8
print "xx = ${length_x}"
xx = 4.35832471527479
print "yy = ${length_y}"
yy = 4.35832471527479
print "zz = ${length_z}"
zz = 4.35832471527479
print "xy = ${tilt_xy}"
xy = 0
print "xz = ${tilt_xz}"
xz = 0
print "yz = ${tilt_yz}"
yz = 0
print "tot_press = ${tot_press}"
tot_press = 1.38631174704167
print "pxx = ${press_xx}"
pxx = 1.38631174709188
print "pyy = ${press_yy}"
pyy = 1.38631174731354
print "pzz = ${press_zz}"
pzz = 1.3863117467196
print "pxy = ${press_xy}"
pxy = -6.25726806975275e-11
print "pxz = ${press_xz}"
pxz = -1.31427228854923e-10
print "pyz = ${press_yz}"
pyz = -3.21184365171528e-11
print "pypospack:output_section:done"
pypospack:output_section:done
print "pypospack:lammps_sim:done"
pypospack:lammps_sim:done
#------------------------------------------------------------------------------
# RUN THERMOSTAT
# running using an NPT Nose-Hoover style thermostat
#------------------------------------------------------------------------------
variable tempdamp equal 0.1
variable pressdamp equal 1.0
# set initial velocities
velocity all create 1500 5687519 mom yes dist gaussian loop all
# fix for Nose-Hoover style thermostat
fix 20 all npt temp 1500 1500 0.1 aniso 0.0 0.0 1.0 drag 1.0 couple xyz
variable boxx equal lx
variable boxy equal ly
variable boxz equal lz
variable boxp equal press
variable boxt equal temp
# calculate averages every 10000 steps
reset_timestep 0
fix 21 all ave/time 10 10 100 v_boxx v_boxy v_boxz v_boxp v_boxt file lattice.out
thermo_style custom step temp pe ke etotal press lx ly lz press pxx pyy pzz pxy pxz pyz vol
thermo_modify flush yes
thermo 100
run 100000
PPPM initialization ...
  G vector (1/distance) = 0.351503
  grid = 8 8 8
  stencil order = 5
  estimated absolute RMS force accuracy = 3.99806e-05
  estimated relative force accuracy = 2.7765e-06
  using double precision FFTs
  3d grid and FFT values/proc = 3375 512
Memory usage per processor = 3.06549 Mbytes
Step Temp PotEng KinEng TotEng Press Lx Ly Lz Press Pxx Pyy Pzz Pxy Pxz Pyz Volume 
       0         1500   -105.76067    1.3572315   -104.40344    17510.378    4.3583247    4.3583247    4.3583247    17510.378    31748.708    8521.3047    12261.122    1510.3271    6331.0761    103.29842    82.786353 
     100    296.07747   -104.50365   0.26789711   -104.23575    6727.0446    4.3865373    4.3865373    4.3865373    6727.0446    23278.659    1421.9537   -4519.4786    6722.2381   -11253.371   -4672.0982    84.404476 
     200     1258.148    -104.9845    1.1383988    -103.8461   -18716.419    4.4207599    4.4207599    4.4207599   -18716.419    6931.8014   -30015.208   -33065.851    6532.4831    5343.8253   -273.10252    86.395434 
     300    1414.1147   -104.82013    1.2795207   -103.54061   -30508.701    4.4260579    4.4260579    4.4260579   -30508.701   -23162.099   -45733.064   -22630.939   -2377.1147   -18964.035    -1777.937    86.706422 
     400    1183.9223   -104.34323    1.0712378   -103.27199    344.86999    4.4112971    4.4112971    4.4112971    344.86999    33057.347   -23610.682   -8412.0541    16202.665     184.6282   -10714.064    85.841824 
     500    1417.8138   -104.39969    1.2828677   -103.11682    30078.432    4.4017374    4.4017374    4.4017374    30078.432    72419.448    35701.533   -17885.685   -24487.247   -927.15119    2683.1434    85.284946 
     600    1139.0363   -104.07972     1.030624    -103.0491   -1505.2478    4.4208214    4.4208214    4.4208214   -1505.2478    31721.131   -21499.508   -14737.367    12818.355   -1531.0357   -5044.3594    86.399039 
     700    1934.0493   -104.75249    1.7499684   -103.00252   -7876.0926    4.4338898    4.4338898    4.4338898   -7876.0926   -9547.4387    13621.188   -27702.027   -710.47124    4222.9988    3588.9498    87.167517 
     800    1549.3032   -104.39476    1.4018421   -102.99292   -19131.723    4.4370291    4.4370291    4.4370291   -19131.723   -6233.8709   -22601.135   -28560.163    12125.785    -25332.82   -1546.1072    87.352801 
     900    1313.6585   -104.17723    1.1886259    -102.9886    14813.717    4.4209171    4.4209171    4.4209171    14813.717    69390.146    -22257.67   -2691.3237   -4903.9166    10791.155     7850.582    86.404652 
    1000    1278.7867   -104.15633     1.157073   -102.99926    28082.436    4.4109759    4.4109759    4.4109759    28082.436    50850.743    34969.903   -1573.3383    8064.9675   -28664.176    3612.3241    85.823073 
    1100    1795.0599   -104.64079    1.6242079   -103.01659   -25776.945    4.4288917    4.4288917    4.4288917   -25776.945   -4378.0403   -46861.058   -26091.737    13738.983    13912.548   -4052.4542    86.873074 
    1200     1778.161   -104.62735    1.6089174   -103.01843   -24421.734    4.4219018    4.4219018    4.4219018   -24421.734   -33922.123   -8711.3549   -30631.724   -13313.004   -27228.949   -1361.3249      86.4624 
    1300    1490.8586   -104.36687    1.3489602   -103.01791    1889.0015    4.4159184    4.4159184    4.4159184    1889.0015    45471.878   -31197.904   -8606.9699    9507.1256     6433.954    9634.3006    86.111888 
    1400     960.7154   -103.89144   0.86927548   -103.02217    3635.9125    4.4223123    4.4223123    4.4223123    3635.9125     46259.71    4433.2302   -39785.203    8359.6252   -35098.506   -5340.1371    86.486484 
    1500    1213.2949   -104.11848    1.0978147   -103.02067     23790.56    4.4167685    4.4167685    4.4167685     23790.56    74316.654   -4135.7729    1190.8004     7895.686    9480.6781   -5769.0174    86.161631 
    1600    1436.6647    -104.3402    1.2999244   -103.04027   -11205.701    4.4226257    4.4226257    4.4226257   -11205.701     8693.113   -770.53896   -41539.677    7220.6663   -22146.008     1630.847    86.504868 
    1700    1893.3317   -104.74335    1.7131263   -103.03023   -6168.9061    4.4125877    4.4125877    4.4125877   -6168.9061   -8729.7211   -5225.0814   -4551.9159   -340.25348   -17383.449    975.93167    85.917184 
    1800    1466.7553    -104.3645    1.3271511   -103.03735   -2754.5478    4.4120188    4.4120188    4.4120188   -2754.5478   -28463.351    44715.707       -24516    6065.7162   -1848.3126   -776.62724    85.883963 
    1900    1334.5718   -104.23145    1.2075486    -103.0239     9566.496    4.4241778    4.4241778    4.4241778     9566.496    50708.186   -14558.297   -7450.4012    3269.1977   -12114.892   -3252.2195    86.595979 
    2000    1253.8317   -104.15304    1.1344933   -103.01855   -1714.1208    4.4160489    4.4160489    4.4160489   -1714.1208    19638.626   -5861.3919   -18919.596    1026.6124     6526.326   -2124.9761    86.119521 
    2100    1679.5804    -104.5295    1.5197196   -103.00978     704.7447    4.4174956    4.4174956    4.4174956     704.7447   -13545.827    44884.452   -29224.391    3979.8062   -7759.9279   -10500.875    86.204189 
    2200    1306.8071   -104.19613    1.1824265    -103.0137   -19760.991    4.4275751    4.4275751    4.4275751   -19760.991   -22894.316   -35993.916   -394.73934    15327.012    12014.411   -9149.8539    86.795623 
    2300    1653.7244   -104.48547    1.4963246   -102.98915   -8062.3084     4.429003     4.429003     4.429003   -8062.3084    41139.346   -22397.884   -42928.388    7380.7189   -8690.0467   -1329.2639    86.879621 
    2400    1391.3683   -104.25553    1.2589392   -102.99659   -23322.062    4.4250508    4.4250508    4.4250508   -23322.062    -13157.05   -50084.308   -6724.8277     8145.656     16756.62   -11346.671    86.647252 
    2500    1802.0284   -104.61739    1.6305131   -102.98688    11502.843    4.4148561    4.4148561    4.4148561    11502.843    22799.818   -154.94702    11863.659   -274.50271    10572.944    9193.3197    86.049759 
    2600    1260.4839   -104.14398    1.1405123   -103.00346   -34981.015    4.4294493    4.4294493    4.4294493   -34981.015   -32865.067   -34013.266   -38064.711   -5802.2589    9817.3891   -2854.4705    86.905888 
    2700    1781.9329   -104.59356    1.6123303   -102.98123   -7996.1536    4.4287342    4.4287342    4.4287342   -7996.1536    -11707.57    31467.922   -43748.813    19438.747    20339.351    7884.4015    86.863802 
    2800    1742.6999   -104.54913    1.5768315    -102.9723   -46693.207    4.4426884    4.4426884    4.4426884   -46693.207   -45115.001   -39949.243   -55015.377   -19720.522    920.32484    2513.6141    87.687474 
    2900    1541.3918   -104.34989    1.3946837   -102.95521   -35333.196    4.4407452    4.4407452    4.4407452   -35333.196     -42171.6   -9976.2154   -53851.773    16953.068    41560.215   -845.90836    87.572461 
    3000      1973.21   -104.72583    1.7854019   -102.94042    10787.316    4.4096742    4.4096742    4.4096742    10787.316    246.55016    43102.615   -10987.217   -23837.107    -3577.167    -9292.835    85.747111 
    3100    1169.7661   -104.05786     1.058429   -102.99943   -15397.798    4.4186082    4.4186082    4.4186082   -15397.798   -8365.3395   -22249.873   -15578.181    9925.7765    39188.855    5701.3246    86.269344 
    3200    1544.3967   -104.40044    1.3974026   -103.00304    3221.3862    4.4321112    4.4321112    4.4321112    3221.3862    -37529.06    9803.1214    37390.097   -19035.598    -8186.585   -320.22915    87.062661 
    3300    943.74141   -103.85473   0.85391706   -103.00082    4129.2757    4.4431147    4.4431147    4.4431147    4129.2757   -18824.264    2153.4067    29058.684    1736.9987    22602.294    18435.123    87.712719 
    3400    1640.2124   -104.45858    1.4840987   -102.97448    -4672.054    4.4267277    4.4267277    4.4267277    -4672.054   -23942.291   -23365.236    33291.365   -7416.8537   -4356.1317    1385.3973    86.745795 
    3500    1404.5707   -104.24887    1.2708851   -102.97798    3823.0835    4.4101696    4.4101696    4.4101696    3823.0835    8866.5278   -5822.8749    8425.5977   -12416.992   -1931.8418   -9572.4541    85.776019 
    3600    1988.4326   -104.79218    1.7991756     -102.993   -1517.5798    4.4165852    4.4165852    4.4165852   -1517.5798   -14289.454    28427.554   -18690.839   -9181.3566    5667.9981    11314.242    86.150902 
    3700    1131.9451   -104.04571    1.0242077   -103.02151   -7818.6346    4.4314374    4.4314374    4.4314374   -7818.6346    7900.1777   -47359.573    16003.492   -6978.8164   -9299.6705   -1746.9648    87.022963 
    3800    1791.8528   -104.61954    1.6213061   -102.99824    3721.8138     4.434374     4.434374     4.434374    3721.8138   -9267.6323    8265.3301    12167.744    3241.5359    12574.147    2692.3714     87.19608 
    3900    974.69825   -103.87627   0.88192746   -102.99434   -1208.6962    4.4240612    4.4240612    4.4240612   -1208.6962   -3429.1719   -33528.478    33331.561   -13258.237   -28577.703   -8504.5328    86.589129 
    4000    1777.3327   -104.59517     1.608168     -102.987    11478.339    4.4139487    4.4139487    4.4139487    11478.339    27783.672    66.076914    6585.2672   -5720.3009   -6363.5759   -3737.1582     85.99671 
    4100    1727.4578   -104.56763    1.5630401   -103.00459   -2160.0445    4.4155548    4.4155548    4.4155548   -2160.0445   -11855.091   -4581.9992    9956.9571   -1326.2005   -5445.3065   -698.41989    86.090623 
    4200    1028.1243   -103.94514   0.93026844   -103.01487   -856.90733    4.4299901    4.4299901    4.4299901   -856.90733    44133.658   -9358.9065   -37345.473   -6868.9988   -16185.031   -10347.989    86.937723 
    4300     2059.602   -104.84603    1.8635712   -102.98246    -22972.22    4.4311168    4.4311168    4.4311168    -22972.22   -22531.377   -7972.9653   -38412.316   -5034.7381    14209.654    13215.178    87.004073 
    4400    881.93864   -103.78811   0.79799662   -102.99011    20151.344    4.4244254    4.4244254    4.4244254    20151.344    69664.506   -5228.6775   -3981.7969   -2702.7267   -20873.345   -14103.004    86.610514 
    4500    2201.0068   -104.97125    1.9915172   -102.97974   -29161.193    4.4217237    4.4217237    4.4217237   -29161.193    -22755.36   -37537.063   -27191.155   -4452.7089     29058.73   -3187.1292    86.451949 
    4600    1039.2296    -103.9394   0.94031676   -102.99908    19381.189    4.4220377    4.4220377    4.4220377    19381.189    44471.455   -5162.7807    18834.894   -11839.628   -2523.8384    124.14889    86.470373 
    4700    1726.3788   -104.55659    1.5620638   -102.99453   -6409.3623    4.4256872    4.4256872    4.4256872   -6409.3623   -16929.275   -2405.7893    106.97767    -2589.905    26747.208     7239.479    86.684638 
    4800    1302.7327   -104.17021    1.1787399   -102.99147   -4510.0579     4.434199     4.434199     4.434199   -4510.0579    929.90585   -27489.934    13029.855    2384.9927   -6716.8253   -8076.0981    87.185754 
    4900    1832.9664    -104.6259    1.6585065   -102.96739   -20334.807    4.4255659    4.4255659    4.4255659   -20334.807   -24401.244   -12068.574   -24534.603   -2440.6119    19191.906   -286.19851    86.677515 
    5000    1348.2245   -104.19694    1.2199019   -102.97704    22853.993    4.4014588    4.4014588    4.4014588    22853.993    5751.1382    44157.839    18653.001   -9529.6928    12874.031   -2645.5002    85.268755 
    5100    1373.1804   -104.25768    1.2424824   -103.01519    10887.129    4.4036443    4.4036443    4.4036443    10887.129    12334.122    27723.521   -7396.2577   -10223.096    2063.1703    -4760.187    85.395838 
    5200    1833.4378    -104.6932    1.6589331   -103.03427   -12341.573    4.4261613    4.4261613    4.4261613   -12341.573   -33958.075    32474.523   -35541.167    -825.0854    20562.634    13572.657    86.712501 
    5300    1111.8944   -104.02221    1.0060654   -103.01614   -8635.3493    4.4305095    4.4305095    4.4305095   -8635.3493   -17779.422    -27839.92    19713.294   -1066.3699   -9952.6847     -7722.78    86.968309 
    5400    1729.1424   -104.54734    1.5645644   -102.98277    23909.314    4.4064421    4.4064421    4.4064421    23909.314    10876.018     67736.42   -6884.4963    1597.4916     18240.38    634.54472    85.558708 
    5500    1342.8731   -104.21208    1.2150598   -102.99702     13892.95    4.4019885    4.4019885    4.4019885     13892.95    4947.2291    10160.568    26571.053    -10313.73   -8314.7866    -11573.59    85.299544 
    5600    1529.0686   -104.38996    1.3835334   -103.00643    20927.471    4.4215542    4.4215542    4.4215542    20927.471    1281.6609     44869.84    16630.911    5180.9166    6881.9257    -27328.34     86.44201 
    5700    1432.0945   -104.29762    1.2957892   -103.00183   -5249.3511    4.4281391    4.4281391    4.4281391   -5249.3511   -1730.8175    -12607.06   -1410.1755   -30740.469   -1076.7927   -3406.2842    86.828794 
    5800    1400.3585   -104.26404    1.2670738   -102.99697    22198.669     4.415415     4.415415     4.415415    22198.669    4789.7337     30883.26    30923.013    21610.227    2109.0171   -11924.674    86.082444 
    5900    1796.7313    -104.6107    1.6257203   -102.98498    11574.723    4.4078023    4.4078023    4.4078023    11574.723   -18871.429    20191.688    33403.911   -15351.697   -8889.2041    13520.153    85.637963 
    6000     1235.949   -104.11911    1.1183126   -103.00079   -523.69826    4.4155604    4.4155604    4.4155604   -523.69826   -15479.953   -22144.258    36053.117    14096.738    3112.0384   -5171.6555    86.090947 
    6100    1627.3368   -104.46222    1.4724485   -102.98977   -1635.0547    4.4323236    4.4323236    4.4323236   -1635.0547   -36896.482    55437.104   -23445.786   -294.46562   -23344.273    4023.7952    87.075179 
    6200    1202.6733   -104.07387    1.0882041   -102.98567   -15313.622    4.4221191    4.4221191    4.4221191   -15313.622   -53453.708   -40068.202    47581.044    10627.425   -8466.2138    10669.963    86.475149 
    6300    1719.2106   -104.52141    1.5555779   -102.96583    34740.087    4.4083862    4.4083862    4.4083862    34740.087     24888.25    40527.173     38804.84    -4557.166   -16985.117   -1508.7658       85.672 
    6400    1295.8201   -104.15619    1.1724853   -102.98371   -10961.145    4.4269257    4.4269257    4.4269257   -10961.145    441.56829   -32172.378   -1152.6243    4798.7682    5674.2881   -3246.8082    86.757437 
    6500    1618.3233   -104.43633    1.4642929   -102.97204    4836.0016     4.427713     4.427713     4.427713    4836.0016    6092.3619   -7594.2511    16009.894    14313.081    -14174.27    7086.3532    86.803731 
    6600    1461.2319   -104.29592    1.3221533   -102.97376    7800.9142    4.4115446    4.4115446    4.4115446    7800.9142    26507.578   -19840.776    16735.941   -14685.632   -5240.0443   -2633.9956    85.856269 
    6700    1255.0385   -104.13331    1.1355852   -102.99773    14977.906    4.4124745    4.4124745    4.4124745    14977.906    4267.6698   -23749.935    64415.984    20405.406    10556.029    16424.612    85.910573 
    6800    2049.5838   -104.85633    1.8545065   -103.00183   -11039.979    4.4203301    4.4203301    4.4203301   -11039.979    21276.953   -27196.014   -27200.877   -6278.0513    3952.0182    6535.0458    86.370235 
    6900    934.31726    -103.8511   0.84538989   -103.00571    -9842.178    4.4267075    4.4267075    4.4267075    -9842.178   -29841.062    -54388.54    54703.068    31628.475     6601.261   -4310.3589    86.744607 
    7000    2097.6957   -104.88283    1.8980391   -102.98479    12652.395    4.4125846    4.4125846    4.4125846    12652.395    67094.978   -6227.9002   -22909.894   -9102.6057    17849.918    4964.5455    85.917005 
    7100    1391.8727   -104.26352    1.2593957   -103.00412    -25421.81    4.4161325    4.4161325    4.4161325    -25421.81   -25274.584   -64746.794    13755.947    40448.436    -1561.426    7013.6652    86.124417 
    7200    1633.6579   -104.48381     1.478168   -103.00564    5614.9505    4.4333813    4.4333813    4.4333813    5614.9505    63241.348   -20234.548   -26161.949   -7966.9644    14218.071    3150.7795    87.137533 
    7300    1420.2485    -104.2801    1.2850707   -102.99503   -30498.981    4.4448578    4.4448578    4.4448578   -30498.981   -62231.824   -16328.185   -12936.933    1919.9759   -10380.155     5743.422    87.815995 
    7400    1425.3843    -104.2652    1.2897177   -102.97549   -8119.8715    4.4199043    4.4199043    4.4199043   -8119.8715   -14348.392   -20514.949    10503.726    945.27849    14977.533    12633.137     86.34528 
    7500    1486.3439   -104.30903    1.3448752   -102.96416     35700.71    4.4015438    4.4015438    4.4015438     35700.71   -9020.4117    71193.962     44928.58    8858.7972   -3745.2127   -4927.1992    85.273694 
    7600    1356.2611    -104.2323    1.2271735   -103.00513   -31272.445    4.4264287    4.4264287    4.4264287   -31272.445   -73318.168   -40574.288    20075.121    11102.843    8269.8443   -7306.3038    86.728216 
    7700    1605.0134   -104.43621    1.4522499   -102.98396    27751.743    4.4343445    4.4343445    4.4343445    27751.743    5085.9835    30460.631    47708.616    18867.784    15315.752   -9354.2465    87.194336 
    7800     1415.485   -104.25889    1.2807606   -102.97813   -7910.4407    4.4408965    4.4408965    4.4408965   -7910.4407    -6844.732   -35288.876    18402.285    22443.175   -3193.4972   -16474.447    87.581414 
    7900    2005.2169   -104.77205    1.8143624   -102.95768    -27561.25    4.4339745    4.4339745    4.4339745    -27561.25   -42795.396   -29069.132   -10819.221   -8338.3094    21615.902   -2750.6114    87.172516 
    8000    1597.3282   -104.40209    1.4452961    -102.9568    34167.656    4.4072976    4.4072976    4.4072976    34167.656    69566.871    17543.916    15392.179    30311.636   -2719.3057    -9269.318    85.608546 
    8100    1096.2063   -103.99013   0.99187046   -102.99826   -5443.7356    4.4174706    4.4174706    4.4174706   -5443.7356   -34539.969   -17132.075    35340.838    -33572.73    23402.895     7940.266    86.202729 
    8200    2105.2515   -104.89492    1.9048758   -102.99004   -4087.0413    4.4213838    4.4213838    4.4213838   -4087.0413    15534.306   -34222.795    6427.3645    6652.0042   -21484.491   -6646.4802    86.432017 
    8300     1292.434   -104.17352    1.1694215    -103.0041    -31518.08     4.435168     4.435168     4.435168    -31518.08   -41520.735   -17045.959   -35987.546   -29707.575    24404.569    2352.6305    87.242929 
    8400    1516.0074   -104.35432    1.3717154    -102.9826     -8515.66    4.4341034    4.4341034    4.4341034     -8515.66   -25314.014    -14361.69    14128.724   -2670.2325   -15047.927    1941.3542    87.180116 
    8500     1646.831   -104.45594    1.4900873   -102.96585    10308.241    4.4282535    4.4282535    4.4282535    10308.241    23792.672   -19842.295    26974.346   -29666.656    20525.602   -8909.5001     86.83552 
    8600    1099.3098   -103.97389   0.99467861   -102.97921   -5497.5715    4.4420497    4.4420497    4.4420497   -5497.5715    13050.956   -13406.087   -16137.584    5064.7973   -8960.3497    -20.47385    87.649663 
    8700     1656.391   -104.46948    1.4987374   -102.97074    15024.312    4.4303119    4.4303119    4.4303119    15024.312    69712.017   -40738.403    16099.321   -24247.758    -6941.541    1514.0977    86.956673 
    8800    1143.9548   -104.02065    1.0350744   -102.98558   -1528.0027    4.4158224    4.4158224    4.4158224   -1528.0027   -17285.883    47739.108   -35037.233   -2855.6463     8546.319   -11177.812    86.106274 
    8900    1774.7478   -104.60567    1.6058291   -102.99984   -3231.0586    4.4210855    4.4210855    4.4210855   -3231.0586   -24962.466   -13344.375    28613.665   -6827.6433   -30530.766   -707.29056    86.414526 
    9000    1525.7606   -104.38303    1.3805402   -103.00249   -20029.346    4.4341949    4.4341949    4.4341949   -20029.346   -43017.841   -28418.838     11348.64   -24776.575    27886.965   -8208.7195    87.185515 
    9100    1498.1893   -104.34638    1.3555932   -102.99078   -32629.043    4.4382042    4.4382042    4.4382042   -32629.043   -46742.425   -7165.6083   -43979.096    15087.771   -5309.0205   -15080.232    87.422221 
    9200     1947.171   -104.73591    1.7618412   -102.97407   -5684.1413    4.4197545    4.4197545    4.4197545   -5684.1413   -9977.0066   -27164.706    20089.289   -17531.338    17915.534    1458.6878    86.336502 
    9300     1053.437   -103.95253   0.95317195   -102.99936   -7145.4053    4.4092653    4.4092653    4.4092653   -7145.4053     -42673.2    34510.889   -13273.905    6771.9533    9095.8889   -15637.271    85.723262 
    9400    1875.7071   -104.71304    1.6971792   -103.01587    -7540.858    4.4168746    4.4168746    4.4168746    -7540.858    -367.7816   -10664.253   -11590.539    11953.842   -11930.336    2240.0861    86.167842 
    9500    982.48091   -103.90954   0.88896937   -103.02057    15925.687    4.4283052    4.4283052    4.4283052    15925.687   -16306.391    30232.591     33850.86    -13143.54    8069.3354   -4996.5664    86.838565 
    9600     1379.866   -104.24933    1.2485317    -103.0008   -17961.315    4.4333453    4.4333453    4.4333453   -17961.315   -6388.6544    -39917.02   -7578.2698    8469.3321   -22565.801     -2987.13    87.135408 
    9700    1649.0244   -104.46812    1.4920719   -102.97605    23566.552     4.417703     4.417703     4.417703    23566.552    58238.954   -11753.406    24214.106   -15562.577   -12611.185   -19735.638    86.216333 
    9800     1075.096   -103.96412   0.97276947   -102.99135   -5356.3585    4.4160071    4.4160071    4.4160071   -5356.3585   -32025.268    12309.076    3647.1168    6795.9514   -13143.269   -8734.8912    86.117081 
    9900    1179.3906    -104.0697    1.0671374   -103.00256     28552.34    4.4194377    4.4194377    4.4194377     28552.34    13002.037   -9566.9042    82221.886   -21504.047   -6215.9463   -10683.182    86.317936 
   10000    1838.7661   -104.66271    1.6637542   -102.99896   -13866.243    4.4356173    4.4356173    4.4356173   -13866.243   -22199.025   -7615.3365   -11784.367    3729.7706   -24072.186   -9369.0166    87.269442 
   10100    755.94297    -103.6685   0.68399309    -102.9845    4475.7806    4.4411043    4.4411043    4.4411043    4475.7806   -16689.983   -22419.508    52536.833   -16370.372   -7823.7484   -18421.061    87.593711 
   10200    2098.4399   -104.85614    1.8987126   -102.95742    11720.841    4.4179131    4.4179131    4.4179131    11720.841    48011.949    17021.819   -29871.245   -4918.6185   -24110.289   -6336.9338    86.228632 
   10300    868.66944   -103.77561   0.78599036   -102.98962    9820.5305    4.4099481    4.4099481    4.4099481    9820.5305   -38661.176   -27749.142    95871.909   -13672.809    3291.8015    11995.528    85.763091 
   10400    1809.1416   -104.64031    1.6369494   -103.00336   -17580.693     4.417901     4.417901     4.417901   -17580.693   -19248.415    -14923.48   -18570.182   -586.31307   -21828.952    -11695.68    86.227928 
   10500    1244.4002   -104.13786    1.1259594    -103.0119    20571.943    4.4212225    4.4212225    4.4212225    20571.943    19115.937   -11706.947    54306.839   -10663.072   -1827.1445    24458.746    86.422555 
   10600    1459.8197   -104.32978    1.3208756   -103.00891   -22346.419    4.4280935    4.4280935    4.4280935   -22346.419   -36018.261   -47871.366    16850.372    -2662.964   -14846.549   -17676.475    86.826113 
   10700    1582.0774    -104.4263    1.4314969    -102.9948    16168.433    4.4203545    4.4203545    4.4203545    16168.433    44465.675   -25691.776    29731.399   -9011.1497   -3815.5826    8695.9147    86.371668 
   10800    1539.1831   -104.38784    1.3926852   -102.99515    8084.9325     4.410231     4.410231     4.410231    8084.9325    7308.4481   -31774.558    48720.908   -11221.779   -7277.2184   -13527.246      85.7796 
   10900    1447.2503   -104.31538    1.3095025   -103.00587   -7369.8619    4.4189904    4.4189904    4.4189904   -7369.8619    36922.821    -39513.64   -19518.767    7061.1414   -4438.5842    12311.871    86.291729 
   11000    1767.3019   -104.60261    1.5990919   -103.00352   -6826.6601    4.4229479    4.4229479    4.4229479   -6826.6601    7307.7068   -49056.608    21268.921   -9419.4773    10404.308    17710.371    86.523778 
   11100    1250.5048   -104.13794     1.131483   -103.00646   -12363.358    4.4221711    4.4221711    4.4221711   -12363.358   -19897.848   -8034.1445   -9158.0833    27534.451   -6153.5566   -456.32513    86.478197 
   11200    1447.9323   -104.30669    1.3101196   -102.99658    3624.4997    4.4155715    4.4155715    4.4155715    3624.4997    28372.188   -38534.411    21035.722    -3305.444    677.59996    19277.433    86.091598 
   11300    2022.5478   -104.82665    1.8300437   -102.99661   -27072.232    4.4154122    4.4154122    4.4154122   -27072.232   -45459.252   -18659.351   -17098.095    8776.5958   -7612.6431    -5722.998     86.08228 
   11400    1223.4901   -104.11429    1.1070396   -103.00725   -9237.8169    4.4198342    4.4198342    4.4198342   -9237.8169   -10620.724   -28320.188    11227.461   -2135.0802   -213.87319    23884.188     86.34117 
   11500    1512.8343   -104.36883    1.3688443   -102.99999    15418.656    4.4211818    4.4211818    4.4211818    15418.656    42835.286   -1617.8035    5038.4862    7545.9504    17423.703   -19123.184    86.420173 
   11600    1600.6784   -104.44478    1.4483275   -102.99645    -16640.07    4.4247969    4.4247969    4.4247969    -16640.07   -1683.2741   -21284.131   -26952.806    3784.1572   -3819.2358    19332.245    86.632333 
   11700    1390.1649   -104.24825    1.2578504    -102.9904     24907.85     4.404588     4.404588     4.404588     24907.85    94058.056   -15415.455   -3919.0507   -2244.2834    11342.185   -3913.6343    85.450748 
   11800    1370.8381   -104.24136    1.2403631     -103.001     29649.99     4.405955     4.405955     4.405955     29649.99    19466.111    48243.035    21240.824    19118.163   -913.84795   -10134.041    85.530334 
   11900    1631.0244   -104.47892    1.4757851   -103.00313   -4050.3611    4.4223126    4.4223126    4.4223126   -4050.3611    21336.937    -14826.11    -18661.91   -8806.5733    -16573.49     7058.067    86.486497 
   12000     1252.229   -104.14693    1.1330431   -103.01389    6135.3888    4.4213954    4.4213954    4.4213954    6135.3888    -15163.15    39787.785   -6218.4694    18046.741    1170.9392   -18967.753    86.432699 
   12100     2102.122   -104.89836    1.9020442   -102.99632   -14538.829    4.4244213    4.4244213    4.4244213   -14538.829   -30168.624    19017.843   -32465.704    5369.8181   -8889.6445    3710.9892    86.610278 
   12200    1286.5495   -104.16256     1.164097   -102.99846    25104.394    4.4008877    4.4008877    4.4008877    25104.394   -14433.997    77602.749     12144.43    9348.0974    1066.7434   -21237.054     85.23557 
   12300    1747.5118   -104.59161    1.5811854   -103.01042   -26323.468    4.4085792    4.4085792    4.4085792   -26323.468   -49735.803   -7809.1796    -21425.42    6840.2361   -17125.565   -797.69314     85.68325 
   12400     1871.058   -104.69779    1.6929726   -103.00481    9079.7347    4.4132667    4.4132667    4.4132667    9079.7347   -23363.307    82088.448   -31485.937   -8207.5447   -3143.5646    1198.9321    85.956856 
   12500    1171.7207   -104.08557    1.0601975   -103.02537   -28078.097    4.4146238    4.4146238    4.4146238   -28078.097   -62120.189   -4311.3635   -17802.738     25385.22   -1014.3529   -2825.0303    86.036176 
   12600    1362.1814   -104.26204    1.2325303   -103.02951   -7486.7486    4.4098978    4.4098978    4.4098978   -7486.7486    -7690.084    29494.642   -44264.804   -19495.333   -7329.8174    21066.728    85.760156 
   12700    1892.6033   -104.73987    1.7124673   -103.02741   -9664.2935     4.408381     4.408381     4.408381   -9664.2935   -36208.881    22010.133   -14794.133    26918.545    3812.3525   -4598.7151    85.671695 
   12800    771.38893    -103.7387   0.69796891   -103.04074    5110.1012    4.4079602    4.4079602    4.4079602    5110.1012    9255.2515    17896.809   -11821.756   -16135.397   -10219.179    5383.6204    85.647167 
   12900    1623.0094   -104.49944     1.468533    -103.0309    16405.777    4.4150826    4.4150826    4.4150826    16405.777    7665.1171     80530.91   -38978.697   -25515.474    4938.4225    17867.632    86.063006 
   13000    1946.7637   -104.78254    1.7614727   -103.02107   -23205.849    4.4242877    4.4242877    4.4242877   -23205.849   -24060.014    14979.205   -60536.738    460.53173    -17407.84    610.05868    86.602432 
   13100     1124.442   -104.04171    1.0174188   -103.02429   -4646.8352    4.4121914    4.4121914    4.4121914   -4646.8352    15721.158    18394.715   -48056.379   -14278.129    5254.8991    30157.499     85.89404 
   13200    1920.3325   -104.75471    1.7375572   -103.01715      2227.19    4.4099795    4.4099795    4.4099795      2227.19    7583.3306    28522.396   -29424.156    1944.1975   -4449.3716   -16313.183    85.764924 
   13300     1334.717   -104.23283      1.20768   -103.02515    33947.969    4.3996184    4.3996184    4.3996184    33947.969    28821.948    87598.664   -14576.704   -17616.229   -518.17931    29563.009    85.161841 
   13400    1140.9681   -104.07027    1.0323719    -103.0379   -46362.083     4.426705     4.426705     4.426705   -46362.083   -56503.482   -41088.587    -41494.18   -2867.4771   -2975.1545     -10487.8    86.744459 
   13500    2149.6424   -104.95539    1.9450416   -103.01035   -9217.7168    4.4191876    4.4191876    4.4191876   -9217.7168   -33012.762    20381.583   -15021.971   -275.28862   -11531.061   -10080.641     86.30328 
   13600    1079.8914   -104.00329   0.97710846   -103.02618    23351.637    4.4040752    4.4040752    4.4040752    23351.637   -5375.4638    99771.978   -24341.602   -19880.578    671.97701   -5982.5585    85.420909 
   13700    906.64941   -103.87076   0.82035544    -103.0504    36228.416    4.4188258    4.4188258    4.4188258    36228.416    25522.573    107288.57   -24125.898    4543.6472   -15452.429   -18231.108    86.282087 
   13800    2137.8006   -104.94574    1.9343269   -103.01142   -28124.579      4.44123      4.44123      4.44123   -28124.579    -32845.69    -6169.557    -45358.49    8170.3191   -5169.8806   -2473.5362    87.601149 
   13900    929.05848    -103.8495   0.84063164   -103.00887   -6032.5528    4.4088357    4.4088357    4.4088357   -6032.5528   -11932.155    37808.231   -43973.734    2774.6673   -15180.269   -31233.829    85.698206 
   14000    1767.9492   -104.60321    1.5996776   -103.00353     4593.733    4.3884008    4.3884008    4.3884008     4593.733    22597.484   -7593.4026    -1222.882    33722.411    1852.7696    1357.7132    84.512093 
   14100    1734.7842   -104.59622    1.5696692   -103.02655    5156.0053    4.4136366    4.4136366    4.4136366    5156.0053    7911.8171    22191.349    -14635.15    1990.2254   -12504.699    -9655.827     85.97847 
   14200    1035.9831   -103.94863   0.93737927   -103.01125   -37872.214    4.4463323    4.4463323    4.4463323   -37872.214   -28360.034   -40879.654   -44376.954    9666.2456    7924.5423    1129.0461    87.903415 
   14300    1823.2945   -104.62363    1.6497552   -102.97387    -702.3724    4.4269757    4.4269757    4.4269757    -702.3724    12225.004    17842.452   -32174.573    1267.2119   -12157.552   -1826.6276    86.760372 
   14400    1712.1293   -104.52421    1.5491706   -102.97504   -6573.2604    4.3995799    4.3995799    4.3995799   -6573.2604     17645.44     5404.648   -42769.869    4872.1675   -8531.8949    3166.5739    85.159601 
   14500    783.71249   -103.71823   0.70911953   -103.00911    49175.714    4.3914647    4.3914647    4.3914647    49175.714    86833.512    42394.864    18298.767    3685.4542    -81.65398    13280.904     84.68923 
   14600    1918.0081    -104.7713    1.7354541   -103.03585   -2884.1019    4.4247611    4.4247611    4.4247611   -2884.1019   -14082.194    25627.728   -20197.841   -9419.4907   -13849.957    6661.8574    86.630232 
   14700    1406.4008   -104.28702     1.272541   -103.01448   -16689.489    4.4330392    4.4330392    4.4330392   -16689.489    16164.555   -33805.746   -32427.275    16726.016    9166.6695    7499.1371    87.117362 
   14800    1297.2858   -104.17219    1.1738115   -102.99838     10408.08    4.4003242    4.4003242    4.4003242     10408.08   -38194.105    55943.818    13474.526   -21027.833   -18872.343   -9533.0269    85.202828 
   14900    1727.6488   -104.56276    1.5632129   -102.99955    36116.476    4.3971424    4.3971424    4.3971424    36116.476    36390.843     45367.15    26591.435     27481.99    5510.3265     356.5164    85.018137 
   15000    1327.4351    -104.2298    1.2010911   -103.02871   -25666.276    4.4109706    4.4109706    4.4109706   -25666.276   -43742.806   -22449.156   -10806.865   -11647.919   -13590.823   -7449.1929     85.82276 
   15100    1241.1653     -104.144    1.1230325   -103.02097    306.44974    4.4339539    4.4339539    4.4339539    306.44974   -28741.804    18696.237    10964.916    5836.2626   -73.851615   -7306.0423    87.171301 
   15200    1955.0578     -104.772    1.7689774   -103.00302   -24066.861    4.4220403    4.4220403    4.4220403   -24066.861   -43216.021   -23024.588   -5959.9724    19102.399    2204.3534   -142.19006    86.470526 
   15300     996.4513    -103.9156   0.90161007   -103.01399    12555.382    4.3900271    4.3900271    4.3900271    12555.382   -11667.542    19001.911    30331.776    -22025.42   -25798.471   -12749.004    84.606087 
   15400    2098.8947   -104.92027    1.8991241   -103.02115    20898.542     4.400443     4.400443     4.400443    20898.542    49603.946    19309.863   -6218.1838    17299.957    5632.2489   -6558.7907     85.20973 
   15500    1371.5074   -104.26912    1.2409687   -103.02815   -34559.006    4.4266597    4.4266597    4.4266597   -34559.006   -56354.109   -11028.434   -36294.476   -26538.496   -23010.106   -9577.3178    86.741798 
   15600    1369.1247   -104.26481    1.2388128     -103.026    10359.952    4.4200437    4.4200437    4.4200437    10359.952    41094.453   -7976.2939   -2038.3034   -10963.332   -5919.5967   -9285.8289    86.353447 
   15700    1614.5628   -104.49017    1.4608903   -103.02928    37012.663    4.3913461    4.3913461    4.3913461    37012.663   -26795.989    100938.59    36895.393    -9063.452    5353.2817   -9260.7113     84.68237 
   15800    1161.3409   -104.09905    1.0508056   -103.04825    5787.5499    4.3937407    4.3937407    4.3937407    5787.5499    30440.857   -25648.763    12570.556   -15123.216   -23517.322   -12295.338    84.820975 
   15900    1649.7917   -104.51791    1.4927662   -103.02515   -14089.171    4.4242357    4.4242357    4.4242357   -14089.171   -63789.306    24755.789   -3233.9958    11003.063    17037.674     3638.712    86.599376 
   16000    1290.7003    -104.1791    1.1678528   -103.01125   -17129.645    4.4268276    4.4268276    4.4268276   -17129.645   -42533.342    25009.374   -33864.967   -13630.809   -17393.108   -12324.617    86.751665 
   16100    1548.7795   -104.40442    1.4013682   -103.00305   -11306.719    4.4087359    4.4087359    4.4087359   -11306.719    -8961.153   -4861.1874   -20097.818    14279.595    18388.279    6033.5353     85.69239 
   16200    1666.3953   -104.51552    1.5077895   -103.00773    -3732.194    4.4100204    4.4100204    4.4100204    -3732.194    -50747.51    50251.437   -10700.509    -6678.988   -17770.221    18381.617    85.767314 
   16300    1752.7463    -104.5944    1.5859217   -103.00848   -13480.205    4.4157314    4.4157314    4.4157314   -13480.205   -17800.987   -26577.228    3937.5996   -415.05005    8024.1608   -11852.017    86.100949 
   16400    725.40441   -103.67926   0.65636115    -103.0229    35620.111    4.4119349    4.4119349    4.4119349    35620.111   -27335.795    64256.478    69939.651    15226.583    2880.1593    19879.378    85.879061 
   16500    2150.3085   -104.94309    1.9456443   -102.99745   -19128.095    4.4279666    4.4279666    4.4279666   -19128.095   -23717.816   -26130.952   -7535.5172   -14572.539   -6523.9875   -7492.9479    86.818645 
   16600     868.8078   -103.78743   0.78611556   -103.00131   -5492.2023    4.4181082    4.4181082    4.4181082   -5492.2023   -27818.803    20141.288   -8799.0923    16622.194     23475.22    344.40449    86.240056 
   16700    2153.5038   -104.93631    1.9485355   -102.98777    1021.2678    4.4011876    4.4011876    4.4011876    1021.2678   -14595.233    1653.9402    16005.096   -16949.769   -14558.049    13470.806    85.252996 
   16800    1199.0006   -104.10078    1.0848809    -103.0159    5442.0115    4.4126397    4.4126397    4.4126397    5442.0115   -16027.324     69311.15   -36957.791    10496.043     14870.15   -6695.5828    85.920227 
   16900    1855.9388    -104.6913    1.6792924     -103.012   -36209.178    4.4312881    4.4312881    4.4312881   -36209.178   -54254.247   -22820.221   -31553.065   -5502.5739    6302.6063    20928.488    87.014167 
   17000    1732.3914   -104.55541    1.5675042   -102.98791   -7498.8707     4.428374     4.428374     4.428374   -7498.8707   -27408.063    40873.895   -35962.444    2446.2532   -2761.2104   -9484.3215    86.842609 
   17100    1383.5653   -104.24645     1.251879   -102.99457   -26678.491    4.4086239    4.4086239    4.4086239   -26678.491   -35005.062   -17198.801   -27831.609    21450.686      15832.2    15060.439    85.685859 
   17200     1817.241   -104.63354    1.6442778   -102.98927    11128.631    4.4034951    4.4034951    4.4034951    11128.631   -1826.1088    22209.784    13002.219   -27670.061   -10889.382    3055.8185    85.387155 
   17300    1488.9236   -104.35514    1.3472094   -103.00793   -23582.197    4.4304929    4.4304929    4.4304929   -23582.197    -42149.34    10176.305   -38773.557    36954.949   -2135.6027   -538.75407     86.96733 
   17400    1372.3355   -104.22986     1.241718   -102.98815   -13285.574    4.4408385    4.4408385    4.4408385   -13285.574     18100.92   -39906.974   -18050.667   -15765.581   -510.64873    12389.454    87.577985 
   17500    2063.8223   -104.84609    1.8673897    -102.9787   -25209.709    4.4133024    4.4133024    4.4133024   -25209.709   -20102.765   -28604.275   -26922.088    30339.887   -8008.3199   -10945.232    85.958942 
   17600    1095.8025   -103.98509   0.99150511   -102.99359    27355.284    4.3823183    4.3823183    4.3823183    27355.284    59682.292      19613.5    2770.0601    7288.3744    11566.052    27681.177    84.161166 
   17700    1736.9931   -104.60356    1.5716679   -103.03189    7391.3845    4.4140201    4.4140201    4.4140201    7391.3845    28150.652   -33470.414    27493.916    1712.9056    -2564.594   -26214.351    86.000885 
   17800    1081.9365   -103.98503   0.97895884   -103.00607   -28163.434    4.4409095    4.4409095    4.4409095   -28163.434   -32166.515   -18833.717   -33490.071     10649.07    18000.172    22706.659    87.582186 
   17900    1723.8501   -104.52396    1.5597758   -102.96418    7279.2518    4.4219899    4.4219899    4.4219899    7279.2518    738.86899     39264.75   -18165.864   -2689.6497   -4251.2275   -14277.681    86.467565 
   18000     1463.735   -104.29784    1.3244182   -102.97342   -17194.282    4.4105516    4.4105516    4.4105516   -17194.282    16949.578   -36173.304   -32359.119     9928.007    11387.737    15178.318    85.798308 
   18100    1347.0881   -104.21332    1.2188736   -102.99445    22763.674    4.3955097    4.3955097    4.3955097    22763.674    5615.4563    49705.841    12969.725   -9342.3248    9777.7903   -8457.7123    84.923471 
   18200    1804.6436   -104.64811    1.6328794   -103.01523   -25862.548    4.4162314    4.4162314    4.4162314   -25862.548   -10521.058    -32053.52   -35013.066   -74.364845    -8479.568   -20861.883    86.130203 
   18300    1437.6254   -104.30036    1.3007937   -102.99957    -21142.88    4.4269387    4.4269387    4.4269387    -21142.88   -53404.019    4905.4542   -14930.074    2238.6334    13428.727       9365.1    86.758196 
   18400    1185.0266   -104.06046     1.072237   -102.98823    17663.866    4.4113591    4.4113591    4.4113591    17663.866    56381.399    27579.134   -30968.935   -6100.5163    6998.7549   -43293.931    85.845442 
   18500    1637.1646   -104.46215    1.4813409   -102.98081    34873.052    4.4016935    4.4016935    4.4016935    34873.052    21028.397    72605.877    10984.882   -13594.079     5259.934    29987.971    85.282397 
   18600    1020.2383   -103.93702   0.92313303   -103.01389   -15585.107    4.4123159    4.4123159    4.4123159   -15585.107    35526.883   -61948.409   -20333.797    -2577.563   -2940.6307   -59934.925    85.901314 
   18700    2092.0667   -104.88077    1.8929459   -102.98783     14883.92    4.4147718    4.4147718    4.4147718     14883.92    3788.8163    48365.627   -7502.6821   -1644.4091   -297.01262    12910.762    86.044828 
   18800    794.20257   -103.72824   0.71861118   -103.00963   -9035.8793    4.4142074    4.4142074    4.4142074   -9035.8793     66752.54   -33696.805   -60163.373   -4894.3689   -8844.1111   -53476.498    86.011834 
   18900    2216.3664   -104.98586    2.0054149   -102.98044   -9714.8644    4.4113113    4.4113113    4.4113113   -9714.8644   -10598.065   -1126.5257   -17420.002   -10594.065   -10043.945    12338.012    85.842653 
   19000    1383.1493   -104.24039    1.2515026   -102.98889    2398.9643    4.4051474    4.4051474    4.4051474    2398.9643    8016.2322    43087.537   -43906.876    3869.9787    7745.2552   -52216.493    85.483308 
   19100    1503.3459   -104.35811     1.360259   -102.99785     -25278.3    4.4169884    4.4169884    4.4169884     -25278.3    7492.2757   -44968.278   -38358.898   -15000.827   -9531.7404     20190.07      86.1745 
   19200    1483.8522   -104.33526    1.3426207   -102.99264    14046.225    4.4100363    4.4100363    4.4100363    14046.225   -2768.1213    68955.309   -24048.512   -2805.8579   -2331.9201   -26375.683    85.768241 
   19300    1320.4417   -104.20107    1.1947634    -103.0063   -32389.062    4.4152701    4.4152701    4.4152701   -32389.062   -8244.2991    -41493.18   -47429.707    1885.8157    11332.932   -16352.205    86.073969 
   19400    1615.8141   -104.46487    1.4620226   -103.00284    10678.137    4.4048694    4.4048694    4.4048694    10678.137   -17142.197    22368.809    26807.799   -11415.875   -6721.1947    35729.576    85.467128 
   19500    1556.2692   -104.42907    1.4081451   -103.02093   -8775.2487    4.4150123    4.4150123    4.4150123   -8775.2487    -9543.608    9396.6583   -26178.796     3077.844    6024.3244   -31878.834    86.058895 
   19600    1293.3713   -104.18085    1.1702695   -103.01058   -30638.875    4.4249426    4.4249426    4.4249426   -30638.875   -1821.7433   -36454.952    -53639.93   -9626.8291    3947.0264    64583.807    86.640896 
   19700    1565.1173    -104.4029     1.416151   -102.98675    22369.138    4.4024903    4.4024903    4.4024903    22369.138     2977.984    50580.188    13549.244    9161.2528   -1680.0576   -27529.726     85.32872 
   19800    1310.3729   -104.18904    1.1856529   -103.00339   -9474.9923    4.4071214    4.4071214    4.4071214   -9474.9923    3861.5536    33813.423   -66099.953    4710.1424    2833.8521    54858.264    85.598283 
   19900    1495.3487   -104.36195     1.353023   -103.00893   -1279.1719    4.4191235    4.4191235    4.4191235   -1279.1719    1554.3015   -10601.536    5209.7192     8540.302   -14975.819   -2438.1955    86.299529 
   20000     1161.081   -104.05979    1.0505705   -103.00922   -5396.8931    4.4209314    4.4209314    4.4209314   -5396.8931    21967.974   -3060.8474   -35097.806    8531.3325    5613.6305    18707.442    86.405486 
   20100    1907.1995   -104.70748    1.7256742   -102.98181   -9684.1896     4.417542     4.417542     4.417542   -9684.1896    1040.5267   -595.16436   -29497.931     2023.576   -27321.145    2994.2247    86.206906 
   20200    1519.3932   -104.35107    1.3747789   -102.97629   -17297.969    4.4170481    4.4170481    4.4170481   -17297.969   -3896.0076   -13323.215   -34674.684     9710.957    8960.2339    15727.427    86.177994 
   20300    1209.5659   -104.07998    1.0944407   -102.98554    14534.829    4.4076603    4.4076603    4.4076603    14534.829    61791.469    3035.5896   -21222.573   -8090.3608   -14768.046    13237.679    85.629686 
   20400    1826.1902   -104.64419    1.6523753   -102.99182    3262.2089    4.4118976    4.4118976    4.4118976    3262.2089   -1087.8184    45081.303   -34206.858    -15060.71   -1348.8376   -1494.2293    85.876883 
   20500    1064.6566    -103.9623   0.96332369   -102.99898    20526.313    4.4121692    4.4121692    4.4121692    20526.313    41138.469    29615.294   -9174.8241    -21127.47    2186.0743    29156.528    85.892742 
   20600    1737.5798    -104.5618    1.5721987   -102.98961    6780.3402    4.4164328    4.4164328    4.4164328    6780.3402    29055.477    16378.509   -25092.965   -11373.015   -20981.918   -14013.918    86.141986 
   20700    1168.4606   -104.05244    1.0572477   -102.99519    29708.429     4.414416     4.414416     4.414416    29708.429    18757.886    71973.426   -1606.0261   -875.68766     6224.662    38022.711    86.024027 
   20800    1643.1738   -104.47766    1.4867782   -102.99088   -12392.251    4.4165851    4.4165851    4.4165851   -12392.251   -18266.437    18691.074    -37601.39   -10868.439   -18309.271   -19266.999    86.150899 
   20900    1359.9057   -104.21708    1.2304712   -102.98661     7760.334    4.4155956    4.4155956    4.4155956     7760.334    39419.328     26774.89   -42913.216   -3917.9178    543.31235    22155.814    86.093004 
   21000    1501.0297   -104.34805    1.3581633   -102.98988   -15256.788     4.409402     4.409402     4.409402   -15256.788   -27231.009    5058.0313   -23597.387   -6681.3697   -20047.065   -1552.0138    85.731237 
   21100    1622.0663   -104.46346    1.4676797   -102.99578    289.58305    4.4059952    4.4059952    4.4059952    289.58305    25743.997   -7104.7961   -17770.452    13565.541    5568.3193    -9555.709    85.532679 
   21200    1403.6213   -104.28508     1.270026   -103.01505   -15821.768    4.4137833    4.4137833    4.4137833   -15821.768    -43061.45    14636.319   -19040.174   -1640.6544   -21848.883    22788.003    85.987042 
   21300    1590.1433   -104.44189    1.4387951   -103.00309   -4299.6289    4.4114319    4.4114319    4.4114319   -4299.6289    9106.9203   -3410.7561   -18595.051    2201.8972    3796.8979   -33383.898     85.84969 
   21400    1313.4053   -104.19189    1.1883967   -103.00349    8587.2029    4.4143787    4.4143787    4.4143787    8587.2029   -14371.046     38285.71    1846.9444    25581.431   -9857.2666    27608.085    86.021849 
   21500    1750.7375   -104.57655     1.584104   -102.99245   -36484.476    4.4194436    4.4194436    4.4194436   -36484.476    -39780.35   -25652.034   -44021.046   -728.90365   -4954.3798   -29543.112     86.31828 
   21600    1408.1503   -104.27486     1.274124   -103.00074    15620.368    4.3956628    4.3956628    4.3956628    15620.368    19057.977    30375.148   -2572.0191    32.128942   -6352.9064   -12841.701    84.932342 
   21700    1532.3897   -104.40997    1.3865384   -103.02343    15734.393    4.3993967    4.3993967    4.3993967    15734.393    7716.7654    64830.939   -25344.526    4426.6088   -8732.5731    10804.016    85.148963 
   21800    1463.7458   -104.34191     1.324428   -103.01748   -16847.171    4.4253955    4.4253955    4.4253955   -16847.171   -12287.459   -23706.795    -14547.26   -19687.859    7492.2008    -39856.95    86.667501 
   21900    1468.0139   -104.32451    1.3282898   -102.99622    1144.1747     4.418439     4.418439     4.418439    1144.1747   -4590.8858    25403.598   -17380.188    4430.0832   -20302.685    32582.432    86.259432 
   22000     1631.195   -104.46463    1.4759395   -102.98869   -1718.6013    4.4140608    4.4140608    4.4140608   -1718.6013    20685.634    -12744.85   -13096.588   -12589.108    13301.569   -48222.355    86.003262 
   22100    1428.0346    -104.2898    1.2921157   -102.99769    9412.2008    4.4006577    4.4006577    4.4006577    9412.2008   -25854.592    65156.754    -11065.56    3023.6496   -16212.727    30975.034    85.222203 
   22200    1542.7254   -104.41123    1.3958903   -103.01534    5082.8847    4.4126579    4.4126579    4.4126579    5082.8847    11512.236   -5928.1596    9664.5776   -5372.7235    5524.5991   -24419.225     85.92129 
   22300    1475.1425   -104.34115      1.33474   -103.00641   -15429.502    4.4282919    4.4282919    4.4282919   -15429.502   -15502.291    14518.275   -45304.489    5839.9825   -10236.611    11723.031    86.837783 
   22400    1176.8367   -104.07148    1.0648266   -103.00665   -18785.826    4.4136338    4.4136338    4.4136338   -18785.826   -50247.969    4120.5145   -10230.024   -461.27814    -24952.06    5860.3706    85.978305 
   22500    2158.1647   -104.93509    1.9527528   -102.98234    12200.591    4.4055775    4.4055775    4.4055775    12200.591   -14277.133    22122.072    28756.835   -2235.8295    3523.0383     8897.821    85.508355 
   22600    579.89712   -103.54877    0.5247031   -103.02407   -24607.225    4.4139054    4.4139054    4.4139054   -24607.225   -63190.274    39370.008   -50001.408    4556.7047   -27731.492    27657.747    85.994183 
   22700    2103.2598    -104.9174    1.9030737   -103.01433    22620.758    4.4127394    4.4127394    4.4127394    22620.758   -19713.092    14239.626    73335.739    1781.5814     13455.97    1421.7799    85.926051 
   22800    1146.4606   -104.07414    1.0373417    -103.0368    4427.1165    4.4105477    4.4105477    4.4105477    4427.1165   -22328.074    20316.995    15292.428     486.0265   -18056.954    2453.3363    85.798079 
   22900    1705.4412   -104.56587    1.5431191   -103.02275   -4930.6399    4.4092816    4.4092816    4.4092816   -4930.6399   -25808.266   -8641.8677    19658.214   -3079.0393    15244.014     22764.17    85.724211 
   23000    1684.7899   -104.53832    1.5244333   -103.01389   -7858.3856    4.4128693    4.4128693    4.4128693   -7858.3856   -38362.378     19813.23   -5026.0089    4968.0523   -4997.1687   -25319.774    85.933635 
   23100    1516.5099   -104.38031      1.37217   -103.00814    11377.705    4.4061953    4.4061953    4.4061953    11377.705   -23672.343    18776.674    39028.784    4304.0432    4406.1928    25018.199     85.54433 
   23200    1241.8003   -104.13604     1.123607   -103.01243    -1862.751    4.4173875    4.4173875    4.4173875    -1862.751   -18038.041     15847.16   -3397.3714   -4187.5837    2701.8897   -59798.467    86.197862 
   23300    1653.4632    -104.4936    1.4960882   -102.99751    9448.1014      4.41563      4.41563      4.41563    9448.1014   -21646.545     4536.098    45454.751    10077.741    6477.3321    14153.589    86.095022 
   23400    1409.0875   -104.28362     1.274972   -103.00865   -1837.0925    4.4090627    4.4090627    4.4090627   -1837.0925    5648.7835    10093.955   -21254.016   -14619.013     2070.226   -34476.251    85.711448 
   23500    1536.7682   -104.40665    1.3905001   -103.01615    5666.7803    4.4046193    4.4046193    4.4046193    5666.7803   -19742.353   -14274.104    51016.799    7467.4372    6692.9766   -14157.053    85.452568 
   23600    1830.7671   -104.67421    1.6565165    -103.0177    4342.4696    4.4141565    4.4141565    4.4141565    4342.4696   -12563.774    29822.731   -4231.5489   -1468.5087    14374.621   -4767.7453     86.00886 
   23700     1158.862   -104.06744    1.0485627   -103.01888   -37587.685    4.4282457    4.4282457    4.4282457   -37587.685    -34067.05   -69934.719   -8761.2874    -11184.83   -5431.7957   -26864.968    86.835067 
   23800    1816.6399   -104.64409     1.643734   -103.00036    7007.2651    4.4102349    4.4102349    4.4102349    7007.2651   -14671.415    16999.991    18693.219    22923.529    15833.809   -932.15575    85.779826 
   23900    1795.1168   -104.63011    1.6242594   -103.00585   -24899.873    4.4072962    4.4072962    4.4072962   -24899.873   -5497.9667   -34482.797   -34718.855   -14675.404   -876.79422    -22581.86    85.608465 
   24000    1041.9562   -103.96395   0.94278385   -103.02117    1789.8123    4.4171449    4.4171449    4.4171449    1789.8123   -34803.883    23425.393    16747.927      26389.5    1523.3528    7453.2424    86.183659 
   24100    1745.3179   -104.57764    1.5792003   -102.99844    2252.7958    4.4246264    4.4246264    4.4246264    2252.7958    47696.092   -3724.1347   -37213.569    4674.7726    -3597.821   -11695.482    86.622323 
   24200    1029.7617   -103.92507   0.93175005   -102.99332   -11784.119    4.4211474    4.4211474    4.4211474   -11784.119     44745.65   -61931.429   -18166.579    27005.849    1753.9709    9714.2702    86.418152 
   24300    1519.5246   -104.36077    1.3748978   -102.98587    4196.8837    4.4140852    4.4140852    4.4140852    4196.8837    51311.335   -44247.099    5526.4152    -1139.744   -11190.439    9577.6049    86.004691 
   24400    1815.7095   -104.64159    1.6428921    -102.9987   -22854.316    4.4182849    4.4182849    4.4182849   -22854.316   -13742.609   -55566.503    746.16468    16618.057   -3494.7532   -11139.688    86.250405 
   24500    1279.8797   -104.17023    1.1580621   -103.01217   -25405.068    4.4117846    4.4117846    4.4117846   -25405.068   -19285.843   -58866.146    1936.7838   -1089.2754   -10499.247    27327.494    85.870285 
   24600    1983.8276   -104.79475    1.7950089   -102.99974    15906.131    4.4096876    4.4096876    4.4096876    15906.131    39896.382    -22572.23    30394.242   -5640.5318    6090.4781    2862.1655    85.747896 
   24700     1009.059    -103.9313   0.91301777   -103.01829   -4286.8065    4.4170045    4.4170045    4.4170045   -4286.8065    48423.936   -67261.898    5977.5422    20062.375    6463.8519     9400.751    86.175446 
   24800    1803.6089   -104.63346    1.6319432   -103.00152   -8294.1149    4.4192517    4.4192517    4.4192517   -8294.1149    22916.141   -21127.076    -26671.41   -4359.5034    5068.5007    14205.789    86.307037 
   24900    1697.9609   -104.52898    1.5363507   -102.99263   -24784.161    4.4247048    4.4247048    4.4247048   -24784.161   -19930.021   -63249.638    8827.1772    18189.934    10932.561   -1294.2071    86.626926 
   25000    1274.6449   -104.15132    1.1533255   -102.99799   -9896.4099    4.4075478    4.4075478    4.4075478   -9896.4099    10829.551   -32885.622    -7633.159   -14526.613   -11121.775    19853.721    85.623131 
   25100     1711.904   -104.54715    1.5489667   -102.99818    22142.455    4.4004149    4.4004149    4.4004149    22142.455    66307.228   -23382.186    23502.323    -3068.159     5039.908   -28304.063      85.2081 
   25200    1206.3983    -104.1039    1.0915745   -103.01233    2647.7055    4.4151471    4.4151471    4.4151471    2647.7055    22760.494    -22733.74    7916.3631    -16703.01   -1856.9347    14901.164    86.066777 
   25300    1352.0076   -104.24469    1.2233249   -103.02136   -20901.531    4.4148481    4.4148481    4.4148481   -20901.531    14797.554   -44013.881   -33488.267    -10351.75    3648.5657   -38279.329    86.049294 
   25400     2002.608   -104.81459    1.8120018   -103.00259    25166.446    4.4187168    4.4187168    4.4187168    25166.446    78612.476    8132.5014   -11245.638   -6877.8499   -573.37598    7725.2537    86.275705 
   25500     655.7655   -103.61222   0.59335041   -103.01887   -26353.699    4.4292307    4.4292307    4.4292307   -26353.699    76171.862   -77396.025   -77836.935    407.08321   -875.31582   -52736.609    86.893025 
   25600    2164.9775   -104.95327    1.9589172   -102.99435    3520.9459    4.4100716    4.4100716    4.4100716    3520.9459    23769.433   -10141.111   -3065.4843    12692.478   -6896.6062    11863.722      85.7703 
   25700    1322.0946   -104.20828     1.196259   -103.01202    5920.1495    4.4066703    4.4066703    4.4066703    5920.1495    77201.658   -23822.334   -35618.875    1436.2112   -1226.7957   -30244.967    85.571997 
   25800    1338.2316   -104.22703    1.2108601   -103.01617   -9755.7606    4.4218362    4.4218362    4.4218362   -9755.7606     3795.682   -38644.924    5581.9596    4456.7363    -865.4514    11658.406    86.458551 
   25900    1782.4083   -104.61905    1.6127605   -103.00629   -5050.1484    4.4195988    4.4195988    4.4195988   -5050.1484   -6225.1361   -10159.503    1234.1933    2726.5866   -11398.426   -18017.374    86.327373 
   26000    1393.1376   -104.26573    1.2605402   -103.00519   -24622.432    4.4171162    4.4171162    4.4171162   -24622.432   -15828.451   -41499.553   -16539.294   -13530.134   -978.88125   -5162.4382     86.18198 
   26100    1411.0276   -104.27583    1.2767274    -102.9991    6505.6895    4.3995911    4.3995911    4.3995911    6505.6895   -10223.737   -14680.172    44420.978    11757.858   -7886.6432    4705.5783    85.160256 
   26200    1839.8845    -104.6716    1.6647661   -103.00683    5008.4107    4.4102827    4.4102827    4.4102827    5008.4107     44326.09    463.44513   -29764.303   -241.05573   -4804.2069   -13682.822    85.782619 
   26300    947.74342   -103.87234   0.85753817    -103.0148   -45892.512    4.4245473    4.4245473    4.4245473   -45892.512     -33385.4   -95783.102   -8509.0323    15698.804     3489.213    21431.488    86.617675 
   26400    1545.2714   -104.38316     1.398194   -102.98497      43374.1    4.4118449    4.4118449    4.4118449      43374.1     96724.34    8759.1659    24638.793    9969.3507     3439.091   -9255.8074    85.873807 
   26500    970.07441   -103.88459   0.87774371   -103.00685   -7295.1708    4.4106624    4.4106624    4.4106624   -7295.1708    11072.608   -61235.645    28277.525    17647.884    3481.4998     13676.35    85.804772 
   26600     1913.502   -104.72089    1.7313769   -102.98951   -5314.3471     4.422373     4.422373     4.422373   -5314.3471    40926.548   -41700.162   -15169.427    618.71486    10632.054   -5935.2543     86.49004 
   26700    1232.8679   -104.10754    1.1155248   -102.99201   -24004.334    4.4259835    4.4259835    4.4259835   -24004.334   -3136.0796   -52095.684   -16781.238     8828.348    46.023294   -3900.6173    86.702048 
   26800    1707.8204   -104.53051    1.5452718   -102.98524   -11763.617    4.3968783    4.3968783    4.3968783   -11763.617   -11148.691    -46306.68     22164.52    2597.9402   -704.66706    6697.5783    85.002822 
   26900    1599.7975   -104.44565    1.4475304   -102.99812    5673.6457    4.4024833    4.4024833    4.4024833    5673.6457    65844.293   -41607.809   -7215.5474     1944.827    4671.4466   -25744.282    85.328312 
   27000    1315.6831   -104.20049    1.1904577   -103.01003   -26531.549    4.4158612    4.4158612    4.4158612   -26531.549   -26653.018   -65891.442    12949.813    17352.037   -2688.1933    9287.4196    86.108543 
   27100    1707.6723   -104.54722    1.5451378   -103.00208    4227.9849    4.4191887    4.4191887    4.4191887    4227.9849    42766.149    -24465.84   -5616.3546   -7117.8803    2742.9958   -27997.112    86.303348 
   27200    1559.7022   -104.40383    1.4112513   -102.99258   -22526.308    4.4210053    4.4210053    4.4210053   -22526.308    8207.3968   -70751.984   -5034.3383    23867.055   -8470.9229    13458.924     86.40982 
   27300    1161.8177    -104.0488    1.0512371   -102.99757    25355.941    4.3966269    4.3966269    4.3966269    25355.941    38583.939   -8131.4644    45615.348    -11844.97   -7893.2519   -40582.425    84.988243 
   27400    1981.9819   -104.79823    1.7933389   -103.00489    -6758.077     4.411706     4.411706     4.411706    -6758.077    2412.5045   -11921.646    -10765.09    13572.762    1612.1632    6077.0934    85.865693 
   27500    1331.7152   -104.20976    1.2049639    -103.0048   -15694.703    4.4151471    4.4151471    4.4151471   -15694.703   -25710.556   -46833.486    25459.933    -12474.03    15329.466   -18683.679    86.066773 
   27600    1380.2664   -104.23375    1.2488941   -102.98485    30982.353    4.4154907    4.4154907    4.4154907    30982.353    40201.624    15305.223    37440.213    8335.8591   -2759.3848    -3252.707    86.086868 
   27700    1603.8563   -104.43083    1.4512029   -102.97962   -37919.827    4.4252386    4.4252386    4.4252386   -37919.827   -48798.768   -58875.183   -6085.5297    3685.8977    8305.1528   -11665.258     86.65828 
   27800    1355.6796   -104.20331    1.2266474   -102.97667    26890.394    4.4029432    4.4029432    4.4029432    26890.394    43498.733     -27332.6     64505.05   -13059.961    4316.9769   -12436.876    85.355056 
   27900    1533.3232   -104.38175     1.387383   -102.99437   -10831.477     4.408574     4.408574     4.408574   -10831.477    8572.0869   -29426.776   -11639.743    9177.0159    4718.9255     25878.35    85.682947 
   28000    1465.2489   -104.32242     1.325788   -102.99663    16618.276    4.4026073    4.4026073    4.4026073    16618.276    25518.409   -37349.637    61686.055   -26073.203     6009.329   -10168.348    85.335524 
   28100    1431.0808   -104.29883     1.294872   -103.00396    2206.4176    4.4082565    4.4082565    4.4082565    2206.4176     38280.18    -39150.67    7489.7431    6118.8106   -5425.0698    42693.046     85.66444 
   28200    1794.0586   -104.61825    1.6233019   -102.99494    2892.9453    4.4134248    4.4134248    4.4134248    2892.9453   -21176.543    -8590.649    38446.028    -20633.34    1136.5739   -8439.2317    85.966092 
   28300    1241.1632   -104.11706    1.1230306   -102.99403    25147.726    4.4099454    4.4099454    4.4099454    25147.726    54737.014   -18262.227    38968.391   -1170.3185    1229.7751    42427.158    85.762934 
   28400    1730.8648    -104.5512    1.5661229   -102.98508   -15965.592    4.4195779    4.4195779    4.4195779   -15965.592   -52024.326    1713.8483    2413.7013   -20653.486   -1256.7553   -21756.996    86.326152 
   28500     1471.131   -104.31367    1.3311102   -102.98256     25782.06    4.4001205    4.4001205    4.4001205     25782.06    31784.493   -6175.9002    51737.588    2885.7864   -5075.6155    33294.449    85.190998 
   28600    1275.5947   -104.15777    1.1541849   -103.00359   -3338.6299    4.4034495    4.4034495    4.4034495   -3338.6299   -14954.377     6952.215   -2013.7274   -11835.351     5663.457    2370.1807    85.384506 
   28700    1777.2402   -104.61211    1.6080843   -103.00402   -12599.436     4.413568     4.413568     4.413568   -12599.436   -39891.154   -17103.573    19196.419    442.09026    8714.0244    4579.5526    85.974463 
   28800    1533.0234   -104.39576    1.3871118   -103.00865   -16605.888    4.4186664    4.4186664    4.4186664   -16605.888    2690.3853   -10154.564   -42353.485   -9438.3479   -109.33734    24162.228    86.272749 
   28900    1036.1877   -103.94853   0.93756443   -103.01096   -28.544751    4.4081265    4.4081265    4.4081265   -28.544751   -38623.674    38025.365    512.67471   -95.508375    14454.579   -18298.475    85.656858 
   29000    1992.8251   -104.79314    1.8031501   -102.98999    16247.193    4.3884043    4.3884043    4.3884043    16247.193    -1376.777    3131.2833    46987.072   -4469.9008    2622.3397    6720.8369    84.512294 
   29100    905.75076   -103.83982   0.81954232   -103.02028    2809.2999    4.4031985    4.4031985    4.4031985    2809.2999   -54332.879    55743.007    7017.7718   -10421.121     -878.674   -9352.1974    85.369906 
   29200    1905.6063   -104.73185    1.7242326   -103.00762    -14169.95    4.4200662    4.4200662    4.4200662    -14169.95   -15799.368   -35943.296    9232.8119   -1940.8487    8980.4917   -22750.927    86.354769 
   29300    1497.7094   -104.35798     1.355159   -103.00282    -17474.35    4.4193969    4.4193969    4.4193969    -17474.35   -64119.231    15045.808   -3349.6258   -5398.4514   -1429.0359    13655.332    86.315546 
   29400     1331.655   -104.20841    1.2049094    -103.0035   -18727.567    4.3924624    4.3924624    4.3924624   -18727.567    7800.1056   -14451.771   -49531.036   -4804.2563    -12028.35    -48883.15    84.746967 
   29500    1645.1485    -104.4942     1.488565   -103.00564     39777.26    4.3847485    4.3847485    4.3847485     39777.26   -22780.199    37937.732    104174.25   -19654.401    8061.5987    6667.0741    84.301261 
   29600    1206.7854   -104.11056    1.0919248   -103.01864   -23628.677    4.4126855    4.4126855    4.4126855   -23628.677   -6566.9274   -25155.175   -39163.929    10921.468   -1886.0415   -62010.764    85.922898 
   29700    1590.4513   -104.43495    1.4390738   -102.99588   -2456.4413    4.4111326    4.4111326    4.4111326   -2456.4413   -5553.6415   -10442.069    8626.3864    -30120.61    -3346.224    14108.299    85.832218 
   29800    1625.5517   -104.45484    1.4708334   -102.98401   -19663.484    4.4233432    4.4233432    4.4233432   -19663.484   -27454.948    -7833.986   -23701.518    9013.4696    96.125653   -43384.066    86.546979 
   29900    1198.9905   -104.08177    1.0848718   -102.99689    3378.7208    4.4025536    4.4025536    4.4025536    3378.7208   -11084.327    34358.121   -13137.631    -19528.33   -3615.6751   -6230.3141    85.332397 
   30000    1769.2394    -104.6001     1.600845   -102.99926    27957.603    4.3809812    4.3809812    4.3809812    27957.603    29987.717    23006.121    30878.971   -9358.6579    -6775.714    4118.1433    84.084155 
   30100    1465.8847    -104.3499    1.3263633   -103.02354    4391.6412    4.4010628    4.4010628    4.4010628    4391.6412     763.1712     45271.72   -32859.967    3170.4103    712.85452   -28900.886    85.245742 
   30200    1309.3945   -104.19774    1.1847676   -103.01297   -16246.772     4.418318     4.418318     4.418318   -16246.772    -29754.02   -2760.9413   -16225.354   -35109.973   -660.34734    19821.993    86.252343 
   30300    1829.1451   -104.64205    1.6550489     -102.987    4553.1538    4.4131559    4.4131559    4.4131559    4553.1538     32825.56    6863.8968   -26029.996    17150.299   -2608.0091   -22543.521    85.950381 
   30400    1041.9971   -103.93651   0.94282083   -102.99369   -20094.374    4.4039541    4.4039541    4.4039541   -20094.374   -47899.909   -7552.7092   -4830.5048    -42867.32   -1870.3672    10637.037    85.413859 
   30500    1998.2677   -104.78967    1.8080746    -102.9816    20236.076    4.3870171    4.3870171    4.3870171    20236.076    40592.854    20905.143   -789.76993    8861.7505    598.56613   -4766.6161    84.432175 
   30600    976.54028   -103.89972   0.88359416   -103.01613    8341.8226    4.4031561    4.4031561    4.4031561    8341.8226   -46003.507    69182.612    1846.3634   -50810.699    934.81383   -9492.2154     85.36744 
   30700    1823.3287   -104.65769    1.6497862    -103.0079   -40039.135    4.4218924    4.4218924    4.4218924   -40039.135   -46286.377   -22191.168   -51639.858     -2694.61   -1897.0688    17916.026    86.461845 
   30800    1407.7592   -104.27558    1.2737701   -103.00181    24697.048    4.3988708    4.3988708    4.3988708    24697.048    14550.225    51376.068    8164.8519   -23433.057    3269.9017   -22354.345    85.118433 
   30900    1444.7588   -104.31568    1.3072481   -103.00843   -25113.837    4.3945557    4.3945557    4.3945557   -25113.837   -52173.163   -4668.8091   -18499.538   -32333.202   -627.38384    23518.532    84.868185 
   31000     1732.368   -104.57157     1.567483   -103.00408    9107.7516    4.4029985    4.4029985    4.4029985    9107.7516   -1710.6899    39323.543   -10289.598    -4803.578    1476.8032   -8498.7622    85.358272 
   31100    1265.6606   -104.15041    1.1451963   -103.00521   -28476.339    4.4194384    4.4194384    4.4194384   -28476.339   -43807.561   -17345.754   -24275.702   -44927.484    1111.8048    124.67126    86.317974 
   31200    1472.8895   -104.32214    1.3327013   -102.98943   -2952.3375    4.4048308    4.4048308    4.4048308   -2952.3375   -7373.9998     20241.43   -21724.443    3711.8066   -1768.9454    19734.077     85.46488 
   31300     1547.652   -104.38483     1.400348   -102.98448   -2976.0678    4.3972712    4.3972712    4.3972712   -2976.0678   -41451.944    13279.343    19244.397   -52060.936    3585.5481   -20669.145    85.025609 
   31400    1708.0262   -104.52551     1.545458   -102.98005   -11234.639    4.4117212    4.4117212    4.4117212   -11234.639   -9805.0295   -6077.8565   -17821.029    8522.1355   -9001.3032    16020.787    85.866584 
   31500    1265.7402   -104.12655    1.1452683   -102.98128    5856.2349    4.4194781    4.4194781    4.4194781    5856.2349   -14563.744   -2974.6245    35107.074   -33989.402   -3790.7397   -9610.5212    86.320306 
   31600    1456.6246   -104.29097    1.3179846   -102.97299   -20115.838    4.4242478    4.4242478    4.4242478   -20115.838   -24333.391    -45309.93    9295.8083    12823.722     4712.625    15231.304    86.600085 
   31700    1471.4111   -104.31023    1.3313636   -102.97887    6464.0246    4.4023724    4.4023724    4.4023724    6464.0246   -30655.107    -38844.57    88891.751   -21842.982   -5307.1598    14316.976    85.321862 
   31800    1527.7175   -104.36716    1.3823109   -102.98485    14541.011    4.3997208    4.3997208    4.3997208    14541.011   -1358.5324    16556.288    28425.278    11236.608    13144.416    3220.9372    85.167783 
   31900    1285.9117   -104.16283      1.16352   -102.99931   -43499.323    4.4191515    4.4191515    4.4191515   -43499.323     -40959.4   -63716.846   -25821.724   -21512.636    4369.0994    33474.929    86.301168 
   32000    1984.2941   -104.77544     1.795431   -102.98001   -6870.7347    4.4104449    4.4104449    4.4104449   -6870.7347   -25633.903    14959.007   -9937.3078    4669.6795    13838.661   -18269.504    85.792081 
   32100    1256.1084   -104.13023    1.1365533   -102.99368    -16968.49    4.4165011    4.4165011    4.4165011    -16968.49   -23585.132   -31495.831    4175.4915   -7868.6593    541.53039    12397.465    86.145981 
   32200     1622.152   -104.44864    1.4677572   -102.98089    11618.293    4.4050988    4.4050988    4.4050988    11618.293    37828.838   -30986.428     28012.47   -2590.8004   -2481.3616   -27001.971    85.480482 
   32300    1503.3754   -104.35171    1.3602857   -102.99142    4212.6972    4.4012424    4.4012424    4.4012424    4212.6972   -23255.551    8550.3409    27343.302     3041.999    2269.4766   -4959.1375     85.25618 
   32400    1477.8276   -104.32414    1.3371695   -102.98697    69.476443    4.4199446    4.4199446    4.4199446    69.476443    18844.695    5622.1989   -24258.465   -16620.062   -5315.4183   -30640.299    86.347639 
   32500    1267.1635    -104.1363    1.1465562   -102.98974    -6981.926    4.4170768    4.4170768    4.4170768    -6981.926   -37873.698    50061.383   -33133.463    7572.5776    10096.912   -24604.725    86.179678 
   32600    1557.2477   -104.38405    1.4090304   -102.97502    27997.515    4.4138033    4.4138033    4.4138033    27997.515    17546.457    83576.506   -17130.418    -15587.39    5312.7794   -4690.5588    85.988216 
   32700    897.48285   -103.80241   0.81206134   -102.99035    2093.2776    4.4074888    4.4074888    4.4074888    2093.2776    19106.647     34365.31   -47192.124    13857.109    5482.1311   -38090.086    85.619691 
   32800    1788.4433    -104.5966    1.6182211   -102.97837    19688.364    4.4158357    4.4158357    4.4158357    19688.364    57126.301    -5397.152    7335.9439     4038.695    5827.2325    10108.139    86.107053 
   32900    1420.4438   -104.26345    1.2852474    -102.9782   -43203.598    4.4265171    4.4265171    4.4265171   -43203.598   -28709.433   -43944.972   -56956.387    8937.3628    11737.752   -36986.433    86.733414 
   33000    1361.8378   -104.19243    1.2322194   -102.96021     17349.88    4.4030922    4.4030922    4.4030922     17349.88    12372.636    19717.069    19959.934    5028.2517   -4300.8186    3053.0799    85.363719 
   33100    1561.4646   -104.38801     1.412846   -102.97517   -4334.0064     4.400377     4.400377     4.400377   -4334.0064    24256.063   -37564.721    306.63853   -1611.1739    9070.1082   -36267.947    85.205896 
   33200    1614.2101   -104.43406    1.4605712   -102.97349   -18321.679    4.4240671    4.4240671    4.4240671   -18321.679   -40961.255    17824.157   -31827.938    20349.644    17825.744    9805.7346     86.58948 
   33300    1247.5798   -104.09745    1.1288364   -102.96861   -24852.827    4.4292135    4.4292135    4.4292135   -24852.827   -18549.587   -17791.326   -38217.569   -13590.928   -9930.9505   -30250.097     86.89201 
   33400    1578.5083   -104.40024    1.4282675   -102.97197    -5023.743    4.4114175    4.4114175    4.4114175    -5023.743   -31343.156    36307.903   -20035.976    12800.594     6649.724     14984.12    85.848852 
   33500     1358.415    -104.2047    1.2291224   -102.97558    21532.969      4.39161      4.39161      4.39161    21532.969    57587.566   -2203.4325    9214.7748    8862.2609   -2772.9512   -22249.417    84.697636 
[...]
   91300    1531.0881    -104.3812    1.3853607   -102.99584   -16108.122    4.4008774    4.4008774    4.4008774   -16108.122    8436.7204   -29237.055   -27524.032   -6219.5778   -4647.1849   -28845.462    85.234971 
   91400    1246.7562   -104.12807    1.1280912   -102.99997    10053.348    4.3997056    4.3997056    4.3997056    10053.348     40068.81     2839.346   -12748.113   -1135.9937    8483.1466    54578.276    85.166905 
   91500    1851.9114   -104.66676    1.6756484   -102.99111    2971.1704     4.408579     4.408579     4.408579    2971.1704   -184.42749   -16202.825    25300.764   -5265.2636    6952.3225   -32248.424    85.683238 
   91600     993.6586   -103.89597   0.89908319   -102.99689   -25427.577    4.4085195    4.4085195    4.4085195   -25427.577    37428.159   -57935.592   -55775.297    4914.6793    7630.3519    46090.101    85.679772 
   91700    2118.4186   -104.89276    1.9167897   -102.97597    31477.941    4.3957371    4.3957371    4.3957371    31477.941    8835.7268    14825.887    70772.209   -4052.3742   -3591.1701   -16571.496    84.936649 
   91800    1028.8808   -103.93461   0.93095294   -103.00365   -20417.005    4.4021083    4.4021083    4.4021083   -20417.005    49346.365   -75960.669   -34636.712   -6445.4721    6585.6676    53949.117    85.306512 
   91900    1990.8543   -104.78129    1.8013668   -102.97992    20588.646    4.4021746    4.4021746    4.4021746    20588.646    15543.994    2574.4966    43647.447    3736.2415   -13389.116   -5932.6519    85.310365 
   92000    1219.1502   -104.10202    1.1031127   -102.99891   -12362.313    4.4071402    4.4071402    4.4071402   -12362.313     30048.94   -45585.624   -21550.256   -7690.2035   -7571.6768    54407.354    85.599375 
   92100      1512.59   -104.36454    1.3686232   -102.99591    16356.516    4.4029425    4.4029425    4.4029425    16356.516   -6518.4272    -11607.42    67195.396   -515.87749    5324.9834   -7524.8842    85.355016 
   92200    1532.2146   -104.38128    1.3863799    -102.9949     2732.346    4.3974221    4.3974221    4.3974221     2732.346   -18881.887     9945.871    17133.054    3779.7805   -24822.406    22261.661    85.034364 
   92300    1310.3891   -104.19227    1.1856676    -103.0066   -12242.459    4.3978419    4.3978419    4.3978419   -12242.459    10338.864   -39057.852   -8008.3885    1941.7541    3296.5051    17410.628    85.058718 
   92400    1977.3008   -104.79809    1.7891033   -103.00899    2662.2103    4.4017508    4.4017508    4.4017508    2662.2103   -33987.189   -7708.3946    49682.215    10761.221   -1390.9298   -3069.1666    85.285724 
   92500    1008.9512   -103.94231   0.91292027   -103.02939   -2585.2071    4.4055803    4.4055803    4.4055803   -2585.2071   -3277.4914    -55197.72     50719.59   -3490.7961   -8504.5007    50080.533    85.508514 
   92600    1572.5571   -104.45036    1.4228827   -103.02748    8543.5647    4.3950203    4.3950203    4.3950203    8543.5647    28129.018    -19002.75    16504.426    3151.5365    3992.1313   -50506.856    84.895105 
   92700    1767.5733   -104.62277    1.5993375   -103.02343    -3693.554    4.4025822    4.4025822    4.4025822    -3693.554    7209.0255   -21484.606    3194.9185    1221.2423   -333.86258    38966.531     85.33406 
   92800    1370.4003   -104.25808     1.239967   -103.01811   -11840.033    4.4098109    4.4098109    4.4098109   -11840.033    1152.0498   -34645.032   -2027.1177     2664.667    1273.1734   -17994.459    85.755091 
   92900    1430.8876   -104.30173    1.2946972   -103.00704    26878.582    4.3967193    4.3967193    4.3967193    26878.582   -15397.764     29318.13    66715.381   -2446.2018    7552.8491    8320.7835    84.993597 
   93000    1492.3534   -104.36672    1.3503127   -103.01641    14944.897    4.4022373    4.4022373    4.4022373    14944.897    33573.403    21466.802   -10205.513   -2742.7699   -6385.2312     21649.67    85.314009 
   93100    1485.8324   -104.35662    1.3444124    -103.0122   -9239.1327    4.4097193    4.4097193    4.4097193   -9239.1327   -14050.836   -5747.8807   -7918.6819   -3608.6159    9896.4015    -38470.22    85.749743 
   93200    1615.0678   -104.46481    1.4613473   -103.00346   -2016.4744    4.4021833    4.4021833    4.4021833   -2016.4744   -3264.2663    31448.029   -34233.186    3890.5888   -1902.8703    21879.804     85.31087 
   93300    1618.1873    -104.4714    1.4641699   -103.00723   -5744.8454    4.4069283    4.4069283    4.4069283   -5744.8454    16535.902   -27271.046   -6499.3921   -13778.714    67.465515   -30155.241    85.587029 
   93400    1329.2539   -104.21203    1.2027369   -103.00929   -11251.772    4.4136463    4.4136463    4.4136463   -11251.772   -28303.223    30047.881   -35499.974    1206.8553    7934.0391    1077.1787     85.97904 
   93500     1769.291   -104.60487    1.6008917   -103.00398   -13469.161    4.4051534    4.4051534    4.4051534   -13469.161    6298.6522   -14198.253   -32507.883   -9738.0909   -25970.203    15607.336    85.483662 
   93600    1564.7226   -104.41651    1.4157939   -103.00072    4424.5505    4.4008344    4.4008344    4.4008344    4424.5505    10248.124   -12632.437    15657.965   -3656.9143     13586.88   -14792.601    85.232473 
   93700    892.43355   -103.82899   0.80749263   -103.02149   -13285.429    4.3963675    4.3963675    4.3963675   -13285.429   -19696.887     6151.942   -26311.341     4153.417   -27108.914    30458.344    84.973201 
   93800    2002.9954   -104.82597    1.8123523   -103.01362      32805.5    4.3972423    4.3972423    4.3972423      32805.5    9635.8101    49362.529    39418.162   -6507.0064    1250.4559    2478.3882    85.023931 
   93900    981.19739   -103.92871   0.88780802    -103.0409    -17146.63    4.4025198    4.4025198    4.4025198    -17146.63   -37730.481    22431.518   -36140.926   -4588.6201    -9403.191    14020.201    85.330435 
   94000    1468.0228   -104.35904    1.3282979   -103.03074   -367.02783    4.4028672    4.4028672    4.4028672   -367.02783   -7944.4019    19480.786   -12637.467    5620.1937   -9567.0377    18869.088    85.350638 
   94100     2162.029   -104.96733    1.9562493   -103.01108   -18848.459    4.4060912    4.4060912    4.4060912   -18848.459   -24840.811    17343.013    -49047.58    17871.457   -4963.5984   -15642.376    85.538264 
   94200    828.03743   -103.77333   0.74922567   -103.02411   -10272.503    4.3937371    4.3937371    4.3937371   -10272.503   -34655.617    35740.939   -31902.831   -16422.491   -15823.582    26180.486     84.82077 
   94300    1848.9342   -104.69023    1.6729545   -103.01728    5594.9363    4.3919811    4.3919811    4.3919811    5594.9363    9270.9502   -12274.911     19788.77    25403.012    4481.9185   -23216.733    84.719108 
   94400    1463.8819   -104.34678    1.3245511   -103.02223   -10307.993    4.4072324    4.4072324    4.4072324   -10307.993   -20553.629    26358.931    -36729.28   -3551.0567   -16158.121    20697.468    85.604749 
   94500    1016.0439    -103.9423   0.91933787   -103.02296    3796.3325    4.3990618    4.3990618    4.3990618    3796.3325   -15280.335    24563.524    2105.8084    7324.0715    7264.4235   -1343.0074    85.129519 
   94600     1877.748   -104.71176    1.6990259   -103.01273    7932.9036    4.4030425    4.4030425    4.4030425    7932.9036    3030.0525    27864.728   -7096.0698    1953.1395    4099.5134   -9095.1034     85.36083 
   94700    1270.2156   -104.17137    1.1493178   -103.02206   -8565.4254     4.401076     4.401076     4.401076   -8565.4254    -34745.68    4832.0333    4217.3709    5334.6691   -11090.026    31103.445     85.24651 
   94800    1536.7618   -104.41095    1.3904944   -103.02045    1336.5467    4.4011274    4.4011274    4.4011274    1336.5467   -11719.514    25933.763   -10204.609   -3410.6314    17206.984   -30448.656    85.249494 
   94900    1777.4435    -104.6228    1.6082682   -103.01453   -10960.405    4.4063822    4.4063822    4.4063822   -10960.405   -1758.9828   -21049.111   -10073.122    7641.5877   -3096.4141     25282.12    85.555216 
   95000    1218.8581   -104.12243    1.1028484   -103.01958   -893.40093    4.3988499    4.3988499    4.3988499   -893.40093   -19018.696    32424.015   -16085.521    6993.4841    6705.6791   -17906.553    85.117221 
   95100    1562.3025   -104.42972    1.4136041   -103.01612   -1862.8134    4.3996267    4.3996267    4.3996267   -1862.8134    13636.589   -9488.9304   -9736.0984    5113.5069    15556.967    10202.497     85.16232 
   95200    1760.8879   -104.61207    1.5932884   -103.01878   -2655.3773     4.398585     4.398585     4.398585   -2655.3773    -8862.907   -36370.171    37266.946    13599.063   -21427.452    13650.968    85.101846 
   95300    1188.1799   -104.09943    1.0750901   -103.02434   -16071.928    4.4124674    4.4124674    4.4124674   -16071.928   -28531.986   -813.06965   -18870.728    -1993.479    24280.674   -3963.2528    85.910161 
   95400     1946.528    -104.7641    1.7612594   -103.00284    1471.6016    4.4100182    4.4100182    4.4100182    1471.6016    25621.761   -18690.457   -2516.4997   -373.23711   -12503.355    27197.546    85.767185 
   95500    853.02668   -103.79573   0.77183646   -103.02389    4097.0623    4.3950959    4.3950959    4.3950959    4097.0623   -7690.2194   -8052.7079    28034.114    6578.7463    23328.207   -21965.902    84.899486 
   95600    1859.9361   -104.71374    1.6829093   -103.03083    8622.1569    4.3901465    4.3901465    4.3901465    8622.1569    13982.698   -4727.8406    16611.613   -3124.7123     5580.806   -3770.1669    84.612989 
   95700     1622.067   -104.50333    1.4676803   -103.03565    6186.4668     4.409695     4.409695     4.409695    6186.4668    17009.021   -19054.322    20604.701    757.10779    15099.831   -13510.204    85.748325 
   95800    881.82396   -103.82991   0.79789285   -103.03202   -37451.951    4.4160612    4.4160612    4.4160612   -37451.951   -41363.556    -6548.716    -64443.58    1734.4438    8661.7137   -23063.511    86.120244 
   95900    2228.6098    -105.0146     2.016493   -102.99811     27961.35    4.3998734    4.3998734    4.3998734     27961.35    41155.426   -16156.905    58885.529   -2416.2711   -4510.6923    7437.9016    85.176645 
   96000    1172.7431   -104.09418    1.0611226   -103.03306   -24929.168    4.3993337    4.3993337    4.3993337   -24929.168   -40628.741    8036.7329   -42195.496   -750.89136    20543.164    -12237.79    85.145306 
   96100    1439.1156   -104.34517     1.302142   -103.04303   -7991.8991    4.4046258    4.4046258    4.4046258   -7991.8991   -10403.197   -44348.799    30776.299   -3810.4256   -17893.285    14021.756    85.452949 
   96200    1806.9307   -104.67046    1.6349488   -103.03551   -3161.7894      4.40867      4.40867      4.40867   -3161.7894    11250.214   -19448.838   -1286.7437    3979.5228    26021.402    5781.3742    85.688545 
   96300    979.86724   -103.92476   0.88660447   -103.03815   -20310.782    4.4136527    4.4136527    4.4136527   -20310.782    -44346.71    -7623.876   -8961.7589   -1970.4512    -3843.862   -13320.271    85.979411 
   96400    1708.5456   -104.56387     1.545928   -103.01794    2499.6667    4.4106137    4.4106137    4.4106137    2499.6667    17273.049   -27705.783    17931.734   -4848.4568   -8930.3183    27714.363    85.801933 
   96500    1704.1455   -104.56798    1.5419466   -103.02603     11691.65    4.4009326    4.4009326    4.4009326     11691.65    14461.563   -20369.641    40983.026    539.26082    27370.804   -21323.258    85.238179 
   96600    847.58079   -103.82491   0.76690892     -103.058    6314.7262    4.3913067    4.3913067    4.3913067    6314.7262    20599.553   -2172.2799    516.90576   -514.69685   -23881.985    20858.856     84.68009 
   96700    2156.9057   -105.00499    1.9516136   -103.05337    9814.2862     4.414617     4.414617     4.414617    9814.2862    15183.178    19041.889   -4782.2091   -6505.7243   -2559.5844    2093.4046    86.035776 
   96800    1068.8543   -104.00764   0.96712181   -103.04052   -20677.544    4.4283275    4.4283275    4.4283275   -20677.544    9913.4557   -60093.378   -11852.708    887.41703   -22779.577   -3963.6921    86.839876 
   96900    1155.6146   -104.06245    1.0456244   -103.01682    12948.735    4.4004549    4.4004549    4.4004549    12948.735    54448.272   -9978.2532   -5623.8152   -5768.5065   -7965.5677    11899.182    85.210421 
   97000    2232.4962   -105.02182    2.0200095   -103.00181    22813.553    4.3916156    4.3916156    4.3916156    22813.553    54312.644    49.376875    14078.637   -6900.0633    9175.0378    6622.1685    84.697962 
   97100     785.2883   -103.74569   0.71054536   -103.03515    7928.1123    4.4097524    4.4097524    4.4097524    7928.1123    20034.732    -763.8952    4513.4997   -1475.0322   -12446.353    19705.301    85.751674 
   97200    1792.9303   -104.62772     1.622281   -103.00544    1870.1093    4.4259013    4.4259013    4.4259013    1870.1093    35382.329    6091.7038   -35863.704    6857.3166    29767.256   -4073.0112    86.697223 
   97300    1694.8709   -104.52754    1.5335548   -102.99399    5219.5731    4.4163661    4.4163661    4.4163661    5219.5731    2748.1429   -12049.083     24959.66   -11862.892   -11198.125    32206.217    86.138081 
   97400    1251.2245   -104.12479    1.1321342   -102.99266   -17196.972    4.4036325    4.4036325    4.4036325   -17196.972   -33878.637    17223.161    -34935.44   -2204.0319    17413.996     -4352.16     85.39515 
   97500    1955.8553   -104.76533     1.769699   -102.99563    24999.527    4.4027456    4.4027456    4.4027456    24999.527    39493.068    4008.2776    31497.235    6295.4619   -2147.0939    15453.805    85.343563 
   97600    1250.0506   -104.15723    1.1310721   -103.02615   -28139.539    4.4160931    4.4160931    4.4160931   -28139.539   -34572.463   -988.18705   -48857.968   -4740.6674    20075.822   -4625.7845    86.122112 
   97700    1257.5723   -104.16373    1.1378778   -103.02586    4665.1917    4.4097682    4.4097682    4.4097682    4665.1917    55925.728   -6481.4784   -35448.675     12571.09    -1917.125   -11786.538    85.752597 
   97800    1602.4518   -104.46409     1.449932   -103.01415    29295.511    4.4064412    4.4064412    4.4064412    29295.511    94606.928    -8302.405    1582.0094   -4052.1386     26660.14    3566.0034    85.558654 
   97900    1101.1449   -104.02177   0.99633904   -103.02543   -21552.867    4.4118157    4.4118157    4.4118157   -21552.867    3824.2489     17965.08   -86447.929    10841.918   -2756.7892   -18746.459    85.872102 
   98000    2184.9883   -104.98057    1.9770233   -103.00355   -5523.6439    4.4208198    4.4208198    4.4208198   -5523.6439    24368.761   -27861.739   -13077.953     7402.301   -629.83771     10182.67    86.398945 
   98100    1081.4266   -103.99821    0.9784975   -103.01971   -13228.057    4.4109758    4.4109758    4.4109758   -13228.057    29704.561    -7892.747   -61495.985     -5229.97    21483.222   -13866.448    85.823064 
   98200    1482.2557   -104.35685    1.3411761   -103.01568    24129.109    4.3994526    4.3994526    4.3994526    24129.109    83843.961    11336.707    -22793.34    5956.9868   -4714.5185    3140.4777    85.152212 
   98300    1891.6346   -104.72997    1.7115907   -103.01838   -18412.794    4.4138725    4.4138725    4.4138725   -18412.794    31599.493   -56251.596    -30586.28   -5897.4184     12678.58     2010.247    85.992255 
   98400    1230.9327   -104.13531    1.1137737   -103.02153    14581.221    4.4066259    4.4066259    4.4066259    14581.221    59232.979     41658.13   -57147.446   -8386.7034   -1891.8997   -6548.0958    85.569414 
   98500     1521.399   -104.40772    1.3765938   -103.03113   -673.83451    4.4171389    4.4171389    4.4171389   -673.83451    63204.513   -28994.959   -36231.057   -7860.5228   -2697.9165    25587.951    86.183312 
   98600      1702.22    -104.5548    1.5402044    -103.0146    4959.2998    4.4187745    4.4187745    4.4187745    4959.2998    53766.778   -5096.5851   -33792.294   -21152.825   -8805.7069   -13304.242    86.279083 
   98700    954.06535   -103.87962   0.86325837   -103.01636   -26329.894    4.4109428    4.4109428    4.4109428   -26329.894   -24194.403    33197.266   -87992.544   -6713.6567    -21365.89    37270.136    85.821139 
   98800    2166.4292   -104.95697    1.9602307   -102.99674    18541.014    4.3931878    4.3931878    4.3931878    18541.014    60303.387    4294.4858     -8974.83   -9948.5581    9573.2272   -13128.552    84.788958 
   98900    1144.7943   -104.07289     1.035834   -103.03706   -5381.5905    4.4043913    4.4043913    4.4043913   -5381.5905   -6976.7409    34616.323   -43784.354    8215.4231   -9933.8391    32667.967    85.439301 
   99000    1486.5494   -104.36889    1.3450611   -103.02383   -25292.652    4.4215816    4.4215816    4.4215816   -25292.652    -10153.74   -13831.512   -51892.703   -4372.9895   -5907.6834   -6567.9432    86.443618 
   99100    1408.3931   -104.28417    1.2743437   -103.00983     35919.06    4.4051235    4.4051235    4.4051235     35919.06   -2861.0257    102878.41    7739.7961    764.69339    2013.9151   -3422.1438    85.481921 
   99200    1446.3672   -104.32398    1.3087034   -103.01527   -6331.6274    4.4037448    4.4037448    4.4037448   -6331.6274    29358.196    3450.1525   -51803.231    4075.6702    9182.0533    5024.3485    85.401684 
   99300    1563.0186   -104.43143    1.4142521   -103.01718    3866.1911    4.4122162    4.4122162    4.4122162    3866.1911    106.75608    43623.483   -32131.666   -4032.5601   -1.3320495   -43136.579    85.895491 
   99400    2140.3878   -104.93888    1.9366678   -103.00221   -600.30463    4.4169826    4.4169826    4.4169826   -600.30463    12767.551    27581.764    -42150.23    8052.3831    9107.5658    3582.8044    86.174162 
   99500    616.62713   -103.57802   0.55793719   -103.02008    7374.0767    4.4095234    4.4095234    4.4095234    7374.0767    52128.691    28876.196   -58882.657    4717.9369     -7608.68   -53261.587    85.738316 
   99600    2040.7332   -104.85529    1.8464983   -103.00879    2319.4622    4.4013439    4.4013439    4.4013439    2319.4622   -16533.147    16799.172    6692.3615   -13213.738    5816.9731    9361.3044    85.262079 
   99700    1421.1472    -104.3068    1.2858838   -103.02092    21435.597    4.3951293    4.3951293    4.3951293    21435.597    52673.903    38644.802   -27011.915    565.32026   -3350.6258   -51708.904    84.901421 
   99800    1478.1064   -104.36179    1.3374218   -103.02437    -24467.68    4.4185982    4.4185982    4.4185982    -24467.68   -21774.792   -32350.365   -19277.884   -16272.992   -67.788743    17049.457    86.268754 
   99900     1476.943   -104.34462     1.336369   -103.00825    -9405.056     4.417094     4.417094     4.417094    -9405.056   -34568.513    34625.357   -28272.012    7426.0508    747.21251   -24329.698     86.18068 
  100000    1597.8474   -104.44796    1.4457659   -103.00219    2338.0424    4.4017649    4.4017649    4.4017649    2338.0424    1802.2908   -3591.9373    8803.7738   -8618.9395   -4907.7806   -6610.7801    85.286545 
Loop time of 21.5056 on 1 procs for 100000 steps with 8 atoms

Pair  time (%) = 6.45699 (30.0247)
Kspce time (%) = 5.33209 (24.794)
Neigh time (%) = 0.156321 (0.726885)
Comm  time (%) = 0.877101 (4.07847)
Outpt time (%) = 0.025722 (0.119606)
Other time (%) = 8.65739 (40.2564)

Nlocal:    8 ave 8 max 8 min
Histogram: 1 0 0 0 0 0 0 0 0 0
Nghost:    1684 ave 1684 max 1684 min
Histogram: 1 0 0 0 0 0 0 0 0 0
Neighs:    2036 ave 2036 max 2036 min
Histogram: 1 0 0 0 0 0 0 0 0 0

Total # of neighbors = 2036
Ave neighs/atom = 254.5
Neighbor list builds = 2076
Dangerous builds = 0
unfix 20
unfix 21
print "seeds:5687519"
seeds:5687519
