# ['Ni']

20 atoms
1 atom types

    0.0000     3.3505 xlo xhi
    0.0000     3.3505 ylo yhi
    0.0000    33.5049 zlo zhi

    0.0000    -0.0000     0.0000 xy xz yz

Atoms

1 1     0.0000     0.0000     0.0000
2 1     1.6752     1.6752     0.0000
3 1     1.6752     0.0000     1.6752
4 1     0.0000     1.6752     1.6752
5 1     0.0000     0.0000     3.3505
6 1     1.6752     1.6752     3.3505
7 1     1.6752     0.0000     5.0257
8 1     0.0000     1.6752     5.0257
9 1     0.0000     0.0000     6.7010
10 1     1.6752     1.6752     6.7010
11 1     1.6752     0.0000     8.3762
12 1     0.0000     1.6752     8.3762
13 1     0.0000     0.0000    10.0515
14 1     1.6752     1.6752    10.0515
15 1     1.6752     0.0000    11.7267
16 1     0.0000     1.6752    11.7267
17 1     0.0000     0.0000    13.4020
18 1     1.6752     1.6752    13.4020
19 1     1.6752     0.0000    15.0772
20 1     0.0000     1.6752    15.0772
