# ['Ni']

18 atoms
1 atom types

    0.0000     2.4874 xlo xhi
    0.0000     4.3083 ylo yhi
    0.0000    36.5507 zlo zhi

    0.0000     0.0000    -0.0004 xy xz yz

Atoms

1 1     0.0000     0.0000     0.0000
2 1     1.2437     0.7180     2.0306
3 1     0.0000     1.4361     4.0612
4 1     1.2437     2.1541     0.0000
5 1     0.0000     2.8722     2.0306
6 1     1.2437     3.5902     4.0612
7 1     0.0000     0.0000     6.0918
8 1     1.2437     0.7180     8.1224
9 1     0.0000     1.4361    10.1530
10 1     1.2437     2.1541     6.0918
11 1     0.0000     2.8722     8.1224
12 1     1.2437     3.5902    10.1530
13 1     0.0000     0.0000    12.1836
14 1     1.2437     0.7180    14.2142
15 1     0.0000     1.4361    16.2447
16 1     1.2437     2.1541    12.1836
17 1     0.0000     2.8722    14.2142
18 1     1.2437     3.5902    16.2447
