# ['Ni']

18 atoms
1 atom types

    0.0000     2.3972 xlo xhi
    0.0000     4.1520 ylo yhi
    0.0000    35.2252 zlo zhi

    0.0000     0.0000    -0.0004 xy xz yz

Atoms

1 1     0.0000     0.0000     0.0000
2 1     1.1986     0.6920     1.9570
3 1     0.0000     1.3840     3.9139
4 1     1.1986     2.0760     0.0000
5 1     0.0000     2.7680     1.9570
6 1     1.1986     3.4600     3.9139
7 1     0.0000     0.0000     5.8709
8 1     1.1986     0.6920     7.8278
9 1     0.0000     1.3840     9.7848
10 1     1.1986     2.0760     5.8709
11 1     0.0000     2.7680     7.8278
12 1     1.1986     3.4600     9.7848
13 1     0.0000     0.0000    11.7417
14 1     1.1986     0.6920    13.6987
15 1     0.0000     1.3840    15.6556
16 1     1.1986     2.0760    11.7417
17 1     0.0000     2.7680    13.6987
18 1     1.1986     3.4600    15.6556
