LAMMPS (11 Aug 2017)
Reading data file ...
  triclinic box = (0 0 0) to (5.43 5.43 5.43) with tilt (0 0 0)
  1 by 1 by 1 MPI processor grid
  reading atoms ...
  8 atoms
8 atoms in group Si
Neighbor list info ...
  update every 1 steps, delay 0 steps, check yes
  max neighbors/atom: 2000, page size: 100000
  master list distance cutoff = 3.67775
  ghost atom cutoff = 3.67775
  binsize = 1.83887, bins = 3 3 3
  1 neighbor lists, perpetual/occasional/extra = 1 0 0
  (1) pair sw, perpetual
      attributes: full, newton on
      pair build: full/bin/atomonly
      stencil: full/bin/3d
      bin: standard
Setting up cg style minimization ...
  Unit style    : metal
  Current step  : 0
WARNING: Energy due to 3 extra global DOFs will be included in minimizer energies
Per MPI rank memory allocation (min/avg/max) = 3.812 | 3.812 | 3.812 Mbytes
Step Temp PotEng Press Pxx Pyy Pzz Pxy Pxz Pyz Lx Ly Lz Volume 
       0            0  -0.28141874    1447.7166    1447.7166    1447.7166    1447.7166            0            0 1.7359656e-14         5.43         5.43         5.43    160.10301 
       1            0  -0.28145839    1197.2225    1197.2225    1197.2225    1197.2225 -2.8426588e-11 -2.8461297e-11 -2.8469974e-11     5.430543     5.430543     5.430543    160.15104 
       2            0  -0.28149055    948.36873    948.36873    948.36873    948.36873 7.7620521e-11 7.7620521e-11 7.7620521e-11     5.431086     5.431086     5.431086    160.19909 
       3            0  -0.28151529    701.15079    701.15079    701.15079    701.15079 -2.6154815e-11 -2.6154815e-11 -2.6189504e-11     5.431629     5.431629     5.431629    160.24714 
       4            0  -0.28153263    455.56415    455.56415    455.56415    455.56415 1.7338841e-14 -1.034726e-32 1.3004131e-14     5.432172     5.432172     5.432172    160.29521 
       5            0  -0.28154264    211.60423    211.60423    211.60423    211.60423 -6.3952476e-11 -6.3961142e-11 -6.3965476e-11     5.432715     5.432715     5.432715    160.34328 
       6            0  -0.28154541 -0.084309455 -0.084309455 -0.084309455 -0.084309455 -9.4706436e-11 -9.4706443e-11 -9.4706437e-11    5.4331891    5.4331891    5.4331891    160.38527 
       7            0  -0.28154541 -2.2283785e-05 -2.2283785e-05 -2.2283785e-05 -2.2283785e-05 2.8125891e-10 2.2060083e-10 2.2060083e-10    5.4331889    5.4331889    5.4331889    160.38525 
       8            0  -0.28154541 5.6652354e-10 5.6652354e-10 5.6652354e-10 5.6652354e-10 -8.8125884e-11 -8.8125884e-11 -8.8125884e-11    5.4331889    5.4331889    5.4331889    160.38525 
Loop time of 0.000203133 on 1 procs for 8 steps with 8 atoms

100.4% CPU use with 1 MPI tasks x no OpenMP threads

Minimization stats:
  Stopping criterion = force tolerance
  Energy initial, next-to-last, final = 
       -0.281418742436    -0.281545407424    -0.281545407424
  Force two-norm initial, final = 0.250572 9.95275e-14
  Force max component initial, final = 0.144668 5.66783e-14
  Final line search alpha, max atom move = 1 5.66783e-14
  Iterations, force evaluations = 8 11

MPI task timing breakdown:
Section |  min time  |  avg time  |  max time  |%varavg| %total
---------------------------------------------------------------
Pair    | 0.00010753 | 0.00010753 | 0.00010753 |   0.0 | 52.93
Neigh   | 0          | 0          | 0          |   0.0 |  0.00
Comm    | 7.391e-06  | 7.391e-06  | 7.391e-06  |   0.0 |  3.64
Output  | 5.1022e-05 | 5.1022e-05 | 5.1022e-05 |   0.0 | 25.12
Modify  | 0          | 0          | 0          |   0.0 |  0.00
Other   |            | 3.719e-05  |            |       | 18.31

Nlocal:    8 ave 8 max 8 min
Histogram: 1 0 0 0 0 0 0 0 0 0
Nghost:    86 ave 86 max 86 min
Histogram: 1 0 0 0 0 0 0 0 0 0
Neighs:    0 ave 0 max 0 min
Histogram: 1 0 0 0 0 0 0 0 0 0
FullNghs:  32 ave 32 max 32 min
Histogram: 1 0 0 0 0 0 0 0 0 0

Total # of neighbors = 32
Ave neighs/atom = 4
Neighbor list builds = 0
Dangerous builds = 0
System init for write_restart ...
Reading restart file ...
  restart file = 11 Aug 2017, LAMMPS = 11 Aug 2017
  triclinic box = (-0.00159447 -0.00159447 -0.00159447) to (5.43159 5.43159 5.43159) with tilt (0 0 0)
  1 by 1 by 1 MPI processor grid
  8 atoms
8 atoms in group Si
Changing box ...
  triclinic box = (-0.00159447 -0.00159447 -0.00159447) to (5.43159 5.43159 5.43159) with tilt (0 0 0)
Neighbor list info ...
  update every 1 steps, delay 0 steps, check yes
  max neighbors/atom: 2000, page size: 100000
  master list distance cutoff = 3.67775
  ghost atom cutoff = 3.67775
  binsize = 1.83887, bins = 3 3 3
  1 neighbor lists, perpetual/occasional/extra = 1 0 0
  (1) pair sw, perpetual
      attributes: full, newton on
      pair build: full/bin/atomonly
      stencil: full/bin/3d
      bin: standard
Setting up cg style minimization ...
  Unit style    : metal
  Current step  : 8
Per MPI rank memory allocation (min/avg/max) = 3.812 | 3.812 | 3.812 Mbytes
Step Temp PotEng Press Pxx Pyy Pzz Pxy Pxz Pyz Lx Ly Lz Volume 
       8            0  -0.28154541   0.80626177    0.8062607   0.80626231   0.80626231 4.8754457e-20 3.3845889e-17 6.2376607e-11    5.4331835    5.4331889    5.4331889    160.38509 
       9            0  -0.28154541   0.80626177    0.8062607   0.80626231   0.80626231 -3.1474463e-11 -8.1261393e-11 -1.310485e-10    5.4331835    5.4331889    5.4331889    160.38509 
Loop time of 3.79086e-05 on 1 procs for 1 steps with 8 atoms

63.3% CPU use with 1 MPI tasks x no OpenMP threads

Minimization stats:
  Stopping criterion = force tolerance
  Energy initial, next-to-last, final = 
       -0.281545407384    -0.281545407384    -0.281545407384
  Force two-norm initial, final = 1.48265e-14 1.31393e-14
  Force max component initial, final = 6.43167e-15 5.98885e-15
  Final line search alpha, max atom move = 1 5.98885e-15
  Iterations, force evaluations = 1 2

MPI task timing breakdown:
Section |  min time  |  avg time  |  max time  |%varavg| %total
---------------------------------------------------------------
Pair    | 2.5272e-05 | 2.5272e-05 | 2.5272e-05 |   0.0 | 66.67
Neigh   | 0          | 0          | 0          |   0.0 |  0.00
Comm    | 3.8147e-06 | 3.8147e-06 | 3.8147e-06 |   0.0 | 10.06
Output  | 0          | 0          | 0          |   0.0 |  0.00
Modify  | 0          | 0          | 0          |   0.0 |  0.00
Other   |            | 8.821e-06  |            |       | 23.27

Nlocal:    8 ave 8 max 8 min
Histogram: 1 0 0 0 0 0 0 0 0 0
Nghost:    86 ave 86 max 86 min
Histogram: 1 0 0 0 0 0 0 0 0 0
Neighs:    0 ave 0 max 0 min
Histogram: 1 0 0 0 0 0 0 0 0 0
FullNghs:  32 ave 32 max 32 min
Histogram: 1 0 0 0 0 0 0 0 0 0

Total # of neighbors = 32
Ave neighs/atom = 4
Neighbor list builds = 0
Dangerous builds = 0
Reading restart file ...
  restart file = 11 Aug 2017, LAMMPS = 11 Aug 2017
  triclinic box = (-0.00159447 -0.00159447 -0.00159447) to (5.43159 5.43159 5.43159) with tilt (0 0 0)
  1 by 1 by 1 MPI processor grid
  8 atoms
8 atoms in group Si
Changing box ...
  triclinic box = (-0.00159447 -0.00159447 -0.00159447) to (5.4316 5.43159 5.43159) with tilt (0 0 0)
Neighbor list info ...
  update every 1 steps, delay 0 steps, check yes
  max neighbors/atom: 2000, page size: 100000
  master list distance cutoff = 3.67775
  ghost atom cutoff = 3.67775
  binsize = 1.83887, bins = 3 3 3
  1 neighbor lists, perpetual/occasional/extra = 1 0 0
  (1) pair sw, perpetual
      attributes: full, newton on
      pair build: full/bin/atomonly
      stencil: full/bin/3d
      bin: standard
Setting up cg style minimization ...
  Unit style    : metal
  Current step  : 8
Per MPI rank memory allocation (min/avg/max) = 3.812 | 3.812 | 3.812 Mbytes
Step Temp PotEng Press Pxx Pyy Pzz Pxy Pxz Pyz Lx Ly Lz Volume 
       8            0  -0.28154541  -0.80624431  -0.80624538  -0.80624377  -0.80624377 -2.4605869e-11 2.4605886e-11 -3.2788695e-10    5.4331944    5.4331889    5.4331889    160.38541 
       9            0  -0.28154541  -0.80624431  -0.80624538  -0.80624377  -0.80624377 -2.4033637e-11 -2.4033637e-11 2.6379731e-10    5.4331944    5.4331889    5.4331889    160.38541 
Loop time of 3.8147e-05 on 1 procs for 1 steps with 8 atoms

60.3% CPU use with 1 MPI tasks x no OpenMP threads

Minimization stats:
  Stopping criterion = force tolerance
  Energy initial, next-to-last, final = 
       -0.281545407384    -0.281545407384    -0.281545407384
  Force two-norm initial, final = 2.8042e-14 1.69274e-14
  Force max component initial, final = 1.29891e-14 6.49457e-15
  Final line search alpha, max atom move = 1 6.49457e-15
  Iterations, force evaluations = 1 2

MPI task timing breakdown:
Section |  min time  |  avg time  |  max time  |%varavg| %total
---------------------------------------------------------------
Pair    | 2.6464e-05 | 2.6464e-05 | 2.6464e-05 |   0.0 | 69.38
Neigh   | 0          | 0          | 0          |   0.0 |  0.00
Comm    | 1.1921e-06 | 1.1921e-06 | 1.1921e-06 |   0.0 |  3.12
Output  | 0          | 0          | 0          |   0.0 |  0.00
Modify  | 0          | 0          | 0          |   0.0 |  0.00
Other   |            | 1.049e-05  |            |       | 27.50

Nlocal:    8 ave 8 max 8 min
Histogram: 1 0 0 0 0 0 0 0 0 0
Nghost:    86 ave 86 max 86 min
Histogram: 1 0 0 0 0 0 0 0 0 0
Neighs:    0 ave 0 max 0 min
Histogram: 1 0 0 0 0 0 0 0 0 0
FullNghs:  32 ave 32 max 32 min
Histogram: 1 0 0 0 0 0 0 0 0 0

Total # of neighbors = 32
Ave neighs/atom = 4
Neighbor list builds = 0
Dangerous builds = 0
Reading restart file ...
  restart file = 11 Aug 2017, LAMMPS = 11 Aug 2017
  triclinic box = (-0.00159447 -0.00159447 -0.00159447) to (5.43159 5.43159 5.43159) with tilt (0 0 0)
  1 by 1 by 1 MPI processor grid
  8 atoms
8 atoms in group Si
Changing box ...
  triclinic box = (-0.00159447 -0.00159447 -0.00159447) to (5.43159 5.43159 5.43159) with tilt (0 0 0)
Neighbor list info ...
  update every 1 steps, delay 0 steps, check yes
  max neighbors/atom: 2000, page size: 100000
  master list distance cutoff = 3.67775
  ghost atom cutoff = 3.67775
  binsize = 1.83887, bins = 3 3 3
  1 neighbor lists, perpetual/occasional/extra = 1 0 0
  (1) pair sw, perpetual
      attributes: full, newton on
      pair build: full/bin/atomonly
      stencil: full/bin/3d
      bin: standard
Setting up cg style minimization ...
  Unit style    : metal
  Current step  : 8
Per MPI rank memory allocation (min/avg/max) = 3.812 | 3.812 | 3.812 Mbytes
Step Temp PotEng Press Pxx Pyy Pzz Pxy Pxz Pyz Lx Ly Lz Volume 
       8            0  -0.28154541   0.80626177   0.80626231    0.8062607   0.80626231 3.1188346e-11 3.1188312e-11 -3.1188295e-11    5.4331889    5.4331835    5.4331889    160.38509 
       9            0  -0.28154541   0.80626177   0.80626231    0.8062607   0.80626231 -8.1261393e-11 -8.1261495e-11 -8.1261385e-11    5.4331889    5.4331835    5.4331889    160.38509 
Loop time of 3.69549e-05 on 1 procs for 1 steps with 8 atoms

0.0% CPU use with 1 MPI tasks x no OpenMP threads

Minimization stats:
  Stopping criterion = force tolerance
  Energy initial, next-to-last, final = 
       -0.281545407384    -0.281545407384    -0.281545407384
  Force two-norm initial, final = 1.45393e-14 1.22746e-14
  Force max component initial, final = 6.43167e-15 4.15423e-15
  Final line search alpha, max atom move = 1 4.15423e-15
  Iterations, force evaluations = 1 2

MPI task timing breakdown:
Section |  min time  |  avg time  |  max time  |%varavg| %total
---------------------------------------------------------------
Pair    | 2.5272e-05 | 2.5272e-05 | 2.5272e-05 |   0.0 | 68.39
Neigh   | 0          | 0          | 0          |   0.0 |  0.00
Comm    | 2.861e-06  | 2.861e-06  | 2.861e-06  |   0.0 |  7.74
Output  | 0          | 0          | 0          |   0.0 |  0.00
Modify  | 0          | 0          | 0          |   0.0 |  0.00
Other   |            | 8.821e-06  |            |       | 23.87

Nlocal:    8 ave 8 max 8 min
Histogram: 1 0 0 0 0 0 0 0 0 0
Nghost:    86 ave 86 max 86 min
Histogram: 1 0 0 0 0 0 0 0 0 0
Neighs:    0 ave 0 max 0 min
Histogram: 1 0 0 0 0 0 0 0 0 0
FullNghs:  32 ave 32 max 32 min
Histogram: 1 0 0 0 0 0 0 0 0 0

Total # of neighbors = 32
Ave neighs/atom = 4
Neighbor list builds = 0
Dangerous builds = 0
Reading restart file ...
  restart file = 11 Aug 2017, LAMMPS = 11 Aug 2017
  triclinic box = (-0.00159447 -0.00159447 -0.00159447) to (5.43159 5.43159 5.43159) with tilt (0 0 0)
  1 by 1 by 1 MPI processor grid
  8 atoms
8 atoms in group Si
Changing box ...
  triclinic box = (-0.00159447 -0.00159447 -0.00159447) to (5.43159 5.4316 5.43159) with tilt (0 0 0)
Neighbor list info ...
  update every 1 steps, delay 0 steps, check yes
  max neighbors/atom: 2000, page size: 100000
  master list distance cutoff = 3.67775
  ghost atom cutoff = 3.67775
  binsize = 1.83887, bins = 3 3 3
  1 neighbor lists, perpetual/occasional/extra = 1 0 0
  (1) pair sw, perpetual
      attributes: full, newton on
      pair build: full/bin/atomonly
      stencil: full/bin/3d
      bin: standard
Setting up cg style minimization ...
  Unit style    : metal
  Current step  : 8
Per MPI rank memory allocation (min/avg/max) = 3.812 | 3.812 | 3.812 Mbytes
Step Temp PotEng Press Pxx Pyy Pzz Pxy Pxz Pyz Lx Ly Lz Volume 
       8            0  -0.28154541  -0.80624431  -0.80624377  -0.80624538  -0.80624377 1.7020433e-17 -3.5249276e-10 -8.4614125e-18    5.4331889    5.4331944    5.4331889    160.38541 
       9            0  -0.28154541  -0.80624431  -0.80624377  -0.80624538  -0.80624377 7.7251189e-12 2.9555601e-10 7.7250934e-12    5.4331889    5.4331944    5.4331889    160.38541 
Loop time of 3.69549e-05 on 1 procs for 1 steps with 8 atoms

51.4% CPU use with 1 MPI tasks x no OpenMP threads

Minimization stats:
  Stopping criterion = force tolerance
  Energy initial, next-to-last, final = 
       -0.281545407384    -0.281545407384    -0.281545407384
  Force two-norm initial, final = 2.79615e-14 1.7325e-14
  Force max component initial, final = 1.29891e-14 6.49457e-15
  Final line search alpha, max atom move = 1 6.49457e-15
  Iterations, force evaluations = 1 2

MPI task timing breakdown:
Section |  min time  |  avg time  |  max time  |%varavg| %total
---------------------------------------------------------------
Pair    | 2.6226e-05 | 2.6226e-05 | 2.6226e-05 |   0.0 | 70.97
Neigh   | 0          | 0          | 0          |   0.0 |  0.00
Comm    | 2.861e-06  | 2.861e-06  | 2.861e-06  |   0.0 |  7.74
Output  | 0          | 0          | 0          |   0.0 |  0.00
Modify  | 0          | 0          | 0          |   0.0 |  0.00
Other   |            | 7.868e-06  |            |       | 21.29

Nlocal:    8 ave 8 max 8 min
Histogram: 1 0 0 0 0 0 0 0 0 0
Nghost:    86 ave 86 max 86 min
Histogram: 1 0 0 0 0 0 0 0 0 0
Neighs:    0 ave 0 max 0 min
Histogram: 1 0 0 0 0 0 0 0 0 0
FullNghs:  32 ave 32 max 32 min
Histogram: 1 0 0 0 0 0 0 0 0 0

Total # of neighbors = 32
Ave neighs/atom = 4
Neighbor list builds = 0
Dangerous builds = 0
Reading restart file ...
  restart file = 11 Aug 2017, LAMMPS = 11 Aug 2017
  triclinic box = (-0.00159447 -0.00159447 -0.00159447) to (5.43159 5.43159 5.43159) with tilt (0 0 0)
  1 by 1 by 1 MPI processor grid
  8 atoms
8 atoms in group Si
Changing box ...
  triclinic box = (-0.00159447 -0.00159447 -0.00159447) to (5.43159 5.43159 5.43159) with tilt (0 0 0)
Neighbor list info ...
  update every 1 steps, delay 0 steps, check yes
  max neighbors/atom: 2000, page size: 100000
  master list distance cutoff = 3.67775
  ghost atom cutoff = 3.67775
  binsize = 1.83887, bins = 3 3 3
  1 neighbor lists, perpetual/occasional/extra = 1 0 0
  (1) pair sw, perpetual
      attributes: full, newton on
      pair build: full/bin/atomonly
      stencil: full/bin/3d
      bin: standard
Setting up cg style minimization ...
  Unit style    : metal
  Current step  : 8
Per MPI rank memory allocation (min/avg/max) = 3.812 | 3.812 | 3.812 Mbytes
Step Temp PotEng Press Pxx Pyy Pzz Pxy Pxz Pyz Lx Ly Lz Volume 
       8            0  -0.28154541   0.80626177   0.80626231   0.80626231    0.8062607 -1.6874219e-17 1.1448161e-22 8.4616011e-18    5.4331889    5.4331889    5.4331835    160.38509 
       9            0  -0.28154541   0.80626177   0.80626231   0.80626231    0.8062607 -2.4893558e-11 -2.4893558e-11 -2.4893558e-11    5.4331889    5.4331889    5.4331835    160.38509 
Loop time of 3.69549e-05 on 1 procs for 1 steps with 8 atoms

48.7% CPU use with 1 MPI tasks x no OpenMP threads

Minimization stats:
  Stopping criterion = force tolerance
  Energy initial, next-to-last, final = 
       -0.281545407384    -0.281545407384    -0.281545407384
  Force two-norm initial, final = 1.43176e-14 1.13618e-14
  Force max component initial, final = 4.13315e-15 4.13314e-15
  Final line search alpha, max atom move = 1 4.13314e-15
  Iterations, force evaluations = 1 2

MPI task timing breakdown:
Section |  min time  |  avg time  |  max time  |%varavg| %total
---------------------------------------------------------------
Pair    | 2.5272e-05 | 2.5272e-05 | 2.5272e-05 |   0.0 | 68.39
Neigh   | 0          | 0          | 0          |   0.0 |  0.00
Comm    | 1.9073e-06 | 1.9073e-06 | 1.9073e-06 |   0.0 |  5.16
Output  | 0          | 0          | 0          |   0.0 |  0.00
Modify  | 0          | 0          | 0          |   0.0 |  0.00
Other   |            | 9.775e-06  |            |       | 26.45

Nlocal:    8 ave 8 max 8 min
Histogram: 1 0 0 0 0 0 0 0 0 0
Nghost:    86 ave 86 max 86 min
Histogram: 1 0 0 0 0 0 0 0 0 0
Neighs:    0 ave 0 max 0 min
Histogram: 1 0 0 0 0 0 0 0 0 0
FullNghs:  32 ave 32 max 32 min
Histogram: 1 0 0 0 0 0 0 0 0 0

Total # of neighbors = 32
Ave neighs/atom = 4
Neighbor list builds = 0
Dangerous builds = 0
Reading restart file ...
  restart file = 11 Aug 2017, LAMMPS = 11 Aug 2017
  triclinic box = (-0.00159447 -0.00159447 -0.00159447) to (5.43159 5.43159 5.43159) with tilt (0 0 0)
  1 by 1 by 1 MPI processor grid
  8 atoms
8 atoms in group Si
Changing box ...
  triclinic box = (-0.00159447 -0.00159447 -0.00159447) to (5.43159 5.43159 5.4316) with tilt (0 0 0)
Neighbor list info ...
  update every 1 steps, delay 0 steps, check yes
  max neighbors/atom: 2000, page size: 100000
  master list distance cutoff = 3.67775
  ghost atom cutoff = 3.67775
  binsize = 1.83887, bins = 3 3 3
  1 neighbor lists, perpetual/occasional/extra = 1 0 0
  (1) pair sw, perpetual
      attributes: full, newton on
      pair build: full/bin/atomonly
      stencil: full/bin/3d
      bin: standard
Setting up cg style minimization ...
  Unit style    : metal
  Current step  : 8
Per MPI rank memory allocation (min/avg/max) = 3.812 | 3.812 | 3.812 Mbytes
Step Temp PotEng Press Pxx Pyy Pzz Pxy Pxz Pyz Lx Ly Lz Volume 
       8            0  -0.28154541  -0.80624431  -0.80624377  -0.80624377  -0.80624538 -3.5249276e-10 -1.1444452e-22 -8.4615842e-18    5.4331889    5.4331889    5.4331944    160.38541 
       9            0  -0.28154541  -0.80624431  -0.80624377  -0.80624377  -0.80624538 1.0385938e-10 -1.1930974e-10 -1.1930974e-10    5.4331889    5.4331889    5.4331944    160.38541 
Loop time of 3.8147e-05 on 1 procs for 1 steps with 8 atoms

49.8% CPU use with 1 MPI tasks x no OpenMP threads

Minimization stats:
  Stopping criterion = force tolerance
  Energy initial, next-to-last, final = 
       -0.281545407384    -0.281545407384    -0.281545407384
  Force two-norm initial, final = 2.48798e-14 1.46354e-14
  Force max component initial, final = 1.29891e-14 4.68115e-15
  Final line search alpha, max atom move = 1 4.68115e-15
  Iterations, force evaluations = 1 2

MPI task timing breakdown:
Section |  min time  |  avg time  |  max time  |%varavg| %total
---------------------------------------------------------------
Pair    | 2.6941e-05 | 2.6941e-05 | 2.6941e-05 |   0.0 | 70.62
Neigh   | 0          | 0          | 0          |   0.0 |  0.00
Comm    | 1.9073e-06 | 1.9073e-06 | 1.9073e-06 |   0.0 |  5.00
Output  | 0          | 0          | 0          |   0.0 |  0.00
Modify  | 0          | 0          | 0          |   0.0 |  0.00
Other   |            | 9.298e-06  |            |       | 24.38

Nlocal:    8 ave 8 max 8 min
Histogram: 1 0 0 0 0 0 0 0 0 0
Nghost:    86 ave 86 max 86 min
Histogram: 1 0 0 0 0 0 0 0 0 0
Neighs:    0 ave 0 max 0 min
Histogram: 1 0 0 0 0 0 0 0 0 0
FullNghs:  32 ave 32 max 32 min
Histogram: 1 0 0 0 0 0 0 0 0 0

Total # of neighbors = 32
Ave neighs/atom = 4
Neighbor list builds = 0
Dangerous builds = 0
Reading restart file ...
  restart file = 11 Aug 2017, LAMMPS = 11 Aug 2017
  triclinic box = (-0.00159447 -0.00159447 -0.00159447) to (5.43159 5.43159 5.43159) with tilt (0 0 0)
  1 by 1 by 1 MPI processor grid
  8 atoms
8 atoms in group Si
Changing box ...
  triclinic box = (-0.00159447 -0.00159447 -0.00159447) to (5.43159 5.43159 5.43159) with tilt (0 0 -5.43319e-06)
Neighbor list info ...
  update every 1 steps, delay 0 steps, check yes
  max neighbors/atom: 2000, page size: 100000
  master list distance cutoff = 3.67775
  ghost atom cutoff = 3.67775
  binsize = 1.83887, bins = 3 3 3
  1 neighbor lists, perpetual/occasional/extra = 1 0 0
  (1) pair sw, perpetual
      attributes: full, newton on
      pair build: full/bin/atomonly
      stencil: full/bin/3d
      bin: standard
Setting up cg style minimization ...
  Unit style    : metal
  Current step  : 8
Per MPI rank memory allocation (min/avg/max) = 3.812 | 3.812 | 3.812 Mbytes
Step Temp PotEng Press Pxx Pyy Pzz Pxy Pxz Pyz Lx Ly Lz Volume 
       8            0  -0.28154541 7.9257277e-06 8.4632297e-06 6.8507237e-06 8.4632297e-06 3.0033171e-13 5.1473526e-10   0.80625304    5.4331889    5.4331889    5.4331889    160.38525 
       9            0  -0.28154541 -8.0593839e-07 -8.0593838e-07 -8.059384e-07 -8.0593839e-07 -6.580829e-12 -5.5793991e-11 3.8923649e-09    5.4331889    5.4331889    5.4331889    160.38525 
Loop time of 3.8147e-05 on 1 procs for 1 steps with 8 atoms

52.4% CPU use with 1 MPI tasks x no OpenMP threads

Minimization stats:
  Stopping criterion = force tolerance
  Energy initial, next-to-last, final = 
       -0.281545407384    -0.281545407384    -0.281545407424
  Force two-norm initial, final = 4.20161e-05 2.03086e-13
  Force max component initial, final = 1.48549e-05 7.60244e-14
  Final line search alpha, max atom move = 1 7.60244e-14
  Iterations, force evaluations = 1 2

MPI task timing breakdown:
Section |  min time  |  avg time  |  max time  |%varavg| %total
---------------------------------------------------------------
Pair    | 2.5749e-05 | 2.5749e-05 | 2.5749e-05 |   0.0 | 67.50
Neigh   | 0          | 0          | 0          |   0.0 |  0.00
Comm    | 2.1458e-06 | 2.1458e-06 | 2.1458e-06 |   0.0 |  5.62
Output  | 0          | 0          | 0          |   0.0 |  0.00
Modify  | 0          | 0          | 0          |   0.0 |  0.00
Other   |            | 1.025e-05  |            |       | 26.88

Nlocal:    8 ave 8 max 8 min
Histogram: 1 0 0 0 0 0 0 0 0 0
Nghost:    86 ave 86 max 86 min
Histogram: 1 0 0 0 0 0 0 0 0 0
Neighs:    0 ave 0 max 0 min
Histogram: 1 0 0 0 0 0 0 0 0 0
FullNghs:  32 ave 32 max 32 min
Histogram: 1 0 0 0 0 0 0 0 0 0

Total # of neighbors = 32
Ave neighs/atom = 4
Neighbor list builds = 0
Dangerous builds = 0
Reading restart file ...
  restart file = 11 Aug 2017, LAMMPS = 11 Aug 2017
  triclinic box = (-0.00159447 -0.00159447 -0.00159447) to (5.43159 5.43159 5.43159) with tilt (0 0 0)
  1 by 1 by 1 MPI processor grid
  8 atoms
8 atoms in group Si
Changing box ...
  triclinic box = (-0.00159447 -0.00159447 -0.00159447) to (5.43159 5.43159 5.43159) with tilt (0 0 5.43319e-06)
Neighbor list info ...
  update every 1 steps, delay 0 steps, check yes
  max neighbors/atom: 2000, page size: 100000
  master list distance cutoff = 3.67775
  ghost atom cutoff = 3.67775
  binsize = 1.83887, bins = 3 3 3
  1 neighbor lists, perpetual/occasional/extra = 1 0 0
  (1) pair sw, perpetual
      attributes: full, newton on
      pair build: full/bin/atomonly
      stencil: full/bin/3d
      bin: standard
Setting up cg style minimization ...
  Unit style    : metal
  Current step  : 8
Per MPI rank memory allocation (min/avg/max) = 3.812 | 3.812 | 3.812 Mbytes
Step Temp PotEng Press Pxx Pyy Pzz Pxy Pxz Pyz Lx Ly Lz Volume 
       8            0  -0.28154541 7.9256762e-06 8.4631782e-06 6.8506722e-06 8.4631782e-06 2.4893483e-11 -2.4893415e-11  -0.80625304    5.4331889    5.4331889    5.4331889    160.38525 
       9            0  -0.28154541 -8.0597702e-07 -8.0597701e-07 -8.0597702e-07 -8.0597702e-07 -2.4606578e-11 -1.4935618e-10 -3.9784879e-09    5.4331889    5.4331889    5.4331889    160.38525 
Loop time of 3.79086e-05 on 1 procs for 1 steps with 8 atoms

50.1% CPU use with 1 MPI tasks x no OpenMP threads

Minimization stats:
  Stopping criterion = force tolerance
  Energy initial, next-to-last, final = 
       -0.281545407384    -0.281545407384    -0.281545407424
  Force two-norm initial, final = 4.20161e-05 2.07585e-13
  Force max component initial, final = 1.48549e-05 7.60244e-14
  Final line search alpha, max atom move = 1 7.60244e-14
  Iterations, force evaluations = 1 2

MPI task timing breakdown:
Section |  min time  |  avg time  |  max time  |%varavg| %total
---------------------------------------------------------------
Pair    | 2.5272e-05 | 2.5272e-05 | 2.5272e-05 |   0.0 | 66.67
Neigh   | 0          | 0          | 0          |   0.0 |  0.00
Comm    | 9.5367e-07 | 9.5367e-07 | 9.5367e-07 |   0.0 |  2.52
Output  | 0          | 0          | 0          |   0.0 |  0.00
Modify  | 0          | 0          | 0          |   0.0 |  0.00
Other   |            | 1.168e-05  |            |       | 30.82

Nlocal:    8 ave 8 max 8 min
Histogram: 1 0 0 0 0 0 0 0 0 0
Nghost:    86 ave 86 max 86 min
Histogram: 1 0 0 0 0 0 0 0 0 0
Neighs:    0 ave 0 max 0 min
Histogram: 1 0 0 0 0 0 0 0 0 0
FullNghs:  32 ave 32 max 32 min
Histogram: 1 0 0 0 0 0 0 0 0 0

Total # of neighbors = 32
Ave neighs/atom = 4
Neighbor list builds = 0
Dangerous builds = 0
Reading restart file ...
  restart file = 11 Aug 2017, LAMMPS = 11 Aug 2017
  triclinic box = (-0.00159447 -0.00159447 -0.00159447) to (5.43159 5.43159 5.43159) with tilt (0 0 0)
  1 by 1 by 1 MPI processor grid
  8 atoms
8 atoms in group Si
Changing box ...
  triclinic box = (-0.00159447 -0.00159447 -0.00159447) to (5.43159 5.43159 5.43159) with tilt (0 -5.43319e-06 0)
Neighbor list info ...
  update every 1 steps, delay 0 steps, check yes
  max neighbors/atom: 2000, page size: 100000
  master list distance cutoff = 3.67775
  ghost atom cutoff = 3.67775
  binsize = 1.83887, bins = 3 3 3
  1 neighbor lists, perpetual/occasional/extra = 1 0 0
  (1) pair sw, perpetual
      attributes: full, newton on
      pair build: full/bin/atomonly
      stencil: full/bin/3d
      bin: standard
Setting up cg style minimization ...
  Unit style    : metal
  Current step  : 8
Per MPI rank memory allocation (min/avg/max) = 3.812 | 3.812 | 3.812 Mbytes
Step Temp PotEng Press Pxx Pyy Pzz Pxy Pxz Pyz Lx Ly Lz Volume 
       8            0  -0.28154541 7.9257277e-06 6.8507237e-06 8.4632297e-06 8.4632297e-06 3.0026401e-13   0.80625304 5.1473522e-10    5.4331889    5.4331889    5.4331889    160.38525 
       9            0  -0.28154541 -8.0600076e-07 -8.0600077e-07 -8.0600076e-07 -8.0600076e-07 -6.580829e-12 3.8299901e-09 -5.5793991e-11    5.4331889    5.4331889    5.4331889    160.38525 
Loop time of 3.8147e-05 on 1 procs for 1 steps with 8 atoms

49.8% CPU use with 1 MPI tasks x no OpenMP threads

Minimization stats:
  Stopping criterion = force tolerance
  Energy initial, next-to-last, final = 
       -0.281545407384    -0.281545407384    -0.281545407424
  Force two-norm initial, final = 4.20161e-05 1.99721e-13
  Force max component initial, final = 1.48549e-05 7.37259e-14
  Final line search alpha, max atom move = 1 7.37259e-14
  Iterations, force evaluations = 1 2

MPI task timing breakdown:
Section |  min time  |  avg time  |  max time  |%varavg| %total
---------------------------------------------------------------
Pair    | 2.5988e-05 | 2.5988e-05 | 2.5988e-05 |   0.0 | 68.12
Neigh   | 0          | 0          | 0          |   0.0 |  0.00
Comm    | 2.861e-06  | 2.861e-06  | 2.861e-06  |   0.0 |  7.50
Output  | 0          | 0          | 0          |   0.0 |  0.00
Modify  | 0          | 0          | 0          |   0.0 |  0.00
Other   |            | 9.298e-06  |            |       | 24.38

Nlocal:    8 ave 8 max 8 min
Histogram: 1 0 0 0 0 0 0 0 0 0
Nghost:    86 ave 86 max 86 min
Histogram: 1 0 0 0 0 0 0 0 0 0
Neighs:    0 ave 0 max 0 min
Histogram: 1 0 0 0 0 0 0 0 0 0
FullNghs:  32 ave 32 max 32 min
Histogram: 1 0 0 0 0 0 0 0 0 0

Total # of neighbors = 32
Ave neighs/atom = 4
Neighbor list builds = 0
Dangerous builds = 0
Reading restart file ...
  restart file = 11 Aug 2017, LAMMPS = 11 Aug 2017
  triclinic box = (-0.00159447 -0.00159447 -0.00159447) to (5.43159 5.43159 5.43159) with tilt (0 0 0)
  1 by 1 by 1 MPI processor grid
  8 atoms
8 atoms in group Si
Changing box ...
  triclinic box = (-0.00159447 -0.00159447 -0.00159447) to (5.43159 5.43159 5.43159) with tilt (0 5.43319e-06 0)
Neighbor list info ...
  update every 1 steps, delay 0 steps, check yes
  max neighbors/atom: 2000, page size: 100000
  master list distance cutoff = 3.67775
  ghost atom cutoff = 3.67775
  binsize = 1.83887, bins = 3 3 3
  1 neighbor lists, perpetual/occasional/extra = 1 0 0
  (1) pair sw, perpetual
      attributes: full, newton on
      pair build: full/bin/atomonly
      stencil: full/bin/3d
      bin: standard
Setting up cg style minimization ...
  Unit style    : metal
  Current step  : 8
Per MPI rank memory allocation (min/avg/max) = 3.812 | 3.812 | 3.812 Mbytes
Step Temp PotEng Press Pxx Pyy Pzz Pxy Pxz Pyz Lx Ly Lz Volume 
       8            0  -0.28154541 7.9256762e-06 6.8506722e-06 8.4631782e-06 8.4631782e-06 2.4893466e-11  -0.80625304 -2.4893432e-11    5.4331889    5.4331889    5.4331889    160.38525 
       9            0  -0.28154541 -8.0597702e-07 -8.0597702e-07 -8.0597701e-07 -8.0597702e-07 -2.4606578e-11 -3.9784879e-09 -1.4935618e-10    5.4331889    5.4331889    5.4331889    160.38525 
Loop time of 3.79086e-05 on 1 procs for 1 steps with 8 atoms

50.1% CPU use with 1 MPI tasks x no OpenMP threads

Minimization stats:
  Stopping criterion = force tolerance
  Energy initial, next-to-last, final = 
       -0.281545407384    -0.281545407384    -0.281545407424
  Force two-norm initial, final = 4.20161e-05 2.07585e-13
  Force max component initial, final = 1.48549e-05 7.60244e-14
  Final line search alpha, max atom move = 1 7.60244e-14
  Iterations, force evaluations = 1 2

MPI task timing breakdown:
Section |  min time  |  avg time  |  max time  |%varavg| %total
---------------------------------------------------------------
Pair    | 2.5272e-05 | 2.5272e-05 | 2.5272e-05 |   0.0 | 66.67
Neigh   | 0          | 0          | 0          |   0.0 |  0.00
Comm    | 2.861e-06  | 2.861e-06  | 2.861e-06  |   0.0 |  7.55
Output  | 0          | 0          | 0          |   0.0 |  0.00
Modify  | 0          | 0          | 0          |   0.0 |  0.00
Other   |            | 9.775e-06  |            |       | 25.79

Nlocal:    8 ave 8 max 8 min
Histogram: 1 0 0 0 0 0 0 0 0 0
Nghost:    86 ave 86 max 86 min
Histogram: 1 0 0 0 0 0 0 0 0 0
Neighs:    0 ave 0 max 0 min
Histogram: 1 0 0 0 0 0 0 0 0 0
FullNghs:  32 ave 32 max 32 min
Histogram: 1 0 0 0 0 0 0 0 0 0

Total # of neighbors = 32
Ave neighs/atom = 4
Neighbor list builds = 0
Dangerous builds = 0
Reading restart file ...
  restart file = 11 Aug 2017, LAMMPS = 11 Aug 2017
  triclinic box = (-0.00159447 -0.00159447 -0.00159447) to (5.43159 5.43159 5.43159) with tilt (0 0 0)
  1 by 1 by 1 MPI processor grid
  8 atoms
8 atoms in group Si
Changing box ...
  triclinic box = (-0.00159447 -0.00159447 -0.00159447) to (5.43159 5.43159 5.43159) with tilt (-5.43319e-06 0 0)
Neighbor list info ...
  update every 1 steps, delay 0 steps, check yes
  max neighbors/atom: 2000, page size: 100000
  master list distance cutoff = 3.67775
  ghost atom cutoff = 3.67775
  binsize = 1.83887, bins = 3 3 3
  1 neighbor lists, perpetual/occasional/extra = 1 0 0
  (1) pair sw, perpetual
      attributes: full, newton on
      pair build: full/bin/atomonly
      stencil: full/bin/3d
      bin: standard
Setting up cg style minimization ...
  Unit style    : metal
  Current step  : 8
Per MPI rank memory allocation (min/avg/max) = 3.812 | 3.812 | 3.812 Mbytes
Step Temp PotEng Press Pxx Pyy Pzz Pxy Pxz Pyz Lx Ly Lz Volume 
       8            0  -0.28154541 7.9257277e-06 6.8507237e-06 8.4632297e-06 8.4632297e-06   0.80625304 3.0016248e-13 5.1473521e-10    5.4331889    5.4331889    5.4331889    160.38525 
       9            0  -0.28154541 -8.0602823e-07 -8.0602824e-07 -8.0602823e-07 -8.0602822e-07 3.8025223e-09 -3.4048637e-11 -8.3261827e-11    5.4331889    5.4331889    5.4331889    160.38525 
Loop time of 4.57764e-05 on 1 procs for 1 steps with 8 atoms

50.2% CPU use with 1 MPI tasks x no OpenMP threads

Minimization stats:
  Stopping criterion = force tolerance
  Energy initial, next-to-last, final = 
       -0.281545407384    -0.281545407384    -0.281545407424
  Force two-norm initial, final = 4.20161e-05 1.98371e-13
  Force max component initial, final = 1.48549e-05 7.37259e-14
  Final line search alpha, max atom move = 1 7.37259e-14
  Iterations, force evaluations = 1 2

MPI task timing breakdown:
Section |  min time  |  avg time  |  max time  |%varavg| %total
---------------------------------------------------------------
Pair    | 2.718e-05  | 2.718e-05  | 2.718e-05  |   0.0 | 59.38
Neigh   | 0          | 0          | 0          |   0.0 |  0.00
Comm    | 9.5367e-07 | 9.5367e-07 | 9.5367e-07 |   0.0 |  2.08
Output  | 0          | 0          | 0          |   0.0 |  0.00
Modify  | 0          | 0          | 0          |   0.0 |  0.00
Other   |            | 1.764e-05  |            |       | 38.54

Nlocal:    8 ave 8 max 8 min
Histogram: 1 0 0 0 0 0 0 0 0 0
Nghost:    86 ave 86 max 86 min
Histogram: 1 0 0 0 0 0 0 0 0 0
Neighs:    0 ave 0 max 0 min
Histogram: 1 0 0 0 0 0 0 0 0 0
FullNghs:  32 ave 32 max 32 min
Histogram: 1 0 0 0 0 0 0 0 0 0

Total # of neighbors = 32
Ave neighs/atom = 4
Neighbor list builds = 0
Dangerous builds = 0
Reading restart file ...
  restart file = 11 Aug 2017, LAMMPS = 11 Aug 2017
  triclinic box = (-0.00159447 -0.00159447 -0.00159447) to (5.43159 5.43159 5.43159) with tilt (0 0 0)
  1 by 1 by 1 MPI processor grid
  8 atoms
8 atoms in group Si
Changing box ...
  triclinic box = (-0.00159447 -0.00159447 -0.00159447) to (5.43159 5.43159 5.43159) with tilt (5.43319e-06 0 0)
Neighbor list info ...
  update every 1 steps, delay 0 steps, check yes
  max neighbors/atom: 2000, page size: 100000
  master list distance cutoff = 3.67775
  ghost atom cutoff = 3.67775
  binsize = 1.83887, bins = 3 3 3
  1 neighbor lists, perpetual/occasional/extra = 1 0 0
  (1) pair sw, perpetual
      attributes: full, newton on
      pair build: full/bin/atomonly
      stencil: full/bin/3d
      bin: standard
Setting up cg style minimization ...
  Unit style    : metal
  Current step  : 8
Per MPI rank memory allocation (min/avg/max) = 3.812 | 3.812 | 3.812 Mbytes
Step Temp PotEng Press Pxx Pyy Pzz Pxy Pxz Pyz Lx Ly Lz Volume 
       8            0  -0.28154541 7.9256516e-06 6.8506476e-06 8.4631536e-06 8.4631536e-06  -0.80625304 4.9499207e-11 -2.8769026e-13    5.4331889    5.4331889    5.4331889    160.38525 
       9            0  -0.28154541 -8.0603939e-07 -8.060394e-07 -8.0603939e-07 -8.0603938e-07 -3.9161132e-09 -8.6981392e-11 -8.6981305e-11    5.4331889    5.4331889    5.4331889    160.38525 
Loop time of 3.91006e-05 on 1 procs for 1 steps with 8 atoms

97.2% CPU use with 1 MPI tasks x no OpenMP threads

Minimization stats:
  Stopping criterion = force tolerance
  Energy initial, next-to-last, final = 
       -0.281545407384    -0.281545407384    -0.281545407424
  Force two-norm initial, final = 4.20161e-05 2.0421e-13
  Force max component initial, final = 1.48549e-05 7.37259e-14
  Final line search alpha, max atom move = 1 7.37259e-14
  Iterations, force evaluations = 1 2

MPI task timing breakdown:
Section |  min time  |  avg time  |  max time  |%varavg| %total
---------------------------------------------------------------
Pair    | 2.5749e-05 | 2.5749e-05 | 2.5749e-05 |   0.0 | 65.85
Neigh   | 0          | 0          | 0          |   0.0 |  0.00
Comm    | 3.0994e-06 | 3.0994e-06 | 3.0994e-06 |   0.0 |  7.93
Output  | 0          | 0          | 0          |   0.0 |  0.00
Modify  | 0          | 0          | 0          |   0.0 |  0.00
Other   |            | 1.025e-05  |            |       | 26.22

Nlocal:    8 ave 8 max 8 min
Histogram: 1 0 0 0 0 0 0 0 0 0
Nghost:    86 ave 86 max 86 min
Histogram: 1 0 0 0 0 0 0 0 0 0
Neighs:    0 ave 0 max 0 min
Histogram: 1 0 0 0 0 0 0 0 0 0
FullNghs:  32 ave 32 max 32 min
Histogram: 1 0 0 0 0 0 0 0 0 0

Total # of neighbors = 32
Ave neighs/atom = 4
Neighbor list builds = 0
Dangerous builds = 0
c11 = 80.625304124532 GPa
c22 = 80.625304122944 GPa
c33 = 80.625304111485 GPa
c12 = 80.6253041255112 GPa
c13 = 80.6253041197817 GPa
c23 = 80.6253041189877 GPa
c44 = 3.93542638113476e-07 GPa
c55 = 3.90423900541598e-07 GPa
c66 = 3.8593177394725e-07 GPa
c14 = -8.90548445184121e-09 GPa
c15 = -2.0243916978946e-09 GPa
c16 = 9.29549669859465e-11 GPa
c24 = -1.25899251995032e-09 GPa
c25 = -1.00141501656627e-08 GPa
c26 = -1.94569287504383e-09 GPa
c34 = 3.32606954416028e-09 GPa
c35 = 1.7666991988369e-09 GPa
c36 = -2.93985918928018e-09 GPa
c45 = 4.67810947655603e-09 GPa
c46 = 5.43630672605574e-10 GPa
c56 = 1.77396259464613e-09 GPa
lammps_sim_done
Total wall time: 0:00:00
