LAMMPS (11 Aug 2017)
Reading data file ...
  triclinic box = (0 0 0) to (3.5167 3.5167 3.5167) with tilt (0 -0 0)
  1 by 1 by 1 MPI processor grid
  reading atoms ...
  4 atoms
4 atoms in group Ni
Neighbor list info ...
  update every 1 steps, delay 0 steps, check yes
  max neighbors/atom: 2000, page size: 100000
  master list distance cutoff = 5.64464
  ghost atom cutoff = 5.64464
  binsize = 2.82232, bins = 2 2 2
  1 neighbor lists, perpetual/occasional/extra = 1 0 0
  (1) pair eam/alloy, perpetual
      attributes: half, newton on
      pair build: half/bin/newton/tri
      stencil: half/bin/3d/newton/tri
      bin: standard
Setting up cg style minimization ...
  Unit style    : metal
  Current step  : 0
WARNING: Energy due to 3 extra global DOFs will be included in minimizer energies
Per MPI rank memory allocation (min/avg/max) = 4.086 | 4.086 | 4.086 Mbytes
Step Temp PotEng Press Pxx Pyy Pzz Pxy Pxz Pyz Lx Ly Lz Volume 
       0            0   -10.460532   -10771.286   -10771.286   -10771.286   -10771.286 -3.8342983e-13 -2.9396287e-12 6.3904972e-13       3.5167       3.5167       3.5167    43.491658 
       1            0   -10.460619   -10400.558   -10400.558   -10400.558   -10400.558 2.4291176e-12 -3.8354488e-13 -1.6620278e-12    3.5163483    3.5163483    3.5163483    43.478612 
       2            0   -10.460702   -10029.112   -10029.112   -10029.112   -10029.112 7.2639623e-11 8.1335916e-11 8.4021536e-11    3.5159967    3.5159967    3.5159967    43.465568 
       3            0   -10.460782   -9656.9466   -9656.9466   -9656.9466   -9656.9466 -6.5241771e-12 2.6864259e-12 7.6755025e-12     3.515645     3.515645     3.515645    43.452527 
       4            0   -10.460859   -9284.0605   -9284.0605   -9284.0605   -9284.0605 3.7109397e-12 1.7914881e-12 9.8531848e-12    3.5152933    3.5152933    3.5152933    43.439489 
       5            0   -10.460933   -8910.4524   -8910.4524   -8910.4524   -8910.4524 2.560037e-13 1.6640241e-12 -1.9200278e-12    3.5149417    3.5149417    3.5149417    43.426453 
       6            0   -10.461004   -8536.1215   -8536.1215   -8536.1215   -8536.1215 5.1216111e-13 3.201007e-12 3.8412083e-13      3.51459      3.51459      3.51459     43.41342 
       7            0   -10.461072   -8161.0671   -8161.0671   -8161.0671   -8161.0671            0 -5.1231488e-13 -5.1231488e-13    3.5142383    3.5142383    3.5142383    43.400389 
       8            0   -10.461137   -7785.2874   -7785.2874   -7785.2874   -7785.2874 8.9682026e-13 -1.7936405e-12 -2.0498749e-12    3.5138866    3.5138866    3.5138866    43.387362 
       9            0   -10.461198   -7408.7812   -7408.7812   -7408.7812   -7408.7812 4.7417592e-12 -4.3572922e-12 -4.1009809e-12     3.513535     3.513535     3.513535    43.374336 
      10            0   -10.461257   -7031.5477   -7031.5477   -7031.5477   -7031.5477 3.589436e-12 4.5893503e-11 1.3203997e-11    3.5131833    3.5131833    3.5131833    43.361313 
      11            0   -10.461313   -6653.5861   -6653.5861   -6653.5861   -6653.5861 2.0517223e-12 -3.0775835e-12 1.0258612e-12    3.5128316    3.5128316    3.5128316    43.348293 
      12            0   -10.461365   -6274.8948   -6274.8948   -6274.8948   -6274.8948 2.6936945e-12 1.5520811e-11 4.3612197e-12      3.51248      3.51248      3.51248    43.335276 
      13            0   -10.461415   -5895.4723   -5895.4723   -5895.4723   -5895.4723 -7.6985821e-13 -1.5397164e-12 -3.3360522e-12    3.5121283    3.5121283    3.5121283    43.322261 
      14            0   -10.461461   -5515.3181   -5515.3181   -5515.3181   -5515.3181 1.2834825e-13 1.6685273e-12 4.7488853e-12    3.5117766    3.5117766    3.5117766    43.309249 
      15            0   -10.461504   -5134.4312   -5134.4312   -5134.4312   -5134.4312 3.2096705e-12 -1.1554814e-12 1.2838682e-13     3.511425     3.511425     3.511425    43.296239 
      16            0   -10.461544   -4752.8101   -4752.8101   -4752.8101   -4752.8101 3.9169747e-11 4.661842e-11 4.6361569e-11    3.5110733    3.5110733    3.5110733    43.283232 
      17            0   -10.461581   -4370.4532   -4370.4532   -4370.4532   -4370.4532 -3.0831359e-12 -1.798496e-12 -1.670032e-12    3.5107216    3.5107216    3.5107216    43.270227 
      18            0   -10.461615   -3987.3599   -3987.3599   -3987.3599   -3987.3599 -5.9111201e-12 -1.0537214e-11 -9.7661983e-12    3.5103699    3.5103699    3.5103699    43.257226 
      19            0   -10.461646   -3603.5296   -3603.5296   -3603.5296   -3603.5296 5.1416495e-13 -2.185201e-12 1.2854124e-13    3.5100183    3.5100183    3.5100183    43.244226 
      20            0   -10.461674   -3218.9603   -3218.9603   -3218.9603   -3218.9603 3.4587988e-11 4.7060237e-11 4.8731775e-11    3.5096666    3.5096666    3.5096666     43.23123 
      21            0   -10.461698   -2833.6507   -2833.6507   -2833.6507   -2833.6507 -1.9292781e-12 -9.517772e-12 -9.1319164e-12    3.5093149    3.5093149    3.5093149    43.218236 
      22            0    -10.46172   -2447.6001   -2447.6001   -2447.6001   -2447.6001 2.5731443e-13            0 -5.1462886e-13    3.5089633    3.5089633    3.5089633    43.205244 
      23            0   -10.461738   -2060.8078   -2060.8078   -2060.8078   -2060.8078 1.6730468e-12 4.5043567e-12 5.5339239e-12    3.5086116    3.5086116    3.5086116    43.192255 
      24            0   -10.461753   -1673.2721   -1673.2721   -1673.2721   -1673.2721 -4.634446e-12 -9.268892e-12 -6.951669e-12    3.5082599    3.5082599    3.5082599    43.179269 
      25            0   -10.461765   -1284.9914   -1284.9914   -1284.9914   -1284.9914 4.2495199e-12 5.1509333e-13 3.8631999e-12    3.5079083    3.5079083    3.5079083    43.166285 
      26            0   -10.461774   -895.96522   -895.96522   -895.96522   -895.96522 -7.5097436e-11 -8.411428e-11 -8.5402401e-11    3.5075566    3.5075566    3.5075566    43.153304 
      27            0    -10.46178   -506.19281   -506.19281   -506.19281   -506.19281 -2.5770164e-13 6.442541e-13 5.1540328e-12    3.5072049    3.5072049    3.5072049    43.140326 
      28            0   -10.461782   -115.67252   -115.67252   -115.67252   -115.67252 3.9826883e-11 3.8151318e-11 4.060022e-11    3.5068532    3.5068532    3.5068532     43.12735 
      29            0   -10.461782     1.985032     1.985032     1.985032     1.985032 2.5780251e-12 -7.7340754e-13 2.0624201e-12    3.5067474    3.5067474    3.5067474    43.123446 
      30            0   -10.461782   -10.527476   -10.527476   -10.527476   -10.527476 2.0624003e-12 2.3202003e-12 4.2537005e-12    3.5067587    3.5067587    3.5067587    43.123861 
      31            0   -10.461782 -0.024094276 -0.024094276 -0.024094276 -0.024094276 -6.4450529e-12 8.5074698e-12 7.4762613e-12    3.5067492    3.5067492    3.5067492    43.123513 
      32            0   -10.461782 0.0061825084 0.0061825084 0.0061825084 0.0061825084 7.0895583e-12 6.5739541e-12 8.1207668e-12    3.5067492    3.5067492    3.5067492    43.123512 
      33            0   -10.461782 -3.123216e-07 -3.1232417e-07 -3.1231592e-07 -3.1232469e-07 4.5630975e-11 3.9314823e-11 4.0474933e-11    3.5067492    3.5067492    3.5067492    43.123512 
Loop time of 0.000896931 on 1 procs for 33 steps with 4 atoms

100.1% CPU use with 1 MPI tasks x no OpenMP threads

Minimization stats:
  Stopping criterion = force tolerance
  Energy initial, next-to-last, final = 
        -10.4605324451     -10.4617824171     -10.4617824171
  Force two-norm initial, final = 0.506437 1.46255e-11
  Force max component initial, final = 0.29239 8.43025e-12
  Final line search alpha, max atom move = 1 8.43025e-12
  Iterations, force evaluations = 33 38

MPI task timing breakdown:
Section |  min time  |  avg time  |  max time  |%varavg| %total
---------------------------------------------------------------
Pair    | 0.00034308 | 0.00034308 | 0.00034308 |   0.0 | 38.25
Neigh   | 0          | 0          | 0          |   0.0 |  0.00
Comm    | 6.8903e-05 | 6.8903e-05 | 6.8903e-05 |   0.0 |  7.68
Output  | 0.00024843 | 0.00024843 | 0.00024843 |   0.0 | 27.70
Modify  | 0          | 0          | 0          |   0.0 |  0.00
Other   |            | 0.0002365  |            |       | 26.37

Nlocal:    4 ave 4 max 4 min
Histogram: 1 0 0 0 0 0 0 0 0 0
Nghost:    360 ave 360 max 360 min
Histogram: 1 0 0 0 0 0 0 0 0 0
Neighs:    156 ave 156 max 156 min
Histogram: 1 0 0 0 0 0 0 0 0 0

Total # of neighbors = 156
Ave neighs/atom = 39
Neighbor list builds = 0
Dangerous builds = 0
System init for write_restart ...
Reading restart file ...
  restart file = 11 Aug 2017, LAMMPS = 11 Aug 2017
  triclinic box = (0.0049754 0.0049754 0.0049754) to (3.51172 3.51172 3.51172) with tilt (0 -0 0)
  1 by 1 by 1 MPI processor grid
  4 atoms
4 atoms in group Ni
Changing box ...
  triclinic box = (0.0049754 0.0049754 0.0049754) to (3.51172 3.51172 3.51172) with tilt (0 -0 0)
Neighbor list info ...
  update every 1 steps, delay 0 steps, check yes
  max neighbors/atom: 2000, page size: 100000
  master list distance cutoff = 5.64464
  ghost atom cutoff = 5.64464
  binsize = 2.82232, bins = 2 2 2
  1 neighbor lists, perpetual/occasional/extra = 1 0 0
  (1) pair eam/alloy, perpetual
      attributes: half, newton on
      pair build: half/bin/newton/tri
      stencil: half/bin/3d/newton/tri
      bin: standard
Setting up cg style minimization ...
  Unit style    : metal
  Current step  : 33
Per MPI rank memory allocation (min/avg/max) = 4.086 | 4.086 | 4.086 Mbytes
Step Temp PotEng Press Pxx Pyy Pzz Pxy Pxz Pyz Lx Ly Lz Volume 
      33            0   -10.461782    1.3000414    1.6393937    1.1303653    1.1303653 8.133665e-11 8.9328524e-11 4.3052997e-11    3.5067457    3.5067492    3.5067492    43.123469 
      34            0   -10.461782    1.3000414    1.6393937    1.1303653    1.1303653 3.6092333e-12 -4.8337946e-11 1.1601107e-12    3.5067457    3.5067492    3.5067492    43.123469 
Loop time of 4.81606e-05 on 1 procs for 1 steps with 4 atoms

83.1% CPU use with 1 MPI tasks x no OpenMP threads

Minimization stats:
  Stopping criterion = force tolerance
  Energy initial, next-to-last, final = 
        -10.4617824171     -10.4617824171     -10.4617824171
  Force two-norm initial, final = 8.38693e-13 4.65548e-15
  Force max component initial, final = 2.44249e-13 2.67494e-15
  Final line search alpha, max atom move = 1 2.67494e-15
  Iterations, force evaluations = 1 2

MPI task timing breakdown:
Section |  min time  |  avg time  |  max time  |%varavg| %total
---------------------------------------------------------------
Pair    | 2.9087e-05 | 2.9087e-05 | 2.9087e-05 |   0.0 | 60.40
Neigh   | 0          | 0          | 0          |   0.0 |  0.00
Comm    | 5.0068e-06 | 5.0068e-06 | 5.0068e-06 |   0.0 | 10.40
Output  | 0          | 0          | 0          |   0.0 |  0.00
Modify  | 0          | 0          | 0          |   0.0 |  0.00
Other   |            | 1.407e-05  |            |       | 29.21

Nlocal:    4 ave 4 max 4 min
Histogram: 1 0 0 0 0 0 0 0 0 0
Nghost:    360 ave 360 max 360 min
Histogram: 1 0 0 0 0 0 0 0 0 0
Neighs:    156 ave 156 max 156 min
Histogram: 1 0 0 0 0 0 0 0 0 0

Total # of neighbors = 156
Ave neighs/atom = 39
Neighbor list builds = 0
Dangerous builds = 0
Reading restart file ...
  restart file = 11 Aug 2017, LAMMPS = 11 Aug 2017
  triclinic box = (0.0049754 0.0049754 0.0049754) to (3.51172 3.51172 3.51172) with tilt (0 -0 0)
  1 by 1 by 1 MPI processor grid
  4 atoms
4 atoms in group Ni
Changing box ...
  triclinic box = (0.0049754 0.0049754 0.0049754) to (3.51173 3.51172 3.51172) with tilt (0 -0 0)
Neighbor list info ...
  update every 1 steps, delay 0 steps, check yes
  max neighbors/atom: 2000, page size: 100000
  master list distance cutoff = 5.64464
  ghost atom cutoff = 5.64464
  binsize = 2.82232, bins = 2 2 2
  1 neighbor lists, perpetual/occasional/extra = 1 0 0
  (1) pair eam/alloy, perpetual
      attributes: half, newton on
      pair build: half/bin/newton/tri
      stencil: half/bin/3d/newton/tri
      bin: standard
Setting up cg style minimization ...
  Unit style    : metal
  Current step  : 33
Per MPI rank memory allocation (min/avg/max) = 4.086 | 4.086 | 4.086 Mbytes
Step Temp PotEng Press Pxx Pyy Pzz Pxy Pxz Pyz Lx Ly Lz Volume 
      33            0   -10.461782   -1.3000316   -1.6393833   -1.1303557   -1.1303557 -1.4436904e-11 1.8303932e-11 4.3826317e-11    3.5067527    3.5067492    3.5067492    43.123555 
      34            0   -10.461782   -1.3000316   -1.6393833   -1.1303557   -1.1303557 5.1560372e-12 8.6105822e-11 5.1560372e-12    3.5067527    3.5067492    3.5067492    43.123555 
Loop time of 4.81606e-05 on 1 procs for 1 steps with 4 atoms

85.1% CPU use with 1 MPI tasks x no OpenMP threads

Minimization stats:
  Stopping criterion = force tolerance
  Energy initial, next-to-last, final = 
        -10.4617824171     -10.4617824171     -10.4617824171
  Force two-norm initial, final = 8.34817e-13 4.41529e-15
  Force max component initial, final = 2.42403e-13 2.67494e-15
  Final line search alpha, max atom move = 1 2.67494e-15
  Iterations, force evaluations = 1 2

MPI task timing breakdown:
Section |  min time  |  avg time  |  max time  |%varavg| %total
---------------------------------------------------------------
Pair    | 3.1948e-05 | 3.1948e-05 | 3.1948e-05 |   0.0 | 66.34
Neigh   | 0          | 0          | 0          |   0.0 |  0.00
Comm    | 5.9605e-06 | 5.9605e-06 | 5.9605e-06 |   0.0 | 12.38
Output  | 0          | 0          | 0          |   0.0 |  0.00
Modify  | 0          | 0          | 0          |   0.0 |  0.00
Other   |            | 1.025e-05  |            |       | 21.29

Nlocal:    4 ave 4 max 4 min
Histogram: 1 0 0 0 0 0 0 0 0 0
Nghost:    360 ave 360 max 360 min
Histogram: 1 0 0 0 0 0 0 0 0 0
Neighs:    156 ave 156 max 156 min
Histogram: 1 0 0 0 0 0 0 0 0 0

Total # of neighbors = 156
Ave neighs/atom = 39
Neighbor list builds = 0
Dangerous builds = 0
Reading restart file ...
  restart file = 11 Aug 2017, LAMMPS = 11 Aug 2017
  triclinic box = (0.0049754 0.0049754 0.0049754) to (3.51172 3.51172 3.51172) with tilt (0 -0 0)
  1 by 1 by 1 MPI processor grid
  4 atoms
4 atoms in group Ni
Changing box ...
  triclinic box = (0.0049754 0.0049754 0.0049754) to (3.51172 3.51172 3.51172) with tilt (0 -0 0)
Neighbor list info ...
  update every 1 steps, delay 0 steps, check yes
  max neighbors/atom: 2000, page size: 100000
  master list distance cutoff = 5.64464
  ghost atom cutoff = 5.64464
  binsize = 2.82232, bins = 2 2 2
  1 neighbor lists, perpetual/occasional/extra = 1 0 0
  (1) pair eam/alloy, perpetual
      attributes: half, newton on
      pair build: half/bin/newton/tri
      stencil: half/bin/3d/newton/tri
      bin: standard
Setting up cg style minimization ...
  Unit style    : metal
  Current step  : 33
Per MPI rank memory allocation (min/avg/max) = 4.086 | 4.086 | 4.086 Mbytes
Step Temp PotEng Press Pxx Pyy Pzz Pxy Pxz Pyz Lx Ly Lz Volume 
      33            0   -10.461782    1.3000414    1.1303653    1.6393937    1.1303653 3.4029914e-11 3.3901013e-11 9.1390943e-11    3.5067492    3.5067457    3.5067492    43.123469 
      34            0   -10.461782    1.3000414    1.1303653    1.6393937    1.1303653 4.2150689e-11 9.0230832e-13 -5.0658167e-11    3.5067492    3.5067457    3.5067492    43.123469 
Loop time of 4.60148e-05 on 1 procs for 1 steps with 4 atoms

86.9% CPU use with 1 MPI tasks x no OpenMP threads

Minimization stats:
  Stopping criterion = force tolerance
  Energy initial, next-to-last, final = 
        -10.4617824171     -10.4617824171     -10.4617824171
  Force two-norm initial, final = 8.37953e-13 4.24999e-15
  Force max component initial, final = 2.43491e-13 2.06172e-15
  Final line search alpha, max atom move = 1 2.06172e-15
  Iterations, force evaluations = 1 2

MPI task timing breakdown:
Section |  min time  |  avg time  |  max time  |%varavg| %total
---------------------------------------------------------------
Pair    | 2.8849e-05 | 2.8849e-05 | 2.8849e-05 |   0.0 | 62.69
Neigh   | 0          | 0          | 0          |   0.0 |  0.00
Comm    | 6.4373e-06 | 6.4373e-06 | 6.4373e-06 |   0.0 | 13.99
Output  | 0          | 0          | 0          |   0.0 |  0.00
Modify  | 0          | 0          | 0          |   0.0 |  0.00
Other   |            | 1.073e-05  |            |       | 23.32

Nlocal:    4 ave 4 max 4 min
Histogram: 1 0 0 0 0 0 0 0 0 0
Nghost:    360 ave 360 max 360 min
Histogram: 1 0 0 0 0 0 0 0 0 0
Neighs:    156 ave 156 max 156 min
Histogram: 1 0 0 0 0 0 0 0 0 0

Total # of neighbors = 156
Ave neighs/atom = 39
Neighbor list builds = 0
Dangerous builds = 0
Reading restart file ...
  restart file = 11 Aug 2017, LAMMPS = 11 Aug 2017
  triclinic box = (0.0049754 0.0049754 0.0049754) to (3.51172 3.51172 3.51172) with tilt (0 -0 0)
  1 by 1 by 1 MPI processor grid
  4 atoms
4 atoms in group Ni
Changing box ...
  triclinic box = (0.0049754 0.0049754 0.0049754) to (3.51172 3.51173 3.51172) with tilt (0 -0 0)
Neighbor list info ...
  update every 1 steps, delay 0 steps, check yes
  max neighbors/atom: 2000, page size: 100000
  master list distance cutoff = 5.64464
  ghost atom cutoff = 5.64464
  binsize = 2.82232, bins = 2 2 2
  1 neighbor lists, perpetual/occasional/extra = 1 0 0
  (1) pair eam/alloy, perpetual
      attributes: half, newton on
      pair build: half/bin/newton/tri
      stencil: half/bin/3d/newton/tri
      bin: standard
Setting up cg style minimization ...
  Unit style    : metal
  Current step  : 33
Per MPI rank memory allocation (min/avg/max) = 4.086 | 4.086 | 4.086 Mbytes
Step Temp PotEng Press Pxx Pyy Pzz Pxy Pxz Pyz Lx Ly Lz Volume 
      33            0   -10.461782   -1.3000316   -1.1303557   -1.6393833   -1.1303557 -1.2632291e-11 4.7693344e-11 2.6037988e-11    3.5067492    3.5067527    3.5067492    43.123555 
      34            0   -10.461782   -1.3000316   -1.1303557   -1.6393833   -1.1303557 1.2890093e-13 2.1913158e-12 8.2625497e-11    3.5067492    3.5067527    3.5067492    43.123555 
Loop time of 4.50611e-05 on 1 procs for 1 steps with 4 atoms

86.5% CPU use with 1 MPI tasks x no OpenMP threads

Minimization stats:
  Stopping criterion = force tolerance
  Energy initial, next-to-last, final = 
        -10.4617824171     -10.4617824171     -10.4617824171
  Force two-norm initial, final = 8.34599e-13 4.43014e-15
  Force max component initial, final = 2.42417e-13 2.64545e-15
  Final line search alpha, max atom move = 1 2.64545e-15
  Iterations, force evaluations = 1 2

MPI task timing breakdown:
Section |  min time  |  avg time  |  max time  |%varavg| %total
---------------------------------------------------------------
Pair    | 2.8849e-05 | 2.8849e-05 | 2.8849e-05 |   0.0 | 64.02
Neigh   | 0          | 0          | 0          |   0.0 |  0.00
Comm    | 6.1989e-06 | 6.1989e-06 | 6.1989e-06 |   0.0 | 13.76
Output  | 0          | 0          | 0          |   0.0 |  0.00
Modify  | 0          | 0          | 0          |   0.0 |  0.00
Other   |            | 1.001e-05  |            |       | 22.22

Nlocal:    4 ave 4 max 4 min
Histogram: 1 0 0 0 0 0 0 0 0 0
Nghost:    360 ave 360 max 360 min
Histogram: 1 0 0 0 0 0 0 0 0 0
Neighs:    156 ave 156 max 156 min
Histogram: 1 0 0 0 0 0 0 0 0 0

Total # of neighbors = 156
Ave neighs/atom = 39
Neighbor list builds = 0
Dangerous builds = 0
Reading restart file ...
  restart file = 11 Aug 2017, LAMMPS = 11 Aug 2017
  triclinic box = (0.0049754 0.0049754 0.0049754) to (3.51172 3.51172 3.51172) with tilt (0 -0 0)
  1 by 1 by 1 MPI processor grid
  4 atoms
4 atoms in group Ni
Changing box ...
  triclinic box = (0.0049754 0.0049754 0.0049754) to (3.51172 3.51172 3.51172) with tilt (0 -0 0)
Neighbor list info ...
  update every 1 steps, delay 0 steps, check yes
  max neighbors/atom: 2000, page size: 100000
  master list distance cutoff = 5.64464
  ghost atom cutoff = 5.64464
  binsize = 2.82232, bins = 2 2 2
  1 neighbor lists, perpetual/occasional/extra = 1 0 0
  (1) pair eam/alloy, perpetual
      attributes: half, newton on
      pair build: half/bin/newton/tri
      stencil: half/bin/3d/newton/tri
      bin: standard
Setting up cg style minimization ...
  Unit style    : metal
  Current step  : 33
Per MPI rank memory allocation (min/avg/max) = 4.086 | 4.086 | 4.086 Mbytes
Step Temp PotEng Press Pxx Pyy Pzz Pxy Pxz Pyz Lx Ly Lz Volume 
      33            0   -10.461782    1.3000414    1.1303653    1.1303653    1.6393937 -2.6424744e-11 1.2890119e-12 5.9294547e-12    3.5067492    3.5067492    3.5067457    43.123469 
      34            0   -10.461782    1.3000414    1.1303653    1.1303653    1.6393937 4.0603874e-11 1.5468143e-12 4.3052997e-11    3.5067492    3.5067492    3.5067457    43.123469 
Loop time of 4.69685e-05 on 1 procs for 1 steps with 4 atoms

85.2% CPU use with 1 MPI tasks x no OpenMP threads

Minimization stats:
  Stopping criterion = force tolerance
  Energy initial, next-to-last, final = 
        -10.4617824171     -10.4617824171     -10.4617824171
  Force two-norm initial, final = 8.37245e-13 5.93088e-15
  Force max component initial, final = 2.41751e-13 2.73913e-15
  Final line search alpha, max atom move = 1 2.73913e-15
  Iterations, force evaluations = 1 2

MPI task timing breakdown:
Section |  min time  |  avg time  |  max time  |%varavg| %total
---------------------------------------------------------------
Pair    | 2.9087e-05 | 2.9087e-05 | 2.9087e-05 |   0.0 | 61.93
Neigh   | 0          | 0          | 0          |   0.0 |  0.00
Comm    | 5.9605e-06 | 5.9605e-06 | 5.9605e-06 |   0.0 | 12.69
Output  | 0          | 0          | 0          |   0.0 |  0.00
Modify  | 0          | 0          | 0          |   0.0 |  0.00
Other   |            | 1.192e-05  |            |       | 25.38

Nlocal:    4 ave 4 max 4 min
Histogram: 1 0 0 0 0 0 0 0 0 0
Nghost:    360 ave 360 max 360 min
Histogram: 1 0 0 0 0 0 0 0 0 0
Neighs:    156 ave 156 max 156 min
Histogram: 1 0 0 0 0 0 0 0 0 0

Total # of neighbors = 156
Ave neighs/atom = 39
Neighbor list builds = 0
Dangerous builds = 0
Reading restart file ...
  restart file = 11 Aug 2017, LAMMPS = 11 Aug 2017
  triclinic box = (0.0049754 0.0049754 0.0049754) to (3.51172 3.51172 3.51172) with tilt (0 -0 0)
  1 by 1 by 1 MPI processor grid
  4 atoms
4 atoms in group Ni
Changing box ...
  triclinic box = (0.0049754 0.0049754 0.0049754) to (3.51172 3.51172 3.51173) with tilt (0 -0 0)
Neighbor list info ...
  update every 1 steps, delay 0 steps, check yes
  max neighbors/atom: 2000, page size: 100000
  master list distance cutoff = 5.64464
  ghost atom cutoff = 5.64464
  binsize = 2.82232, bins = 2 2 2
  1 neighbor lists, perpetual/occasional/extra = 1 0 0
  (1) pair eam/alloy, perpetual
      attributes: half, newton on
      pair build: half/bin/newton/tri
      stencil: half/bin/3d/newton/tri
      bin: standard
Setting up cg style minimization ...
  Unit style    : metal
  Current step  : 33
Per MPI rank memory allocation (min/avg/max) = 4.086 | 4.086 | 4.086 Mbytes
Step Temp PotEng Press Pxx Pyy Pzz Pxy Pxz Pyz Lx Ly Lz Volume 
      33            0   -10.461782   -1.3000316   -1.1303557   -1.1303557   -1.6393833 -1.0956579e-11 6.0583438e-12 7.8629568e-12    3.5067492    3.5067492    3.5067527    43.123555 
      34            0   -10.461782   -1.3000316   -1.1303557   -1.1303557   -1.6393833  4.15061e-11 1.1858886e-11 1.3534598e-11    3.5067492    3.5067492    3.5067527    43.123555 
Loop time of 5.19753e-05 on 1 procs for 1 steps with 4 atoms

102.0% CPU use with 1 MPI tasks x no OpenMP threads

Minimization stats:
  Stopping criterion = force tolerance
  Energy initial, next-to-last, final = 
        -10.4617824171     -10.4617824171     -10.4617824171
  Force two-norm initial, final = 8.34725e-13 4.45113e-15
  Force max component initial, final = 2.41751e-13 2.45116e-15
  Final line search alpha, max atom move = 1 2.45116e-15
  Iterations, force evaluations = 1 2

MPI task timing breakdown:
Section |  min time  |  avg time  |  max time  |%varavg| %total
---------------------------------------------------------------
Pair    | 3.4094e-05 | 3.4094e-05 | 3.4094e-05 |   0.0 | 65.60
Neigh   | 0          | 0          | 0          |   0.0 |  0.00
Comm    | 5.9605e-06 | 5.9605e-06 | 5.9605e-06 |   0.0 | 11.47
Output  | 0          | 0          | 0          |   0.0 |  0.00
Modify  | 0          | 0          | 0          |   0.0 |  0.00
Other   |            | 1.192e-05  |            |       | 22.94

Nlocal:    4 ave 4 max 4 min
Histogram: 1 0 0 0 0 0 0 0 0 0
Nghost:    360 ave 360 max 360 min
Histogram: 1 0 0 0 0 0 0 0 0 0
Neighs:    156 ave 156 max 156 min
Histogram: 1 0 0 0 0 0 0 0 0 0

Total # of neighbors = 156
Ave neighs/atom = 39
Neighbor list builds = 0
Dangerous builds = 0
Reading restart file ...
  restart file = 11 Aug 2017, LAMMPS = 11 Aug 2017
  triclinic box = (0.0049754 0.0049754 0.0049754) to (3.51172 3.51172 3.51172) with tilt (0 -0 0)
  1 by 1 by 1 MPI processor grid
  4 atoms
4 atoms in group Ni
Changing box ...
  triclinic box = (0.0049754 0.0049754 0.0049754) to (3.51172 3.51172 3.51172) with tilt (0 -0 -3.50675e-06)
Neighbor list info ...
  update every 1 steps, delay 0 steps, check yes
  max neighbors/atom: 2000, page size: 100000
  master list distance cutoff = 5.64464
  ghost atom cutoff = 5.64464
  binsize = 2.82232, bins = 2 2 2
  1 neighbor lists, perpetual/occasional/extra = 1 0 0
  (1) pair eam/alloy, perpetual
      attributes: half, newton on
      pair build: half/bin/newton/tri
      stencil: half/bin/3d/newton/tri
      bin: standard
Setting up cg style minimization ...
  Unit style    : metal
  Current step  : 33
Per MPI rank memory allocation (min/avg/max) = 4.086 | 4.086 | 4.086 Mbytes
Step Temp PotEng Press Pxx Pyy Pzz Pxy Pxz Pyz Lx Ly Lz Volume 
      33            0   -10.461782 1.290307e-06 -7.628629e-07 1.6611169e-06 2.972667e-06 -4.5115371e-12 7.7340636e-12   0.78299051    3.5067492    3.5067492    3.5067492    43.123512 
      34            0   -10.461782 1.2904973e-06 -7.6265537e-07 1.6612573e-06  2.97289e-06 3.9701526e-11 3.9959329e-11   0.78299051    3.5067492    3.5067492    3.5067492    43.123512 
Loop time of 4.72069e-05 on 1 procs for 1 steps with 4 atoms

101.7% CPU use with 1 MPI tasks x no OpenMP threads

Minimization stats:
  Stopping criterion = force tolerance
  Energy initial, next-to-last, final = 
        -10.4617824171     -10.4617824171     -10.4617824171
  Force two-norm initial, final = 8.34664e-13 4.59201e-15
  Force max component initial, final = 2.41876e-13 2.9551e-15
  Final line search alpha, max atom move = 1 2.9551e-15
  Iterations, force evaluations = 1 2

MPI task timing breakdown:
Section |  min time  |  avg time  |  max time  |%varavg| %total
---------------------------------------------------------------
Pair    | 2.8849e-05 | 2.8849e-05 | 2.8849e-05 |   0.0 | 61.11
Neigh   | 0          | 0          | 0          |   0.0 |  0.00
Comm    | 7.1526e-06 | 7.1526e-06 | 7.1526e-06 |   0.0 | 15.15
Output  | 0          | 0          | 0          |   0.0 |  0.00
Modify  | 0          | 0          | 0          |   0.0 |  0.00
Other   |            | 1.121e-05  |            |       | 23.74

Nlocal:    4 ave 4 max 4 min
Histogram: 1 0 0 0 0 0 0 0 0 0
Nghost:    360 ave 360 max 360 min
Histogram: 1 0 0 0 0 0 0 0 0 0
Neighs:    156 ave 156 max 156 min
Histogram: 1 0 0 0 0 0 0 0 0 0

Total # of neighbors = 156
Ave neighs/atom = 39
Neighbor list builds = 0
Dangerous builds = 0
Reading restart file ...
  restart file = 11 Aug 2017, LAMMPS = 11 Aug 2017
  triclinic box = (0.0049754 0.0049754 0.0049754) to (3.51172 3.51172 3.51172) with tilt (0 -0 0)
  1 by 1 by 1 MPI processor grid
  4 atoms
4 atoms in group Ni
Changing box ...
  triclinic box = (0.0049754 0.0049754 0.0049754) to (3.51172 3.51172 3.51172) with tilt (0 -0 3.50675e-06)
Neighbor list info ...
  update every 1 steps, delay 0 steps, check yes
  max neighbors/atom: 2000, page size: 100000
  master list distance cutoff = 5.64464
  ghost atom cutoff = 5.64464
  binsize = 2.82232, bins = 2 2 2
  1 neighbor lists, perpetual/occasional/extra = 1 0 0
  (1) pair eam/alloy, perpetual
      attributes: half, newton on
      pair build: half/bin/newton/tri
      stencil: half/bin/3d/newton/tri
      bin: standard
Setting up cg style minimization ...
  Unit style    : metal
  Current step  : 33
Per MPI rank memory allocation (min/avg/max) = 4.086 | 4.086 | 4.086 Mbytes
Step Temp PotEng Press Pxx Pyy Pzz Pxy Pxz Pyz Lx Ly Lz Volume 
      33            0   -10.461782 1.2902143e-06 -7.6293315e-07 1.6609953e-06 2.9725806e-06 4.1892844e-11 1.2761205e-11  -0.78299051    3.5067492    3.5067492    3.5067492    43.123512 
      34            0   -10.461782 1.2904222e-06 -7.6271543e-07 1.6611556e-06 2.9728266e-06 8.2496678e-11 3.9701526e-11  -0.78299051    3.5067492    3.5067492    3.5067492    43.123512 
Loop time of 6.19888e-05 on 1 procs for 1 steps with 4 atoms

88.7% CPU use with 1 MPI tasks x no OpenMP threads

Minimization stats:
  Stopping criterion = force tolerance
  Energy initial, next-to-last, final = 
        -10.4617824171     -10.4617824171     -10.4617824171
  Force two-norm initial, final = 8.42687e-13 5.41974e-15
  Force max component initial, final = 2.51733e-13 3.89619e-15
  Final line search alpha, max atom move = 1 3.89619e-15
  Iterations, force evaluations = 1 2

MPI task timing breakdown:
Section |  min time  |  avg time  |  max time  |%varavg| %total
---------------------------------------------------------------
Pair    | 4.4584e-05 | 4.4584e-05 | 4.4584e-05 |   0.0 | 71.92
Neigh   | 0          | 0          | 0          |   0.0 |  0.00
Comm    | 5.2452e-06 | 5.2452e-06 | 5.2452e-06 |   0.0 |  8.46
Output  | 0          | 0          | 0          |   0.0 |  0.00
Modify  | 0          | 0          | 0          |   0.0 |  0.00
Other   |            | 1.216e-05  |            |       | 19.62

Nlocal:    4 ave 4 max 4 min
Histogram: 1 0 0 0 0 0 0 0 0 0
Nghost:    360 ave 360 max 360 min
Histogram: 1 0 0 0 0 0 0 0 0 0
Neighs:    156 ave 156 max 156 min
Histogram: 1 0 0 0 0 0 0 0 0 0

Total # of neighbors = 156
Ave neighs/atom = 39
Neighbor list builds = 0
Dangerous builds = 0
Reading restart file ...
  restart file = 11 Aug 2017, LAMMPS = 11 Aug 2017
  triclinic box = (0.0049754 0.0049754 0.0049754) to (3.51172 3.51172 3.51172) with tilt (0 -0 0)
  1 by 1 by 1 MPI processor grid
  4 atoms
4 atoms in group Ni
Changing box ...
  triclinic box = (0.0049754 0.0049754 0.0049754) to (3.51172 3.51172 3.51172) with tilt (0 -3.50675e-06 0)
Neighbor list info ...
  update every 1 steps, delay 0 steps, check yes
  max neighbors/atom: 2000, page size: 100000
  master list distance cutoff = 5.64464
  ghost atom cutoff = 5.64464
  binsize = 2.82232, bins = 2 2 2
  1 neighbor lists, perpetual/occasional/extra = 1 0 0
  (1) pair eam/alloy, perpetual
      attributes: half, newton on
      pair build: half/bin/newton/tri
      stencil: half/bin/3d/newton/tri
      bin: standard
Setting up cg style minimization ...
  Unit style    : metal
  Current step  : 33
Per MPI rank memory allocation (min/avg/max) = 4.086 | 4.086 | 4.086 Mbytes
Step Temp PotEng Press Pxx Pyy Pzz Pxy Pxz Pyz Lx Ly Lz Volume 
      33            0   -10.461782 1.2903057e-06 1.6611173e-06 -7.6286664e-07 2.9726665e-06 -7.2184594e-12   0.78299051 7.2184594e-12    3.5067492    3.5067492    3.5067492    43.123512 
      34            0   -10.461782 1.2904989e-06 1.6612628e-06 -7.6265872e-07 2.9728926e-06 3.7896912e-11   0.78299051 3.6092297e-11    3.5067492    3.5067492    3.5067492    43.123512 
Loop time of 4.50611e-05 on 1 procs for 1 steps with 4 atoms

88.8% CPU use with 1 MPI tasks x no OpenMP threads

Minimization stats:
  Stopping criterion = force tolerance
  Energy initial, next-to-last, final = 
        -10.4617824171     -10.4617824171     -10.4617824171
  Force two-norm initial, final = 8.34688e-13 4.62931e-15
  Force max component initial, final = 2.41887e-13 3.01148e-15
  Final line search alpha, max atom move = 1 3.01148e-15
  Iterations, force evaluations = 1 2

MPI task timing breakdown:
Section |  min time  |  avg time  |  max time  |%varavg| %total
---------------------------------------------------------------
Pair    | 2.8133e-05 | 2.8133e-05 | 2.8133e-05 |   0.0 | 62.43
Neigh   | 0          | 0          | 0          |   0.0 |  0.00
Comm    | 5.9605e-06 | 5.9605e-06 | 5.9605e-06 |   0.0 | 13.23
Output  | 0          | 0          | 0          |   0.0 |  0.00
Modify  | 0          | 0          | 0          |   0.0 |  0.00
Other   |            | 1.097e-05  |            |       | 24.34

Nlocal:    4 ave 4 max 4 min
Histogram: 1 0 0 0 0 0 0 0 0 0
Nghost:    360 ave 360 max 360 min
Histogram: 1 0 0 0 0 0 0 0 0 0
Neighs:    156 ave 156 max 156 min
Histogram: 1 0 0 0 0 0 0 0 0 0

Total # of neighbors = 156
Ave neighs/atom = 39
Neighbor list builds = 0
Dangerous builds = 0
Reading restart file ...
  restart file = 11 Aug 2017, LAMMPS = 11 Aug 2017
  triclinic box = (0.0049754 0.0049754 0.0049754) to (3.51172 3.51172 3.51172) with tilt (0 -0 0)
  1 by 1 by 1 MPI processor grid
  4 atoms
4 atoms in group Ni
Changing box ...
  triclinic box = (0.0049754 0.0049754 0.0049754) to (3.51172 3.51172 3.51172) with tilt (0 3.50675e-06 0)
Neighbor list info ...
  update every 1 steps, delay 0 steps, check yes
  max neighbors/atom: 2000, page size: 100000
  master list distance cutoff = 5.64464
  ghost atom cutoff = 5.64464
  binsize = 2.82232, bins = 2 2 2
  1 neighbor lists, perpetual/occasional/extra = 1 0 0
  (1) pair eam/alloy, perpetual
      attributes: half, newton on
      pair build: half/bin/newton/tri
      stencil: half/bin/3d/newton/tri
      bin: standard
Setting up cg style minimization ...
  Unit style    : metal
  Current step  : 33
Per MPI rank memory allocation (min/avg/max) = 4.086 | 4.086 | 4.086 Mbytes
Step Temp PotEng Press Pxx Pyy Pzz Pxy Pxz Pyz Lx Ly Lz Volume 
      33            0   -10.461782 1.2902108e-06 1.6609915e-06 -7.6293934e-07 2.9725804e-06 4.9369106e-11  -0.78299051 8.7652721e-12    3.5067492    3.5067492    3.5067492    43.123512 
      34            0   -10.461782 1.2904634e-06 1.6612091e-06 -7.626631e-07 2.9728444e-06 3.9572625e-11  -0.78299051 4.2666251e-11    3.5067492    3.5067492    3.5067492    43.123512 
Loop time of 4.60148e-05 on 1 procs for 1 steps with 4 atoms

86.9% CPU use with 1 MPI tasks x no OpenMP threads

Minimization stats:
  Stopping criterion = force tolerance
  Energy initial, next-to-last, final = 
        -10.4617824171     -10.4617824171     -10.4617824171
  Force two-norm initial, final = 8.426e-13 5.44524e-15
  Force max component initial, final = 2.5166e-13 3.96905e-15
  Final line search alpha, max atom move = 1 3.96905e-15
  Iterations, force evaluations = 1 2

MPI task timing breakdown:
Section |  min time  |  avg time  |  max time  |%varavg| %total
---------------------------------------------------------------
Pair    | 2.8133e-05 | 2.8133e-05 | 2.8133e-05 |   0.0 | 61.14
Neigh   | 0          | 0          | 0          |   0.0 |  0.00
Comm    | 5.0068e-06 | 5.0068e-06 | 5.0068e-06 |   0.0 | 10.88
Output  | 0          | 0          | 0          |   0.0 |  0.00
Modify  | 0          | 0          | 0          |   0.0 |  0.00
Other   |            | 1.287e-05  |            |       | 27.98

Nlocal:    4 ave 4 max 4 min
Histogram: 1 0 0 0 0 0 0 0 0 0
Nghost:    360 ave 360 max 360 min
Histogram: 1 0 0 0 0 0 0 0 0 0
Neighs:    156 ave 156 max 156 min
Histogram: 1 0 0 0 0 0 0 0 0 0

Total # of neighbors = 156
Ave neighs/atom = 39
Neighbor list builds = 0
Dangerous builds = 0
Reading restart file ...
  restart file = 11 Aug 2017, LAMMPS = 11 Aug 2017
  triclinic box = (0.0049754 0.0049754 0.0049754) to (3.51172 3.51172 3.51172) with tilt (0 -0 0)
  1 by 1 by 1 MPI processor grid
  4 atoms
4 atoms in group Ni
Changing box ...
  triclinic box = (0.0049754 0.0049754 0.0049754) to (3.51172 3.51172 3.51172) with tilt (-3.50675e-06 -0 0)
Neighbor list info ...
  update every 1 steps, delay 0 steps, check yes
  max neighbors/atom: 2000, page size: 100000
  master list distance cutoff = 5.64464
  ghost atom cutoff = 5.64464
  binsize = 2.82232, bins = 2 2 2
  1 neighbor lists, perpetual/occasional/extra = 1 0 0
  (1) pair eam/alloy, perpetual
      attributes: half, newton on
      pair build: half/bin/newton/tri
      stencil: half/bin/3d/newton/tri
      bin: standard
Setting up cg style minimization ...
  Unit style    : metal
  Current step  : 33
Per MPI rank memory allocation (min/avg/max) = 4.086 | 4.086 | 4.086 Mbytes
Step Temp PotEng Press Pxx Pyy Pzz Pxy Pxz Pyz Lx Ly Lz Volume 
      33            0   -10.461782 1.2903085e-06 1.6611294e-06 2.9726972e-06 -7.6290118e-07   0.78299051 3.0936254e-11 1.2890106e-12    3.5067492    3.5067492    3.5067492    43.123512 
      34            0   -10.461782 1.2904346e-06 1.661182e-06 2.9728526e-06 -7.6273077e-07   0.78299051 -5.1560424e-12 3.286977e-11    3.5067492    3.5067492    3.5067492    43.123512 
Loop time of 4.60148e-05 on 1 procs for 1 steps with 4 atoms

89.1% CPU use with 1 MPI tasks x no OpenMP threads

Minimization stats:
  Stopping criterion = force tolerance
  Energy initial, next-to-last, final = 
        -10.4617824171     -10.4617824171     -10.4617824171
  Force two-norm initial, final = 8.34685e-13 5.06087e-15
  Force max component initial, final = 2.41789e-13 2.91434e-15
  Final line search alpha, max atom move = 1 2.91434e-15
  Iterations, force evaluations = 1 2

MPI task timing breakdown:
Section |  min time  |  avg time  |  max time  |%varavg| %total
---------------------------------------------------------------
Pair    | 2.9087e-05 | 2.9087e-05 | 2.9087e-05 |   0.0 | 63.21
Neigh   | 0          | 0          | 0          |   0.0 |  0.00
Comm    | 5.9605e-06 | 5.9605e-06 | 5.9605e-06 |   0.0 | 12.95
Output  | 0          | 0          | 0          |   0.0 |  0.00
Modify  | 0          | 0          | 0          |   0.0 |  0.00
Other   |            | 1.097e-05  |            |       | 23.83

Nlocal:    4 ave 4 max 4 min
Histogram: 1 0 0 0 0 0 0 0 0 0
Nghost:    360 ave 360 max 360 min
Histogram: 1 0 0 0 0 0 0 0 0 0
Neighs:    156 ave 156 max 156 min
Histogram: 1 0 0 0 0 0 0 0 0 0

Total # of neighbors = 156
Ave neighs/atom = 39
Neighbor list builds = 0
Dangerous builds = 0
Reading restart file ...
  restart file = 11 Aug 2017, LAMMPS = 11 Aug 2017
  triclinic box = (0.0049754 0.0049754 0.0049754) to (3.51172 3.51172 3.51172) with tilt (0 -0 0)
  1 by 1 by 1 MPI processor grid
  4 atoms
4 atoms in group Ni
Changing box ...
  triclinic box = (0.0049754 0.0049754 0.0049754) to (3.51172 3.51172 3.51172) with tilt (3.50675e-06 -0 0)
Neighbor list info ...
  update every 1 steps, delay 0 steps, check yes
  max neighbors/atom: 2000, page size: 100000
  master list distance cutoff = 5.64464
  ghost atom cutoff = 5.64464
  binsize = 2.82232, bins = 2 2 2
  1 neighbor lists, perpetual/occasional/extra = 1 0 0
  (1) pair eam/alloy, perpetual
      attributes: half, newton on
      pair build: half/bin/newton/tri
      stencil: half/bin/3d/newton/tri
      bin: standard
Setting up cg style minimization ...
  Unit style    : metal
  Current step  : 33
Per MPI rank memory allocation (min/avg/max) = 4.086 | 4.086 | 4.086 Mbytes
Step Temp PotEng Press Pxx Pyy Pzz Pxy Pxz Pyz Lx Ly Lz Volume 
      33            0   -10.461782 1.2901816e-06 1.6609734e-06 2.9725217e-06 -7.6295042e-07  -0.78299051 4.8982403e-11 7.9918657e-12    3.5067492    3.5067492    3.5067492    43.123512 
      34            0   -10.461782 1.290369e-06 1.6611108e-06 2.9727801e-06 -7.6278388e-07  -0.78299051 -4.2408449e-11 7.5793823e-11    3.5067492    3.5067492    3.5067492    43.123512 
Loop time of 4.79221e-05 on 1 procs for 1 steps with 4 atoms

89.7% CPU use with 1 MPI tasks x no OpenMP threads

Minimization stats:
  Stopping criterion = force tolerance
  Energy initial, next-to-last, final = 
        -10.4617824171     -10.4617824171     -10.4617824171
  Force two-norm initial, final = 8.42641e-13 5.05626e-15
  Force max component initial, final = 2.5159e-13 3.23352e-15
  Final line search alpha, max atom move = 1 3.23352e-15
  Iterations, force evaluations = 1 2

MPI task timing breakdown:
Section |  min time  |  avg time  |  max time  |%varavg| %total
---------------------------------------------------------------
Pair    | 2.8849e-05 | 2.8849e-05 | 2.8849e-05 |   0.0 | 60.20
Neigh   | 0          | 0          | 0          |   0.0 |  0.00
Comm    | 6.9141e-06 | 6.9141e-06 | 6.9141e-06 |   0.0 | 14.43
Output  | 0          | 0          | 0          |   0.0 |  0.00
Modify  | 0          | 0          | 0          |   0.0 |  0.00
Other   |            | 1.216e-05  |            |       | 25.37

Nlocal:    4 ave 4 max 4 min
Histogram: 1 0 0 0 0 0 0 0 0 0
Nghost:    360 ave 360 max 360 min
Histogram: 1 0 0 0 0 0 0 0 0 0
Neighs:    156 ave 156 max 156 min
Histogram: 1 0 0 0 0 0 0 0 0 0

Total # of neighbors = 156
Ave neighs/atom = 39
Neighbor list builds = 0
Dangerous builds = 0
c11 = 163.938850993638 GPa
c22 = 163.938851000534 GPa
c33 = 163.938851017188 GPa
c12 = 113.036049695474 GPa
c13 = 113.036049700935 GPa
c23 = 113.03604970488 GPa
c44 = 78.2990514753535 GPa
c55 = 78.2990514756242 GPa
c66 = 78.2990514749216 GPa
c14 = 1.4017991849367e-09 GPa
c15 = -2.01730064417402e-09 GPa
c16 = 1.74016452864774e-09 GPa
c24 = -7.8951819319853e-10 GPa
c25 = 7.73407133014944e-11 GPa
c26 = 2.86482711463824e-09 GPa
c34 = 2.32344302044357e-09 GPa
c35 = 9.47423125728942e-10 GPa
c36 = 1.30512528483071e-09 GPa
c45 = -1.57903798446952e-10 GPa
c46 = -2.14298012178006e-09 GPa
c56 = 8.89417313701195e-10 GPa
lammps_sim_done
Total wall time: 0:00:00
