# ['Ni']

18 atoms
1 atom types

    0.0000     2.2175 xlo xhi
    0.0000     3.8408 ylo yhi
    0.0000    32.5846 zlo zhi

    0.0000     0.0000    -0.0003 xy xz yz

Atoms

1 1     0.0000     0.0000     0.0000
2 1     1.1087     0.6401     1.8103
3 1     0.0000     1.2803     3.6205
4 1     1.1087     1.9204     0.0000
5 1     0.0000     2.5605     1.8103
6 1     1.1087     3.2006     3.6205
7 1     0.0000     0.0000     5.4308
8 1     1.1087     0.6401     7.2410
9 1     0.0000     1.2803     9.0513
10 1     1.1087     1.9204     5.4308
11 1     0.0000     2.5605     7.2410
12 1     1.1087     3.2006     9.0513
13 1     0.0000     0.0000    10.8615
14 1     1.1087     0.6401    12.6718
15 1     0.0000     1.2803    14.4820
16 1     1.1087     1.9204    10.8615
17 1     0.0000     2.5605    12.6718
18 1     1.1087     3.2006    14.4820
