LAMMPS (11 Aug 2017)
Reading data file ...
  triclinic box = (0 0 0) to (2.2175 3.8408 32.5846) with tilt (0 0 -0.0003)
  1 by 1 by 1 MPI processor grid
  reading atoms ...
  18 atoms
18 atoms in group Ni
Neighbor list info ...
  update every 1 steps, delay 0 steps, check yes
  max neighbors/atom: 2000, page size: 100000
  master list distance cutoff = 5.64464
  ghost atom cutoff = 5.64464
  binsize = 2.82232, bins = 1 2 12
  1 neighbor lists, perpetual/occasional/extra = 1 0 0
  (1) pair eam/alloy, perpetual
      attributes: half, newton on
      pair build: half/bin/newton/tri
      stencil: half/bin/3d/newton/tri
      bin: standard
Setting up cg style minimization ...
  Unit style    : metal
  Current step  : 0
Per MPI rank memory allocation (min/avg/max) = 4.229 | 4.229 | 4.229 Mbytes
Step PotEng Lx Ly Lz Xy Xz Yz Press Pxx Pyy Pzz Pxy Pxz Pyz c_eatoms 
       0   -134.46221       2.2175       3.8408      32.5846            0            0      -0.0003   -27242.804   -31655.894   -31650.207   -18422.312 0.0020162488 0.00059803313  -0.87481065   -134.46221 
       1   -134.50133       2.2175       3.8408      32.5846            0            0      -0.0003   -22234.208   -27423.826   -27418.176   -11860.622 0.00017201459 -0.00013781067  -0.86391657   -134.50133 
       2   -134.50764       2.2175       3.8408      32.5846            0            0      -0.0003   -19104.229   -24854.583   -24848.982   -7609.1215 1.2572021e-05 -1.6980153e-05  -0.84248706   -134.50764 
       3     -134.509       2.2175       3.8408      32.5846            0            0      -0.0003   -18347.726   -24283.125   -24277.505   -6482.5474 3.911397e-06 -1.0307744e-06  -0.85932537     -134.509 
       4   -134.50936       2.2175       3.8408      32.5846            0            0      -0.0003   -17242.743   -23390.017   -23384.388   -4953.8239 -1.4031053e-06 -2.1390006e-06  -0.87023394   -134.50936 
       5   -134.50986       2.2175       3.8408      32.5846            0            0      -0.0003   -15497.662   -22042.329   -22036.656   -2414.0003 9.2965165e-07 -1.5523239e-06  -0.90948731   -134.50986 
       6   -134.51032       2.2175       3.8408      32.5846            0            0      -0.0003   -13763.027   -20701.853   -20696.151    108.92163 7.0036931e-06 -8.7874146e-07  -0.93685825   -134.51032 
       7   -134.51039       2.2175       3.8408      32.5846            0            0      -0.0003   -13970.872   -20875.719   -20870.047   -166.84978 6.9255204e-07 -6.3194023e-07  -0.91320593   -134.51039 
       8   -134.51039       2.2175       3.8408      32.5846            0            0      -0.0003   -13947.589   -20855.681   -20850.026   -137.06041 4.0137477e-07 -7.5823392e-07  -0.89968368   -134.51039 
       9   -134.51039       2.2175       3.8408      32.5846            0            0      -0.0003   -13864.606   -20790.694   -20785.248   -17.877111 2.1191553e-06 -4.8252989e-06  -0.73951045   -134.51039 
      10   -134.51039       2.2175       3.8408      32.5846            0            0      -0.0003   -13860.106   -20787.901   -20782.511   -9.9055597 8.3379674e-07 -2.7326642e-06  -0.69692411   -134.51039 
      11   -134.51039       2.2175       3.8408      32.5846            0            0      -0.0003   -13856.593   -20785.225   -20779.865   -4.6882143 8.7599099e-08 -1.3801294e-06  -0.67379593   -134.51039 
      12   -134.51039       2.2175       3.8408      32.5846            0            0      -0.0003   -13855.516   -20784.349   -20778.992   -3.2057966 -2.3308262e-07 -9.8428799e-07  -0.67153147   -134.51039 
      13   -134.51039       2.2175       3.8408      32.5846            0            0      -0.0003   -13854.738   -20783.749   -20778.396    -2.068686 -1.9869031e-07 -3.4810228e-07  -0.66850177   -134.51039 
      14   -134.51039       2.2175       3.8408      32.5846            0            0      -0.0003   -13854.349   -20783.435   -20778.084   -1.5287816 -1.0376549e-07 -2.3984262e-07   -0.6662315   -134.51039 
      15   -134.51039       2.2175       3.8408      32.5846            0            0      -0.0003   -13854.219   -20783.338   -20777.999   -1.3191391 -2.4187106e-07 -4.6447843e-07  -0.65764472   -134.51039 
      16   -134.51039       2.2175       3.8408      32.5846            0            0      -0.0003   -13853.843   -20783.037   -20777.724  -0.76813134 -4.7029247e-07 -7.3614413e-07  -0.63695528   -134.51039 
      17   -134.51039       2.2175       3.8408      32.5846            0            0      -0.0003   -13853.354   -20782.637    -20777.36 -0.066261539 -5.9046383e-07 -9.89679e-07  -0.60832201   -134.51039 
      18   -134.51039       2.2175       3.8408      32.5846            0            0      -0.0003   -13853.195   -20782.499   -20777.254   0.16724573 -5.7875555e-07 -8.9922969e-07  -0.58388102   -134.51039 
      19   -134.51039       2.2175       3.8408      32.5846            0            0      -0.0003   -13853.132   -20782.432   -20777.218   0.25566357 -4.6746237e-07 -7.3197989e-07  -0.55975409   -134.51039 
      20   -134.51039       2.2175       3.8408      32.5846            0            0      -0.0003   -13853.135   -20782.393   -20777.269   0.25612656 -1.459813e-07 -2.620534e-07  -0.49085894   -134.51039 
      21   -134.51039       2.2175       3.8408      32.5846            0            0      -0.0003   -13853.113   -20782.305   -20777.322   0.28886606 1.6272935e-07 1.7858529e-07  -0.38282062   -134.51039 
      22   -134.51039       2.2175       3.8408      32.5846            0            0      -0.0003   -13853.048   -20782.137    -20777.38   0.37199514 3.4179559e-07 4.7528369e-07  -0.20820554   -134.51039 
      23   -134.51039       2.2175       3.8408      32.5846            0            0      -0.0003   -13853.125    -20782.11   -20777.532   0.26815343 3.4236764e-07 4.8544993e-07 -0.069409683   -134.51039 
      24   -134.51039       2.2175       3.8408      32.5846            0            0      -0.0003   -13853.204   -20782.138   -20777.625   0.15196106 1.2279188e-07 1.9149334e-07 -0.018832533   -134.51039 
      25   -134.51039       2.2175       3.8408      32.5846            0            0      -0.0003   -13853.254   -20782.171   -20777.673  0.082858479 4.5190607e-08 6.598673e-08 -0.0074014572   -134.51039 
      26   -134.51039       2.2175       3.8408      32.5846            0            0      -0.0003   -13853.261   -20782.174   -20777.681  0.072354081 -6.1314699e-09 -1.0080511e-08 -0.0037178731   -134.51039 
      27   -134.51039       2.2175       3.8408      32.5846            0            0      -0.0003   -13853.252   -20782.166   -20777.673  0.082893899 -1.4222639e-08 -2.1667411e-08 -0.0028489417   -134.51039 
      28   -134.51039       2.2175       3.8408      32.5846            0            0      -0.0003   -13853.274   -20782.182   -20777.691   0.05269365 -5.5462842e-09 -8.233299e-09 -0.0019424195   -134.51039 
      29   -134.51039       2.2175       3.8408      32.5846            0            0      -0.0003   -13853.285    -20782.19     -20777.7   0.03637552 1.4369255e-09 2.118013e-09 -0.0012938225   -134.51039 
      30   -134.51039       2.2175       3.8408      32.5846            0            0      -0.0003   -13853.296   -20782.199   -20777.709  0.019164845 7.0477853e-09 1.0801899e-08 -0.00050528766   -134.51039 
      31   -134.51039       2.2175       3.8408      32.5846            0            0      -0.0003   -13853.306   -20782.206   -20777.717 0.0059295173 7.9576111e-09 1.2226566e-08 -9.5589795e-06   -134.51039 
      32   -134.51039       2.2175       3.8408      32.5846            0            0      -0.0003   -13853.306   -20782.206   -20777.717 0.0045655532 7.5665527e-09 1.1631285e-08 4.6299824e-05   -134.51039 
      33   -134.51039       2.2175       3.8408      32.5846            0            0      -0.0003   -13853.309   -20782.208   -20777.719 0.0013609951 6.4854335e-09 9.9979893e-09 3.8007518e-05   -134.51039 
Loop time of 0.0157471 on 1 procs for 33 steps with 18 atoms

19.6% CPU use with 1 MPI tasks x no OpenMP threads

Minimization stats:
  Stopping criterion = energy tolerance
  Energy initial, next-to-last, final = 
        -134.462213553     -134.510392201     -134.510392201
  Force two-norm initial, final = 1.21102 9.04188e-08
  Force max component initial, final = 0.434087 3.26722e-08
  Final line search alpha, max atom move = 1 3.26722e-08
  Iterations, force evaluations = 33 66

MPI task timing breakdown:
Section |  min time  |  avg time  |  max time  |%varavg| %total
---------------------------------------------------------------
Pair    | 0.0024056  | 0.0024056  | 0.0024056  |   0.0 | 15.28
Neigh   | 0          | 0          | 0          |   0.0 |  0.00
Comm    | 0.00019646 | 0.00019646 | 0.00019646 |   0.0 |  1.25
Output  | 0.01304    | 0.01304    | 0.01304    |   0.0 | 82.81
Modify  | 0          | 0          | 0          |   0.0 |  0.00
Other   |            | 0.0001047  |            |       |  0.66

Nlocal:    18 ave 18 max 18 min
Histogram: 1 0 0 0 0 0 0 0 0 0
Nghost:    623 ave 623 max 623 min
Histogram: 1 0 0 0 0 0 0 0 0 0
Neighs:    678 ave 678 max 678 min
Histogram: 1 0 0 0 0 0 0 0 0 0

Total # of neighbors = 678
Ave neighs/atom = 37.6667
Neighbor list builds = 0
Dangerous builds = 0
pypospack:output_section:begin
tot_energy = -134.510392201274
num_atoms = 18
a11 = 2.2175
a22 = 3.8408
a33 = 32.5846
a12 = 0
a13 = 0
a23 = -0.0003
tot_press = -13853.3086441927
pxx = -20782.2080980887
pyy = -20777.7191954846
pzz = 0.00136099508664588
pxy = 6.48543345747274e-09
pxz = 9.99798934078697e-09
pyz = 3.8007517917807e-05
pypospack:output_section:done
pypospack:lammps_sim:done
Total wall time: 0:00:00
