LAMMPS (11 Aug 2017)
Reading data file ...
  triclinic box = (0 0 0) to (3.5167 3.5167 3.5167) with tilt (0 -0 0)
  1 by 1 by 1 MPI processor grid
  reading atoms ...
  4 atoms
4 atoms in group Ni
Neighbor list info ...
  update every 1 steps, delay 0 steps, check yes
  max neighbors/atom: 2000, page size: 100000
  master list distance cutoff = 11
  ghost atom cutoff = 11
  binsize = 5.5, bins = 1 1 1
  1 neighbor lists, perpetual/occasional/extra = 1 0 0
  (1) pair eam/alloy, perpetual
      attributes: half, newton on
      pair build: half/bin/newton/tri
      stencil: half/bin/3d/newton/tri
      bin: standard
Setting up cg style minimization ...
  Unit style    : metal
  Current step  : 0
WARNING: Energy due to 3 extra global DOFs will be included in minimizer energies
Per MPI rank memory allocation (min/avg/max) = 4.307 | 4.307 | 4.307 Mbytes
Step PotEng Xhi Xlo Yhi Ylo Zhi Xy Xz Yz Press Pxx Pyy Pzz Pxy Pxz Pyz c_eatoms 
       0   -17.842206       3.5167            0       3.5167            0       3.5167            0           -0            0    4779.8986    4779.8986    4779.8986    4779.8986 9.1458921e-12 2.2949748e-11 3.4050772e-12   -17.842206 
      10   -17.842369    3.5181788 -0.0014788484    3.5181788 -0.0014788484    3.5181788            0           -0            0 -6.1567673e-11 -6.2572185e-11 -5.908061e-11 -6.3050226e-11 2.1149458e-11 -1.7351768e-11 -2.2152068e-11   -17.842369 
Loop time of 0.00205398 on 1 procs for 10 steps with 4 atoms

98.4% CPU use with 1 MPI tasks x no OpenMP threads

Minimization stats:
  Stopping criterion = energy tolerance
  Energy initial, next-to-last, final = 
        -17.8422055911     -17.8423691123     -17.8423691123
  Force two-norm initial, final = 0.224737 3.95215e-15
  Force max component initial, final = 0.129752 1.7144e-15
  Final line search alpha, max atom move = 1 1.7144e-15
  Iterations, force evaluations = 10 20

MPI task timing breakdown:
Section |  min time  |  avg time  |  max time  |%varavg| %total
---------------------------------------------------------------
Pair    | 0.0014005  | 0.0014005  | 0.0014005  |   0.0 | 68.18
Neigh   | 0          | 0          | 0          |   0.0 |  0.00
Comm    | 0.00016069 | 0.00016069 | 0.00016069 |   0.0 |  7.82
Output  | 0          | 0          | 0          |   0.0 |  0.00
Modify  | 0          | 0          | 0          |   0.0 |  0.00
Other   |            | 0.0004928  |            |       | 23.99

Nlocal:    4 ave 4 max 4 min
Histogram: 1 0 0 0 0 0 0 0 0 0
Nghost:    1684 ave 1684 max 1684 min
Histogram: 1 0 0 0 0 0 0 0 0 0
Neighs:    1060 ave 1060 max 1060 min
Histogram: 1 0 0 0 0 0 0 0 0 0

Total # of neighbors = 1060
Ave neighs/atom = 265
Neighbor list builds = 0
Dangerous builds = 0
pypospack:output_section:begin
tot_energy = -17.8423691123499
num_atoms = 4
a11 = 3.51965769679368
a22 = 3.51965769679368
a33 = 3.51965769679368
a12 = 0
a13 = -0
a23 = 0
tot_press = -6.15676734991773e-11
pxx = -6.2572184926244e-11
pyy = -5.90806095339516e-11
pzz = -6.30502260373364e-11
pxy = 2.11494577203851e-11
pxz = -1.73517679419875e-11
pyz = -2.21520679286328e-11
pypospack:output_section:done
pypospack:lammps_sim:done
Total wall time: 0:00:00
