   2   2   0   0
  0.9639684E+01  0.3009788E-09  0.3009788E-09  0.3009788E-09  0.5000000E-15
  1.000000000000000E-004
  CAR 
 automatically generated by pyflamestk   
     43.83606738    -16.43216673  301      3.68235640      1.00000000
    -16.432  0.0000E+00  0.0000E+00
    -16.231  0.0000E+00  0.0000E+00
    -16.030  0.0000E+00  0.0000E+00
    -15.829  0.0000E+00  0.0000E+00
    -15.629  0.0000E+00  0.0000E+00
    -15.428  0.0000E+00  0.0000E+00
    -15.227  0.0000E+00  0.0000E+00
    -15.026  0.0000E+00  0.0000E+00
    -14.825  0.0000E+00  0.0000E+00
    -14.624  0.0000E+00  0.0000E+00
    -14.423  0.0000E+00  0.0000E+00
    -14.222  0.0000E+00  0.0000E+00
    -14.021  0.0000E+00  0.0000E+00
    -13.821  0.4656E-04  0.9353E-05
    -13.620  0.3050E+00  0.6129E-01
    -13.419  0.1444E-01  0.6419E-01
    -13.218  0.9245E+00  0.2499E+00
    -13.017  0.7780E+00  0.4062E+00
    -12.816  0.9313E+00  0.5933E+00
    -12.615  0.2764E+01  0.1149E+01
    -12.414  0.3213E+01  0.1794E+01
    -12.213  0.1025E+01  0.2000E+01
    -12.012  0.0000E+00  0.2000E+01
    -11.812  0.0000E+00  0.2000E+01
    -11.611  0.0000E+00  0.2000E+01
    -11.410  0.0000E+00  0.2000E+01
    -11.209  0.0000E+00  0.2000E+01
    -11.008  0.0000E+00  0.2000E+01
    -10.807  0.0000E+00  0.2000E+01
    -10.606  0.0000E+00  0.2000E+01
    -10.405  0.0000E+00  0.2000E+01
    -10.204  0.0000E+00  0.2000E+01
    -10.004  0.0000E+00  0.2000E+01
     -9.803  0.0000E+00  0.2000E+01
     -9.602  0.0000E+00  0.2000E+01
     -9.401  0.0000E+00  0.2000E+01
     -9.200  0.0000E+00  0.2000E+01
     -8.999  0.0000E+00  0.2000E+01
     -8.798  0.0000E+00  0.2000E+01
     -8.597  0.0000E+00  0.2000E+01
     -8.396  0.0000E+00  0.2000E+01
     -8.196  0.0000E+00  0.2000E+01
     -7.995  0.0000E+00  0.2000E+01
     -7.794  0.0000E+00  0.2000E+01
     -7.593  0.0000E+00  0.2000E+01
     -7.392  0.0000E+00  0.2000E+01
     -7.191  0.0000E+00  0.2000E+01
     -6.990  0.0000E+00  0.2000E+01
     -6.789  0.0000E+00  0.2000E+01
     -6.588  0.0000E+00  0.2000E+01
     -6.387  0.0000E+00  0.2000E+01
     -6.187  0.0000E+00  0.2000E+01
     -5.986  0.0000E+00  0.2000E+01
     -5.785  0.0000E+00  0.2000E+01
     -5.584  0.0000E+00  0.2000E+01
     -5.383  0.0000E+00  0.2000E+01
     -5.182  0.0000E+00  0.2000E+01
     -4.981  0.0000E+00  0.2000E+01
     -4.780  0.0000E+00  0.2000E+01
     -4.579  0.0000E+00  0.2000E+01
     -4.379  0.0000E+00  0.2000E+01
     -4.178  0.0000E+00  0.2000E+01
     -3.977  0.0000E+00  0.2000E+01
     -3.776  0.0000E+00  0.2000E+01
     -3.575  0.0000E+00  0.2000E+01
     -3.374  0.0000E+00  0.2000E+01
     -3.173  0.0000E+00  0.2000E+01
     -2.972  0.0000E+00  0.2000E+01
     -2.771  0.0000E+00  0.2000E+01
     -2.570  0.0000E+00  0.2000E+01
     -2.370  0.0000E+00  0.2000E+01
     -2.169  0.0000E+00  0.2000E+01
     -1.968  0.0000E+00  0.2000E+01
     -1.767  0.0000E+00  0.2000E+01
     -1.566  0.0000E+00  0.2000E+01
     -1.365  0.0000E+00  0.2000E+01
     -1.164  0.0000E+00  0.2000E+01
     -0.963  0.2950E-02  0.2001E+01
     -0.762  0.9289E+00  0.2187E+01
     -0.562  0.2586E+00  0.2239E+01
     -0.361  0.8766E+00  0.2415E+01
     -0.160  0.2893E+01  0.2997E+01
      0.041  0.1973E+01  0.3393E+01
      0.242  0.1060E+01  0.3606E+01
      0.443  0.7174E+00  0.3750E+01
      0.644  0.3501E-06  0.3750E+01
      0.845  0.8898E-03  0.3750E+01
      1.046  0.2080E+01  0.4168E+01
      1.247  0.1649E+01  0.4499E+01
      1.447  0.2841E-02  0.4500E+01
      1.648  0.1578E+00  0.4532E+01
      1.849  0.2642E+01  0.5062E+01
      2.050  0.9739E+00  0.5258E+01
      2.251  0.2735E+01  0.5808E+01
      2.452  0.2172E+01  0.6244E+01
      2.653  0.4058E+01  0.7059E+01
      2.854  0.8469E+00  0.7229E+01
      3.055  0.3122E+01  0.7857E+01
      3.255  0.1675E+00  0.7890E+01
      3.456  0.5467E+00  0.8000E+01
      3.657  0.1979E-05  0.8000E+01
      3.858  0.0000E+00  0.8000E+01
      4.059  0.0000E+00  0.8000E+01
      4.260  0.0000E+00  0.8000E+01
      4.461  0.0000E+00  0.8000E+01
      4.662  0.0000E+00  0.8000E+01
      4.863  0.0000E+00  0.8000E+01
      5.064  0.0000E+00  0.8000E+01
      5.264  0.0000E+00  0.8000E+01
      5.465  0.0000E+00  0.8000E+01
      5.666  0.0000E+00  0.8000E+01
      5.867  0.0000E+00  0.8000E+01
      6.068  0.0000E+00  0.8000E+01
      6.269  0.0000E+00  0.8000E+01
      6.470  0.0000E+00  0.8000E+01
      6.671  0.0000E+00  0.8000E+01
      6.872  0.0000E+00  0.8000E+01
      7.072  0.0000E+00  0.8000E+01
      7.273  0.0000E+00  0.8000E+01
      7.474  0.0000E+00  0.8000E+01
      7.675  0.0000E+00  0.8000E+01
      7.876  0.0000E+00  0.8000E+01
      8.077  0.0000E+00  0.8000E+01
      8.278  0.0000E+00  0.8000E+01
      8.479  0.2652E-07  0.8000E+01
      8.680  0.2099E+00  0.8042E+01
      8.880  0.1012E+00  0.8062E+01
      9.081  0.0000E+00  0.8062E+01
      9.282  0.0000E+00  0.8062E+01
      9.483  0.0000E+00  0.8062E+01
      9.684  0.0000E+00  0.8062E+01
      9.885  0.0000E+00  0.8062E+01
     10.086  0.7492E-07  0.8063E+01
     10.287  0.6261E+00  0.8188E+01
     10.488  0.3073E+00  0.8250E+01
     10.689  0.1155E-09  0.8250E+01
     10.889  0.9879E-01  0.8270E+01
     11.090  0.5120E+00  0.8373E+01
     11.291  0.6337E+00  0.8500E+01
     11.492  0.8516E-07  0.8500E+01
     11.693  0.3138E+00  0.8563E+01
     11.894  0.6195E+00  0.8687E+01
     12.095  0.4733E-03  0.8688E+01
     12.296  0.9251E+00  0.8873E+01
     12.497  0.3169E-01  0.8880E+01
     12.697  0.1842E+01  0.9250E+01
     12.898  0.8438E+00  0.9419E+01
     13.099  0.8443E+00  0.9589E+01
     13.300  0.1790E+00  0.9625E+01
     13.501  0.6247E+00  0.9751E+01
     13.702  0.3922E+00  0.9829E+01
     13.903  0.2131E+01  0.1026E+02
     14.104  0.5850E+00  0.1037E+02
     14.305  0.3908E-07  0.1038E+02
     14.506  0.3109E-14  0.1038E+02
     14.706  0.3048E-01  0.1038E+02
     14.907  0.3698E+01  0.1112E+02
     15.108  0.4507E-02  0.1113E+02
     15.309  0.1743E+01  0.1148E+02
     15.510  0.1935E+01  0.1186E+02
     15.711  0.2234E+01  0.1231E+02
     15.912  0.4570E-03  0.1231E+02
     16.113  0.1193E+01  0.1255E+02
     16.314  0.6736E+00  0.1269E+02
     16.514  0.1375E-06  0.1269E+02
     16.715  0.1531E-09  0.1269E+02
     16.916  0.4461E+00  0.1278E+02
     17.117  0.1480E+01  0.1307E+02
     17.318  0.1051E+01  0.1329E+02
     17.519  0.1339E+00  0.1331E+02
     17.720  0.1693E-07  0.1331E+02
     17.921  0.5312E+00  0.1342E+02
     18.122  0.4022E+00  0.1350E+02
     18.323  0.0000E+00  0.1350E+02
     18.523  0.1536E-02  0.1350E+02
     18.724  0.9290E+00  0.1369E+02
     18.925  0.2841E-02  0.1369E+02
     19.126  0.2112E-07  0.1369E+02
     19.327  0.3843E+00  0.1376E+02
     19.528  0.2113E+01  0.1419E+02
     19.729  0.2021E+01  0.1460E+02
     19.930  0.1099E+01  0.1482E+02
     20.131  0.1322E+01  0.1508E+02
     20.331  0.1646E+01  0.1541E+02
     20.532  0.1054E+01  0.1562E+02
     20.733  0.2538E-01  0.1563E+02
     20.934  0.9130E+00  0.1581E+02
     21.135  0.8869E+00  0.1599E+02
     21.336  0.9686E+00  0.1619E+02
     21.537  0.1537E+01  0.1649E+02
     21.738  0.3409E+00  0.1656E+02
     21.939  0.1720E-06  0.1656E+02
     22.140  0.6766E+00  0.1670E+02
     22.340  0.2567E+00  0.1675E+02
     22.541  0.8363E+00  0.1692E+02
     22.742  0.1742E+01  0.1727E+02
     22.943  0.3105E+00  0.1733E+02
     23.144  0.1778E+01  0.1769E+02
     23.345  0.5580E-04  0.1769E+02
     23.546  0.3970E+00  0.1777E+02
     23.747  0.1058E+01  0.1798E+02
     23.948  0.1010E+00  0.1800E+02
     24.148  0.3049E+00  0.1806E+02
     24.349  0.5509E+00  0.1817E+02
     24.550  0.1007E+01  0.1837E+02
     24.751  0.4229E-02  0.1838E+02
     24.952  0.1102E+01  0.1860E+02
     25.153  0.1422E+00  0.1863E+02
     25.354  0.7760E+00  0.1878E+02
     25.555  0.1582E+01  0.1910E+02
     25.756  0.4422E+00  0.1919E+02
     25.956  0.3274E+00  0.1925E+02
     26.157  0.1539E+01  0.1956E+02
     26.358  0.5477E-01  0.1957E+02
     26.559  0.2744E+01  0.2012E+02
     26.760  0.2125E-02  0.2013E+02
     26.961  0.9250E+00  0.2031E+02
     27.162  0.9171E+00  0.2050E+02
     27.363  0.3343E+00  0.2056E+02
     27.564  0.8800E-03  0.2056E+02
     27.765  0.0000E+00  0.2056E+02
     27.965  0.0000E+00  0.2056E+02
     28.166  0.0000E+00  0.2056E+02
     28.367  0.0000E+00  0.2056E+02
     28.568  0.6409E-04  0.2056E+02
     28.769  0.6120E+00  0.2069E+02
     28.970  0.2783E+01  0.2124E+02
     29.171  0.9543E+00  0.2144E+02
     29.372  0.1785E+00  0.2147E+02
     29.573  0.7606E+00  0.2162E+02
     29.773  0.8398E-06  0.2163E+02
     29.974  0.1470E+01  0.2192E+02
     30.175  0.2035E+01  0.2233E+02
     30.376  0.1332E+01  0.2260E+02
     30.577  0.7624E+00  0.2275E+02
     30.778  0.8078E-06  0.2275E+02
     30.979  0.1471E+00  0.2278E+02
     31.180  0.1718E+01  0.2312E+02
     31.381  0.1550E+00  0.2316E+02
     31.582  0.1796E+01  0.2352E+02
     31.782  0.2717E+01  0.2406E+02
     31.983  0.9611E+00  0.2426E+02
     32.184  0.1281E+01  0.2451E+02
     32.385  0.4204E+01  0.2536E+02
     32.586  0.4238E+00  0.2544E+02
     32.787  0.2774E+01  0.2600E+02
     32.988  0.9266E+00  0.2619E+02
     33.189  0.3074E+00  0.2625E+02
     33.390  0.2189E+01  0.2669E+02
     33.590  0.1145E-03  0.2669E+02
     33.791  0.0000E+00  0.2669E+02
     33.992  0.0000E+00  0.2669E+02
     34.193  0.0000E+00  0.2669E+02
     34.394  0.0000E+00  0.2669E+02
     34.595  0.1932E-10  0.2669E+02
     34.796  0.1746E+00  0.2672E+02
     34.997  0.2623E+01  0.2725E+02
     35.198  0.2479E-02  0.2725E+02
     35.399  0.6910E+00  0.2739E+02
     35.599  0.2747E+01  0.2794E+02
     35.800  0.5737E+00  0.2806E+02
     36.001  0.6551E+00  0.2819E+02
     36.202  0.8332E-04  0.2819E+02
     36.403  0.1808E+01  0.2855E+02
     36.604  0.9913E+00  0.2875E+02
     36.805  0.8203E-01  0.2877E+02
     37.006  0.5404E+00  0.2887E+02
     37.207  0.7463E+00  0.2902E+02
     37.407  0.1122E+01  0.2925E+02
     37.608  0.9291E+00  0.2944E+02
     37.809  0.5924E+00  0.2956E+02
     38.010  0.1277E+01  0.2981E+02
     38.211  0.8169E+00  0.2998E+02
     38.412  0.1165E+00  0.3000E+02
     38.613  0.1909E-12  0.3000E+02
     38.814  0.9454E-01  0.3002E+02
     39.015  0.3737E+01  0.3077E+02
     39.216  0.2132E+00  0.3081E+02
     39.416  0.0000E+00  0.3081E+02
     39.617  0.0000E+00  0.3081E+02
     39.818  0.0000E+00  0.3081E+02
     40.019  0.2737E-02  0.3081E+02
     40.220  0.9290E+00  0.3100E+02
     40.421  0.1598E-02  0.3100E+02
     40.622  0.3359E-13  0.3100E+02
     40.823  0.1519E-01  0.3100E+02
     41.024  0.1565E+01  0.3132E+02
     41.224  0.3397E+01  0.3200E+02
     41.425  0.3191E-03  0.3200E+02
     41.626  0.0000E+00  0.3200E+02
     41.827  0.0000E+00  0.3200E+02
     42.028  0.0000E+00  0.3200E+02
     42.229  0.0000E+00  0.3200E+02
     42.430  0.0000E+00  0.3200E+02
     42.631  0.0000E+00  0.3200E+02
     42.832  0.0000E+00  0.3200E+02
     43.032  0.0000E+00  0.3200E+02
     43.233  0.0000E+00  0.3200E+02
     43.434  0.0000E+00  0.3200E+02
     43.635  0.0000E+00  0.3200E+02
     43.836  0.0000E+00  0.3200E+02
