       N       E                     dE             d eps       ncg     rms          rms(c)
DAV:   1    -0.272861129981E+03   -0.27286E+03   -0.98012E+03   480   0.556E+02
DAV:   2    -0.286474505391E+03   -0.13613E+02   -0.13613E+02   416   0.801E+01
DAV:   3    -0.286556860228E+03   -0.82355E-01   -0.82355E-01   448   0.538E+00
DAV:   4    -0.286557038897E+03   -0.17867E-03   -0.17867E-03   512   0.157E-01
DAV:   5    -0.286557038910E+03   -0.13364E-07   -0.13364E-07   432   0.180E-03    0.882E+01
DAV:   6    -0.634521529825E+02    0.22310E+03   -0.24730E+02   320   0.888E+01    0.373E+01
DAV:   7    -0.226821420740E+02    0.40770E+02   -0.38879E+02   480   0.703E+01    0.256E+01
DAV:   8    -0.212395061897E+02    0.14426E+01   -0.19129E+02   320   0.441E+01    0.165E+01
DAV:   9    -0.118770437063E+02    0.93625E+01   -0.32471E+01   336   0.181E+01    0.247E+00
DAV:  10    -0.118697605808E+02    0.72831E-02   -0.20963E+00   400   0.587E+00    0.170E+00
DAV:  11    -0.118285634323E+02    0.41197E-01   -0.64979E-01   336   0.271E+00    0.546E-01
DAV:  12    -0.118217273555E+02    0.68361E-02   -0.40394E-02   432   0.725E-01    0.806E-02
DAV:  13    -0.118216996791E+02    0.27676E-04   -0.27151E-03   352   0.227E-01    0.549E-02
DAV:  14    -0.118216550918E+02    0.44587E-04   -0.39979E-04   352   0.731E-02    0.654E-03
DAV:  15    -0.118216548160E+02    0.27576E-06   -0.11564E-05   400   0.148E-02    0.215E-03
DAV:  16    -0.118216549567E+02   -0.14065E-06   -0.21236E-07   176   0.300E-03
   1 F= -.11821655E+02 E0= -.11821655E+02  d E =-.261019E-28
