# ['Ni']

107 atoms
1 atom types

    0.0000    10.5233 xlo xhi
    0.0000    10.5233 ylo yhi
    0.0000    10.5233 zlo zhi

    0.0000    -0.0000    -0.0000 xy xz yz

Atoms

1 1     1.7539     1.7539     0.0000
2 1     1.7539     0.0000     1.7539
3 1     0.0000     1.7539     1.7539
4 1     0.0000     0.0000     3.5078
5 1     1.7539     1.7539     3.5078
6 1     1.7539     0.0000     5.2616
7 1     0.0000     1.7539     5.2616
8 1     0.0000     0.0000     7.0155
9 1     1.7539     1.7539     7.0155
10 1     1.7539     0.0000     8.7694
11 1     0.0000     1.7539     8.7694
12 1     0.0000     3.5078     0.0000
13 1     1.7539     5.2616     0.0000
14 1     1.7539     3.5078     1.7539
15 1     0.0000     5.2616     1.7539
16 1     0.0000     3.5078     3.5078
17 1     1.7539     5.2616     3.5078
18 1     1.7539     3.5078     5.2616
19 1     0.0000     5.2616     5.2616
20 1     0.0000     3.5078     7.0155
21 1     1.7539     5.2616     7.0155
22 1     1.7539     3.5078     8.7694
23 1     0.0000     5.2616     8.7694
24 1     0.0000     7.0155     0.0000
25 1     1.7539     8.7694     0.0000
26 1     1.7539     7.0155     1.7539
27 1     0.0000     8.7694     1.7539
28 1     0.0000     7.0155     3.5078
29 1     1.7539     8.7694     3.5078
30 1     1.7539     7.0155     5.2616
31 1     0.0000     8.7694     5.2616
32 1     0.0000     7.0155     7.0155
33 1     1.7539     8.7694     7.0155
34 1     1.7539     7.0155     8.7694
35 1     0.0000     8.7694     8.7694
36 1     3.5078     0.0000     0.0000
37 1     5.2616     1.7539     0.0000
38 1     5.2616     0.0000     1.7539
39 1     3.5078     1.7539     1.7539
40 1     3.5078     0.0000     3.5078
41 1     5.2616     1.7539     3.5078
42 1     5.2616     0.0000     5.2616
43 1     3.5078     1.7539     5.2616
44 1     3.5078     0.0000     7.0155
45 1     5.2616     1.7539     7.0155
46 1     5.2616     0.0000     8.7694
47 1     3.5078     1.7539     8.7694
48 1     3.5078     3.5078     0.0000
49 1     5.2616     5.2616     0.0000
50 1     5.2616     3.5078     1.7539
51 1     3.5078     5.2616     1.7539
52 1     3.5078     3.5078     3.5078
53 1     5.2616     5.2616     3.5078
54 1     5.2616     3.5078     5.2616
55 1     3.5078     5.2616     5.2616
56 1     3.5078     3.5078     7.0155
57 1     5.2616     5.2616     7.0155
58 1     5.2616     3.5078     8.7694
59 1     3.5078     5.2616     8.7694
60 1     3.5078     7.0155     0.0000
61 1     5.2616     8.7694     0.0000
62 1     5.2616     7.0155     1.7539
63 1     3.5078     8.7694     1.7539
64 1     3.5078     7.0155     3.5078
65 1     5.2616     8.7694     3.5078
66 1     5.2616     7.0155     5.2616
67 1     3.5078     8.7694     5.2616
68 1     3.5078     7.0155     7.0155
69 1     5.2616     8.7694     7.0155
70 1     5.2616     7.0155     8.7694
71 1     3.5078     8.7694     8.7694
72 1     7.0155     0.0000     0.0000
73 1     8.7694     1.7539     0.0000
74 1     8.7694     0.0000     1.7539
75 1     7.0155     1.7539     1.7539
76 1     7.0155     0.0000     3.5078
77 1     8.7694     1.7539     3.5078
78 1     8.7694     0.0000     5.2616
79 1     7.0155     1.7539     5.2616
80 1     7.0155     0.0000     7.0155
81 1     8.7694     1.7539     7.0155
82 1     8.7694     0.0000     8.7694
83 1     7.0155     1.7539     8.7694
84 1     7.0155     3.5078     0.0000
85 1     8.7694     5.2616     0.0000
86 1     8.7694     3.5078     1.7539
87 1     7.0155     5.2616     1.7539
88 1     7.0155     3.5078     3.5078
89 1     8.7694     5.2616     3.5078
90 1     8.7694     3.5078     5.2616
91 1     7.0155     5.2616     5.2616
92 1     7.0155     3.5078     7.0155
93 1     8.7694     5.2616     7.0155
94 1     8.7694     3.5078     8.7694
95 1     7.0155     5.2616     8.7694
96 1     7.0155     7.0155     0.0000
97 1     8.7694     8.7694     0.0000
98 1     8.7694     7.0155     1.7539
99 1     7.0155     8.7694     1.7539
100 1     7.0155     7.0155     3.5078
101 1     8.7694     8.7694     3.5078
102 1     8.7694     7.0155     5.2616
103 1     7.0155     8.7694     5.2616
104 1     7.0155     7.0155     7.0155
105 1     8.7694     8.7694     7.0155
106 1     8.7694     7.0155     8.7694
107 1     7.0155     8.7694     8.7694
