   2   2   0   0
  0.9639684E+01  0.3009788E-09  0.3009788E-09  0.3009788E-09  0.5000000E-15
  1.000000000000000E-004
  CAR 
 automatically generated by pyflamestk   
     43.83138301    -16.33400019  301      3.54564518      1.00000000
    -16.334  0.0000E+00  0.0000E+00
    -16.133  0.0000E+00  0.0000E+00
    -15.933  0.0000E+00  0.0000E+00
    -15.732  0.0000E+00  0.0000E+00
    -15.532  0.0000E+00  0.0000E+00
    -15.331  0.0000E+00  0.0000E+00
    -15.131  0.0000E+00  0.0000E+00
    -14.930  0.0000E+00  0.0000E+00
    -14.730  0.0000E+00  0.0000E+00
    -14.529  0.0000E+00  0.0000E+00
    -14.328  0.0000E+00  0.0000E+00
    -14.128  0.0000E+00  0.0000E+00
    -13.927  0.0000E+00  0.0000E+00
    -13.727  0.4776E-04  0.9578E-05
    -13.526  0.3055E+00  0.6128E-01
    -13.326  0.1209E-01  0.6370E-01
    -13.125  0.9283E+00  0.2499E+00
    -12.925  0.7172E+00  0.3937E+00
    -12.724  0.8452E+00  0.5632E+00
    -12.524  0.2623E+01  0.1089E+01
    -12.323  0.2977E+01  0.1686E+01
    -12.122  0.1564E+01  0.2000E+01
    -11.922  0.1737E-06  0.2000E+01
    -11.721  0.0000E+00  0.2000E+01
    -11.521  0.0000E+00  0.2000E+01
    -11.320  0.0000E+00  0.2000E+01
    -11.120  0.0000E+00  0.2000E+01
    -10.919  0.0000E+00  0.2000E+01
    -10.719  0.0000E+00  0.2000E+01
    -10.518  0.0000E+00  0.2000E+01
    -10.317  0.0000E+00  0.2000E+01
    -10.117  0.0000E+00  0.2000E+01
     -9.916  0.0000E+00  0.2000E+01
     -9.716  0.0000E+00  0.2000E+01
     -9.515  0.0000E+00  0.2000E+01
     -9.315  0.0000E+00  0.2000E+01
     -9.114  0.0000E+00  0.2000E+01
     -8.914  0.0000E+00  0.2000E+01
     -8.713  0.0000E+00  0.2000E+01
     -8.513  0.0000E+00  0.2000E+01
     -8.312  0.0000E+00  0.2000E+01
     -8.111  0.0000E+00  0.2000E+01
     -7.911  0.0000E+00  0.2000E+01
     -7.710  0.0000E+00  0.2000E+01
     -7.510  0.0000E+00  0.2000E+01
     -7.309  0.0000E+00  0.2000E+01
     -7.109  0.0000E+00  0.2000E+01
     -6.908  0.0000E+00  0.2000E+01
     -6.708  0.0000E+00  0.2000E+01
     -6.507  0.0000E+00  0.2000E+01
     -6.306  0.0000E+00  0.2000E+01
     -6.106  0.0000E+00  0.2000E+01
     -5.905  0.0000E+00  0.2000E+01
     -5.705  0.0000E+00  0.2000E+01
     -5.504  0.0000E+00  0.2000E+01
     -5.304  0.0000E+00  0.2000E+01
     -5.103  0.0000E+00  0.2000E+01
     -4.903  0.0000E+00  0.2000E+01
     -4.702  0.0000E+00  0.2000E+01
     -4.501  0.0000E+00  0.2000E+01
     -4.301  0.0000E+00  0.2000E+01
     -4.100  0.0000E+00  0.2000E+01
     -3.900  0.0000E+00  0.2000E+01
     -3.699  0.0000E+00  0.2000E+01
     -3.499  0.0000E+00  0.2000E+01
     -3.298  0.0000E+00  0.2000E+01
     -3.098  0.0000E+00  0.2000E+01
     -2.897  0.0000E+00  0.2000E+01
     -2.697  0.0000E+00  0.2000E+01
     -2.496  0.0000E+00  0.2000E+01
     -2.295  0.0000E+00  0.2000E+01
     -2.095  0.0000E+00  0.2000E+01
     -1.894  0.0000E+00  0.2000E+01
     -1.694  0.0000E+00  0.2000E+01
     -1.493  0.0000E+00  0.2000E+01
     -1.293  0.0000E+00  0.2000E+01
     -1.092  0.8950E-10  0.2000E+01
     -0.892  0.2275E+00  0.2046E+01
     -0.691  0.7090E+00  0.2188E+01
     -0.490  0.3166E+00  0.2251E+01
     -0.290  0.1536E+01  0.2559E+01
     -0.089  0.2365E+01  0.3034E+01
      0.111  0.2518E+01  0.3539E+01
      0.312  0.1005E+01  0.3740E+01
      0.512  0.4826E-01  0.3750E+01
      0.713  0.1341E-10  0.3750E+01
      0.913  0.2611E+00  0.3802E+01
      1.114  0.2746E+01  0.4353E+01
      1.315  0.7322E+00  0.4500E+01
      1.515  0.1441E-05  0.4500E+01
      1.716  0.2174E+01  0.4936E+01
      1.916  0.6328E+00  0.5063E+01
      2.117  0.2092E+01  0.5482E+01
      2.317  0.2556E+01  0.5995E+01
      2.518  0.3699E+01  0.6737E+01
      2.718  0.2245E+01  0.7187E+01
      2.919  0.2185E+01  0.7625E+01
      3.119  0.1246E+01  0.7875E+01
      3.320  0.6000E+00  0.7995E+01
      3.521  0.2322E-01  0.8000E+01
      3.721  0.0000E+00  0.8000E+01
      3.922  0.0000E+00  0.8000E+01
      4.122  0.0000E+00  0.8000E+01
      4.323  0.0000E+00  0.8000E+01
      4.523  0.0000E+00  0.8000E+01
      4.724  0.0000E+00  0.8000E+01
      4.924  0.0000E+00  0.8000E+01
      5.125  0.0000E+00  0.8000E+01
      5.326  0.0000E+00  0.8000E+01
      5.526  0.0000E+00  0.8000E+01
      5.727  0.0000E+00  0.8000E+01
      5.927  0.0000E+00  0.8000E+01
      6.128  0.0000E+00  0.8000E+01
      6.328  0.0000E+00  0.8000E+01
      6.529  0.0000E+00  0.8000E+01
      6.729  0.0000E+00  0.8000E+01
      6.930  0.0000E+00  0.8000E+01
      7.130  0.0000E+00  0.8000E+01
      7.331  0.0000E+00  0.8000E+01
      7.532  0.0000E+00  0.8000E+01
      7.732  0.0000E+00  0.8000E+01
      7.933  0.0000E+00  0.8000E+01
      8.133  0.0000E+00  0.8000E+01
      8.334  0.0000E+00  0.8000E+01
      8.534  0.5338E-06  0.8000E+01
      8.735  0.2643E+00  0.8053E+01
      8.935  0.4729E-01  0.8062E+01
      9.136  0.0000E+00  0.8062E+01
      9.337  0.0000E+00  0.8062E+01
      9.537  0.0000E+00  0.8062E+01
      9.738  0.0000E+00  0.8062E+01
      9.938  0.0000E+00  0.8062E+01
     10.139  0.1528E-04  0.8063E+01
     10.339  0.8747E+00  0.8238E+01
     10.540  0.6024E-01  0.8250E+01
     10.740  0.1503E-07  0.8250E+01
     10.941  0.1972E+00  0.8290E+01
     11.142  0.8201E+00  0.8454E+01
     11.342  0.2292E+00  0.8500E+01
     11.543  0.1561E-06  0.8500E+01
     11.743  0.6688E+00  0.8634E+01
     11.944  0.2661E+00  0.8687E+01
     12.144  0.2395E-01  0.8692E+01
     12.345  0.9109E+00  0.8875E+01
     12.545  0.2700E+00  0.8929E+01
     12.746  0.1601E+01  0.9250E+01
     12.946  0.9300E+00  0.9437E+01
     13.147  0.9215E+00  0.9622E+01
     13.348  0.1727E-01  0.9625E+01
     13.548  0.8986E+00  0.9805E+01
     13.749  0.7738E+00  0.9960E+01
     13.949  0.1955E+01  0.1035E+02
     14.150  0.1121E+00  0.1037E+02
     14.350  0.0000E+00  0.1038E+02
     14.551  0.9609E-09  0.1038E+02
     14.751  0.8840E+00  0.1055E+02
     14.952  0.2856E+01  0.1112E+02
     15.153  0.1785E-01  0.1113E+02
     15.353  0.1887E+01  0.1151E+02
     15.554  0.2869E+01  0.1208E+02
     15.754  0.1147E+01  0.1231E+02
     15.955  0.5979E-01  0.1232E+02
     16.155  0.1651E+01  0.1266E+02
     16.356  0.1593E+00  0.1269E+02
     16.556  0.0000E+00  0.1269E+02
     16.757  0.7154E-06  0.1269E+02
     16.958  0.1434E+01  0.1298E+02
     17.158  0.8770E+00  0.1315E+02
     17.359  0.7800E+00  0.1331E+02
     17.559  0.2563E-01  0.1331E+02
     17.760  0.9290E-05  0.1331E+02
     17.960  0.8603E+00  0.1349E+02
     18.161  0.7464E-01  0.1350E+02
     18.361  0.2098E-12  0.1350E+02
     18.562  0.5469E-01  0.1351E+02
     18.762  0.8802E+00  0.1369E+02
     18.963  0.1891E-04  0.1369E+02
     19.164  0.3697E-05  0.1369E+02
     19.364  0.6204E+00  0.1381E+02
     19.565  0.2785E+01  0.1437E+02
     19.765  0.1480E+01  0.1467E+02
     19.966  0.9935E+00  0.1487E+02
     20.166  0.1756E+01  0.1522E+02
     20.367  0.1118E+01  0.1544E+02
     20.567  0.9083E+00  0.1562E+02
     20.768  0.3388E+00  0.1569E+02
     20.969  0.5980E+00  0.1581E+02
     21.169  0.9588E+00  0.1601E+02
     21.370  0.9113E+00  0.1619E+02
     21.570  0.1857E+01  0.1656E+02
     21.771  0.1059E-01  0.1656E+02
     21.971  0.2308E-04  0.1656E+02
     22.172  0.8851E+00  0.1674E+02
     22.372  0.4985E-01  0.1675E+02
     22.573  0.9001E+00  0.1693E+02
     22.773  0.1877E+01  0.1731E+02
     22.974  0.6148E+00  0.1743E+02
     23.175  0.1283E+01  0.1769E+02
     23.375  0.3995E-05  0.1769E+02
     23.576  0.5630E+00  0.1780E+02
     23.776  0.9825E+00  0.1800E+02
     23.977  0.1396E-01  0.1800E+02
     24.177  0.3100E+00  0.1806E+02
     24.378  0.8745E+00  0.1824E+02
     24.578  0.6840E+00  0.1837E+02
     24.779  0.2756E-02  0.1838E+02
     24.980  0.1219E+01  0.1862E+02
     25.180  0.2446E-01  0.1863E+02
     25.381  0.1434E+01  0.1891E+02
     25.581  0.1199E+01  0.1915E+02
     25.782  0.1722E+00  0.1919E+02
     25.982  0.8911E+00  0.1937E+02
     26.183  0.9787E+00  0.1956E+02
     26.383  0.3025E+00  0.1962E+02
     26.584  0.2502E+01  0.2012E+02
     26.785  0.7499E-02  0.2013E+02
     26.985  0.9295E+00  0.2031E+02
     27.186  0.9372E+00  0.2050E+02
     27.386  0.3073E+00  0.2056E+02
     27.587  0.4829E-04  0.2056E+02
     27.787  0.0000E+00  0.2056E+02
     27.988  0.0000E+00  0.2056E+02
     28.188  0.0000E+00  0.2056E+02
     28.389  0.3460E-16  0.2056E+02
     28.589  0.3093E-02  0.2056E+02
     28.790  0.6559E+00  0.2069E+02
     28.991  0.2763E+01  0.2125E+02
     29.191  0.9402E+00  0.2144E+02
     29.392  0.4763E+00  0.2153E+02
     29.592  0.4591E+00  0.2162E+02
     29.793  0.3796E-05  0.2163E+02
     29.993  0.2155E+01  0.2206E+02
     30.194  0.1535E+01  0.2237E+02
     30.394  0.1411E+01  0.2265E+02
     30.595  0.5081E+00  0.2275E+02
     30.796  0.7309E-07  0.2275E+02
     30.996  0.6434E+00  0.2288E+02
     31.197  0.1226E+01  0.2312E+02
     31.397  0.8956E+00  0.2330E+02
     31.598  0.1625E+01  0.2363E+02
     31.798  0.2155E+01  0.2406E+02
     31.999  0.1232E+01  0.2431E+02
     32.199  0.1280E+01  0.2457E+02
     32.400  0.4315E+01  0.2543E+02
     32.601  0.1215E+00  0.2546E+02
     32.801  0.2733E+01  0.2600E+02
     33.002  0.9126E+00  0.2619E+02
     33.202  0.8120E+00  0.2635E+02
     33.403  0.1681E+01  0.2669E+02
     33.603  0.1726E-05  0.2669E+02
     33.804  0.0000E+00  0.2669E+02
     34.004  0.0000E+00  0.2669E+02
     34.205  0.0000E+00  0.2669E+02
     34.405  0.0000E+00  0.2669E+02
     34.606  0.8239E-09  0.2669E+02
     34.807  0.3733E+00  0.2676E+02
     35.007  0.2431E+01  0.2725E+02
     35.208  0.3525E-03  0.2725E+02
     35.408  0.8376E+00  0.2742E+02
     35.609  0.2736E+01  0.2797E+02
     35.809  0.7920E+00  0.2813E+02
     36.010  0.3085E+00  0.2819E+02
     36.210  0.4742E-03  0.2819E+02
     36.411  0.1902E+01  0.2857E+02
     36.612  0.9020E+00  0.2875E+02
     36.812  0.1389E+00  0.2878E+02
     37.013  0.4844E+00  0.2888E+02
     37.213  0.1018E+01  0.2908E+02
     37.414  0.8581E+00  0.2925E+02
     37.614  0.9283E+00  0.2944E+02
     37.815  0.7420E+00  0.2959E+02
     38.015  0.1129E+01  0.2981E+02
     38.216  0.8490E+00  0.2998E+02
     38.416  0.8590E-01  0.3000E+02
     38.617  0.4451E-10  0.3000E+02
     38.818  0.2715E+00  0.3005E+02
     39.018  0.3753E+01  0.3081E+02
     39.219  0.2654E-01  0.3081E+02
     39.419  0.0000E+00  0.3081E+02
     39.620  0.0000E+00  0.3081E+02
     39.820  0.1038E-15  0.3081E+02
     40.021  0.5444E-02  0.3081E+02
     40.221  0.9287E+00  0.3100E+02
     40.422  0.7638E-03  0.3100E+02
     40.623  0.6110E-07  0.3100E+02
     40.823  0.2261E+00  0.3105E+02
     41.024  0.1463E+01  0.3134E+02
     41.224  0.3297E+01  0.3200E+02
     41.425  0.2273E-03  0.3200E+02
     41.625  0.0000E+00  0.3200E+02
     41.826  0.0000E+00  0.3200E+02
     42.026  0.0000E+00  0.3200E+02
     42.227  0.0000E+00  0.3200E+02
     42.428  0.0000E+00  0.3200E+02
     42.628  0.0000E+00  0.3200E+02
     42.829  0.0000E+00  0.3200E+02
     43.029  0.0000E+00  0.3200E+02
     43.230  0.0000E+00  0.3200E+02
     43.430  0.0000E+00  0.3200E+02
     43.631  0.0000E+00  0.3200E+02
     43.831  0.0000E+00  0.3200E+02
