<?xml version="1.0" encoding="ISO-8859-1"?>
<modeling>
 <generator>
  <i name="program" type="string">vasp </i>
  <i name="version" type="string">5.4.1  </i>
  <i name="subversion" type="string">24Jun15 (build Jun 05 2017 10:38:15) complex                          parallel </i>
  <i name="platform" type="string">IFC91_ompi </i>
  <i name="date" type="string">2017 10 21 </i>
  <i name="time" type="string">22:33:21 </i>
 </generator>
 <incar>
  <i type="string" name="SYSTEM"> automatically generated by pyflamestk</i>
  <i type="int" name="ISTART">     0</i>
  <i type="string" name="PREC">high                   ! avoid wrap aro</i>
  <i type="string" name="ALGO"> Normal                 ! blocked Davids</i>
  <i type="int" name="ISPIN">     1</i>
  <i type="int" name="ICHARG">     0</i>
  <i type="int" name="NELM">    40</i>
  <i name="EDIFF">      0.00000100</i>
  <i name="ENCUT">    825.00000000</i>
  <i type="logical" name="LREAL"> F  </i>
  <i type="int" name="ISMEAR">     0</i>
  <i name="SIGMA">      0.05000000</i>
  <i type="logical" name="LWAVE"> F  </i>
  <i type="logical" name="LCHARG"> F  </i>
  <i type="logical" name="LVTOT"> F  </i>
  <v type="int" name="KPOINT_BSE">    -1     0     0     0</v>
  <i type="int" name="NELM">    40</i>
 </incar>
 <kpoints>
  <generation param="Monkhorst-Pack">
   <v type="int" name="divisions">       4        4        4 </v>
   <v name="usershift">      0.00000000       0.00000000       0.00000000 </v>
   <v name="genvec1">      0.25000000      -0.00000000      -0.00000000 </v>
   <v name="genvec2">      0.00000000       0.25000000       0.00000000 </v>
   <v name="genvec3">      0.00000000       0.00000000       0.25000000 </v>
   <v name="shift">      0.50000000       0.50000000       0.50000000 </v>
  </generation>
  <varray name="kpointlist" >
   <v>       0.12500000       0.12500000       0.12500000 </v>
   <v>       0.37500000       0.12500000       0.12500000 </v>
   <v>      -0.37500000       0.12500000       0.12500000 </v>
   <v>      -0.12500000       0.12500000       0.12500000 </v>
   <v>       0.37500000       0.37500000       0.12500000 </v>
   <v>      -0.37500000       0.37500000       0.12500000 </v>
   <v>      -0.12500000       0.37500000       0.12500000 </v>
   <v>      -0.37500000      -0.37500000       0.12500000 </v>
   <v>       0.37500000       0.37500000       0.37500000 </v>
   <v>      -0.37500000       0.37500000       0.37500000 </v>
  </varray>
  <varray name="weights" >
   <v>       0.03125000 </v>
   <v>       0.09375000 </v>
   <v>       0.09375000 </v>
   <v>       0.09375000 </v>
   <v>       0.09375000 </v>
   <v>       0.18750000 </v>
   <v>       0.18750000 </v>
   <v>       0.09375000 </v>
   <v>       0.03125000 </v>
   <v>       0.09375000 </v>
  </varray>
 </kpoints>
 <parameters>
  <separator name="general" >
   <i type="string" name="SYSTEM">automatically generated by pyflamestk</i>
   <i type="logical" name="LCOMPAT"> F  </i>
  </separator>
  <separator name="electronic" >
   <i type="string" name="PREC">high</i>
   <i name="ENMAX">    825.00000000</i>
   <i name="ENAUG">    888.80400000</i>
   <i name="EDIFF">      0.00000100</i>
   <i type="int" name="IALGO">    38</i>
   <i type="int" name="IWAVPR">    10</i>
   <i type="int" name="NBANDS">    16</i>
   <i name="NELECT">      8.00000000</i>
   <i type="int" name="TURBO">     0</i>
   <i type="int" name="IRESTART">     0</i>
   <i type="int" name="NREBOOT">     0</i>
   <i type="int" name="NMIN">     0</i>
   <i name="EREF">      0.00000000</i>
   <separator name="electronic smearing" >
    <i type="int" name="ISMEAR">     0</i>
    <i name="SIGMA">      0.05000000</i>
    <i name="KSPACING">      0.50000000</i>
    <i type="logical" name="KGAMMA"> T  </i>
   </separator>
   <separator name="electronic projectors" >
    <i type="logical" name="LREAL"> F  </i>
    <v name="ROPT">      0.00000000      0.00000000</v>
    <i type="int" name="LMAXPAW">  -100</i>
    <i type="int" name="LMAXMIX">     2</i>
    <i type="logical" name="NLSPLINE"> F  </i>
   </separator>
   <separator name="electronic startup" >
    <i type="int" name="ISTART">     0</i>
    <i type="int" name="ICHARG">     0</i>
    <i type="int" name="INIWAV">     1</i>
   </separator>
   <separator name="electronic spin" >
    <i type="int" name="ISPIN">     1</i>
    <i type="logical" name="LNONCOLLINEAR"> F  </i>
    <v name="MAGMOM">      1.00000000      1.00000000</v>
    <i name="NUPDOWN">     -1.00000000</i>
    <i type="logical" name="LSORBIT"> F  </i>
    <v name="SAXIS">      0.00000000      0.00000000      1.00000000</v>
    <i type="logical" name="LSPIRAL"> F  </i>
    <v name="QSPIRAL">      0.00000000      0.00000000      0.00000000</v>
    <i type="logical" name="LZEROZ"> F  </i>
   </separator>
   <separator name="electronic exchange-correlation" >
    <i type="logical" name="LASPH"> F  </i>
    <i type="logical" name="LMETAGGA"> F  </i>
   </separator>
   <separator name="electronic convergence" >
    <i type="int" name="NELM">    40</i>
    <i type="int" name="NELMDL">    -5</i>
    <i type="int" name="NELMIN">     2</i>
    <i name="ENINI">    825.00000000</i>
    <separator name="electronic convergence detail" >
     <i type="logical" name="LDIAG"> T  </i>
     <i type="logical" name="LSUBROT"> F  </i>
     <i name="WEIMIN">      0.00000000</i>
     <i name="EBREAK">      0.00000002</i>
     <i name="DEPER">      0.30000000</i>
     <i type="int" name="NRMM">     4</i>
     <i name="TIME">      0.40000000</i>
    </separator>
   </separator>
   <separator name="electronic mixer" >
    <i name="AMIX">      0.40000000</i>
    <i name="BMIX">      1.00000000</i>
    <i name="AMIN">      0.10000000</i>
    <i name="AMIX_MAG">      1.60000000</i>
    <i name="BMIX_MAG">      1.00000000</i>
    <separator name="electronic mixer details" >
     <i type="int" name="IMIX">     4</i>
     <i type="logical" name="MIXFIRST"> F  </i>
     <i type="int" name="MAXMIX">   -45</i>
     <i name="WC">    100.00000000</i>
     <i type="int" name="INIMIX">     1</i>
     <i type="int" name="MIXPRE">     1</i>
     <i type="int" name="MREMOVE">     5</i>
    </separator>
   </separator>
   <separator name="electronic dipolcorrection" >
    <i type="logical" name="LDIPOL"> F  </i>
    <i type="logical" name="LMONO"> F  </i>
    <i type="int" name="IDIPOL">     0</i>
    <i name="EPSILON">      1.00000000</i>
    <v name="DIPOL">   -100.00000000   -100.00000000   -100.00000000</v>
    <i name="EFIELD">      0.00000000</i>
   </separator>
  </separator>
  <separator name="grids" >
   <i type="int" name="NGX">    28</i>
   <i type="int" name="NGY">    28</i>
   <i type="int" name="NGZ">    28</i>
   <i type="int" name="NGXF">    40</i>
   <i type="int" name="NGYF">    40</i>
   <i type="int" name="NGZF">    40</i>
   <i type="logical" name="ADDGRID"> F  </i>
  </separator>
  <separator name="ionic" >
   <i type="int" name="NSW">     0</i>
   <i type="int" name="IBRION">    -1</i>
   <i type="int" name="ISIF">     2</i>
   <i name="PSTRESS">      0.00000000</i>
   <i name="EDIFFG">      0.00001000</i>
   <i type="int" name="NFREE">     0</i>
   <i name="POTIM">      0.50000000</i>
   <i name="SMASS">     -3.00000000</i>
   <i name="SCALEE">      1.00000000</i>
  </separator>
  <separator name="ionic md" >
   <i name="TEBEG">      0.00010000</i>
   <i name="TEEND">      0.00010000</i>
   <i type="int" name="NBLOCK">     1</i>
   <i type="int" name="KBLOCK">     1</i>
   <i type="int" name="NPACO">   256</i>
   <i name="APACO">     16.00000000</i>
  </separator>
  <separator name="symmetry" >
   <i type="int" name="ISYM">     2</i>
   <i name="SYMPREC">      0.00001000</i>
  </separator>
  <separator name="dos" >
   <i type="logical" name="LORBIT"> F  </i>
   <v name="RWIGS">     -1.00000000     -1.00000000</v>
   <i type="int" name="NEDOS">   301</i>
   <i name="EMIN">     10.00000000</i>
   <i name="EMAX">    -10.00000000</i>
   <i name="EFERMI">      0.00000000</i>
  </separator>
  <separator name="writing" >
   <i type="int" name="NWRITE">     2</i>
   <i type="logical" name="LWAVE"> F  </i>
   <i type="logical" name="LCHARG"> F  </i>
   <i type="logical" name="LPARD"> F  </i>
   <i type="logical" name="LVTOT"> F  </i>
   <i type="logical" name="LVHAR"> F  </i>
   <i type="logical" name="LELF"> F  </i>
   <i type="logical" name="LOPTICS"> F  </i>
   <v name="STM">      0.00000000      0.00000000      0.00000000      0.00000000      0.00000000      0.00000000      0.00000000</v>
  </separator>
  <separator name="performance" >
   <i type="int" name="NPAR">    16</i>
   <i type="int" name="NSIM">     4</i>
   <i type="int" name="NBLK">    -1</i>
   <i type="logical" name="LPLANE"> T  </i>
   <i type="logical" name="LSCALAPACK"> T  </i>
   <i type="logical" name="LSCAAWARE"> F  </i>
   <i type="logical" name="LSCALU"> F  </i>
   <i type="logical" name="LASYNC"> F  </i>
   <i type="logical" name="LORBITALREAL"> F  </i>
  </separator>
  <separator name="miscellaneous" >
   <i type="int" name="IDIOT">     3</i>
   <i type="logical" name="LMUSIC"> F  </i>
   <v name="POMASS">     24.30500000     16.00000000</v>
   <v name="DARWINR">      0.00000000      0.00000000</v>
   <v name="DARWINV">      1.00000000      1.00000000</v>
   <i type="logical" name="LCORR"> T  </i>
  </separator>
  <i type="logical" name="GGA_COMPAT"> T  </i>
  <i type="logical" name="LBERRY"> F  </i>
  <i type="int" name="ICORELEVEL">     0</i>
  <i type="logical" name="LDAU"> F  </i>
  <i type="int" name="I_CONSTRAINED_M">     0</i>
  <separator name="electronic exchange-correlation" >
   <i type="string" name="GGA">--</i>
   <i type="int" name="VOSKOWN">     0</i>
   <i type="logical" name="LHFCALC"> F  </i>
   <i type="string" name="PRECFOCK"></i>
   <i type="logical" name="LSYMGRAD"> F  </i>
   <i type="logical" name="LHFONE"> F  </i>
   <i type="logical" name="LRHFCALC"> F  </i>
   <i type="logical" name="LTHOMAS"> F  </i>
   <i type="logical" name="LMODELHF"> F  </i>
   <i name="ENCUT4O">     -1.00000000</i>
   <i type="int" name="EXXOEP">     0</i>
   <i type="int" name="FOURORBIT">     0</i>
   <i name="AEXX">      0.00000000</i>
   <i name="HFALPHA">      0.00000000</i>
   <i name="MCALPHA">      0.00000000</i>
   <i name="ALDAX">      1.00000000</i>
   <i name="AGGAX">      1.00000000</i>
   <i name="ALDAC">      1.00000000</i>
   <i name="AGGAC">      1.00000000</i>
   <i type="int" name="NKREDX">     1</i>
   <i type="int" name="NKREDY">     1</i>
   <i type="int" name="NKREDZ">     1</i>
   <i type="logical" name="SHIFTRED"> F  </i>
   <i type="logical" name="ODDONLY"> F  </i>
   <i type="logical" name="EVENONLY"> F  </i>
   <i type="int" name="LMAXFOCK">     0</i>
   <i type="int" name="NMAXFOCKAE">     0</i>
   <i type="logical" name="LFOCKAEDFT"> F  </i>
   <i name="HFSCREEN">      0.00000000</i>
   <i name="HFSCREENC">      0.00000000</i>
   <i type="int" name="NBANDSGWLOW">     0</i>
  </separator>
  <separator name="vdW DFT" >
   <i type="logical" name="LUSE_VDW"> F  </i>
   <i name="Zab_VDW">     -0.84910000</i>
   <i name="PARAM1">      0.12340000</i>
   <i name="PARAM2">      1.00000000</i>
   <i name="PARAM3">      0.00000000</i>
  </separator>
  <separator name="model GW" >
   <i type="int" name="MODEL_GW">     0</i>
   <i name="MODEL_EPS0">      5.78381065</i>
   <i name="MODEL_ALPHA">      1.00000000</i>
  </separator>
  <separator name="linear response parameters" >
   <i type="logical" name="LEPSILON"> F  </i>
   <i type="logical" name="LRPA"> F  </i>
   <i type="logical" name="LNABLA"> F  </i>
   <i type="logical" name="LVEL"> F  </i>
   <i type="int" name="KINTER">     0</i>
   <i name="CSHIFT">      0.10000000</i>
   <i name="OMEGAMAX">     -1.00000000</i>
   <i name="DEG_THRESHOLD">      0.00200000</i>
  </separator>
  <separator name="orbital magnetization" >
   <i type="logical" name="NUCIND"> F  </i>
   <v name="MAGPOS">      0.00000000      0.00000000      0.00000000</v>
   <i type="logical" name="LNICSALL"> T  </i>
   <i type="logical" name="ORBITALMAG"> F  </i>
   <i type="logical" name="LMAGBLOCH"> F  </i>
   <i type="logical" name="LCHIMAG"> F  </i>
   <i type="logical" name="LGAUGE"> T  </i>
   <i type="int" name="MAGATOM">     0</i>
   <v name="MAGDIPOL">      0.00000000      0.00000000      0.00000000</v>
   <v name="AVECCONST">      0.00000000      0.00000000      0.00000000</v>
  </separator>
  <separator name="response functions" >
   <i type="logical" name="LADDER"> F  </i>
   <i type="logical" name="LFXC"> F  </i>
   <i type="logical" name="LHARTREE"> T  </i>
   <i type="int" name="IBSE">     0</i>
   <v type="int" name="KPOINT">    -1     0     0     0</v>
   <i type="logical" name="LTCTE"> F  </i>
   <i type="logical" name="LTETE"> F  </i>
   <i type="logical" name="LTRIPLET"> F  </i>
   <i type="logical" name="LFXCEPS"> F  </i>
   <i type="logical" name="LFXHEG"> F  </i>
   <i type="int" name="NATURALO">     0</i>
   <i type="logical" name="L2ORDER"> F  </i>
   <i type="logical" name="LUSEW"> F  </i>
   <i name="ENCUTGW">     -2.00000000</i>
   <i name="ENCUTGWSOFT">     -2.00000000</i>
   <i name="ENCUTLF">     -1.00000000</i>
   <i type="int" name="LMAXMP2">    -1</i>
   <i name="SCISSOR">      0.00000000</i>
   <i type="int" name="NOMEGA">     0</i>
   <i type="int" name="NOMEGAR">     0</i>
   <i type="int" name="NBANDSGW">    -1</i>
   <i type="int" name="NBANDSO">    -1</i>
   <i type="int" name="NBANDSV">    -1</i>
   <i type="int" name="NELM">    40</i>
   <i type="int" name="NELMHF">     1</i>
   <i type="int" name="DIM">     3</i>
   <i type="int" name="ANTIRES">     0</i>
   <i name="OMEGAMAX">    -30.00000000</i>
   <i name="OMEGAMIN">    -30.00000000</i>
   <i name="OMEGATL">   -200.00000000</i>
   <i type="int" name="OMEGAGRID">     0</i>
   <i name="CSHIFT">     -0.10000000</i>
   <i type="logical" name="SELFENERGY"> F  </i>
   <i type="logical" name="LSPECTRAL"> F  </i>
   <i type="logical" name="LSPECTRALGW"> F  </i>
   <i type="logical" name="LSINGLES"> F  </i>
   <i type="logical" name="LFERMIGW"> F  </i>
   <i type="logical" name="ODDONLYGW"> F  </i>
   <i type="logical" name="EVENONLYGW"> F  </i>
   <i type="int" name="NKREDLFX">     1</i>
   <i type="int" name="NKREDLFY">     1</i>
   <i type="int" name="NKREDLFZ">     1</i>
   <i type="int" name="MAXMEM">  1800</i>
   <i type="int" name="TELESCOPE">     0</i>
   <i type="int" name="TAUPAR">     1</i>
   <i type="int" name="OMEGAPAR">    -1</i>
   <i name="LAMBDA">      1.00000000</i>
  </separator>
  <separator name="External order field" >
   <i name="OFIELD_KAPPA">      0.00000000</i>
   <v name="OFIELD_K">      0.00000000      0.00000000      0.00000000</v>
   <i name="OFIELD_Q6_NEAR">      0.00000000</i>
   <i name="OFIELD_Q6_FAR">      0.00000000</i>
   <i name="OFIELD_A">      0.00000000</i>
  </separator>
 </parameters>
 <atominfo>
  <atoms>       2 </atoms>
  <types>       2 </types>
  <array name="atoms" >
   <dimension dim="1">ion</dimension>
   <field type="string">element</field>
   <field type="int">atomtype</field>
   <set>
    <rc><c>Mg</c><c>   1</c></rc>
    <rc><c>O </c><c>   2</c></rc>
   </set>
  </array>
  <array name="atomtypes" >
   <dimension dim="1">type</dimension>
   <field type="int">atomspertype</field>
   <field type="string">element</field>
   <field>mass</field>
   <field>valence</field>
   <field type="string">pseudopotential</field>
   <set>
    <rc><c>   1</c><c>Mg</c><c>     24.30500000</c><c>      2.00000000</c><c>  PAW_PBE Mg 13Apr2007                  </c></rc>
    <rc><c>   1</c><c>O </c><c>     16.00000000</c><c>      6.00000000</c><c>  PAW_PBE O_h 06Feb2004                 </c></rc>
   </set>
  </array>
 </atominfo>
 <structure name="initialpos" >
  <crystal>
   <varray name="basis" >
    <v>       3.00978800       0.00000000       0.00000000 </v>
    <v>       1.50489400       2.60655300       0.00000000 </v>
    <v>       1.50489400       0.86885100       2.45748200 </v>
   </varray>
   <i name="volume">     19.27936883 </i>
   <varray name="rec_basis" >
    <v>       0.33224931      -0.19182422      -0.13564019 </v>
    <v>       0.00000000       0.38364844      -0.13564019 </v>
    <v>       0.00000000       0.00000000       0.40692058 </v>
   </varray>
  </crystal>
  <varray name="positions" >
   <v>       0.00000000       0.00000000       0.00000000 </v>
   <v>       0.50000000       0.50000000       0.50000000 </v>
  </varray>
 </structure>
 <calculation>
  <scstep>
   <time name="dav">    0.07    0.07</time>
   <time name="total">    0.08    0.08</time>
   <energy>
    <i name="alphaZ">     15.79325893 </i>
    <i name="ewald">   -354.45312954 </i>
    <i name="hartreedc">    -21.44487018 </i>
    <i name="XCdc">    -30.82717447 </i>
    <i name="pawpsdc"> 159412.44380522 </i>
    <i name="pawaedc">-159359.15740913 </i>
    <i name="eentropy">     -0.00000000 </i>
    <i name="bandstr">   -384.39409038 </i>
    <i name="atom">    455.37919397 </i>
    <i name="e_fr_energy">   -266.66041557 </i>
    <i name="e_wo_entrp">   -266.66041557 </i>
    <i name="e_0_energy">   -266.66041557 </i>
   </energy>
  </scstep>
  <scstep>
   <time name="dav">    0.07    0.07</time>
   <time name="total">    0.07    0.07</time>
   <energy>
    <i name="e_fr_energy">   -296.99037509 </i>
    <i name="e_wo_entrp">   -296.99037509 </i>
    <i name="e_0_energy">   -296.99037509 </i>
   </energy>
  </scstep>
  <scstep>
   <time name="dav">    0.07    0.07</time>
   <time name="total">    0.07    0.07</time>
   <energy>
    <i name="e_fr_energy">   -297.18083877 </i>
    <i name="e_wo_entrp">   -297.18083877 </i>
    <i name="e_0_energy">   -297.18083877 </i>
   </energy>
  </scstep>
  <scstep>
   <time name="dav">    0.08    0.08</time>
   <time name="total">    0.08    0.08</time>
   <energy>
    <i name="e_fr_energy">   -297.18125274 </i>
    <i name="e_wo_entrp">   -297.18125274 </i>
    <i name="e_0_energy">   -297.18125274 </i>
   </energy>
  </scstep>
  <scstep>
   <time name="dav">    0.07    0.07</time>
   <time name="total">    0.08    0.08</time>
   <energy>
    <i name="e_fr_energy">   -297.18125281 </i>
    <i name="e_wo_entrp">   -297.18125281 </i>
    <i name="e_0_energy">   -297.18125281 </i>
   </energy>
  </scstep>
  <scstep>
   <time name="dav">    0.05    0.05</time>
   <time name="total">    0.06    0.07</time>
   <energy>
    <i name="e_fr_energy">    -63.53224980 </i>
    <i name="e_wo_entrp">    -63.53224980 </i>
    <i name="e_0_energy">    -63.53224980 </i>
   </energy>
  </scstep>
  <scstep>
   <time name="dav">    0.07    0.07</time>
   <time name="total">    0.09    0.09</time>
   <energy>
    <i name="e_fr_energy">    -22.16582769 </i>
    <i name="e_wo_entrp">    -22.16582769 </i>
    <i name="e_0_energy">    -22.16582769 </i>
   </energy>
  </scstep>
  <scstep>
   <time name="dav">    0.05    0.05</time>
   <time name="total">    0.06    0.07</time>
   <energy>
    <i name="e_fr_energy">    -20.93893525 </i>
    <i name="e_wo_entrp">    -20.93893525 </i>
    <i name="e_0_energy">    -20.93893525 </i>
   </energy>
  </scstep>
  <scstep>
   <time name="dav">    0.05    0.05</time>
   <time name="total">    0.06    0.07</time>
   <energy>
    <i name="e_fr_energy">    -11.95209948 </i>
    <i name="e_wo_entrp">    -11.95209948 </i>
    <i name="e_0_energy">    -11.95209948 </i>
   </energy>
  </scstep>
  <scstep>
   <time name="dav">    0.06    0.06</time>
   <time name="total">    0.08    0.08</time>
   <energy>
    <i name="e_fr_energy">    -11.97635068 </i>
    <i name="e_wo_entrp">    -11.97635068 </i>
    <i name="e_0_energy">    -11.97635068 </i>
   </energy>
  </scstep>
  <scstep>
   <time name="dav">    0.05    0.05</time>
   <time name="total">    0.07    0.07</time>
   <energy>
    <i name="e_fr_energy">    -11.92132873 </i>
    <i name="e_wo_entrp">    -11.92132873 </i>
    <i name="e_0_energy">    -11.92132873 </i>
   </energy>
  </scstep>
  <scstep>
   <time name="dav">    0.06    0.06</time>
   <time name="total">    0.08    0.09</time>
   <energy>
    <i name="e_fr_energy">    -11.91736420 </i>
    <i name="e_wo_entrp">    -11.91736420 </i>
    <i name="e_0_energy">    -11.91736420 </i>
   </energy>
  </scstep>
  <scstep>
   <time name="dav">    0.06    0.06</time>
   <time name="total">    0.08    0.08</time>
   <energy>
    <i name="e_fr_energy">    -11.91739525 </i>
    <i name="e_wo_entrp">    -11.91739525 </i>
    <i name="e_0_energy">    -11.91739525 </i>
   </energy>
  </scstep>
  <scstep>
   <time name="dav">    0.07    0.07</time>
   <time name="total">    0.09    0.09</time>
   <energy>
    <i name="e_fr_energy">    -11.91737319 </i>
    <i name="e_wo_entrp">    -11.91737319 </i>
    <i name="e_0_energy">    -11.91737319 </i>
   </energy>
  </scstep>
  <scstep>
   <time name="dav">    0.05    0.05</time>
   <time name="total">    0.07    0.07</time>
   <energy>
    <i name="e_fr_energy">    -11.91737250 </i>
    <i name="e_wo_entrp">    -11.91737250 </i>
    <i name="e_0_energy">    -11.91737250 </i>
   </energy>
  </scstep>
  <scstep>
   <time name="dav">    0.03    0.03</time>
   <time name="total">    0.03    0.04</time>
   <energy>
    <i name="alphaZ">     15.79325893 </i>
    <i name="ewald">   -354.45312954 </i>
    <i name="hartreedc">   -141.79923323 </i>
    <i name="XCdc">    -20.67733378 </i>
    <i name="pawpsdc">    668.38869081 </i>
    <i name="pawaedc">   -617.99937949 </i>
    <i name="eentropy">     -0.00000000 </i>
    <i name="bandstr">    -16.54944013 </i>
    <i name="atom">    455.37919397 </i>
    <i name="e_fr_energy">    -11.91737245 </i>
    <i name="e_wo_entrp">    -11.91737245 </i>
    <i name="e_0_energy">    -11.91737245 </i>
   </energy>
  </scstep>
  <structure>
   <crystal>
    <varray name="basis" >
     <v>       3.00978800       0.00000000       0.00000000 </v>
     <v>       1.50489400       2.60655300       0.00000000 </v>
     <v>       1.50489400       0.86885100       2.45748200 </v>
    </varray>
    <i name="volume">     19.27936883 </i>
    <varray name="rec_basis" >
     <v>       0.33224931      -0.19182422      -0.13564019 </v>
     <v>       0.00000000       0.38364844      -0.13564019 </v>
     <v>       0.00000000       0.00000000       0.40692058 </v>
    </varray>
   </crystal>
   <varray name="positions" >
    <v>       0.00000000       0.00000000       0.00000000 </v>
    <v>       0.50000000       0.50000000       0.50000000 </v>
   </varray>
  </structure>
  <varray name="forces" >
   <v>      -0.00000000       0.00000000      -0.00000000 </v>
   <v>       0.00000000      -0.00000000       0.00000000 </v>
  </varray>
  <varray name="stress" >
   <v>     -30.21772644      -0.00000000       0.00000000 </v>
   <v>      -0.00000000     -30.21772950      -0.00000000 </v>
   <v>       0.00000000      -0.00000000     -30.21773600 </v>
  </varray>
  <energy>
   <i name="e_fr_energy">    -11.91737245 </i>
   <i name="e_wo_entrp">    -11.91737245 </i>
   <i name="e_0_energy">     -0.00000000 </i>
  </energy>
  <time name="totalsc">    1.24    1.29</time>
  <eigenvalues>
   <array>
    <dimension dim="1">band</dimension>
    <dimension dim="2">kpoint</dimension>
    <dimension dim="3">spin</dimension>
    <field>eigene</field>
    <field>occ</field>
    <set>
     <set comment="spin 1">
      <set comment="kpoint 1">
       <r>  -13.5992    1.0000 </r>
       <r>    2.4115    1.0000 </r>
       <r>    3.2570    1.0000 </r>
       <r>    3.2570    1.0000 </r>
       <r>    8.6985    0.0000 </r>
       <r>   17.3095    0.0000 </r>
       <r>   19.3184    0.0000 </r>
       <r>   19.3184    0.0000 </r>
       <r>   23.5298    0.0000 </r>
       <r>   23.5298    0.0000 </r>
       <r>   24.8635    0.0000 </r>
       <r>   27.2587    0.0000 </r>
       <r>   28.6806    0.0000 </r>
       <r>   28.6806    0.0000 </r>
       <r>   38.8940    0.0000 </r>
       <r>   40.8019    0.0000 </r>
      </set>
      <set comment="kpoint 2">
       <r>  -12.9503    1.0000 </r>
       <r>    0.2541    1.0000 </r>
       <r>    2.4026    1.0000 </r>
       <r>    2.9625    1.0000 </r>
       <r>   11.1171    0.0000 </r>
       <r>   15.2404    0.0000 </r>
       <r>   18.6173    0.0000 </r>
       <r>   20.2911    0.0000 </r>
       <r>   22.1148    0.0000 </r>
       <r>   24.3301    0.0000 </r>
       <r>   26.4084    0.0000 </r>
       <r>   31.0601    0.0000 </r>
       <r>   32.3148    0.0000 </r>
       <r>   33.2069    0.0000 </r>
       <r>   35.5737    0.0000 </r>
       <r>   38.8460    0.0000 </r>
      </set>
      <set comment="kpoint 3">
       <r>  -12.5169    1.0000 </r>
       <r>   -0.8670    1.0000 </r>
       <r>    2.2538    1.0000 </r>
       <r>    2.6255    1.0000 </r>
       <r>   11.7231    0.0000 </r>
       <r>   15.4177    0.0000 </r>
       <r>   17.9106    0.0000 </r>
       <r>   19.7215    0.0000 </r>
       <r>   23.6981    0.0000 </r>
       <r>   25.9478    0.0000 </r>
       <r>   26.0242    0.0000 </r>
       <r>   32.2848    0.0000 </r>
       <r>   32.8710    0.0000 </r>
       <r>   33.2390    0.0000 </r>
       <r>   35.7938    0.0000 </r>
       <r>   37.5019    0.0000 </r>
      </set>
      <set comment="kpoint 4">
       <r>  -13.2377    1.0000 </r>
       <r>    1.1356    1.0000 </r>
       <r>    2.8897    1.0000 </r>
       <r>    2.8934    1.0000 </r>
       <r>   10.2856    0.0000 </r>
       <r>   15.4968    0.0000 </r>
       <r>   19.4184    0.0000 </r>
       <r>   19.9060    0.0000 </r>
       <r>   21.0704    0.0000 </r>
       <r>   24.9109    0.0000 </r>
       <r>   26.8698    0.0000 </r>
       <r>   29.9512    0.0000 </r>
       <r>   30.2589    0.0000 </r>
       <r>   30.9822    0.0000 </r>
       <r>   37.1777    0.0000 </r>
       <r>   38.9507    0.0000 </r>
      </set>
      <set comment="kpoint 5">
       <r>  -12.7159    1.0000 </r>
       <r>    0.0709    1.0000 </r>
       <r>    2.2030    1.0000 </r>
       <r>    2.4343    1.0000 </r>
       <r>   12.2132    0.0000 </r>
       <r>   13.9077    0.0000 </r>
       <r>   17.1606    0.0000 </r>
       <r>   20.7804    0.0000 </r>
       <r>   21.2355    0.0000 </r>
       <r>   27.0833    0.0000 </r>
       <r>   30.1456    0.0000 </r>
       <r>   30.3983    0.0000 </r>
       <r>   32.3283    0.0000 </r>
       <r>   34.8188    0.0000 </r>
       <r>   36.4650    0.0000 </r>
       <r>   37.8685    0.0000 </r>
      </set>
      <set comment="kpoint 6">
       <r>  -12.3067    1.0000 </r>
       <r>   -0.0420    1.0000 </r>
       <r>    0.9517    1.0000 </r>
       <r>    2.0255    1.0000 </r>
       <r>   13.7582    0.0000 </r>
       <r>   14.7668    0.0000 </r>
       <r>   15.5614    0.0000 </r>
       <r>   19.5464    0.0000 </r>
       <r>   22.9912    0.0000 </r>
       <r>   26.4446    0.0000 </r>
       <r>   29.9737    0.0000 </r>
       <r>   31.3991    0.0000 </r>
       <r>   32.6683    0.0000 </r>
       <r>   36.3334    0.0000 </r>
       <r>   38.8808    0.0000 </r>
       <r>   41.0857    0.0000 </r>
      </set>
      <set comment="kpoint 7">
       <r>  -12.5615    1.0000 </r>
       <r>   -0.2468    1.0000 </r>
       <r>    1.6895    1.0000 </r>
       <r>    2.5242    1.0000 </r>
       <r>   12.5829    0.0000 </r>
       <r>   14.7895    0.0000 </r>
       <r>   16.9318    0.0000 </r>
       <r>   20.1176    0.0000 </r>
       <r>   22.6965    0.0000 </r>
       <r>   25.3549    0.0000 </r>
       <r>   28.8632    0.0000 </r>
       <r>   31.6298    0.0000 </r>
       <r>   32.2327    0.0000 </r>
       <r>   34.8813    0.0000 </r>
       <r>   35.5241    0.0000 </r>
       <r>   41.0064    0.0000 </r>
      </set>
      <set comment="kpoint 8">
       <r>  -12.3425    1.0000 </r>
       <r>   -0.4042    1.0000 </r>
       <r>    1.6876    1.0000 </r>
       <r>    2.1415    1.0000 </r>
       <r>   12.8535    0.0000 </r>
       <r>   13.4858    0.0000 </r>
       <r>   16.0086    0.0000 </r>
       <r>   21.4729    0.0000 </r>
       <r>   21.4856    0.0000 </r>
       <r>   28.9130    0.0000 </r>
       <r>   29.3909    0.0000 </r>
       <r>   31.9635    0.0000 </r>
       <r>   32.6604    0.0000 </r>
       <r>   37.7933    0.0000 </r>
       <r>   38.1690    0.0000 </r>
       <r>   41.0966    0.0000 </r>
      </set>
      <set comment="kpoint 9">
       <r>  -12.7522    1.0000 </r>
       <r>   -0.6004    1.0000 </r>
       <r>    2.8193    1.0000 </r>
       <r>    2.8193    1.0000 </r>
       <r>   10.9290    0.0000 </r>
       <r>   15.4310    0.0000 </r>
       <r>   19.5246    0.0000 </r>
       <r>   19.5246    0.0000 </r>
       <r>   24.0704    0.0000 </r>
       <r>   24.4422    0.0000 </r>
       <r>   24.4422    0.0000 </r>
       <r>   31.8983    0.0000 </r>
       <r>   33.2103    0.0000 </r>
       <r>   33.2103    0.0000 </r>
       <r>   36.8390    0.0000 </r>
       <r>   36.8390    0.0000 </r>
      </set>
      <set comment="kpoint 10">
       <r>  -12.3899    1.0000 </r>
       <r>   -0.2835    1.0000 </r>
       <r>    1.0569    1.0000 </r>
       <r>    2.4942    1.0000 </r>
       <r>   13.0732    0.0000 </r>
       <r>   15.2317    0.0000 </r>
       <r>   16.1216    0.0000 </r>
       <r>   20.4270    0.0000 </r>
       <r>   22.5101    0.0000 </r>
       <r>   25.5494    0.0000 </r>
       <r>   29.0755    0.0000 </r>
       <r>   31.6133    0.0000 </r>
       <r>   32.0362    0.0000 </r>
       <r>   35.3639    0.0000 </r>
       <r>   37.2374    0.0000 </r>
       <r>   40.1101    0.0000 </r>
      </set>
     </set>
    </set>
   </array>
  </eigenvalues>
  <separator name="orbital magnetization" >
   <v name="MAGDIPOLOUT">      0.00000000      0.00000000      0.00000000</v>
  </separator>
  <dos>
   <i name="efermi">      3.54564518 </i>
   <total>
    <array>
     <dimension dim="1">gridpoints</dimension>
     <dimension dim="2">spin</dimension>
     <field>energy</field>
     <field>total</field>
     <field>integrated</field>
     <set>
      <set comment="spin 1">
       <r>   -16.3340     0.0000     0.0000 </r>
       <r>   -16.1334     0.0000     0.0000 </r>
       <r>   -15.9329     0.0000     0.0000 </r>
       <r>   -15.7323     0.0000     0.0000 </r>
       <r>   -15.5318     0.0000     0.0000 </r>
       <r>   -15.3312     0.0000     0.0000 </r>
       <r>   -15.1307     0.0000     0.0000 </r>
       <r>   -14.9301     0.0000     0.0000 </r>
       <r>   -14.7296     0.0000     0.0000 </r>
       <r>   -14.5290     0.0000     0.0000 </r>
       <r>   -14.3285     0.0000     0.0000 </r>
       <r>   -14.1279     0.0000     0.0000 </r>
       <r>   -13.9274     0.0000     0.0000 </r>
       <r>   -13.7268     0.0000     0.0000 </r>
       <r>   -13.5263     0.3055     0.0613 </r>
       <r>   -13.3257     0.0121     0.0637 </r>
       <r>   -13.1252     0.9283     0.2499 </r>
       <r>   -12.9246     0.7172     0.3937 </r>
       <r>   -12.7241     0.8452     0.5632 </r>
       <r>   -12.5235     2.6233     1.0893 </r>
       <r>   -12.3230     2.9767     1.6863 </r>
       <r>   -12.1224     1.5643     2.0000 </r>
       <r>   -11.9219     0.0000     2.0000 </r>
       <r>   -11.7213     0.0000     2.0000 </r>
       <r>   -11.5208     0.0000     2.0000 </r>
       <r>   -11.3202     0.0000     2.0000 </r>
       <r>   -11.1197     0.0000     2.0000 </r>
       <r>   -10.9191     0.0000     2.0000 </r>
       <r>   -10.7186     0.0000     2.0000 </r>
       <r>   -10.5180     0.0000     2.0000 </r>
       <r>   -10.3175     0.0000     2.0000 </r>
       <r>   -10.1169     0.0000     2.0000 </r>
       <r>    -9.9164     0.0000     2.0000 </r>
       <r>    -9.7158     0.0000     2.0000 </r>
       <r>    -9.5153     0.0000     2.0000 </r>
       <r>    -9.3147     0.0000     2.0000 </r>
       <r>    -9.1142     0.0000     2.0000 </r>
       <r>    -8.9136     0.0000     2.0000 </r>
       <r>    -8.7131     0.0000     2.0000 </r>
       <r>    -8.5125     0.0000     2.0000 </r>
       <r>    -8.3119     0.0000     2.0000 </r>
       <r>    -8.1114     0.0000     2.0000 </r>
       <r>    -7.9108     0.0000     2.0000 </r>
       <r>    -7.7103     0.0000     2.0000 </r>
       <r>    -7.5097     0.0000     2.0000 </r>
       <r>    -7.3092     0.0000     2.0000 </r>
       <r>    -7.1086     0.0000     2.0000 </r>
       <r>    -6.9081     0.0000     2.0000 </r>
       <r>    -6.7075     0.0000     2.0000 </r>
       <r>    -6.5070     0.0000     2.0000 </r>
       <r>    -6.3064     0.0000     2.0000 </r>
       <r>    -6.1059     0.0000     2.0000 </r>
       <r>    -5.9053     0.0000     2.0000 </r>
       <r>    -5.7048     0.0000     2.0000 </r>
       <r>    -5.5042     0.0000     2.0000 </r>
       <r>    -5.3037     0.0000     2.0000 </r>
       <r>    -5.1031     0.0000     2.0000 </r>
       <r>    -4.9026     0.0000     2.0000 </r>
       <r>    -4.7020     0.0000     2.0000 </r>
       <r>    -4.5015     0.0000     2.0000 </r>
       <r>    -4.3009     0.0000     2.0000 </r>
       <r>    -4.1004     0.0000     2.0000 </r>
       <r>    -3.8998     0.0000     2.0000 </r>
       <r>    -3.6993     0.0000     2.0000 </r>
       <r>    -3.4987     0.0000     2.0000 </r>
       <r>    -3.2982     0.0000     2.0000 </r>
       <r>    -3.0976     0.0000     2.0000 </r>
       <r>    -2.8971     0.0000     2.0000 </r>
       <r>    -2.6965     0.0000     2.0000 </r>
       <r>    -2.4960     0.0000     2.0000 </r>
       <r>    -2.2954     0.0000     2.0000 </r>
       <r>    -2.0949     0.0000     2.0000 </r>
       <r>    -1.8943     0.0000     2.0000 </r>
       <r>    -1.6938     0.0000     2.0000 </r>
       <r>    -1.4932     0.0000     2.0000 </r>
       <r>    -1.2927     0.0000     2.0000 </r>
       <r>    -1.0921     0.0000     2.0000 </r>
       <r>    -0.8916     0.2275     2.0456 </r>
       <r>    -0.6910     0.7090     2.1878 </r>
       <r>    -0.4904     0.3166     2.2513 </r>
       <r>    -0.2899     1.5365     2.5595 </r>
       <r>    -0.0893     2.3650     3.0338 </r>
       <r>     0.1112     2.5177     3.5387 </r>
       <r>     0.3118     1.0053     3.7403 </r>
       <r>     0.5123     0.0483     3.7500 </r>
       <r>     0.7129     0.0000     3.7500 </r>
       <r>     0.9134     0.2611     3.8024 </r>
       <r>     1.1140     2.7463     4.3531 </r>
       <r>     1.3145     0.7322     4.5000 </r>
       <r>     1.5151     0.0000     4.5000 </r>
       <r>     1.7156     2.1738     4.9360 </r>
       <r>     1.9162     0.6328     5.0629 </r>
       <r>     2.1167     2.0918     5.4824 </r>
       <r>     2.3173     2.5555     5.9949 </r>
       <r>     2.5178     3.6991     6.7368 </r>
       <r>     2.7184     2.2448     7.1870 </r>
       <r>     2.9189     2.1853     7.6252 </r>
       <r>     3.1195     1.2455     7.8750 </r>
       <r>     3.3200     0.6000     7.9953 </r>
       <r>     3.5206     0.0232     8.0000 </r>
       <r>     3.7211     0.0000     8.0000 </r>
       <r>     3.9217     0.0000     8.0000 </r>
       <r>     4.1222     0.0000     8.0000 </r>
       <r>     4.3228     0.0000     8.0000 </r>
       <r>     4.5233     0.0000     8.0000 </r>
       <r>     4.7239     0.0000     8.0000 </r>
       <r>     4.9244     0.0000     8.0000 </r>
       <r>     5.1250     0.0000     8.0000 </r>
       <r>     5.3255     0.0000     8.0000 </r>
       <r>     5.5261     0.0000     8.0000 </r>
       <r>     5.7266     0.0000     8.0000 </r>
       <r>     5.9272     0.0000     8.0000 </r>
       <r>     6.1277     0.0000     8.0000 </r>
       <r>     6.3283     0.0000     8.0000 </r>
       <r>     6.5288     0.0000     8.0000 </r>
       <r>     6.7294     0.0000     8.0000 </r>
       <r>     6.9299     0.0000     8.0000 </r>
       <r>     7.1305     0.0000     8.0000 </r>
       <r>     7.3311     0.0000     8.0000 </r>
       <r>     7.5316     0.0000     8.0000 </r>
       <r>     7.7322     0.0000     8.0000 </r>
       <r>     7.9327     0.0000     8.0000 </r>
       <r>     8.1333     0.0000     8.0000 </r>
       <r>     8.3338     0.0000     8.0000 </r>
       <r>     8.5344     0.0000     8.0000 </r>
       <r>     8.7349     0.2643     8.0530 </r>
       <r>     8.9355     0.0473     8.0625 </r>
       <r>     9.1360     0.0000     8.0625 </r>
       <r>     9.3366     0.0000     8.0625 </r>
       <r>     9.5371     0.0000     8.0625 </r>
       <r>     9.7377     0.0000     8.0625 </r>
       <r>     9.9382     0.0000     8.0625 </r>
       <r>    10.1388     0.0000     8.0625 </r>
       <r>    10.3393     0.8747     8.2379 </r>
       <r>    10.5399     0.0602     8.2500 </r>
       <r>    10.7404     0.0000     8.2500 </r>
       <r>    10.9410     0.1972     8.2895 </r>
       <r>    11.1415     0.8201     8.4540 </r>
       <r>    11.3421     0.2292     8.5000 </r>
       <r>    11.5426     0.0000     8.5000 </r>
       <r>    11.7432     0.6688     8.6341 </r>
       <r>    11.9437     0.2661     8.6875 </r>
       <r>    12.1443     0.0240     8.6923 </r>
       <r>    12.3448     0.9109     8.8750 </r>
       <r>    12.5454     0.2700     8.9291 </r>
       <r>    12.7459     1.6011     9.2502 </r>
       <r>    12.9465     0.9300     9.4367 </r>
       <r>    13.1470     0.9215     9.6215 </r>
       <r>    13.3476     0.0173     9.6250 </r>
       <r>    13.5481     0.8986     9.8052 </r>
       <r>    13.7487     0.7738     9.9604 </r>
       <r>    13.9492     1.9552    10.3525 </r>
       <r>    14.1498     0.1121    10.3750 </r>
       <r>    14.3503     0.0000    10.3750 </r>
       <r>    14.5509     0.0000    10.3750 </r>
       <r>    14.7514     0.8840    10.5523 </r>
       <r>    14.9520     2.8557    11.1250 </r>
       <r>    15.1526     0.0178    11.1286 </r>
       <r>    15.3531     1.8870    11.5070 </r>
       <r>    15.5537     2.8693    12.0825 </r>
       <r>    15.7542     1.1470    12.3125 </r>
       <r>    15.9548     0.0598    12.3245 </r>
       <r>    16.1553     1.6508    12.6556 </r>
       <r>    16.3559     0.1593    12.6875 </r>
       <r>    16.5564     0.0000    12.6875 </r>
       <r>    16.7570     0.0000    12.6875 </r>
       <r>    16.9575     1.4338    12.9751 </r>
       <r>    17.1581     0.8770    13.1509 </r>
       <r>    17.3586     0.7800    13.3074 </r>
       <r>    17.5592     0.0256    13.3125 </r>
       <r>    17.7597     0.0000    13.3125 </r>
       <r>    17.9603     0.8603    13.4850 </r>
       <r>    18.1608     0.0746    13.5000 </r>
       <r>    18.3614     0.0000    13.5000 </r>
       <r>    18.5619     0.0547    13.5110 </r>
       <r>    18.7625     0.8802    13.6875 </r>
       <r>    18.9630     0.0000    13.6875 </r>
       <r>    19.1636     0.0000    13.6875 </r>
       <r>    19.3641     0.6204    13.8119 </r>
       <r>    19.5647     2.7853    14.3705 </r>
       <r>    19.7652     1.4795    14.6672 </r>
       <r>    19.9658     0.9935    14.8665 </r>
       <r>    20.1663     1.7555    15.2186 </r>
       <r>    20.3669     1.1183    15.4428 </r>
       <r>    20.5674     0.9083    15.6250 </r>
       <r>    20.7680     0.3388    15.6929 </r>
       <r>    20.9685     0.5980    15.8129 </r>
       <r>    21.1691     0.9588    16.0052 </r>
       <r>    21.3696     0.9113    16.1879 </r>
       <r>    21.5702     1.8572    16.5604 </r>
       <r>    21.7707     0.0106    16.5625 </r>
       <r>    21.9713     0.0000    16.5625 </r>
       <r>    22.1718     0.8851    16.7400 </r>
       <r>    22.3724     0.0499    16.7500 </r>
       <r>    22.5729     0.9001    16.9305 </r>
       <r>    22.7735     1.8770    17.3070 </r>
       <r>    22.9741     0.6148    17.4303 </r>
       <r>    23.1746     1.2826    17.6875 </r>
       <r>    23.3752     0.0000    17.6875 </r>
       <r>    23.5757     0.5630    17.8004 </r>
       <r>    23.7763     0.9825    17.9975 </r>
       <r>    23.9768     0.0140    18.0003 </r>
       <r>    24.1774     0.3100    18.0624 </r>
       <r>    24.3779     0.8745    18.2378 </r>
       <r>    24.5785     0.6840    18.3750 </r>
       <r>    24.7790     0.0028    18.3755 </r>
       <r>    24.9796     1.2194    18.6201 </r>
       <r>    25.1801     0.0245    18.6250 </r>
       <r>    25.3807     1.4337    18.9125 </r>
       <r>    25.5812     1.1989    19.1530 </r>
       <r>    25.7818     0.1722    19.1875 </r>
       <r>    25.9823     0.8911    19.3662 </r>
       <r>    26.1829     0.9787    19.5625 </r>
       <r>    26.3834     0.3025    19.6232 </r>
       <r>    26.5840     2.5022    20.1250 </r>
       <r>    26.7845     0.0075    20.1265 </r>
       <r>    26.9851     0.9295    20.3129 </r>
       <r>    27.1856     0.9372    20.5009 </r>
       <r>    27.3862     0.3073    20.5625 </r>
       <r>    27.5867     0.0000    20.5625 </r>
       <r>    27.7873     0.0000    20.5625 </r>
       <r>    27.9878     0.0000    20.5625 </r>
       <r>    28.1884     0.0000    20.5625 </r>
       <r>    28.3889     0.0000    20.5625 </r>
       <r>    28.5895     0.0031    20.5631 </r>
       <r>    28.7900     0.6559    20.6947 </r>
       <r>    28.9906     2.7633    21.2488 </r>
       <r>    29.1911     0.9402    21.4374 </r>
       <r>    29.3917     0.4763    21.5329 </r>
       <r>    29.5922     0.4591    21.6250 </r>
       <r>    29.7928     0.0000    21.6250 </r>
       <r>    29.9933     2.1553    22.0573 </r>
       <r>    30.1939     1.5349    22.3651 </r>
       <r>    30.3944     1.4112    22.6481 </r>
       <r>    30.5950     0.5081    22.7500 </r>
       <r>    30.7955     0.0000    22.7500 </r>
       <r>    30.9961     0.6434    22.8790 </r>
       <r>    31.1967     1.2264    23.1250 </r>
       <r>    31.3972     0.8956    23.3046 </r>
       <r>    31.5978     1.6247    23.6304 </r>
       <r>    31.7983     2.1551    24.0626 </r>
       <r>    31.9989     1.2324    24.3098 </r>
       <r>    32.1994     1.2800    24.5665 </r>
       <r>    32.4000     4.3150    25.4319 </r>
       <r>    32.6005     0.1215    25.4563 </r>
       <r>    32.8011     2.7334    26.0045 </r>
       <r>    33.0016     0.9126    26.1875 </r>
       <r>    33.2022     0.8120    26.3503 </r>
       <r>    33.4027     1.6812    26.6875 </r>
       <r>    33.6033     0.0000    26.6875 </r>
       <r>    33.8038     0.0000    26.6875 </r>
       <r>    34.0044     0.0000    26.6875 </r>
       <r>    34.2049     0.0000    26.6875 </r>
       <r>    34.4055     0.0000    26.6875 </r>
       <r>    34.6060     0.0000    26.6875 </r>
       <r>    34.8066     0.3733    26.7624 </r>
       <r>    35.0071     2.4311    27.2499 </r>
       <r>    35.2077     0.0004    27.2500 </r>
       <r>    35.4082     0.8376    27.4180 </r>
       <r>    35.6088     2.7365    27.9668 </r>
       <r>    35.8093     0.7920    28.1256 </r>
       <r>    36.0099     0.3085    28.1875 </r>
       <r>    36.2104     0.0005    28.1876 </r>
       <r>    36.4110     1.9023    28.5691 </r>
       <r>    36.6115     0.9020    28.7500 </r>
       <r>    36.8121     0.1389    28.7779 </r>
       <r>    37.0126     0.4844    28.8750 </r>
       <r>    37.2132     1.0177    29.0791 </r>
       <r>    37.4137     0.8581    29.2512 </r>
       <r>    37.6143     0.9283    29.4374 </r>
       <r>    37.8148     0.7420    29.5862 </r>
       <r>    38.0154     1.1286    29.8125 </r>
       <r>    38.2159     0.8490    29.9828 </r>
       <r>    38.4165     0.0859    30.0000 </r>
       <r>    38.6170     0.0000    30.0000 </r>
       <r>    38.8176     0.2715    30.0544 </r>
       <r>    39.0182     3.7533    30.8072 </r>
       <r>    39.2187     0.0265    30.8125 </r>
       <r>    39.4193     0.0000    30.8125 </r>
       <r>    39.6198     0.0000    30.8125 </r>
       <r>    39.8204     0.0000    30.8125 </r>
       <r>    40.0209     0.0054    30.8136 </r>
       <r>    40.2215     0.9287    30.9998 </r>
       <r>    40.4220     0.0008    31.0000 </r>
       <r>    40.6226     0.0000    31.0000 </r>
       <r>    40.8231     0.2261    31.0454 </r>
       <r>    41.0237     1.4634    31.3388 </r>
       <r>    41.2242     3.2965    32.0000 </r>
       <r>    41.4248     0.0002    32.0000 </r>
       <r>    41.6253     0.0000    32.0000 </r>
       <r>    41.8259     0.0000    32.0000 </r>
       <r>    42.0264     0.0000    32.0000 </r>
       <r>    42.2270     0.0000    32.0000 </r>
       <r>    42.4275     0.0000    32.0000 </r>
       <r>    42.6281     0.0000    32.0000 </r>
       <r>    42.8286     0.0000    32.0000 </r>
       <r>    43.0292     0.0000    32.0000 </r>
       <r>    43.2297     0.0000    32.0000 </r>
       <r>    43.4303     0.0000    32.0000 </r>
       <r>    43.6308     0.0000    32.0000 </r>
       <r>    43.8314     0.0000    32.0000 </r>
      </set>
     </set>
    </array>
   </total>
  </dos>
 </calculation>
 <structure name="finalpos" >
  <crystal>
   <varray name="basis" >
    <v>       3.00978800       0.00000000       0.00000000 </v>
    <v>       1.50489400       2.60655300       0.00000000 </v>
    <v>       1.50489400       0.86885100       2.45748200 </v>
   </varray>
   <i name="volume">     19.27936883 </i>
   <varray name="rec_basis" >
    <v>       0.33224931      -0.19182422      -0.13564019 </v>
    <v>       0.00000000       0.38364844      -0.13564019 </v>
    <v>       0.00000000       0.00000000       0.40692058 </v>
   </varray>
  </crystal>
  <varray name="positions" >
   <v>       0.00000000       0.00000000       0.00000000 </v>
   <v>       0.50000000       0.50000000       0.50000000 </v>
  </varray>
 </structure>
</modeling>
