LAMMPS (11 Aug 2017)
# ---- initialize simulations
clear
units metal
dimension 3
boundary p p p
atom_style atomic
atom_modify map array
# ---- create atoms
read_data /ufrc/phillpot/eragasa/pareto_optimization_3.5NN/rank_15/Ni_fcc_111_s.lmps_min_pos/lammps.structure
  triclinic box = (0 0 0) to (2.3733 4.1107 34.8744) with tilt (0 0 -0.0004)
  1 by 1 by 1 MPI processor grid
  reading atoms ...
  18 atoms
# ---- define interatomic potential
include potential.mod
mass 1 58.6934

group Ni type 1
18 atoms in group Ni

pair_style eam/alloy
pair_coeff * * /ufrc/phillpot/eragasa/pareto_optimization_3.5NN/rank_15/Ni_fcc_111_s.lmps_min_pos/Ni.eam.alloy Ni

neighbor 1.0 bin
neigh_modify every 1 delay 0 check yes
# ---- define settings
compute eng all pe/atom
compute eatoms all reduce sum c_eng

# ---- run minimization
reset_timestep 0
thermo 1
thermo_style custom step pe lx ly lz xy xz yz press pxx pyy pzz pxy pxz pyz c_eatoms
min_style cg
minimize 1e-20 1e-20 1000 100000
Neighbor list info ...
  update every 1 steps, delay 0 steps, check yes
  max neighbors/atom: 2000, page size: 100000
  master list distance cutoff = 5.64464
  ghost atom cutoff = 5.64464
  binsize = 2.82232, bins = 1 2 13
  1 neighbor lists, perpetual/occasional/extra = 1 0 0
  (1) pair eam/alloy, perpetual
      attributes: half, newton on
      pair build: half/bin/newton/tri
      stencil: half/bin/3d/newton/tri
      bin: standard
Per MPI rank memory allocation (min/avg/max) = 4.217 | 4.217 | 4.217 Mbytes
Step PotEng Lx Ly Lz Xy Xz Yz Press Pxx Pyy Pzz Pxy Pxz Pyz c_eatoms 
       0   -68.221924       2.3733       4.1107      34.8744            0            0      -0.0004   -4588.4376   -5290.6851   -5296.2016    -3178.426 0.0010925756 0.00036118732   0.71711289   -68.221924 
       1   -68.223603       2.3733       4.1107      34.8744            0            0      -0.0004    -4045.482   -4977.5027   -4983.0164   -2175.9267 -4.2726953e-05 -0.0001080345   0.71673303   -68.223603 
       2   -68.224041       2.3733       4.1107      34.8744            0            0      -0.0004   -3567.5442   -4698.2022   -4703.7107   -1300.7198 -2.9779765e-05 -1.836727e-05   0.71724289   -68.224041 
       3   -68.224129       2.3733       4.1107      34.8744            0            0      -0.0004   -3429.1741   -4617.3071   -4622.8329   -1047.3824 2.9505739e-05 1.6090251e-05   0.73350438   -68.224129 
       4   -68.224142       2.3733       4.1107      34.8744            0            0      -0.0004   -3346.3298   -4568.7106   -4574.2466    -896.0321  1.97925e-05 1.1792263e-05   0.74323146   -68.224142 
       5   -68.224179       2.3733       4.1107      34.8744            0            0      -0.0004   -2989.8108   -4360.9412   -4366.5072   -241.98408 -0.000202876 -0.00014025022   0.77251062   -68.224179 
       6   -68.224204       2.3733       4.1107      34.8744            0            0      -0.0004   -2843.8403   -4276.0715   -4281.6238    26.174522 1.3408404e-05 9.0482529e-06   0.76148026   -68.224204 
       7   -68.224206       2.3733       4.1107      34.8744            0            0      -0.0004   -2837.5212   -4272.4827   -4277.9955    37.914473 3.034522e-05 2.395889e-05   0.72658023   -68.224206 
       8   -68.224206       2.3733       4.1107      34.8744            0            0      -0.0004   -2839.5333    -4273.704   -4279.1939     34.29806 -2.5176475e-06 -2.7082569e-07   0.70607858   -68.224206 
       9   -68.224206       2.3733       4.1107      34.8744            0            0      -0.0004   -2843.8955   -4276.2721   -4281.7318    26.317349 1.107713e-06 2.2275212e-06   0.67941731   -68.224206 
      10   -68.224206       2.3733       4.1107      34.8744            0            0      -0.0004   -2846.9321   -4278.0688    -4283.477    20.749576 1.6170389e-06 2.3548188e-06   0.63374097   -68.224206 
      11   -68.224206       2.3733       4.1107      34.8744            0            0      -0.0004   -2851.2786    -4280.663   -4285.9656    12.792702 6.1053177e-07 1.4162025e-06   0.54031015   -68.224206 
      12   -68.224206       2.3733       4.1107      34.8744            0            0      -0.0004   -2858.2464    -4284.791   -4289.9515 0.0034174043 -9.4918647e-08 2.9750543e-07   0.41450643   -68.224206 
      13   -68.224206       2.3733       4.1107      34.8744            0            0      -0.0004   -2858.6539   -4285.0306     -4290.18  -0.75106935 -1.0297296e-07 6.4657187e-08   0.40470038   -68.224206 
      14   -68.224206       2.3733       4.1107      34.8744            0            0      -0.0004   -2858.4873   -4284.9287   -4290.0866  -0.44674242 2.603603e-10 8.5905567e-08   0.41210603   -68.224206 
      15   -68.224206       2.3733       4.1107      34.8744            0            0      -0.0004   -2858.5129   -4284.9358   -4290.1081  -0.49489625 1.4354466e-07 2.5989578e-07   0.42479837   -68.224206 
      16   -68.224206       2.3733       4.1107      34.8744            0            0      -0.0004   -2858.5208    -4284.936   -4290.1172   -0.5092908 2.6292704e-07 4.6873493e-07   0.43256312   -68.224206 
      17   -68.224206       2.3733       4.1107      34.8744            0            0      -0.0004   -2858.5039   -4284.9255   -4290.1084  -0.47766786 3.8550531e-07 6.892239e-07    0.4339803   -68.224206 
      18   -68.224206       2.3733       4.1107      34.8744            0            0      -0.0004   -2858.5101   -4284.9317   -4290.1096  -0.48900786 4.6772251e-07 8.3117503e-07   0.42947886   -68.224206 
      19   -68.224206       2.3733       4.1107      34.8744            0            0      -0.0004   -2858.4574   -4284.9118   -4290.0685  -0.39203885 6.1865757e-07 1.0955772e-06   0.41063634   -68.224206 
      20   -68.224206       2.3733       4.1107      34.8744            0            0      -0.0004   -2858.2248   -4284.8057   -4289.9034  0.034590842 7.6956434e-07 1.3669377e-06   0.35817789   -68.224206 
      21   -68.224206       2.3733       4.1107      34.8744            0            0      -0.0004   -2858.1549   -4284.7819   -4289.8453   0.16246383 7.0096979e-07 1.2478307e-06    0.3277969   -68.224206 
      22   -68.224206       2.3733       4.1107      34.8744            0            0      -0.0004    -2858.088   -4284.7663   -4289.7828   0.28516826 5.0373758e-07 8.9239395e-07    0.2863163   -68.224206 
      23   -68.224206       2.3733       4.1107      34.8744            0            0      -0.0004   -2858.0546   -4284.7759   -4289.7342   0.34640339 2.2321674e-07 3.9920305e-07   0.23472604   -68.224206 
      24   -68.224206       2.3733       4.1107      34.8744            0            0      -0.0004   -2858.0846    -4284.814   -4289.7312   0.29151884 8.2245035e-08 1.5345037e-07   0.19834323   -68.224206 
      25   -68.224206       2.3733       4.1107      34.8744            0            0      -0.0004   -2858.1369   -4284.8681   -4289.7383   0.19582624 1.8198296e-08 3.4521658e-08   0.15665491   -68.224206 
      26   -68.224206       2.3733       4.1107      34.8744            0            0      -0.0004     -2858.22   -4284.9674    -4289.736  0.043269299 1.8634779e-08 3.8175198e-08   0.06642594   -68.224206 
      27   -68.224206       2.3733       4.1107      34.8744            0            0      -0.0004   -2858.2525   -4285.0127   -4289.7285 -0.016402174 1.8191696e-08 4.257649e-08  0.019635951   -68.224206 
      28   -68.224206       2.3733       4.1107      34.8744            0            0      -0.0004   -2858.2612   -4285.0261   -4289.7251 -0.032482973 -4.4089377e-09 -3.9153379e-09 0.0046122095   -68.224206 
      29   -68.224206       2.3733       4.1107      34.8744            0            0      -0.0004    -2858.258    -4285.026   -4289.7214 -0.026657215 -2.4172271e-08 -4.2380435e-08 0.0014923267   -68.224206 
      30   -68.224206       2.3733       4.1107      34.8744            0            0      -0.0004   -2858.2551    -4285.025    -4289.719 -0.021260621 -3.8150561e-08 -6.7573823e-08 0.00018481941   -68.224206 
      31   -68.224206       2.3733       4.1107      34.8744            0            0      -0.0004    -2858.257   -4285.0265   -4289.7197 -0.024665984 -4.2508198e-08 -7.509604e-08 -0.00039484807   -68.224206 
      32   -68.224206       2.3733       4.1107      34.8744            0            0      -0.0004   -2858.2557   -4285.0257    -4289.719 -0.022428299 -3.4044135e-08 -6.0126499e-08 -0.00038034841   -68.224206 
      33   -68.224206       2.3733       4.1107      34.8744            0            0      -0.0004   -2858.2523   -4285.0236   -4289.7171 -0.016074085 -1.6905448e-08 -2.9845106e-08 -0.0001761026   -68.224206 
      34   -68.224206       2.3733       4.1107      34.8744            0            0      -0.0004   -2858.2499   -4285.0221   -4289.7159 -0.011641194 -2.0592252e-09 -3.6656953e-09 6.1722169e-05   -68.224206 
      35   -68.224206       2.3733       4.1107      34.8744            0            0      -0.0004   -2858.2475   -4285.0206   -4289.7146 -0.007380134 3.6917705e-09 6.5244304e-09 0.00016980683   -68.224206 
      36   -68.224206       2.3733       4.1107      34.8744            0            0      -0.0004   -2858.2453   -4285.0193   -4289.7133 -0.0032119536 7.4749677e-09 1.3194333e-08 0.00024484228   -68.224206 
      37   -68.224206       2.3733       4.1107      34.8744            0            0      -0.0004   -2858.2439   -4285.0185   -4289.7125 -0.0008050732 8.3787787e-09 1.4855307e-08 0.00025738614   -68.224206 
      38   -68.224206       2.3733       4.1107      34.8744            0            0      -0.0004   -2858.2436   -4285.0183   -4289.7123 -0.00013678625 7.3953696e-09 1.3152378e-08 0.00022875231   -68.224206 
      39   -68.224206       2.3733       4.1107      34.8744            0            0      -0.0004   -2858.2435   -4285.0183   -4289.7122 4.6808495e-05 6.1623179e-09 1.0940491e-08 0.00019318308   -68.224206 
      40   -68.224206       2.3733       4.1107      34.8744            0            0      -0.0004   -2858.2435   -4285.0183   -4289.7122 -7.208124e-06 4.5275506e-09 8.0137907e-09 0.00014365734   -68.224206 
      41   -68.224206       2.3733       4.1107      34.8744            0            0      -0.0004   -2858.2435   -4285.0183   -4289.7121 9.5499057e-05 3.1787614e-09 5.6542101e-09 0.0001020004   -68.224206 
      42   -68.224206       2.3733       4.1107      34.8744            0            0      -0.0004   -2858.2434   -4285.0183   -4289.7121 0.00021551514 1.3785895e-09 2.483487e-09 4.6556825e-05   -68.224206 
      43   -68.224206       2.3733       4.1107      34.8744            0            0      -0.0004   -2858.2434   -4285.0183   -4289.7121 0.00020068764 3.4218035e-10 6.3364796e-10 1.3126903e-05   -68.224206 
      44   -68.224206       2.3733       4.1107      34.8744            0            0      -0.0004   -2858.2434   -4285.0183   -4289.7121 0.00014657145 -1.4024428e-10 -2.3487322e-10 -2.0884274e-06   -68.224206 
      45   -68.224206       2.3733       4.1107      34.8744            0            0      -0.0004   -2858.2434   -4285.0184   -4289.7121 0.00012573826 -2.4859703e-10 -3.8191405e-10 -4.6685164e-06   -68.224206 
      46   -68.224206       2.3733       4.1107      34.8744            0            0      -0.0004   -2858.2434   -4285.0184   -4289.7121 0.00011247494 -1.9278687e-10 -3.3368466e-10 -4.8366496e-06   -68.224206 
      47   -68.224206       2.3733       4.1107      34.8744            0            0      -0.0004   -2858.2435   -4285.0184   -4289.7121 6.8676476e-05 -1.8193852e-10 -3.0035541e-10 -4.1454204e-06   -68.224206 
      48   -68.224206       2.3733       4.1107      34.8744            0            0      -0.0004   -2858.2435   -4285.0184   -4289.7121 3.0859839e-05 -1.6671163e-10 -2.2337136e-10 -2.5526179e-06   -68.224206 
      49   -68.224206       2.3733       4.1107      34.8744            0            0      -0.0004   -2858.2435   -4285.0184   -4289.7121 1.2135784e-05 -9.972636e-11 -1.9304827e-10 -1.4925921e-06   -68.224206 
      50   -68.224206       2.3733       4.1107      34.8744            0            0      -0.0004   -2858.2435   -4285.0184   -4289.7121 -4.0138461e-07 -7.9467401e-11 -1.4612591e-10 -9.5611393e-07   -68.224206 
      51   -68.224206       2.3733       4.1107      34.8744            0            0      -0.0004   -2858.2435   -4285.0184   -4289.7121 -2.0113523e-06 -6.6070347e-11 -1.2874242e-10 -7.7251842e-07   -68.224206 
      52   -68.224206       2.3733       4.1107      34.8744            0            0      -0.0004   -2858.2435   -4285.0184   -4289.7121 -2.3739495e-06 -3.8099913e-11 -1.012948e-10 -7.127905e-07   -68.224206 
      53   -68.224206       2.3733       4.1107      34.8744            0            0      -0.0004   -2858.2435   -4285.0184   -4289.7121 -2.919259e-06 -6.6462456e-11 -1.2756609e-10 -6.6469298e-07   -68.224206 
      54   -68.224206       2.3733       4.1107      34.8744            0            0      -0.0004   -2858.2435   -4285.0184   -4289.7121 -2.5246019e-06 -8.5871846e-11 -1.1750196e-10 -6.5697922e-07   -68.224206 
      55   -68.224206       2.3733       4.1107      34.8744            0            0      -0.0004   -2858.2435   -4285.0184   -4289.7121 -1.8099338e-06 -8.2212163e-11 -1.0887557e-10 -6.3347027e-07   -68.224206 
      56   -68.224206       2.3733       4.1107      34.8744            0            0      -0.0004   -2858.2435   -4285.0184   -4289.7121 -1.4627418e-06 -3.4048122e-11 -7.3977876e-11 -6.097301e-07   -68.224206 
Loop time of 0.0515289 on 1 procs for 56 steps with 18 atoms

8.4% CPU use with 1 MPI tasks x no OpenMP threads

Minimization stats:
  Stopping criterion = energy tolerance
  Energy initial, next-to-last, final = 
        -68.2219238511     -68.2242062337     -68.2242062337
  Force two-norm initial, final = 0.230662 3.60544e-11
  Force max component initial, final = 0.0847765 1.12806e-11
  Final line search alpha, max atom move = 1 1.12806e-11
  Iterations, force evaluations = 56 112

MPI task timing breakdown:
Section |  min time  |  avg time  |  max time  |%varavg| %total
---------------------------------------------------------------
Pair    | 0.0036097  | 0.0036097  | 0.0036097  |   0.0 |  7.01
Neigh   | 0          | 0          | 0          |   0.0 |  0.00
Comm    | 0.00030756 | 0.00030756 | 0.00030756 |   0.0 |  0.60
Output  | 0.047432   | 0.047432   | 0.047432   |   0.0 | 92.05
Modify  | 0          | 0          | 0          |   0.0 |  0.00
Other   |            | 0.0001793  |            |       |  0.35

Nlocal:    18 ave 18 max 18 min
Histogram: 1 0 0 0 0 0 0 0 0 0
Nghost:    490 ave 490 max 490 min
Histogram: 1 0 0 0 0 0 0 0 0 0
Neighs:    618 ave 618 max 618 min
Histogram: 1 0 0 0 0 0 0 0 0 0

Total # of neighbors = 618
Ave neighs/atom = 34.3333
Neighbor list builds = 0
Dangerous builds = 0

# ---- define output variables ----
variable natoms equal "count(all)"
variable tot_energy equal "c_eatoms"
variable a11 equal "xhi-xlo"
variable a22 equal "yhi-ylo"
variable a33 equal "zhi-zlo"
variable tilt_xy equal "xy"
variable tilt_xz equal "xz"
variable tilt_yz equal "yz"
variable tot_press equal "press"
variable press_xx equal "pxx"
variable press_yy equal "pyy"
variable press_zz equal "pzz"
variable press_xy equal "pxy"
variable press_xz equal "pxz"
variable press_yz equal "pyz"

# ---- output ----
print "pypospack:output_section:begin"
pypospack:output_section:begin
print "tot_energy = ${tot_energy}"
tot_energy = -68.2242062337225
print "num_atoms = ${natoms}"
num_atoms = 18
print "a11 = ${a11}"
a11 = 2.3733
print "a22 = ${a22}"
a22 = 4.1107
print "a33 = ${a33}"
a33 = 34.8744
print "a12 = ${tilt_xy}"
a12 = 0
print "a13 = ${tilt_xz}"
a13 = 0
print "a23 = ${tilt_yz}"
a23 = -0.0004
print "tot_press = ${tot_press}"
tot_press = -2858.24350469912
print "pxx = ${press_xx}"
pxx = -4285.01839105629
print "pyy = ${press_yy}"
pyy = -4289.71212157834
print "pzz = ${press_zz}"
pzz = -1.46274180775291e-06
print "pxy = ${press_xy}"
pxy = -3.40481215589148e-11
print "pxz = ${press_xz}"
pxz = -7.39778764005597e-11
print "pyz = ${press_yz}"
pyz = -6.09730101194115e-07
print "pypospack:output_section:done"
pypospack:output_section:done
print "pypospack:lammps_sim:done"
pypospack:lammps_sim:done
Total wall time: 0:00:00
