LAMMPS (11 Aug 2017)
# ---- initialize simulations
clear
units metal
dimension 3
boundary p p p
atom_style atomic
atom_modify map array
# ---- create atoms
read_data /ufrc/phillpot/eragasa/pareto_optimization_3.5NN/rank_2/Ni_fcc_vac.lmps_min_pos/lammps.structure
  triclinic box = (0 0 0) to (10.7564 10.7564 10.7564) with tilt (0 -0 -0)
  1 by 1 by 1 MPI processor grid
  reading atoms ...
  107 atoms
# ---- define interatomic potential
include potential.mod
mass 1 58.6934

group Ni type 1
107 atoms in group Ni

pair_style eam/alloy
pair_coeff * * /ufrc/phillpot/eragasa/pareto_optimization_3.5NN/rank_2/Ni_fcc_vac.lmps_min_pos/Ni.eam.alloy Ni

neighbor 1.0 bin
neigh_modify every 1 delay 0 check yes
# ---- define settings
compute eng all pe/atom
compute eatoms all reduce sum c_eng

# ---- run minimization
reset_timestep 0
thermo 1
thermo_style custom step pe lx ly lz xy xz yz press pxx pyy pzz pxy pxz pyz c_eatoms
min_style cg
minimize 1e-20 1e-20 1000 100000
Neighbor list info ...
  update every 1 steps, delay 0 steps, check yes
  max neighbors/atom: 2000, page size: 100000
  master list distance cutoff = 5.64464
  ghost atom cutoff = 5.64464
  binsize = 2.82232, bins = 4 4 4
  1 neighbor lists, perpetual/occasional/extra = 1 0 0
  (1) pair eam/alloy, perpetual
      attributes: half, newton on
      pair build: half/bin/newton/tri
      stencil: half/bin/3d/newton/tri
      bin: standard
Per MPI rank memory allocation (min/avg/max) = 4.229 | 4.229 | 4.229 Mbytes
Step PotEng Lx Ly Lz Xy Xz Yz Press Pxx Pyy Pzz Pxy Pxz Pyz c_eatoms 
       0   -296.00539      10.7564      10.7564      10.7564            0           -0           -0   -2152.7424   -2152.7424   -2152.7424   -2152.7424 8.8749853e-12 1.1121647e-11 1.0777725e-11   -296.00539 
       1    -296.0168      10.7564      10.7564      10.7564            0           -0           -0     -2598.15     -2598.15     -2598.15     -2598.15 -7.2089715e-12 -3.2203646e-12 -1.3002055e-11    -296.0168 
       2   -296.01873      10.7564      10.7564      10.7564            0           -0           -0   -2627.2937   -2627.2937   -2627.2937   -2627.2937 6.3558652e-12 6.3379991e-12 7.3429672e-12   -296.01873 
       3    -296.0191      10.7564      10.7564      10.7564            0           -0           -0   -2677.9888   -2677.9888   -2677.9888   -2677.9888 -4.0958035e-12 1.1197578e-11 5.069506e-12    -296.0191 
       4   -296.01911      10.7564      10.7564      10.7564            0           -0           -0   -2680.6936   -2680.6936   -2680.6936   -2680.6936 2.6258701e-11 2.6263167e-11 2.0648745e-11   -296.01911 
       5   -296.01911      10.7564      10.7564      10.7564            0           -0           -0   -2679.5819   -2679.5819   -2679.5819   -2679.5819 3.4258247e-12 -7.4724965e-12 -6.8114507e-12   -296.01911 
       6   -296.01911      10.7564      10.7564      10.7564            0           -0           -0   -2679.4728   -2679.4728   -2679.4728   -2679.4728 2.492321e-11 1.4596604e-11 1.4047221e-11   -296.01911 
       7   -296.01911      10.7564      10.7564      10.7564            0           -0           -0   -2679.4776   -2679.4776   -2679.4776   -2679.4776 4.805981e-12 1.8531613e-11 7.1509067e-12   -296.01911 
       8   -296.01911      10.7564      10.7564      10.7564            0           -0           -0    -2679.551    -2679.551    -2679.551    -2679.551 -8.6739917e-12 1.9295388e-12 2.4351495e-11   -296.01911 
       9   -296.01911      10.7564      10.7564      10.7564            0           -0           -0    -2679.562    -2679.562    -2679.562    -2679.562 1.4141018e-11 8.9330502e-13 1.2510737e-11   -296.01911 
      10   -296.01911      10.7564      10.7564      10.7564            0           -0           -0   -2679.5638   -2679.5638   -2679.5638   -2679.5638 2.2243295e-12 1.0442736e-11 2.492321e-12   -296.01911 
      11   -296.01911      10.7564      10.7564      10.7564            0           -0           -0   -2679.5641   -2679.5641   -2679.5641   -2679.5641 7.3429672e-12 1.8107293e-11 7.7896197e-12   -296.01911 
      12   -296.01911      10.7564      10.7564      10.7564            0           -0           -0   -2679.5642   -2679.5642   -2679.5642   -2679.5642 1.1626365e-11 1.1997086e-11 -3.2203646e-12   -296.01911 
      13   -296.01911      10.7564      10.7564      10.7564            0           -0           -0   -2679.5642   -2679.5642   -2679.5642   -2679.5642 -4.3861276e-12 1.8446749e-11 1.6235819e-11   -296.01911 
      14   -296.01911      10.7564      10.7564      10.7564            0           -0           -0   -2679.5642   -2679.5642   -2679.5642   -2679.5642 -2.5191201e-12 7.0124444e-12 6.865049e-12   -296.01911 
      15   -296.01911      10.7564      10.7564      10.7564            0           -0           -0   -2679.5642   -2679.5642   -2679.5642   -2679.5642 8.3568684e-12 3.0863688e-12 -7.0258439e-12   -296.01911 
      16   -296.01911      10.7564      10.7564      10.7564            0           -0           -0   -2679.5642   -2679.5642   -2679.5642   -2679.5642 3.1801659e-12 6.2710012e-12 -2.1885973e-13   -296.01911 
      17   -296.01911      10.7564      10.7564      10.7564            0           -0           -0   -2679.5642   -2679.5642   -2679.5642   -2679.5642 1.0987652e-11 -3.1935654e-12 4.6005208e-13   -296.01911 
      18   -296.01911      10.7564      10.7564      10.7564            0           -0           -0   -2679.5642   -2679.5642   -2679.5642   -2679.5642 -4.4977908e-12 8.9598493e-12 7.9414816e-12   -296.01911 
      19   -296.01911      10.7564      10.7564      10.7564            0           -0           -0   -2679.5642   -2679.5642   -2679.5642   -2679.5642 -1.1836291e-12 1.2461605e-12 -7.1017749e-13   -296.01911 
      20   -296.01911      10.7564      10.7564      10.7564            0           -0           -0   -2679.5642   -2679.5642   -2679.5642   -2679.5642 -2.0456685e-12 1.7691906e-11 1.3131584e-12   -296.01911 
      21   -296.01911      10.7564      10.7564      10.7564            0           -0           -0   -2679.5642   -2679.5642   -2679.5642   -2679.5642 -4.5826547e-12 7.0794422e-12 1.2818927e-12   -296.01911 
      22   -296.01911      10.7564      10.7564      10.7564            0           -0           -0   -2679.5642   -2679.5642   -2679.5642   -2679.5642 2.1765377e-11 1.0594597e-11 1.439561e-11   -296.01911 
      23   -296.01911      10.7564      10.7564      10.7564            0           -0           -0   -2679.5642   -2679.5642   -2679.5642   -2679.5642 3.3454273e-12 -1.0969786e-11 -6.8293168e-12   -296.01911 
      24   -296.01911      10.7564      10.7564      10.7564            0           -0           -0   -2679.5642   -2679.5642   -2679.5642   -2679.5642 8.1335422e-12 -5.8288152e-12 -4.4665251e-15   -296.01911 
Loop time of 0.0101302 on 1 procs for 24 steps with 107 atoms

98.1% CPU use with 1 MPI tasks x no OpenMP threads

Minimization stats:
  Stopping criterion = energy tolerance
  Energy initial, next-to-last, final = 
        -296.005386387      -296.01911105      -296.01911105
  Force two-norm initial, final = 0.32575 3.99389e-14
  Force max component initial, final = 0.0616968 7.02216e-15
  Final line search alpha, max atom move = 1 7.02216e-15
  Iterations, force evaluations = 24 48

MPI task timing breakdown:
Section |  min time  |  avg time  |  max time  |%varavg| %total
---------------------------------------------------------------
Pair    | 0.0093627  | 0.0093627  | 0.0093627  |   0.0 | 92.42
Neigh   | 0          | 0          | 0          |   0.0 |  0.00
Comm    | 0.00023699 | 0.00023699 | 0.00023699 |   0.0 |  2.34
Output  | 0.00034761 | 0.00034761 | 0.00034761 |   0.0 |  3.43
Modify  | 0          | 0          | 0          |   0.0 |  0.00
Other   |            | 0.0001829  |            |       |  1.81

Nlocal:    107 ave 107 max 107 min
Histogram: 1 0 0 0 0 0 0 0 0 0
Nghost:    983 ave 983 max 983 min
Histogram: 1 0 0 0 0 0 0 0 0 0
Neighs:    2862 ave 2862 max 2862 min
Histogram: 1 0 0 0 0 0 0 0 0 0

Total # of neighbors = 2862
Ave neighs/atom = 26.7477
Neighbor list builds = 0
Dangerous builds = 0

# ---- define output variables ----
variable natoms equal "count(all)"
variable tot_energy equal "c_eatoms"
variable a11 equal "xhi-xlo"
variable a22 equal "yhi-ylo"
variable a33 equal "zhi-zlo"
variable tilt_xy equal "xy"
variable tilt_xz equal "xz"
variable tilt_yz equal "yz"
variable tot_press equal "press"
variable press_xx equal "pxx"
variable press_yy equal "pyy"
variable press_zz equal "pzz"
variable press_xy equal "pxy"
variable press_xz equal "pxz"
variable press_yz equal "pyz"

# ---- output ----
print "pypospack:output_section:begin"
pypospack:output_section:begin
print "tot_energy = ${tot_energy}"
tot_energy = -296.019111049701
print "num_atoms = ${natoms}"
num_atoms = 107
print "a11 = ${a11}"
a11 = 10.7564
print "a22 = ${a22}"
a22 = 10.7564
print "a33 = ${a33}"
a33 = 10.7564
print "a12 = ${tilt_xy}"
a12 = 0
print "a13 = ${tilt_xz}"
a13 = -0
print "a23 = ${tilt_yz}"
a23 = -0
print "tot_press = ${tot_press}"
tot_press = -2679.5642251772
print "pxx = ${press_xx}"
pxx = -2679.5642251772
print "pyy = ${press_yy}"
pyy = -2679.56422517721
print "pzz = ${press_zz}"
pzz = -2679.5642251772
print "pxy = ${press_xy}"
pxy = 8.13354216819873e-12
print "pxz = ${press_xz}"
pxz = -5.82881522762183e-12
print "pyz = ${press_yz}"
pyz = -4.46652507863741e-15
print "pypospack:output_section:done"
pypospack:output_section:done
print "pypospack:lammps_sim:done"
pypospack:lammps_sim:done
Total wall time: 0:00:00
