LAMMPS (11 Aug 2017)
# ---- initialize simulations
clear
units metal
dimension 3
boundary p p p
atom_style atomic
atom_modify map array
# ---- create atoms
read_data /home/sullberg/repos/pypospack/dev/cluster_sampling/dev__cluster_sampling/rank_2/Ni_fcc_100_unit.lmps_min_all/lammps.structure
  triclinic box = (0 0 0) to (3.5167 3.5167 3.5167) with tilt (0 -0 0)
  1 by 1 by 1 MPI processor grid
  reading atoms ...
  4 atoms
# ---- define interatomic potential
include potential.mod
mass 1 58.6934

group Ni type 1
4 atoms in group Ni

pair_style eam/alloy
pair_coeff * * /home/sullberg/repos/pypospack/dev/cluster_sampling/dev__cluster_sampling/rank_2/Ni_fcc_100_unit.lmps_min_all/Ni.eam.alloy Ni

neighbor 1.0 bin
neigh_modify every 1 delay 0 check yes
# ---- define settings
compute eng all pe/atom
compute eatoms all reduce sum c_eng
# ---- run minimization
reset_timestep 0
fix 1 all box/relax aniso 0.0 vmax 0.001
thermo 10
thermo_style custom step pe xhi xlo yhi ylo zhi xy xz yz press pxx pyy pzz pxy pxz pyz c_eatoms
min_style cg
minimize 1e-25 1e-25 5000 10000
Neighbor list info ...
  update every 1 steps, delay 0 steps, check yes
  max neighbors/atom: 2000, page size: 100000
  master list distance cutoff = 5.64464
  ghost atom cutoff = 5.64464
  binsize = 2.82232, bins = 2 2 2
  1 neighbor lists, perpetual/occasional/extra = 1 0 0
  (1) pair eam/alloy, perpetual
      attributes: half, newton on
      pair build: half/bin/newton/tri
      stencil: half/bin/3d/newton/tri
      bin: standard
Per MPI rank memory allocation (min/avg/max) = 4.211 | 4.211 | 4.211 Mbytes
Step PotEng Xhi Xlo Yhi Ylo Zhi Xy Xz Yz Press Pxx Pyy Pzz Pxy Pxz Pyz c_eatoms 
       0   -28.581586       3.5167            0       3.5167            0       3.5167            0           -0            0   -708263.42   -708263.42   -708263.42   -708263.42 -1.6615293e-11 -2.4283889e-11 -1.0224796e-10   -28.581586 
      10   -29.147251    3.4991165    0.0175835    3.4991165    0.0175835    3.4991165            0           -0            0   -693607.81   -693607.81   -693607.81   -693607.81 -2.6344445e-12 6.6651446e-11 8.1931224e-11   -29.147251 
      20   -29.686787     3.481533     0.035167     3.481533     0.035167     3.481533            0           -0            0   -670480.87   -670480.87   -670480.87   -670480.87 1.4937541e-11 -1.007605e-10 -6.2466079e-11   -29.686787 
      30   -30.193739    3.4639495    0.0527505    3.4639495    0.0527505    3.4639495            0           -0            0   -637259.96   -637259.96   -637259.96   -637259.96 6.2737536e-11 -8.1222702e-11 -3.5009786e-11   -30.193739 
      40   -30.660752     3.446366     0.070334     3.446366     0.070334     3.446366            0           -0            0   -592050.54   -592050.54   -592050.54   -592050.54 9.5922177e-11 8.0031455e-11 -4.6805399e-11   -30.660752 
      50   -31.079451    3.4287825    0.0879175    3.4287825    0.0879175    3.4287825            0           -0            0   -532641.79   -532641.79   -532641.79   -532641.79 5.0386075e-11 -3.1304958e-11 5.6348924e-11   -31.079451 
      60   -31.440312     3.411199     0.105501     3.411199     0.105501     3.411199            0           -0            0   -456455.05   -456455.05   -456455.05   -456455.05 -6.4629437e-11 -6.1551845e-12 1.9388831e-11   -31.440312 
      70   -31.732584    3.3936155    0.1230845    3.3936155    0.1230845    3.3936155            0           -0            0   -361040.57   -361040.57   -361040.57   -361040.57 2.0021027e-10 1.7923586e-10 2.0275262e-10   -31.732584 
      80   -31.944764     3.376032     0.140668     3.376032     0.140668     3.376032            0           -0            0   -243366.44   -243366.44   -243366.44   -243366.44 3.4796617e-11 1.1161179e-11 -3.4796617e-11   -31.944764 
      90   -32.063141    3.3584485    0.1582515    3.3584485    0.1582515    3.3584485            0           -0            0    -98432.89    -98432.89    -98432.89    -98432.89 2.4287538e-10 2.7815336e-10 2.7204756e-10   -32.063141 
     100   -32.082682    3.3482459   0.16845413    3.3482459   0.16845413    3.3482459            0           -0            0   0.12113958   0.12113958   0.12113958   0.12113958 2.0747025e-11 2.9045835e-11 2.6971132e-11   -32.082682 
     110   -32.082682    3.3482459   0.16845412    3.3482459   0.16845412    3.3482459            0           -0            0 -2.8280499e-09 -2.8713882e-09 -2.849258e-09 -2.7635036e-09 -2.7662699e-12 1.5906052e-11 2.4204862e-11   -32.082682 
     113   -32.082682    3.3482459   0.16845412    3.3482459   0.16845412    3.3482459            0           -0            0 -7.7732184e-10 -1.0242114e-09 -1.0311271e-09 -2.7662699e-10 6.9156748e-13 -1.3139782e-11 -9.6819447e-12   -32.082682 
Loop time of 0.00242686 on 1 procs for 113 steps with 4 atoms

100.0% CPU use with 1 MPI tasks x no OpenMP threads

Minimization stats:
  Stopping criterion = energy tolerance
  Energy initial, next-to-last, final = 
        -28.5815861181     -32.0826821649     -32.0826821649
  Force two-norm initial, final = 33.3005 3.28347e-14
  Force max component initial, final = 19.2261 2.28841e-14
  Final line search alpha, max atom move = 1 2.28841e-14
  Iterations, force evaluations = 113 131

MPI task timing breakdown:
Section |  min time  |  avg time  |  max time  |%varavg| %total
---------------------------------------------------------------
Pair    | 0.001287   | 0.001287   | 0.001287   |   0.0 | 53.03
Neigh   | 2.0981e-05 | 2.0981e-05 | 2.0981e-05 |   0.0 |  0.86
Comm    | 0.00024223 | 0.00024223 | 0.00024223 |   0.0 |  9.98
Output  | 0.00011992 | 0.00011992 | 0.00011992 |   0.0 |  4.94
Modify  | 0          | 0          | 0          |   0.0 |  0.00
Other   |            | 0.0007567  |            |       | 31.18

Nlocal:    4 ave 4 max 4 min
Histogram: 1 0 0 0 0 0 0 0 0 0
Nghost:    360 ave 360 max 360 min
Histogram: 1 0 0 0 0 0 0 0 0 0
Neighs:    172 ave 172 max 172 min
Histogram: 1 0 0 0 0 0 0 0 0 0

Total # of neighbors = 172
Ave neighs/atom = 43
Neighbor list builds = 1
Dangerous builds = 0
# ---- define output variables ----
variable natoms equal "count(all)"
variable tot_energy equal "c_eatoms"
variable a11 equal "xhi-xlo"
variable a22 equal "yhi-ylo"
variable a33 equal "zhi-zlo"
variable tilt_xy equal "xy"
variable tilt_xz equal "xz"
variable tilt_yz equal "yz"
variable tot_press equal "press"
variable press_xx equal "pxx"
variable press_yy equal "pyy"
variable press_zz equal "pzz"
variable press_xy equal "pxy"
variable press_xz equal "pxz"
variable press_yz equal "pyz"

# ---- output ----
print "pypospack:output_section:begin"
pypospack:output_section:begin
print "tot_energy = ${tot_energy}"
tot_energy = -32.0826821648875
print "num_atoms = ${natoms}"
num_atoms = 4
print "a11 = ${a11}"
a11 = 3.17979175975051
print "a22 = ${a22}"
a22 = 3.17979175975051
print "a33 = ${a33}"
a33 = 3.17979175975051
print "a12 = ${tilt_xy}"
a12 = 0
print "a13 = ${tilt_xz}"
a13 = -0
print "a23 = ${tilt_yz}"
a23 = 0
print "tot_press = ${tot_press}"
tot_press = -7.77321844950838e-10
print "pxx = ${press_xx}"
pxx = -1.02421143449483e-09
print "pyy = ${press_yy}"
pyy = -1.03112710927197e-09
print "pzz = ${press_zz}"
pzz = -2.76626991085707e-10
print "pxy = ${press_xy}"
pxy = 6.91567477714269e-13
print "pxz = ${press_xz}"
pxz = -1.31397820765711e-11
print "pyz = ${press_yz}"
pyz = -9.68194468799976e-12
print "pypospack:output_section:done"
pypospack:output_section:done
print "pypospack:lammps_sim:done"
pypospack:lammps_sim:done
Total wall time: 0:00:00
