LAMMPS (10 Feb 2015)
Reading data file ...
  triclinic box = (0 0 0) to (15 15 15) with tilt (0 0 0)
  1 by 1 by 1 MPI processor grid
  reading atoms ...
  216 atoms
108 atoms in group Mg
108 atoms in group O
Setting atom values ...
  108 settings made for charge
Setting atom values ...
  108 settings made for charge
PPPM initialization ...
  G vector (1/distance) = 0.346163
  grid = 24 24 24
  stencil order = 5
  estimated absolute RMS force accuracy = 8.03518e-05
  estimated relative force accuracy = 5.58012e-06
  using double precision FFTs
  3d grid and FFT values/proc = 29791 13824
Neighbor list info ...
  1 neighbor list requests
  update every 1 steps, delay 0 steps, check yes
  master list distance cutoff = 11
Setting up minimization ...
Memory usage per processor = 7.83223 Mbytes
Step PotEng Lx Ly Lz Xy Xz Yz Press Pxx Pyy Pzz Pxy Pxz Pyz eatoms 
       0    -4087.676           15           15           15            0            0            0   -398532.25   -398532.25   -398532.25   -398532.25    -877.8112    -877.8112    -877.8112    -4087.676 
       1   -4107.6235           15           15           15            0            0            0      -399444      -399444      -399444      -399444   -97.257928   -97.257928   -97.257928   -4107.6235 
       2   -4117.0349           15           15           15            0            0            0   -397728.53   -397728.53   -397728.53   -397728.53    455.84123    455.84123    455.84123   -4117.0349 
       3   -4119.5438           15           15           15            0            0            0   -394947.85   -394947.85   -394947.85   -394947.85    586.01422    586.01422    586.01422   -4119.5438 
       4   -4121.4873           15           15           15            0            0            0   -394185.97   -394185.97   -394185.97   -394185.97    164.17807    164.17807    164.17807   -4121.4873 
       5   -4123.1067           15           15           15            0            0            0   -390304.37   -390304.37   -390304.37   -390304.37   -5.3378586   -5.3378586   -5.3378586   -4123.1067 
       6   -4124.4142           15           15           15            0            0            0   -384916.52   -384916.52   -384916.52   -384916.52   -108.14744   -108.14744   -108.14744   -4124.4142 
       7   -4125.4709           15           15           15            0            0            0    -385523.9    -385523.9    -385523.9    -385523.9   -114.11701   -114.11701   -114.11701   -4125.4709 
       8   -4128.7563           15           15           15            0            0            0   -380724.79   -380724.79   -380724.79   -380724.79    -168.6683    -168.6683    -168.6683   -4128.7563 
       9     -4133.47           15           15           15            0            0            0   -370525.19   -370525.19   -370525.19   -370525.19   -439.99987   -439.99987   -439.99987     -4133.47 
      10   -4139.1623           15           15           15            0            0            0   -358075.56   -358075.56   -358075.56   -358075.56   -946.85653   -946.85653   -946.85653   -4139.1623 
      11   -4146.2732           15           15           15            0            0            0    -349571.6    -349571.6    -349571.6    -349571.6   -1288.9506   -1288.9506   -1288.9506   -4146.2732 
      12   -4153.9829           15           15           15            0            0            0   -332168.91   -332168.91   -332168.91   -332168.91   -1839.2021   -1839.2021   -1839.2021   -4153.9829 
      13   -4160.9684           15           15           15            0            0            0   -314733.49   -314733.49   -314733.49   -314733.49   -2138.4507   -2138.4507   -2138.4507   -4160.9684 
      14    -4168.746           15           15           15            0            0            0   -292302.93   -292302.93   -292302.93   -292302.93   -2268.5533   -2268.5533   -2268.5533    -4168.746 
      15   -4175.5968           15           15           15            0            0            0   -271535.03   -271535.03   -271535.03   -271535.03   -2061.6519   -2061.6519   -2061.6519   -4175.5968 
      16   -4183.1317           15           15           15            0            0            0   -250164.99   -250164.99   -250164.99   -250164.99   -1940.7936   -1940.7936   -1940.7936   -4183.1317 
      17   -4190.4481           15           15           15            0            0            0   -231670.66   -231670.66   -231670.66   -231670.66   -1290.6446   -1290.6446   -1290.6446   -4190.4481 
      18   -4198.1723           15           15           15            0            0            0   -210059.12   -210059.12   -210059.12   -210059.12    -443.7596    -443.7596    -443.7596   -4198.1723 
      19   -4206.0093           15           15           15            0            0            0   -189542.41   -189542.41   -189542.41   -189542.41    773.17766    773.17766    773.17766   -4206.0093 
      20   -4213.2082           15           15           15            0            0            0   -175637.62   -175637.62   -175637.62   -175637.62    1169.7631    1169.7631    1169.7631   -4213.2082 
      21   -4219.8809           15           15           15            0            0            0   -171043.66   -171043.66   -171043.66   -171043.66    515.22818    515.22853    515.22818   -4219.8809 
      22   -4225.9534           15           15           15            0            0            0   -157958.62   -157958.62   -157958.62   -157958.62    279.85412    279.85372    279.85417   -4225.9534 
      23   -4230.5671           15           15           15            0            0            0   -142695.54   -142695.54   -142695.54   -142695.54   -675.39336   -675.39341   -675.39329   -4230.5671 
      24    -4235.896           15           15           15            0            0            0   -122355.22   -122355.23   -122355.22   -122355.23   -2108.9754   -2108.9747   -2108.9756    -4235.896 
      25   -4237.7697           15           15           15            0            0            0   -120668.07   -120668.07   -120668.07   -120668.07    -2645.257   -2645.2556   -2645.2583   -4237.7697 
      26   -4240.6419           15           15           15            0            0            0    -113323.4   -113323.39    -113323.4   -113323.39   -5323.4922   -5323.4945   -5323.4902   -4240.6419 
      27   -4243.8796           15           15           15            0            0            0   -102398.01   -102398.01   -102398.01   -102398.01   -7432.9055   -7432.9102   -7432.9101   -4243.8796 
      28   -4246.0759           15           15           15            0            0            0   -95262.897   -95262.895   -95262.897   -95262.898   -8817.4587   -8817.4611   -8817.4656   -4246.0759 
      29   -4247.6402           15           15           15            0            0            0    -89736.98   -89736.985   -89736.978   -89736.978   -10228.233   -10228.235   -10228.234   -4247.6402 
      30   -4249.1069           15           15           15            0            0            0   -85606.104   -85606.103   -85606.101   -85606.107   -10722.229   -10722.227   -10722.228   -4249.1069 
      31   -4250.0661           15           15           15            0            0            0   -82889.546   -82889.549   -82889.544   -82889.544   -10835.811   -10835.813   -10835.812   -4250.0661 
      32   -4251.3659           15           15           15            0            0            0   -78921.958   -78921.957   -78921.961   -78921.955   -10784.598   -10784.598   -10784.599   -4251.3659 
      33   -4252.6845           15           15           15            0            0            0   -77717.908   -77717.905   -77717.908   -77717.911   -10993.314   -10993.315   -10993.313   -4252.6845 
      34   -4253.6947           15           15           15            0            0            0   -75707.143   -75707.144   -75707.149   -75707.136   -11035.527   -11035.525   -11035.526   -4253.6947 
      35    -4254.853           15           15           15            0            0            0   -72755.786   -72755.787   -72755.784   -72755.789   -10133.858   -10133.851   -10133.856    -4254.853 
      36    -4255.998           15           15           15            0            0            0    -68464.54   -68464.544   -68464.539   -68464.538   -8943.2756   -8943.2711   -8943.2653    -4255.998 
      37   -4256.5825           15           15           15            0            0            0   -65667.494   -65667.499    -65667.49   -65667.494   -8352.7832   -8352.7766   -8352.7749   -4256.5825 
      38   -4257.0538           15           15           15            0            0            0   -62722.249   -62722.243   -62722.249   -62722.255   -8240.5993   -8240.5939   -8240.5918   -4257.0538 
      39   -4257.4455           15           15           15            0            0            0   -60534.374   -60534.375   -60534.377   -60534.369   -7738.7027   -7738.6966   -7738.6946   -4257.4455 
      40   -4258.0417           15           15           15            0            0            0   -57777.846   -57777.843   -57777.859   -57777.837   -7574.2363   -7574.2249   -7574.2227   -4258.0417 
      41   -4258.5961           15           15           15            0            0            0   -54370.317   -54370.318   -54370.324   -54370.308   -7715.8905   -7715.8804    -7715.879   -4258.5961 
      42   -4259.2638           15           15           15            0            0            0   -50206.466   -50206.466   -50206.482   -50206.451    -8389.643    -8389.622   -8389.6286   -4259.2638 
      43   -4260.0309           15           15           15            0            0            0   -49357.324   -49357.323   -49357.344   -49357.306   -9164.4002   -9164.3605   -9164.3748   -4260.0309 
      44   -4260.9024           15           15           15            0            0            0   -48887.942   -48887.944   -48887.969   -48887.915    -9895.026   -9894.9857   -9894.9928   -4260.9024 
      45   -4261.7145           15           15           15            0            0            0   -49233.584   -49233.574    -49233.62    -49233.56   -9747.5105   -9747.4776   -9747.4876   -4261.7145 
      46   -4262.4603           15           15           15            0            0            0   -50200.951   -50200.936   -50200.991   -50200.924   -9662.2851    -9662.254    -9662.264   -4262.4603 
      47   -4263.0191           15           15           15            0            0            0   -51182.843   -51182.841   -51182.887   -51182.803   -10157.578   -10157.533   -10157.545   -4263.0191 
      48   -4263.5234           15           15           15            0            0            0   -50859.554   -50859.554   -50859.576   -50859.533   -10600.482   -10600.438   -10600.453   -4263.5234 
      49   -4264.2765           15           15           15            0            0            0   -50341.816   -50341.814   -50341.843    -50341.79   -10587.855   -10587.822   -10587.828   -4264.2765 
      50   -4264.7468           15           15           15            0            0            0   -50753.434   -50753.415   -50753.492   -50753.396   -10681.961   -10681.923   -10681.927   -4264.7468 
      51    -4265.192           15           15           15            0            0            0   -51816.151   -51816.129   -51816.224     -51816.1     -10931.9    -10931.86   -10931.865    -4265.192 
      52   -4265.7984           15           15           15            0            0            0   -52037.983   -52037.957   -52038.064   -52037.927   -11687.665   -11687.622   -11687.634   -4265.7984 
      53   -4266.1767           15           15           15            0            0            0   -51046.798   -51046.774   -51046.867   -51046.751   -11663.281   -11663.247   -11663.256   -4266.1767 
      54   -4266.3286           15           15           15            0            0            0   -50271.409   -50271.388   -50271.488   -50271.351    -11321.61   -11321.564   -11321.576   -4266.3286 
      55   -4266.4557           15           15           15            0            0            0   -49107.402   -49107.381   -49107.483   -49107.341   -10758.883    -10758.84   -10758.852   -4266.4557 
      56   -4266.6457           15           15           15            0            0            0   -47690.135   -47690.108   -47690.238   -47690.059   -10111.796   -10111.751   -10111.752   -4266.6457 
      57   -4266.8398           15           15           15            0            0            0   -46007.002   -46006.957    -46007.16    -46006.89    -9658.077   -9658.0075   -9658.0267   -4266.8398 
      58   -4267.0244           15           15           15            0            0            0   -44101.613   -44101.556   -44101.821   -44101.461   -8870.4477   -8870.3751   -8870.4073   -4267.0244 
      59   -4267.2647           15           15           15            0            0            0   -41496.568   -41496.509   -41496.815    -41496.38   -8648.0693   -8647.9911   -8648.0229   -4267.2647 
      60   -4267.5263           15           15           15            0            0            0   -38507.003    -38506.92   -38507.322   -38506.767   -8202.1972     -8202.11   -8202.1573   -4267.5263 
      61    -4267.777           15           15           15            0            0            0   -35938.117   -35938.007   -35938.546   -35937.797   -8358.6672   -8358.5518    -8358.611    -4267.777 
      62   -4267.9453           15           15           15            0            0            0    -34960.94   -34960.824   -34961.445    -34960.55      -8668.9   -8668.7591   -8668.8218   -4267.9453 
      63   -4268.0778           15           15           15            0            0            0   -34193.376   -34193.238   -34193.969   -34192.921   -9211.2309   -9211.0719     -9211.15   -4268.0778 
      64    -4268.207           15           15           15            0            0            0   -34249.854   -34249.697   -34250.526   -34249.341   -9739.3904   -9739.2232   -9739.3161    -4268.207 
      65   -4268.3061           15           15           15            0            0            0   -34304.223    -34304.04    -34305.01   -34303.618   -10447.111   -10446.942   -10447.037   -4268.3061 
      66   -4268.4119           15           15           15            0            0            0   -34746.584   -34746.369   -34747.551   -34745.832   -11030.548   -11030.365   -11030.467   -4268.4119 
      67   -4268.4978           15           15           15            0            0            0    -35326.74   -35326.467   -35327.922   -35325.831   -11436.688   -11436.473   -11436.596   -4268.4978 
      68   -4268.5956           15           15           15            0            0            0    -35522.82   -35522.486    -35524.28   -35521.695   -11687.107   -11686.826   -11687.009   -4268.5956 
      69   -4268.6699           15           15           15            0            0            0   -34883.123   -34882.752   -34884.807   -34881.811   -11572.103   -11571.781   -11571.989   -4268.6699 
      70   -4268.7274           15           15           15            0            0            0   -34472.421   -34472.001     -34474.3   -34470.963   -11478.888   -11478.534   -11478.762   -4268.7274 
      71   -4268.7679           15           15           15            0            0            0   -34128.966   -34128.491   -34131.079    -34127.33   -11592.876   -11592.494   -11592.745   -4268.7679 
      72   -4268.8002           15           15           15            0            0            0   -34161.875   -34161.346   -34164.245   -34160.034   -11636.716   -11636.294   -11636.563   -4268.8002 
      73   -4268.8212           15           15           15            0            0            0   -34094.321   -34093.724    -34096.98   -34092.258    -11699.41   -11698.944    -11699.26   -4268.8212 
      74   -4268.8413           15           15           15            0            0            0   -33752.038   -33751.373   -33754.986   -33749.755   -11428.294   -11427.779   -11428.124   -4268.8413 
      75    -4268.858           15           15           15            0            0            0    -33011.21   -33010.479   -33014.429   -33008.722    -11248.12   -11247.567   -11247.935    -4268.858 
      76   -4268.8764           15           15           15            0            0            0   -31998.687   -31997.904   -32002.172   -31995.985   -10967.382   -10966.872   -10967.206   -4268.8764 
      77   -4268.8955           15           15           15            0            0            0   -31047.572   -31046.721   -31051.352   -31044.644   -10786.131   -10785.731   -10785.975   -4268.8955 
      78   -4268.9139           15           15           15            0            0            0   -30471.643   -30470.719   -30475.727   -30468.484   -10550.088    -10549.84   -10549.967   -4268.9139 
      79   -4268.9313           15           15           15            0            0            0   -30052.692   -30051.704   -30057.066   -30049.307   -10481.218   -10481.134   -10481.136   -4268.9313 
      80     -4268.95           15           15           15            0            0            0   -29809.465   -29808.425   -29814.146   -29805.824   -10365.371   -10365.562   -10365.339     -4268.95 
      81   -4268.9629           15           15           15            0            0            0   -29585.644   -29584.571   -29590.412   -29581.949   -10434.652   -10435.128   -10434.641   -4268.9629 
      82   -4268.9717           15           15           15            0            0            0   -29461.275   -29460.228   -29466.046   -29457.552   -10429.512   -10430.446   -10429.646   -4268.9717 
      83   -4268.9794           15           15           15            0            0            0    -29224.34   -29223.318   -29229.076   -29220.626   -10398.054    -10399.45   -10398.274   -4268.9794 
      84   -4268.9866           15           15           15            0            0            0   -29054.924   -29053.958   -29059.511   -29051.304   -10341.902    -10343.99   -10342.262   -4268.9866 
      85   -4268.9931           15           15           15            0            0            0   -28987.356   -28986.434   -28991.853    -28983.78   -10338.962   -10341.989   -10339.505   -4268.9931 
      86   -4268.9996           15           15           15            0            0            0   -29037.122   -29036.331   -29041.325   -29033.711   -10293.294   -10297.644   -10294.077   -4268.9996 
      87   -4269.0058           15           15           15            0            0            0   -29002.565   -29001.981   -29006.242   -28999.471    -10283.28   -10289.397   -10284.347   -4269.0058 
      88   -4269.0125           15           15           15            0            0            0   -29051.709   -29051.552   -29054.155   -29049.422   -10210.123   -10218.933   -10211.696   -4269.0125 
      89   -4269.0187           15           15           15            0            0            0   -29012.472   -29012.848   -29013.515   -29011.052   -10232.685   -10244.957   -10234.785   -4269.0187 
      90   -4269.0242           15           15           15            0            0            0   -28988.522   -28989.586   -28987.656   -28988.325   -10137.148   -10153.775   -10139.931   -4269.0242 
      91   -4269.0306           15           15           15            0            0            0   -28817.003   -28819.272   -28812.802   -28818.934   -10021.073   -10045.593   -10025.181   -4269.0306 
      92   -4269.0387           15           15           15            0            0            0   -28495.318   -28500.112   -28484.465   -28501.377   -9718.3705    -9757.153   -9724.8565   -4269.0387 
      93   -4269.0438           15           15           15            0            0            0   -28205.745   -28213.051   -28188.405   -28215.779   -9530.2879   -9581.8924    -9538.926   -4269.0438 
      94   -4269.0492           15           15           15            0            0            0   -27972.361    -27983.67    -27944.52   -27988.894   -9283.2492   -9355.8858   -9295.5559   -4269.0492 
      95   -4269.0551           15           15           15            0            0            0   -27633.338   -27651.834   -27587.078   -27661.103   -9084.8362    -9190.707   -9103.1704   -4269.0551 
      96   -4269.0622           15           15           15            0            0            0   -27443.133   -27474.498   -27364.381    -27490.52   -8886.1614   -9051.2373   -8915.9063   -4269.0622 
      97   -4269.0704           15           15           15            0            0            0   -27277.121   -27330.834   -27144.044   -27356.485   -8730.3726   -8986.4129   -8779.7623   -4269.0704 
      98   -4269.0848           15           15           15            0            0            0   -27016.014   -27126.464   -26752.909   -27168.669   -8361.0287   -8817.8479   -8460.7039   -4269.0848 
      99   -4269.1285           15           15           15            0            0            0    -26214.68   -26489.623   -25631.374   -26523.043   -7679.7968   -8591.3887   -7934.5154   -4269.1285 
     100    -4269.207           15           15           15            0            0            0   -25260.894   -25784.638   -24304.621   -25693.422   -6901.1113   -8312.7815    -7404.756    -4269.207 
     101   -4269.3061           15           15           15            0            0            0   -24106.157   -24909.936   -22800.631   -24607.904   -6386.3986   -8278.1342    -7137.924   -4269.3061 
     102   -4269.4031           15           15           15            0            0            0   -22893.388   -23899.684   -21309.634   -23470.847   -6206.6826   -8453.0611   -7046.5633   -4269.4031 
     103   -4269.5528           15           15           15            0            0            0   -21716.365   -22718.901   -19785.965   -22644.229   -6343.1323   -8765.0287   -6710.9538   -4269.5528 
     104   -4269.6374           15           15           15            0            0            0   -20887.672   -21948.992   -18882.229   -21831.794   -6714.2997   -9178.6457    -6889.937   -4269.6374 
     105   -4269.7487           15           15           15            0            0            0   -19780.297   -21155.941   -17350.335   -20834.614   -6909.0986   -9488.8762   -6722.5558   -4269.7487 
     106   -4269.8465           15           15           15            0            0            0   -19328.514   -20828.172   -16851.652   -20305.718   -7212.1121   -9682.6574   -6693.7558   -4269.8465 
     107   -4269.9647           15           15           15            0            0            0   -18787.993   -20487.493   -16395.355   -19481.131   -7505.1029   -9949.0981   -6796.2647   -4269.9647 
     108   -4270.0557           15           15           15            0            0            0   -18611.622   -20262.361   -16364.538   -19207.967   -7531.1204   -10094.148   -6739.3692   -4270.0557 
     109   -4270.1788           15           15           15            0            0            0   -18087.539   -19272.162   -16328.316    -18662.14     -8130.69   -10597.304   -7018.5903   -4270.1788 
     110   -4270.2586           15           15           15            0            0            0   -17699.074   -18627.004   -16058.591   -18411.627   -8428.7969   -10813.242   -7056.7433   -4270.2586 
     111    -4270.357           15           15           15            0            0            0   -17154.558   -17888.561   -15706.155   -17868.956   -8714.8945   -11011.884   -7212.8457    -4270.357 
     112   -4270.4304           15           15           15            0            0            0   -16690.937    -17558.48    -15381.33   -17133.001   -8653.2073   -10945.621   -7071.9372   -4270.4304 
     113   -4270.4829           15           15           15            0            0            0   -16283.372   -17276.884   -15168.072    -16405.16   -8778.5178    -11046.03   -7086.2716   -4270.4829 
     114   -4270.5235           15           15           15            0            0            0   -16192.499    -17318.67   -15172.255   -16086.572   -8686.5973   -11030.084   -6886.9934   -4270.5235 
     115   -4270.5588           15           15           15            0            0            0   -16174.909   -17224.238   -15289.908    -16010.58   -8713.7445   -11169.681   -6838.5507   -4270.5588 
     116   -4270.5973           15           15           15            0            0            0   -16174.511   -17081.841   -15307.218   -16134.475   -8550.1504   -11215.425   -6629.2713   -4270.5973 
     117   -4270.6347           15           15           15            0            0            0   -16025.296    -16646.88   -15211.538   -16217.469   -8403.6061   -11405.984   -6560.4081   -4270.6347 
     118   -4270.6722           15           15           15            0            0            0    -15866.56   -16456.118   -14962.172    -16181.39   -8138.7852     -11550.2   -6287.3937   -4270.6722 
     119   -4270.7134           15           15           15            0            0            0   -15630.702   -16167.809   -14727.103   -15997.194   -8098.5228   -11868.308   -6121.0992   -4270.7134 
     120   -4270.7565           15           15           15            0            0            0   -15545.664   -16061.436   -14555.685   -16019.871   -7923.1963   -12077.461   -5910.2355   -4270.7565 
     121   -4270.8077           15           15           15            0            0            0     -15261.4   -15715.147   -14258.263   -15810.788   -7894.3982   -12380.825   -5896.9021   -4270.8077 
     122   -4270.8634           15           15           15            0            0            0   -15035.442   -15239.955   -14213.711    -15652.66   -7814.1107   -12504.514   -5710.4543   -4270.8634 
     123    -4270.935           15           15           15            0            0            0   -14787.169   -14417.085   -14405.699   -15538.722    -8136.507   -12891.411   -5776.5569    -4270.935 
     124    -4271.017           15           15           15            0            0            0   -14372.219   -13580.682   -14165.055   -15370.921   -8479.0595   -13144.308   -5523.2729    -4271.017 
     125   -4271.1172           15           15           15            0            0            0   -13480.966   -12477.189   -13600.115   -14365.596    -9019.846   -13680.039   -5257.3527   -4271.1172 
     126    -4271.238           15           15           15            0            0            0   -12933.401   -12365.957   -13311.104   -13123.143   -9204.8246   -13857.031   -4647.3476    -4271.238 
     127   -4271.3668           15           15           15            0            0            0   -12629.483   -12574.536    -13112.91   -12201.002   -9464.4925   -14095.937   -4717.5744   -4271.3668 
     128   -4271.4824           15           15           15            0            0            0   -12446.452   -13065.569   -12687.464   -11586.322   -9619.5636   -14035.073   -4564.3134   -4271.4824 
     129   -4271.6407           15           15           15            0            0            0   -12300.456   -13281.067   -12308.979   -11311.321   -10033.133   -13938.762   -4615.0038   -4271.6407 
     130   -4271.7875           15           15           15            0            0            0   -12355.792   -13618.707   -12181.289    -11267.38   -10468.273   -13564.661   -4632.1271   -4271.7875 
     131   -4271.9254           15           15           15            0            0            0   -12430.939   -13651.525   -12519.725   -11121.566   -11120.642   -13299.676   -4897.6739   -4271.9254 
     132   -4272.0854           15           15           15            0            0            0   -12580.882    -14223.99   -12657.887    -10860.77   -11828.819   -12368.233   -4598.0616   -4272.0854 
     133   -4272.2631           15           15           15            0            0            0   -12673.802   -14590.899   -12715.377   -10715.131   -12619.502   -11729.359    -4352.913   -4272.2631 
     134   -4272.4589           15           15           15            0            0            0   -13133.156   -15391.948   -13219.551    -10787.97   -13078.293   -11126.352   -3997.0869   -4272.4589 
     135   -4272.6493           15           15           15            0            0            0   -13416.739   -15876.608   -14256.875   -10116.734    -13400.12   -10843.421    -3834.721   -4272.6493 
     136   -4272.8523           15           15           15            0            0            0   -13356.236   -16367.121   -14916.867   -8784.7201   -13263.035   -10715.137   -3142.6952   -4272.8523 
     137   -4273.0816           15           15           15            0            0            0   -13298.034   -16353.143   -15821.335    -7719.624   -13202.186   -11037.867   -3091.3794   -4273.0816 
     138   -4273.2804           15           15           15            0            0            0   -13363.752   -16448.642   -16024.689    -7617.926   -13040.148   -11210.523   -2887.2098   -4273.2804 
     139   -4273.4545           15           15           15            0            0            0   -13197.091   -16528.114   -15906.205   -7156.9551   -12908.209   -11368.087    -2775.227   -4273.4545 
     140   -4273.6677           15           15           15            0            0            0   -13453.795    -17518.18   -16219.117   -6624.0872   -12538.713   -11428.398   -2315.8475   -4273.6677 
     141   -4273.8703           15           15           15            0            0            0   -13825.859   -18263.219   -16855.214   -6359.1449   -12192.579   -11861.318   -2497.7594   -4273.8703 
     142   -4274.0988           15           15           15            0            0            0   -14451.539   -19255.879   -17399.556   -6699.1819   -11655.078   -12221.396   -2202.8656   -4274.0988 
     143   -4274.3451           15           15           15            0            0            0   -15148.222   -20096.456   -18125.689    -7222.521   -11416.432   -12715.478   -2289.3287   -4274.3451 
     144   -4274.5938           15           15           15            0            0            0   -15924.622   -20967.556   -19178.796    -7627.515   -10716.176   -12884.892    -2321.095   -4274.5938 
     145   -4274.7915           15           15           15            0            0            0    -16001.32   -20779.312    -19622.17   -7602.4794   -9938.8405   -12761.558   -2552.2108   -4274.7915 
     146   -4275.0445           15           15           15            0            0            0   -15990.877   -20537.499   -19662.718   -7772.4131    -9532.151    -12498.51   -2787.8863   -4275.0445 
     147    -4275.313           15           15           15            0            0            0   -15942.316   -20368.305   -19450.021   -8008.6233   -9419.7213   -11935.937   -2461.6285    -4275.313 
     148   -4275.5689           15           15           15            0            0            0   -15598.066    -19439.18   -19486.301   -7868.7164   -9568.5751   -11653.111    -2523.725   -4275.5689 
     149   -4275.7848           15           15           15            0            0            0   -15520.401   -19108.132    -19737.99   -7715.0802   -9672.5668   -11362.834   -2577.9999   -4275.7848 
     150   -4276.0245           15           15           15            0            0            0   -15359.027   -18959.732    -19922.45   -7194.9002   -9767.8709   -11331.853   -2610.4452   -4276.0245 
     151   -4276.2251           15           15           15            0            0            0   -15271.596   -19129.804   -19953.806   -6731.1769   -9952.9862   -10826.302   -2594.4899   -4276.2251 
     152   -4276.3911           15           15           15            0            0            0   -15380.998   -19103.233   -20248.318   -6791.4428   -10092.239   -10562.091   -2915.3854   -4276.3911 
     153    -4276.564           15           15           15            0            0            0     -15722.3   -19656.301   -20344.095   -7166.5055   -9872.5697   -10011.145   -3739.8938    -4276.564 
     154   -4276.7206           15           15           15            0            0            0   -15964.735    -19804.66   -20776.421   -7313.1241   -9714.7114   -9818.7244   -4376.3296   -4276.7206 
     155   -4276.8421           15           15           15            0            0            0   -16429.566   -20257.309   -21710.386   -7321.0032   -9355.9949   -9687.1821   -4531.7798   -4276.8421 
     156   -4276.9442           15           15           15            0            0            0   -16645.688   -20097.151   -22332.648   -7507.2656   -9201.3783   -9831.3315   -4928.9171   -4276.9442 
     157    -4277.023           15           15           15            0            0            0    -16625.86   -19880.697   -22616.748   -7380.1344   -8984.0048   -9866.4047   -5043.1967    -4277.023 
     158   -4277.0849           15           15           15            0            0            0   -16455.689   -19568.578   -22603.161   -7195.3293   -8915.8133   -10093.989   -5154.0299   -4277.0849 
     159   -4277.1549           15           15           15            0            0            0   -16260.948   -19332.135   -22728.094   -6722.6158   -8856.5126   -10199.149    -5078.874   -4277.1549 
     160    -4277.232           15           15           15            0            0            0   -16061.453   -18899.698   -23130.514   -6154.1473   -8883.2743   -10678.253   -5366.1411    -4277.232 
     161   -4277.3089           15           15           15            0            0            0   -15931.496   -18731.562   -23257.389   -5805.5371   -8716.4222   -11011.618   -5635.0249   -4277.3089 
     162   -4277.3794           15           15           15            0            0            0   -16052.882   -18532.059   -23805.793   -5820.7947   -8663.3371   -11471.075   -5849.7696   -4277.3794 
     163   -4277.4645           15           15           15            0            0            0   -16534.662   -18607.317   -24608.422   -6388.2469   -8491.6638   -11749.583   -5701.0159   -4277.4645 
     164    -4277.557           15           15           15            0            0            0   -17190.686   -18800.487   -25475.626   -7295.9433   -8293.9957   -12207.308   -5709.0957    -4277.557 
     165   -4277.6508           15           15           15            0            0            0   -17804.311   -19024.183   -26154.954   -8233.7943   -7960.6076    -12271.98   -5799.1029   -4277.6508 
     166   -4277.7711           15           15           15            0            0            0   -18476.323   -19255.544   -26771.193   -9402.2313   -7497.1202   -12556.088   -6269.8271   -4277.7711 
     167   -4277.9196           15           15           15            0            0            0     -19056.8   -19591.465   -27145.688   -10433.247   -6827.7784   -12464.932   -6459.9307   -4277.9196 
     168   -4278.1594           15           15           15            0            0            0   -19300.973   -19724.202   -27156.393   -11022.324   -6379.2348   -12200.836   -6707.8205   -4278.1594 
     169   -4278.4066           15           15           15            0            0            0   -19435.146    -19939.23   -26929.111   -11437.099   -6339.3974   -11917.616   -7105.0423   -4278.4066 
     170   -4278.5636           15           15           15            0            0            0   -19201.452    -19793.98   -26282.273   -11528.102   -6357.9881   -11665.482   -7106.2664   -4278.5636 
     171   -4278.7088           15           15           15            0            0            0   -18962.618   -19729.599   -25490.478   -11667.778   -6500.6427   -11475.112   -7032.4094   -4278.7088 
     172   -4278.8848           15           15           15            0            0            0   -18942.217   -19635.837   -25275.412   -11915.401   -6399.0745   -11404.769   -6720.5908   -4278.8848 
     173   -4279.0077           15           15           15            0            0            0   -18813.179   -19139.854    -25266.54   -12033.143    -6226.285   -11301.696   -6489.0469   -4279.0077 
     174   -4279.1187           15           15           15            0            0            0   -18631.312   -18785.968   -24756.123   -12351.845   -5972.5082   -10853.783   -6413.9935   -4279.1187 
     175    -4279.252           15           15           15            0            0            0   -18330.504   -18216.389   -24208.841   -12566.283   -5739.4202   -10713.661   -6060.5157    -4279.252 
     176   -4279.3681           15           15           15            0            0            0   -18122.701    -17800.03    -24270.61   -12297.462   -5861.5976   -10689.602   -5545.6512   -4279.3681 
     177   -4279.4741           15           15           15            0            0            0   -17939.495   -17793.149   -23869.655   -12155.682    -5798.533   -10721.248   -5037.3665   -4279.4741 
     178   -4279.5788           15           15           15            0            0            0   -17704.735   -17894.416   -23158.566   -12061.224   -5434.8082   -10420.855   -4300.6974   -4279.5788 
     179   -4279.6761           15           15           15            0            0            0   -17349.261   -17524.241   -22251.296   -12272.245   -5155.3977   -10613.384   -3922.4236   -4279.6761 
     180    -4279.781           15           15           15            0            0            0   -17054.969   -17256.333   -21310.794   -12597.779   -4701.3558   -10631.702   -3490.1065    -4279.781 
     181   -4279.9185           15           15           15            0            0            0   -16730.004    -16671.17   -20851.603   -12667.238   -4411.7326   -10982.668   -3032.7118   -4279.9185 
     182   -4280.0528           15           15           15            0            0            0   -16471.492   -16774.496   -19908.654   -12731.325   -4193.6207   -11043.479   -2059.0153   -4280.0528 
     183   -4280.1713           15           15           15            0            0            0   -16702.587   -17528.504   -19377.238    -13202.02   -4057.7663   -11308.086    -1516.012   -4280.1713 
     184   -4280.3486           15           15           15            0            0            0   -17145.144   -18402.009    -19111.85   -13921.574   -4140.3609    -11096.39   -588.14876   -4280.3486 
     185   -4280.5386           15           15           15            0            0            0    -17660.46   -19145.791   -19621.931   -14213.657   -3974.3076   -11081.233   -224.76985   -4280.5386 
     186   -4280.7184           15           15           15            0            0            0   -17865.656   -19618.366   -20111.418   -13867.185   -3955.2728   -10931.325    328.10148   -4280.7184 
     187   -4280.8671           15           15           15            0            0            0   -17977.357   -19730.419    -20532.57   -13669.082   -3710.6647   -11104.107   -65.794251   -4280.8671 
     188   -4281.0632           15           15           15            0            0            0   -18113.936   -19454.086   -20809.311   -14078.412   -3698.1332   -10872.597   -545.24385   -4281.0632 
     189   -4281.2277           15           15           15            0            0            0   -18573.744   -19687.862   -21254.303   -14779.065   -3899.7688   -10920.129   -1352.9103   -4281.2277 
     190   -4281.3801           15           15           15            0            0            0   -18949.954   -20122.054   -21635.885   -15091.921   -4206.2863   -10534.749   -1647.1963   -4281.3801 
     191   -4281.5001           15           15           15            0            0            0   -19192.949   -20351.992    -21581.77   -15645.084   -4194.3681    -10406.33   -2348.3192   -4281.5001 
     192   -4281.6057           15           15           15            0            0            0   -19518.993    -20594.99   -21654.538    -16307.45    -4312.333    -10104.13   -2578.1125   -4281.6057 
     193   -4281.7097           15           15           15            0            0            0   -19953.014    -20800.64   -21761.804   -17296.597   -4365.4912    -10313.45   -3196.0992   -4281.7097 
     194   -4281.8077           15           15           15            0            0            0   -20400.625   -21333.628    -21793.96   -18074.287   -4379.8573   -10287.227     -3217.88   -4281.8077 
     195   -4281.9067           15           15           15            0            0            0   -21015.781   -21842.387   -22260.305   -18944.651   -4402.7013   -10453.777   -3742.3507   -4281.9067 
     196   -4281.9985           15           15           15            0            0            0   -21475.622   -22606.922   -22411.255    -19408.69   -4288.6916    -10431.94   -3723.8752   -4281.9985 
     197   -4282.0869           15           15           15            0            0            0   -21944.166    -23643.23   -22346.177   -19843.091   -4126.3013   -10528.768   -3773.1879   -4282.0869 
     198   -4282.1574           15           15           15            0            0            0   -22129.223   -24329.199   -22324.796   -19733.674   -4003.4382   -10515.199   -3675.3868   -4282.1574 
     199    -4282.235           15           15           15            0            0            0   -22066.533   -24697.469   -22020.331     -19481.8   -3898.1784   -10764.813   -4079.8499    -4282.235 
     200   -4282.3153           15           15           15            0            0            0   -21927.938   -25229.427   -21703.464   -18850.925   -3594.1989   -10835.382   -4018.0436   -4282.3153 
     201   -4282.3975           15           15           15            0            0            0   -21930.907    -25579.33   -21631.992     -18581.4    -3063.506   -11240.637   -4472.1029   -4282.3975 
     202   -4282.4791           15           15           15            0            0            0   -21968.458    -26013.68   -21530.426   -18361.267   -2763.7479   -11452.167   -4561.1553   -4282.4791 
     203   -4282.5707           15           15           15            0            0            0   -22021.201   -26085.622   -21739.982       -18238   -2593.6993   -12013.924   -5134.7891   -4282.5707 
     204   -4282.6786           15           15           15            0            0            0   -22115.229   -26387.583   -22067.066   -17891.039   -2291.4507   -12404.683   -5272.1844   -4282.6786 
     205   -4282.8217           15           15           15            0            0            0   -22177.982   -26749.851   -22219.235    -17564.86   -2348.0356   -12874.593   -5543.6676   -4282.8217 
     206    -4282.982           15           15           15            0            0            0   -22193.453   -27385.944   -22314.079   -16880.336   -2185.6551   -12946.108   -5400.5324    -4282.982 
     207   -4283.1311           15           15           15            0            0            0   -22080.148   -27771.957    -22265.22   -16203.267    -2142.212   -13243.841   -5729.4375   -4283.1311 
     208   -4283.2759           15           15           15            0            0            0   -21847.693   -27885.849   -22188.609    -15468.62   -2047.3869   -13148.462   -5735.4871   -4283.2759 
     209   -4283.4062           15           15           15            0            0            0   -21757.092   -28105.861   -22366.586   -14798.829   -2157.8691   -13176.857   -6175.7971   -4283.4062 
     210   -4283.5401           15           15           15            0            0            0   -21886.308   -28754.993   -22525.722   -14378.208   -2249.5094   -12964.031   -6295.0428   -4283.5401 
     211   -4283.6455           15           15           15            0            0            0   -22027.356   -29439.617   -22877.882   -13764.569   -2205.2541   -12801.305   -6456.8936   -4283.6455 
     212   -4283.7365           15           15           15            0            0            0   -22225.224   -29800.844   -23333.933   -13540.895   -2039.6243   -12786.388    -6841.677   -4283.7365 
     213   -4283.8226           15           15           15            0            0            0   -22330.172   -30105.384   -23548.804   -13336.327   -2134.9001   -12708.224   -6942.6788   -4283.8226 
     214   -4283.9101           15           15           15            0            0            0   -22475.117   -30600.148   -23389.162   -13436.042   -1663.6834   -12567.087   -6945.2519   -4283.9101 
     215   -4284.0057           15           15           15            0            0            0   -22722.767   -31205.468   -23567.549   -13395.282   -1300.0783   -12428.437   -6860.7264   -4284.0057 
     216   -4284.1071           15           15           15            0            0            0   -22758.738   -31524.839   -23138.093   -13613.283   -1004.3988   -12005.745   -6907.1292   -4284.1071 
     217   -4284.2068           15           15           15            0            0            0   -22713.796   -31464.679   -22851.052   -13825.656   -812.08213    -11862.52   -7127.5497   -4284.2068 
     218   -4284.2805           15           15           15            0            0            0    -22626.38   -31636.987   -22595.097   -13647.055   -596.79493    -11670.66   -6918.3304   -4284.2805 
     219    -4284.339           15           15           15            0            0            0   -22445.336   -31416.878    -22256.36    -13662.77   -585.66997   -11725.032    -6875.544    -4284.339 
     220   -4284.3923           15           15           15            0            0            0   -22242.761   -31018.456   -21980.861   -13728.965   -601.75519   -11589.741    -6893.197   -4284.3923 
     221   -4284.4368           15           15           15            0            0            0   -22075.321   -30690.777   -21732.732   -13802.453   -699.44946   -11681.798   -6888.3935   -4284.4368 
     222   -4284.4698           15           15           15            0            0            0    -22027.09   -30622.796   -21620.958   -13837.517   -675.19153   -11656.097   -6886.2144   -4284.4698 
     223   -4284.4992           15           15           15            0            0            0   -22004.991   -30500.155   -21605.764   -13909.054   -774.28386   -11766.663   -6940.3413   -4284.4992 
     224   -4284.5222           15           15           15            0            0            0   -21942.827   -30361.408   -21414.795   -14052.279    -712.6321   -11772.625   -6900.0292   -4284.5222 
     225   -4284.5404           15           15           15            0            0            0   -21886.419   -30209.845    -21414.82   -14034.592   -761.89095   -11830.402    -6775.565   -4284.5404 
     226   -4284.5579           15           15           15            0            0            0   -21869.563   -30188.777   -21390.146   -14029.765   -694.42171    -11793.32   -6619.1368   -4284.5579 
     227    -4284.571           15           15           15            0            0            0    -21916.55   -30232.829   -21425.892   -14090.928   -676.36338   -11729.001    -6547.575    -4284.571 
     228   -4284.5825           15           15           15            0            0            0   -21919.112   -30310.388   -21287.887   -14159.062   -593.72738   -11611.614   -6410.0718   -4284.5825 
     229   -4284.5937           15           15           15            0            0            0   -21907.248   -30272.911   -21223.603   -14225.229   -624.73796   -11557.174   -6391.0586   -4284.5937 
     230   -4284.6037           15           15           15            0            0            0   -21912.921   -30310.515   -21151.807   -14276.442   -648.70968    -11506.52   -6360.3962   -4284.6037 
     231   -4284.6137           15           15           15            0            0            0   -21959.035   -30294.712   -21182.341   -14400.052   -725.32457   -11437.433   -6372.4122   -4284.6137 
     232   -4284.6221           15           15           15            0            0            0   -21979.898   -30259.837   -21236.687   -14443.171   -726.27854   -11301.262   -6319.1046   -4284.6221 
     233   -4284.6305           15           15           15            0            0            0   -21926.636   -30113.004   -21320.932   -14345.971   -783.12725    -11122.32   -6416.2409   -4284.6305 
     234   -4284.6378           15           15           15            0            0            0   -21902.475   -30082.029   -21373.714   -14251.683   -826.42637   -10849.033   -6477.7888   -4284.6378 
     235   -4284.6445           15           15           15            0            0            0   -21787.299   -29918.444   -21428.611   -14014.843   -868.08981   -10615.239   -6589.5464   -4284.6445 
     236   -4284.6502           15           15           15            0            0            0   -21623.069   -29783.612   -21402.279   -13683.317   -914.21376   -10364.466   -6643.0194   -4284.6502 
     237   -4284.6557           15           15           15            0            0            0   -21448.328   -29597.616   -21369.037   -13378.331   -986.34073   -10181.649   -6743.3462   -4284.6557 
     238   -4284.6608           15           15           15            0            0            0   -21335.693   -29498.506     -21423.2   -13085.373   -990.69888    -10008.66   -6815.0842   -4284.6608 
     239   -4284.6655           15           15           15            0            0            0   -21237.289   -29407.015   -21469.135   -12835.718   -991.76537   -9882.1521   -6848.4503   -4284.6655 
     240   -4284.6704           15           15           15            0            0            0   -21097.247   -29282.752    -21461.16   -12547.827   -917.34688   -9705.0801   -6845.6883   -4284.6704 
     241   -4284.6747           15           15           15            0            0            0   -20954.654    -29117.99   -21454.649   -12291.323   -952.57295   -9509.4505    -6815.726   -4284.6747 
     242   -4284.6794           15           15           15            0            0            0   -20757.369   -28892.691   -21346.826   -12032.591   -967.78685   -9195.5506   -6734.2538   -4284.6794 
     243   -4284.6845           15           15           15            0            0            0   -20538.989   -28590.462   -21297.608   -11728.897   -987.64806   -8944.7967   -6745.2164   -4284.6845 
     244   -4284.6901           15           15           15            0            0            0    -20265.44   -28329.164   -21099.714   -11367.443     -926.335   -8632.1842   -6704.5308   -4284.6901 
     245   -4284.6958           15           15           15            0            0            0   -19981.955   -27973.251   -21006.516   -10966.097   -953.28711   -8410.8218   -6697.3373   -4284.6958 
     246   -4284.7026           15           15           15            0            0            0   -19703.422   -27571.228   -20984.928   -10554.109   -960.99638   -8108.1696    -6725.009   -4284.7026 
     247   -4284.7106           15           15           15            0            0            0   -19371.683   -27085.387   -20979.566   -10050.096   -1029.6191   -7833.6067   -6773.9059   -4284.7106 
     248   -4284.7206           15           15           15            0            0            0   -18984.683    -26465.52   -20947.203   -9541.3248   -1018.3518   -7521.9989   -6826.8073   -4284.7206 
     249   -4284.7318           15           15           15            0            0            0   -18646.968   -25851.042    -21030.02    -9059.843   -972.99408   -7274.5586   -6946.3367   -4284.7318 
     250   -4284.7467           15           15           15            0            0            0   -18321.195   -25087.247   -21299.208    -8577.132   -812.30369   -6901.7158   -7037.7745   -4284.7467 
     251   -4284.7683           15           15           15            0            0            0   -18011.305   -24256.066    -21645.27   -8132.5776   -670.32452   -6586.0941   -7312.5227   -4284.7683 
     252   -4284.7971           15           15           15            0            0            0   -17902.834   -23732.376   -22072.032   -7904.0938   -519.42686    -6213.208   -7575.5122   -4284.7971 
     253   -4284.8337           15           15           15            0            0            0   -17946.896   -23359.388   -22574.715   -7906.5853   -366.74079    -6165.968   -7975.5172   -4284.8337 
     254   -4284.8685           15           15           15            0            0            0   -18089.496   -23467.562   -22900.335   -7900.5911    -90.76971   -5916.1026   -8144.4726   -4284.8685 
     255   -4284.8993           15           15           15            0            0            0   -18106.827   -23638.494   -22894.001    -7787.988   -24.704434   -5827.3471   -8077.7499   -4284.8993 
     256   -4284.9326           15           15           15            0            0            0    -18175.94   -23847.669   -22913.621   -7766.5308    178.09447   -5655.9532   -7940.7189   -4284.9326 
     257   -4284.9549           15           15           15            0            0            0   -18224.161   -23796.416   -22995.011   -7881.0567    147.72038   -5625.7887   -8038.4602   -4284.9549 
     258   -4284.9705           15           15           15            0            0            0    -18205.12   -23817.813   -22933.382   -7864.1628    110.24582   -5566.5095   -8010.2937   -4284.9705 
     259   -4284.9866           15           15           15            0            0            0   -18193.201    -23845.77   -22823.902   -7909.9306    20.425608   -5570.0507   -7964.5207   -4284.9866 
     260   -4285.0022           15           15           15            0            0            0    -18315.69   -24119.655   -22855.353    -7972.063    53.803494   -5466.2345   -7780.9724   -4285.0022 
     261    -4285.016           15           15           15            0            0            0   -18443.751   -24344.162   -22968.783   -8018.3079    76.750634    -5543.418   -7704.6672    -4285.016 
     262   -4285.0299           15           15           15            0            0            0   -18591.911   -24731.968   -22895.933   -8147.8319    127.98178   -5557.9932    -7416.579   -4285.0299 
     263   -4285.0455           15           15           15            0            0            0   -18845.259   -25096.097   -23110.235    -8329.446    125.46771   -5670.6049   -7272.6315   -4285.0455 
     264   -4285.0607           15           15           15            0            0            0    -19248.35   -25594.112   -23584.425   -8566.5139    75.631583   -5622.8817   -7071.2257   -4285.0607 
     265   -4285.0801           15           15           15            0            0            0   -19740.338   -26286.025   -23998.852   -8936.1369    53.573444   -5681.8441   -6815.2476   -4285.0801 
     266    -4285.109           15           15           15            0            0            0   -20472.963    -27432.16   -24585.643   -9401.0871    223.47867   -5656.9288   -6135.1474    -4285.109 
     267   -4285.1545           15           15           15            0            0            0   -21240.935   -28544.309   -25269.473   -9909.0225    181.58499   -5619.3739   -5502.3958   -4285.1545 
     268   -4285.2071           15           15           15            0            0            0   -21467.913   -29028.851   -25325.846   -10049.043   -107.49389   -5410.7304    -5114.289   -4285.2071 
     269   -4285.2515           15           15           15            0            0            0   -21310.559   -29157.577   -24816.596   -9957.5051   -413.25253   -5240.4895    -4997.557   -4285.2515 
     270   -4285.3046           15           15           15            0            0            0    -20792.83   -29149.239   -23682.099   -9547.1538   -476.12969   -5045.4025    -4874.062   -4285.3046 
     271   -4285.3688           15           15           15            0            0            0   -20271.969   -29066.809   -22707.227   -9041.8694   -799.47729    -4973.016   -4915.5817   -4285.3688 
     272   -4285.4384           15           15           15            0            0            0   -20004.025   -29544.199   -21816.844    -8651.032    -858.5983   -4726.6856   -4832.2616   -4285.4384 
     273   -4285.5084           15           15           15            0            0            0   -19872.754   -29993.408   -20948.161   -8676.6921     -1087.56   -4757.2557   -4879.8071   -4285.5084 
     274   -4285.5827           15           15           15            0            0            0   -20001.419   -30631.256   -20580.285   -8792.7163   -1136.1934   -4837.8272   -4629.5486   -4285.5827 
     275   -4285.6503           15           15           15            0            0            0    -20379.48   -31213.419   -20963.676   -8961.3449   -1463.9281   -5046.3495   -4689.8363   -4285.6503 
     276   -4285.7032           15           15           15            0            0            0   -20619.355   -31460.462   -21333.077   -9064.5255   -1619.0792   -5041.9995   -4489.7964   -4285.7032 
     277   -4285.7497           15           15           15            0            0            0   -20634.062   -31397.523   -21519.212    -8985.452   -1757.6556   -5382.9295   -4587.3377   -4285.7497 
     278   -4285.7939           15           15           15            0            0            0   -20606.169   -31292.917   -21562.787   -8962.8043   -1741.7022   -5458.6347   -4346.3303   -4285.7939 
     279   -4285.8349           15           15           15            0            0            0   -20570.006   -30913.363   -21847.703    -8948.951   -1739.6387   -5716.6338   -4393.7413   -4285.8349 
     280   -4285.8683           15           15           15            0            0            0    -20519.07   -30830.134    -21930.65   -8796.4264   -1531.5553   -5631.1102   -4135.5609   -4285.8683 
     281    -4285.896           15           15           15            0            0            0   -20479.501   -30722.604   -21885.768   -8830.1294   -1463.1541    -5597.524    -4094.904    -4285.896 
     282   -4285.9224           15           15           15            0            0            0   -20355.478   -30564.755   -21650.811    -8850.869   -1164.2491     -5493.49   -3860.6883   -4285.9224 
     283   -4285.9464           15           15           15            0            0            0     -20320.8   -30382.686   -21713.935   -8865.7786   -1063.5156   -5419.3069   -3841.0346   -4285.9464 
     284   -4285.9663           15           15           15            0            0            0   -20129.362   -30049.772   -21612.526   -8725.7888   -932.17244    -5349.333    -3641.374   -4285.9663 
     285   -4285.9839           15           15           15            0            0            0   -19958.029   -29595.135   -21616.632   -8662.3192   -890.88085   -5395.7301   -3624.7347   -4285.9839 
     286   -4285.9992           15           15           15            0            0            0   -19825.896    -29337.21    -21542.72   -8597.7586   -664.66372   -5313.3272   -3488.5371   -4285.9992 
     287   -4286.0152           15           15           15            0            0            0   -19804.227   -29150.418   -21590.619   -8671.6436   -475.85006   -5330.9791   -3383.0496   -4286.0152 
     288   -4286.0297           15           15           15            0            0            0   -19820.345   -29182.862   -21564.272      -8713.9   -224.78185   -5222.3685   -3156.6458   -4286.0297 
     289   -4286.0474           15           15           15            0            0            0   -19952.378   -29264.426   -21652.032   -8940.6747   -103.04987    -5201.178   -3105.3281   -4286.0474 
     290   -4286.0664           15           15           15            0            0            0   -20125.073   -29426.321   -21709.797   -9239.1022    73.185269   -5009.6718   -2847.7961   -4286.0664 
     291   -4286.0851           15           15           15            0            0            0   -20262.129   -29578.096   -21754.794   -9453.4971    143.95789   -4949.4252   -2820.8118   -4286.0851 
     292   -4286.1091           15           15           15            0            0            0   -20358.348   -29671.686   -21902.112   -9501.2449     326.9501    -4791.687   -2596.0618   -4286.1091 
     293   -4286.1345           15           15           15            0            0            0   -20458.616   -29734.733   -22232.027   -9409.0862    313.67136   -4814.7187   -2655.2552   -4286.1345 
     294   -4286.1671           15           15           15            0            0            0    -20574.27   -29946.212   -22481.266   -9295.3314    348.69555   -4703.9967   -2621.4342   -4286.1671 
     295   -4286.2051           15           15           15            0            0            0   -20745.095   -30278.811   -22754.607   -9201.8653    239.33827   -4681.7266   -2783.9571   -4286.2051 
     296   -4286.2494           15           15           15            0            0            0   -20962.252   -30829.433   -22986.554    -9070.768    278.22301   -4663.4721   -2691.9171   -4286.2494 
     297   -4286.3074           15           15           15            0            0            0    -21458.96   -31545.935   -23528.079   -9302.8663    200.51561   -4960.4385   -2870.7437   -4286.3074 
     298   -4286.4133           15           15           15            0            0            0   -22048.883    -32459.18   -23950.345   -9737.1233    319.53991   -5243.3336   -2809.4478   -4286.4133 
     299   -4286.5152           15           15           15            0            0            0   -22623.176   -33047.159   -24240.725   -10581.643    241.66015   -5723.6098   -3211.9887   -4286.5152 
     300   -4286.6089           15           15           15            0            0            0    -23123.07    -33696.94   -24499.826   -11172.444    301.72724   -6039.4866   -3293.5784   -4286.6089 
     301   -4286.6501           15           15           15            0            0            0   -23053.937   -33740.488   -24504.018   -10917.306    365.89172   -5926.2173   -3060.9052   -4286.6501 
     302   -4286.7301           15           15           15            0            0            0   -22787.612    -33318.06   -24482.635   -10562.142    167.24736   -5869.1845    -3304.475   -4286.7301 
     303   -4286.8038           15           15           15            0            0            0   -22473.751   -32695.005   -24201.544   -10524.703    92.383831   -5808.8012   -3412.0634   -4286.8038 
     304    -4286.885           15           15           15            0            0            0   -22308.121   -32178.796   -24062.223   -10683.343    250.29793   -5702.7877   -3491.0519    -4286.885 
     305   -4286.9443           15           15           15            0            0            0    -22243.86    -32081.25   -23784.935   -10865.396    594.95938   -5491.2379   -3518.2976   -4286.9443 
     306   -4286.9851           15           15           15            0            0            0   -22108.085   -31877.419   -23703.334   -10743.503    769.13434    -5595.105   -3528.0634   -4286.9851 
     307   -4287.0279           15           15           15            0            0            0   -22105.754   -31757.364     -23501.7   -11058.196    881.99172   -5380.7559   -3414.2764   -4287.0279 
     308   -4287.0753           15           15           15            0            0            0   -22056.414   -31633.922   -23140.605   -11394.714     870.3505   -5409.3112   -3567.5821   -4287.0753 
     309   -4287.1304           15           15           15            0            0            0   -22128.613   -31521.912   -23182.953   -11680.973    875.98496   -5250.7702   -3501.1185   -4287.1304 
     310   -4287.2035           15           15           15            0            0            0   -22308.024   -31595.608    -23442.42   -11886.044    788.39936   -5101.8815   -3860.4312   -4287.2035 
     311   -4287.2973           15           15           15            0            0            0   -22426.136   -31704.661   -23557.906   -12015.843    730.09742   -4597.1964    -4246.979   -4287.2973 
     312   -4287.4188           15           15           15            0            0            0   -22756.885   -31824.677   -23640.722   -12805.258    346.13149   -4188.5678   -4726.7184   -4287.4188 
     313   -4287.5838           15           15           15            0            0            0   -23226.171   -32143.969   -23703.274   -13831.269    232.65173   -3589.6396   -5082.1359   -4287.5838 
     314   -4287.7901           15           15           15            0            0            0   -23637.568   -32479.182   -23997.621   -14435.901    -44.59378   -3364.9367    -5420.119   -4287.7901 
     315   -4288.0793           15           15           15            0            0            0   -23840.738   -33064.586   -23927.084   -14530.545   -226.20654   -3444.4578   -5162.2832   -4288.0793 
     316     -4288.32           15           15           15            0            0            0   -23864.212   -33246.741   -23795.683    -14550.21   -671.78215   -3425.1515   -5464.6285     -4288.32 
     317   -4288.5789           15           15           15            0            0            0   -23856.031   -33417.141   -23342.149   -14808.802   -1139.9818   -3074.7716   -5035.9724   -4288.5789 
     318   -4288.8519           15           15           15            0            0            0   -23758.475   -33771.445   -22937.898   -14566.081    -1887.515   -2761.4565   -4240.1656   -4288.8519 
     319   -4289.1358           15           15           15            0            0            0   -24008.844   -34098.345   -23513.191   -14414.996   -2841.3421   -2024.2125   -3345.2018   -4289.1358 
     320   -4289.3198           15           15           15            0            0            0   -24869.308   -34784.856   -24410.708   -15412.359   -3739.7394    -2075.469   -3006.2765   -4289.3198 
     321    -4289.551           15           15           15            0            0            0   -26080.958   -35962.553   -26062.315   -16218.006   -4706.2317   -1799.2774   -2593.1073    -4289.551 
     322   -4289.7775           15           15           15            0            0            0   -26678.419   -36885.686   -26544.448   -16605.122   -5468.9307   -1576.3611   -2943.4446   -4289.7775 
     323   -4290.0029           15           15           15            0            0            0   -27432.463   -37414.943   -27423.443   -17459.003   -5949.2317   -1137.7191   -2860.3961   -4290.0029 
     324   -4290.1513           15           15           15            0            0            0   -27813.569   -37295.036   -28189.652   -17956.019   -5967.7389   -1164.3764   -2600.8466   -4290.1513 
     325   -4290.3526           15           15           15            0            0            0   -27684.442       -36780   -27901.216    -18372.11    -5914.509    -1173.875   -2637.4058   -4290.3526 
     326   -4290.5131           15           15           15            0            0            0   -27452.235   -36274.843   -27638.285   -18443.577   -5526.3878   -708.89702   -2354.3995   -4290.5131 
     327   -4290.6587           15           15           15            0            0            0   -27706.621   -36634.163   -27625.883   -18859.818   -5300.4655   -560.20391   -2545.1784   -4290.6587 
     328   -4290.8285           15           15           15            0            0            0   -28380.117   -37060.601   -28068.628   -20011.123   -4834.6541   -522.58413   -3039.2643   -4290.8285 
     329   -4290.9968           15           15           15            0            0            0   -28993.723   -36910.369   -28418.109   -21652.691   -4715.2241   -978.30248   -3176.2347   -4290.9968 
     330   -4291.1784           15           15           15            0            0            0   -29423.166   -36430.224   -29072.578   -22766.696   -4506.8606   -969.65616   -2568.8378   -4291.1784 
     331   -4291.3338           15           15           15            0            0            0   -29529.276   -35853.697   -29597.402    -23136.73   -4146.0974   -934.28691   -2418.7316   -4291.3338 
     332   -4291.4463           15           15           15            0            0            0   -29545.506   -35490.904   -29714.514   -23431.101   -3830.7441   -696.09328   -2050.2195   -4291.4463 
     333   -4291.5374           15           15           15            0            0            0   -29643.771   -35195.417   -30019.459   -23716.436   -3964.9536   -565.17306   -1920.7561   -4291.5374 
     334   -4291.6048           15           15           15            0            0            0   -29455.981   -34844.881   -29852.192   -23670.869   -3874.1609   -397.40469    -1599.789   -4291.6048 
     335   -4291.6708           15           15           15            0            0            0   -28991.906   -34315.035   -29470.104    -23190.58   -4046.9906   -461.42355   -1380.5322   -4291.6708 
     336   -4291.7316           15           15           15            0            0            0   -28378.693   -33912.125   -28872.653     -22351.3   -4015.6145   -136.13737   -1253.9428   -4291.7316 
     337   -4291.7791           15           15           15            0            0            0   -27887.328   -33301.338   -28226.576   -22134.071   -4096.9882     119.5424   -1136.8721   -4291.7791 
     338   -4291.8179           15           15           15            0            0            0   -27435.569   -32697.585   -27623.028   -21986.093   -4114.3436    507.86756   -941.32999   -4291.8179 
     339   -4291.8529           15           15           15            0            0            0   -27081.808   -32357.043   -27260.961   -21627.419   -4224.6248    635.96564   -1030.7801   -4291.8529 
     340   -4291.8811           15           15           15            0            0            0   -26941.436   -32206.674   -27115.741   -21501.895   -4228.2802    819.63546   -1110.9493   -4291.8811 
     341    -4291.906           15           15           15            0            0            0   -26948.027    -32213.11   -27183.142    -21447.83   -4385.5519     940.7601   -1216.9362    -4291.906 
     342   -4291.9289           15           15           15            0            0            0   -27034.493   -32356.513    -27428.08   -21318.886   -4369.9377    1207.9682   -1181.0302   -4291.9289 
     343   -4291.9491           15           15           15            0            0            0   -27108.081   -32527.605   -27460.057   -21336.582   -4431.2231    1391.8464   -1229.8145   -4291.9491 
     344   -4291.9649           15           15           15            0            0            0   -27193.545   -32676.061   -27435.301   -21469.273   -4351.9975    1513.3636   -1143.3141   -4291.9649 
     345   -4291.9778           15           15           15            0            0            0   -27239.409   -32769.345   -27482.862    -21466.02   -4330.0934    1447.4272   -1160.9031   -4291.9778 
     346   -4291.9906           15           15           15            0            0            0   -27312.026   -32858.712   -27522.081   -21555.285   -4378.9848    1480.4553    -1122.705   -4291.9906 
     347   -4292.0016           15           15           15            0            0            0   -27428.809   -32905.197   -27741.764   -21639.465   -4534.8167    1515.7947   -1156.2877   -4292.0016 
     348   -4292.0131           15           15           15            0            0            0   -27476.312   -32946.368   -27926.505   -21556.063   -4578.8705    1675.8613   -1152.6623   -4292.0131 
     349   -4292.0246           15           15           15            0            0            0   -27442.423   -32812.351   -28043.648   -21471.271   -4735.3408    1711.8139   -1068.2744   -4292.0246 
     350   -4292.0384           15           15           15            0            0            0   -27302.936   -32591.606   -28022.903   -21294.298   -4876.3174    1833.7398   -840.95861   -4292.0384 
     351   -4292.0543           15           15           15            0            0            0    -27215.15   -32419.084   -28034.277   -21192.089   -5127.6569    1923.8605   -782.47847   -4292.0543 
     352   -4292.0729           15           15           15            0            0            0   -27176.629   -32345.838   -28023.971   -21160.077   -5379.0309    2089.5971    -579.6846   -4292.0729 
     353   -4292.0956           15           15           15            0            0            0   -27192.363   -32186.498    -28207.03    -21183.56    -5775.993    2068.2482   -368.13385   -4292.0956 
     354   -4292.1277           15           15           15            0            0            0   -27231.831   -32095.969   -28585.018   -21014.505   -6109.4449    2110.2256   -167.87296   -4292.1277 
     355    -4292.161           15           15           15            0            0            0   -27212.557    -31924.07   -28894.051    -20819.55   -6407.4081    2112.4199    61.444995    -4292.161 
     356   -4292.2011           15           15           15            0            0            0   -27142.829   -31618.349   -29073.325   -20736.814   -6631.1301    2343.3219    163.26693   -4292.2011 
     357   -4292.2433           15           15           15            0            0            0   -26952.069   -31261.622   -28975.826   -20618.761   -6913.8294    2392.3559    182.04121   -4292.2433 
     358   -4292.2889           15           15           15            0            0            0   -26786.261   -30831.155   -28991.544   -20536.083   -7053.4937    2402.4596    334.33596   -4292.2889 
     359   -4292.3474           15           15           15            0            0            0   -26618.426   -30560.355   -29051.027   -20243.898     -7278.62    2172.9857    311.28486   -4292.3474 
     360   -4292.4119           15           15           15            0            0            0   -26778.484   -30737.108   -29237.745     -20360.6   -7371.9107    2119.0328    388.74059   -4292.4119 
     361   -4292.4665           15           15           15            0            0            0   -27074.126   -30947.551   -29752.296   -20522.532   -7689.1988    1737.6171    169.87367   -4292.4665 
     362   -4292.5296           15           15           15            0            0            0   -27522.341    -31508.39   -30237.111   -20821.522   -7805.7629    1550.6715    140.75722   -4292.5296 
     363   -4292.6212           15           15           15            0            0            0   -28330.942   -32648.225   -30858.185   -21486.414   -8304.0875     730.6299  -0.35965046   -4292.6212 
     364   -4292.7143           15           15           15            0            0            0   -29138.816   -33960.454   -31243.807   -22212.186   -8411.5467    323.44528    72.957375   -4292.7143 
     365    -4292.822           15           15           15            0            0            0   -29607.773   -34643.079    -31474.39   -22705.851   -8695.1353    16.794355    172.37625    -4292.822 
     366   -4292.9129           15           15           15            0            0            0   -29961.009    -35004.19   -31677.533   -23201.303   -8790.6061    86.634268    504.14532   -4292.9129 
     367   -4293.0422           15           15           15            0            0            0   -30305.672    -35253.37   -32049.812   -23613.833   -9203.5041   -55.831339    815.19195   -4293.0422 
     368   -4293.1172           15           15           15            0            0            0   -30391.236     -35561.4   -32027.993   -23584.315   -9161.4147    287.00166    936.47642   -4293.1172 
     369    -4293.198           15           15           15            0            0            0   -30329.565   -35685.518   -31852.558   -23450.618    -9284.584    275.43359    675.18879    -4293.198 
     370   -4293.2684           15           15           15            0            0            0   -30132.673   -35703.391   -31295.859   -23398.771   -9213.4091    523.57792    559.43245   -4293.2684 
     371   -4293.3537           15           15           15            0            0            0   -29578.075   -35200.947   -30257.898   -23275.379     -9369.44    448.83448    471.15465   -4293.3537 
     372   -4293.4204           15           15           15            0            0            0   -29182.001   -34724.919   -29441.565   -23379.519   -9358.3213    762.84872    528.66595   -4293.4204 
     373   -4293.4805           15           15           15            0            0            0   -28721.713   -34206.932   -28596.235   -23361.972   -9370.2708    1004.6868    246.20838   -4293.4805 
     374   -4293.5323           15           15           15            0            0            0   -28425.827   -33672.064   -28069.942   -23535.475   -9202.6431    1370.0268    72.778761   -4293.5323 
     375   -4293.5803           15           15           15            0            0            0   -28246.165   -33217.771   -27922.368   -23598.356   -9171.6574    1220.1542    14.026685   -4293.5803 
     376   -4293.6265           15           15           15            0            0            0   -28146.572   -32943.835   -27703.699   -23792.181   -9064.7938    1260.0908     79.62335   -4293.6265 
     377   -4293.6704           15           15           15            0            0            0   -28073.995   -32614.232   -27577.785   -24029.969    -9019.385    1184.7215    119.40763   -4293.6704 
     378   -4293.7123           15           15           15            0            0            0   -28033.509   -32413.281   -27386.537   -24300.708   -8803.4426    1402.4821    337.63496   -4293.7123 
     379   -4293.7566           15           15           15            0            0            0   -27912.059   -31964.953    -27233.72   -24537.503   -8633.7844    1408.2222    430.64123   -4293.7566 
     380   -4293.8053           15           15           15            0            0            0   -27882.069   -31496.303   -27178.893   -24971.012   -8293.8299    1675.5997    680.08119   -4293.8053 
     381   -4293.8518           15           15           15            0            0            0   -27871.883   -31290.965   -26896.704    -25427.98   -8129.3026    1709.3594    664.39799   -4293.8518 
     382   -4293.8914           15           15           15            0            0            0   -27893.354   -31255.456   -26638.931   -25785.675   -8020.6691    1905.1264    622.99094   -4293.8914 
     383   -4293.9249           15           15           15            0            0            0   -27827.697   -31133.413   -26433.934   -25915.743   -8070.9959    1838.7188    534.04722   -4293.9249 
     384   -4293.9558           15           15           15            0            0            0   -27691.163   -31069.173   -26018.394   -25985.921   -8145.4766    1911.0745    568.86766   -4293.9558 
     385   -4293.9864           15           15           15            0            0            0   -27388.973   -30759.168    -25446.16    -25961.59   -8301.5178    1765.0692    501.27236   -4293.9864 
[...]
     476   -4296.0707           15           15           15            0            0            0   -29291.995   -28036.506   -29514.852   -30324.628   -7290.9092   -290.52915    -853.4031   -4296.0707 
     477   -4296.0808           15           15           15            0            0            0   -29371.507   -28120.352   -29710.772   -30283.397   -7351.3072   -42.267557   -873.65379   -4296.0808 
     478   -4296.0933           15           15           15            0            0            0   -29471.419   -28293.473   -29917.814    -30202.97   -7467.4105    121.34038   -916.14606   -4296.0933 
     479   -4296.1082           15           15           15            0            0            0   -29629.873   -28584.714   -30194.986   -30109.918   -7372.7596    340.59008   -909.19069   -4296.1082 
     480   -4296.1229           15           15           15            0            0            0   -29809.361   -28841.173   -30539.242   -30047.668   -7294.6144    407.54954   -926.50684   -4296.1229 
     481   -4296.1398           15           15           15            0            0            0   -30014.826   -29185.643   -30884.785    -29974.05   -7043.7218    466.26718   -891.63948   -4296.1398 
     482    -4296.159           15           15           15            0            0            0   -30177.357   -29496.841   -31211.502   -29823.727   -6901.4931     455.1496   -912.96392    -4296.159 
     483   -4296.1807           15           15           15            0            0            0   -30274.403   -29851.791   -31448.694   -29522.725   -6746.2625    570.44408   -1013.2091   -4296.1807 
     484   -4296.1963           15           15           15            0            0            0   -30249.161   -29988.686   -31382.757   -29376.041   -6699.4502    563.68454    -1062.052   -4296.1963 
     485   -4296.2116           15           15           15            0            0            0   -30203.905   -30048.326   -31413.234   -29150.155   -6580.9332    586.73688   -1085.5012   -4296.2116 
     486   -4296.2254           15           15           15            0            0            0   -30098.055   -30137.066   -31266.644   -28890.454   -6587.2028    498.70522   -1164.7821   -4296.2254 
     487   -4296.2371           15           15           15            0            0            0   -29996.716    -30230.98    -31146.54   -28612.628   -6517.5559    448.57053   -1212.7276   -4296.2371 
     488   -4296.2491           15           15           15            0            0            0   -29899.605   -30169.199   -31039.213   -28490.402   -6514.4032     224.2455   -1260.9389   -4296.2491 
     489   -4296.2599           15           15           15            0            0            0   -29870.454   -30233.707   -30895.394    -28482.26   -6361.0314    61.149927   -1266.4063   -4296.2599 
     490   -4296.2697           15           15           15            0            0            0   -29885.964   -30310.464   -30771.833   -28575.596   -6302.2272   -121.24051   -1272.0659   -4296.2697 
     491   -4296.2783           15           15           15            0            0            0   -29927.293   -30476.336   -30683.422   -28622.121   -6164.1106   -246.36683   -1285.0252   -4296.2783 
     492   -4296.2858           15           15           15            0            0            0   -29969.678   -30674.535   -30542.166   -28692.334   -6054.9242   -428.78236    -1320.744   -4296.2858 
     493   -4296.2921           15           15           15            0            0            0   -30032.098   -30881.928   -30479.376   -28734.988   -5896.0948   -484.25467   -1347.8909   -4296.2921 
     494   -4296.2975           15           15           15            0            0            0   -30051.876   -31050.604   -30356.673   -28748.351   -5832.6075   -532.46456   -1372.3335   -4296.2975 
     495   -4296.3021           15           15           15            0            0            0   -30062.873   -31206.915    -30304.52   -28677.184     -5721.27    -485.0014   -1357.4959   -4296.3021 
     496   -4296.3062           15           15           15            0            0            0   -30033.873   -31305.358   -30237.001   -28559.261   -5673.4977   -497.10654    -1312.072   -4296.3062 
     497   -4296.3097           15           15           15            0            0            0    -29982.38   -31328.097    -30183.42   -28435.621   -5583.6356   -438.15712   -1267.8813   -4296.3097 
     498   -4296.3127           15           15           15            0            0            0   -29919.257   -31285.604   -30130.637   -28341.529   -5572.9852   -403.83207    -1250.797   -4296.3127 
     499   -4296.3153           15           15           15            0            0            0   -29861.051   -31234.917   -30119.852   -28228.383   -5496.5363   -353.53941   -1242.7539   -4296.3153 
     500   -4296.3179           15           15           15            0            0            0   -29787.695   -31149.822   -30113.833   -28099.429   -5483.1561   -358.95986   -1219.6478   -4296.3179 
     501   -4296.3202           15           15           15            0            0            0   -29711.851   -31083.364   -30084.027   -27968.162   -5438.6622   -353.56833   -1213.9681   -4296.3202 
     502   -4296.3227           15           15           15            0            0            0   -29624.051   -31016.635   -29994.228   -27861.289   -5433.7512   -378.39224   -1240.0412   -4296.3227 
     503   -4296.3246           15           15           15            0            0            0   -29574.137    -30946.38   -29964.196   -27811.835   -5387.1726   -365.91521   -1273.1469   -4296.3246 
     504   -4296.3265           15           15           15            0            0            0   -29528.952   -30880.072   -29940.763   -27766.022   -5384.4594   -395.11583    -1310.086   -4296.3265 
     505    -4296.328           15           15           15            0            0            0   -29490.485   -30821.693    -29926.42   -27723.343   -5337.0797   -382.89029   -1338.6757    -4296.328 
     506   -4296.3293           15           15           15            0            0            0   -29456.812   -30775.879   -29898.442   -27696.115   -5340.6096   -404.84215   -1366.2969   -4296.3293 
     507   -4296.3305           15           15           15            0            0            0   -29439.803    -30745.42   -29895.528   -27678.462   -5318.7628    -411.6647   -1392.3692   -4296.3305 
     508   -4296.3315           15           15           15            0            0            0   -29421.714   -30719.112   -29891.665   -27654.365   -5320.4825   -453.78466   -1391.3972   -4296.3315 
     509   -4296.3323           15           15           15            0            0            0   -29402.805   -30695.752   -29913.607   -27599.056   -5275.7229   -466.83714    -1390.427   -4296.3323 
     510   -4296.3328           15           15           15            0            0            0    -29387.94   -30682.284   -29929.041   -27552.496   -5278.9922   -482.72286   -1397.1405   -4296.3328 
     511   -4296.3335           15           15           15            0            0            0   -29377.628    -30686.64   -29929.023   -27517.222   -5266.4239   -484.51375   -1393.6748   -4296.3335 
     512   -4296.3339           15           15           15            0            0            0   -29368.119    -30675.88   -29933.843   -27494.635   -5263.6588   -509.27412   -1384.8719   -4296.3339 
     513   -4296.3344           15           15           15            0            0            0   -29363.159   -30667.122   -29945.351   -27477.003   -5242.8158   -511.08288    -1372.759   -4296.3344 
     514   -4296.3347           15           15           15            0            0            0   -29349.228   -30655.587   -29936.287    -27455.81   -5241.2222   -525.48037    -1358.151   -4296.3347 
     515   -4296.3352           15           15           15            0            0            0   -29329.976   -30636.352   -29918.368   -27435.207   -5231.7799   -534.92174   -1343.6679   -4296.3352 
     516   -4296.3356           15           15           15            0            0            0   -29304.557   -30618.833   -29879.669   -27415.168   -5243.0575   -574.06535   -1323.4438   -4296.3356 
     517   -4296.3361           15           15           15            0            0            0   -29268.621   -30593.347   -29847.998   -27364.517   -5229.4629   -602.09527    -1315.213   -4296.3361 
     518   -4296.3366           15           15           15            0            0            0    -29226.38   -30555.046   -29803.824   -27320.269   -5240.7357   -646.82951   -1309.4979   -4296.3366 
     519   -4296.3371           15           15           15            0            0            0   -29188.072    -30528.52   -29756.499   -27279.198    -5229.264   -679.88079    -1293.023   -4296.3371 
     520   -4296.3377           15           15           15            0            0            0   -29149.943   -30499.525   -29722.589   -27227.715   -5247.8939   -751.40376   -1272.5354   -4296.3377 
     521   -4296.3386           15           15           15            0            0            0   -29115.586   -30478.192   -29696.078   -27172.487   -5229.3111   -822.05314     -1251.27   -4296.3386 
     522   -4296.3399           15           15           15            0            0            0   -29070.442   -30446.579   -29659.374   -27105.373   -5234.4561   -942.38215   -1228.3717   -4296.3399 
     523   -4296.3425           15           15           15            0            0            0   -29030.159   -30433.627   -29650.086   -27006.765   -5217.5227   -1075.2133   -1181.4515   -4296.3425 
     524   -4296.3457           15           15           15            0            0            0   -29016.331   -30478.077   -29639.211   -26931.704   -5223.0604   -1225.7544   -1117.8868   -4296.3457 
     525    -4296.349           15           15           15            0            0            0   -29036.389   -30516.334   -29683.622   -26909.209   -5204.4819   -1315.0743   -1083.1193    -4296.349 
     526   -4296.3519           15           15           15            0            0            0   -29071.481   -30581.701   -29713.705   -26919.037    -5238.627   -1388.6539   -1057.3855   -4296.3519 
     527   -4296.3549           15           15           15            0            0            0   -29121.375   -30649.291   -29785.002   -26929.831    -5213.257   -1385.8236   -1047.7988   -4296.3549 
     528   -4296.3578           15           15           15            0            0            0   -29170.599   -30710.335   -29872.025   -26929.436   -5260.6291   -1407.0063   -1067.0603   -4296.3578 
     529   -4296.3603           15           15           15            0            0            0   -29217.266   -30782.937   -29964.029   -26904.833   -5248.9625   -1382.8228   -1086.9623   -4296.3603 
     530   -4296.3628           15           15           15            0            0            0   -29250.806    -30833.51   -30053.511   -26865.396   -5301.6701   -1386.1099   -1114.2335   -4296.3628 
     531   -4296.3648           15           15           15            0            0            0   -29260.557   -30863.075   -30135.758   -26782.839   -5283.0536   -1342.7046   -1158.8996   -4296.3648 
     532   -4296.3665           15           15           15            0            0            0   -29255.316   -30877.235   -30198.271   -26690.443   -5313.6696   -1316.9534   -1206.6916   -4296.3665 
     533    -4296.368           15           15           15            0            0            0   -29252.576   -30869.324   -30299.622   -26588.783   -5295.6289   -1264.4258   -1250.6503    -4296.368 
     534   -4296.3693           15           15           15            0            0            0   -29255.481   -30877.472   -30376.696   -26512.274   -5311.6797   -1239.7711   -1291.7517   -4296.3693 
     535   -4296.3705           15           15           15            0            0            0   -29272.386   -30918.737   -30444.457   -26453.964   -5295.2309   -1182.3846    -1332.739   -4296.3705 
     536   -4296.3717           15           15           15            0            0            0   -29311.779   -30973.875   -30530.741   -26430.721   -5321.7413    -1155.756   -1374.1609   -4296.3717 
     537   -4296.3728           15           15           15            0            0            0   -29370.385   -31039.481   -30626.191   -26445.483   -5318.6513   -1099.0795   -1416.0818   -4296.3728 
     538   -4296.3738           15           15           15            0            0            0   -29434.799   -31094.118   -30713.718   -26496.562   -5359.1829   -1064.6718   -1457.9083   -4296.3738 
     539   -4296.3747           15           15           15            0            0            0   -29491.655   -31160.926   -30771.041   -26542.997   -5374.7324   -999.17474   -1480.2579   -4296.3747 
     540   -4296.3755           15           15           15            0            0            0   -29542.241   -31211.331   -30800.716   -26614.676   -5436.5575    -946.8338   -1486.5665   -4296.3755 
     541   -4296.3763           15           15           15            0            0            0   -29573.142   -31243.049   -30819.648   -26656.729   -5474.2042   -875.62364   -1483.5518   -4296.3763 
     542   -4296.3769           15           15           15            0            0            0   -29586.823   -31249.012   -30812.653   -26698.804   -5547.4064    -816.5474   -1476.7557   -4296.3769 
     543   -4296.3777           15           15           15            0            0            0   -29589.213   -31246.226   -30796.161   -26725.253   -5601.9767   -735.32116   -1472.2995   -4296.3777 
     544   -4296.3783           15           15           15            0            0            0   -29585.328   -31233.767   -30774.326    -26747.89   -5683.5195   -685.23666    -1469.889   -4296.3783 
     545   -4296.3789           15           15           15            0            0            0   -29579.666   -31223.464   -30752.581   -26762.952   -5738.4078   -629.29984    -1464.468   -4296.3789 
     546   -4296.3794           15           15           15            0            0            0   -29574.739   -31208.848   -30730.866   -26784.503   -5797.3845    -609.1818   -1460.6359   -4296.3794 
     547   -4296.3798           15           15           15            0            0            0    -29572.31   -31198.895    -30705.39   -26812.647   -5817.4867   -576.35385   -1458.3655   -4296.3798 
     548   -4296.3801           15           15           15            0            0            0   -29574.698   -31199.303   -30674.233   -26850.559    -5854.364   -571.06278   -1460.5282   -4296.3801 
     549   -4296.3806           15           15           15            0            0            0   -29585.428   -31209.227   -30661.492   -26885.565   -5862.5878   -561.41312   -1464.3058   -4296.3806 
     550   -4296.3808           15           15           15            0            0            0   -29605.592   -31227.854   -30653.962    -26934.96   -5886.8411   -573.18683    -1466.511   -4296.3808 
     551   -4296.3811           15           15           15            0            0            0   -29632.538   -31257.595   -30657.737   -26982.281   -5881.5333   -577.92034   -1469.7383   -4296.3811 
     552   -4296.3813           15           15           15            0            0            0   -29663.819   -31294.265   -30670.578   -27026.615   -5898.7843   -599.45629   -1471.5111   -4296.3813 
     553   -4296.3816           15           15           15            0            0            0   -29695.783   -31326.142   -30705.974   -27055.234   -5895.9665   -609.59538   -1473.2571   -4296.3816 
     554   -4296.3819           15           15           15            0            0            0   -29721.056   -31351.402   -30743.539   -27068.228   -5907.4924   -628.79778   -1472.6602   -4296.3819 
     555   -4296.3821           15           15           15            0            0            0   -29738.422   -31365.282   -30783.819   -27066.166    -5901.227   -631.83616   -1470.5621   -4296.3821 
     556   -4296.3823           15           15           15            0            0            0   -29748.035   -31377.624   -30813.399   -27053.081   -5912.3893   -645.24498   -1466.4053   -4296.3823 
     557   -4296.3825           15           15           15            0            0            0   -29756.339   -31396.183   -30848.018   -27024.817   -5902.1457   -649.69717   -1462.0743   -4296.3825 
     558   -4296.3827           15           15           15            0            0            0   -29764.347    -31418.28   -30873.713   -27001.047   -5905.5108   -662.62352   -1455.1349   -4296.3827 
     559   -4296.3829           15           15           15            0            0            0   -29773.869   -31445.096   -30898.328   -26978.184   -5894.8201   -662.51611   -1446.2366   -4296.3829 
     560    -4296.383           15           15           15            0            0            0   -29783.926   -31469.788   -30920.887   -26961.103   -5900.7499    -675.7026    -1437.931    -4296.383 
     561   -4296.3831           15           15           15            0            0            0   -29794.345   -31499.478   -30939.829   -26943.728   -5894.6266   -681.72705   -1428.2637   -4296.3831 
     562   -4296.3831           15           15           15            0            0            0   -29805.607   -31525.529   -30955.158   -26936.135   -5900.0134   -694.98144   -1418.0287   -4296.3831 
     563   -4296.3831           15           15           15            0            0            0   -29817.105   -31546.426   -30971.579   -26933.309   -5896.5549   -698.39718   -1413.6353   -4296.3831 
     564   -4296.3832           15           15           15            0            0            0   -29824.032   -31561.406    -30976.23   -26934.459   -5901.8329   -708.02987   -1414.1971   -4296.3832 
     565   -4296.3833           15           15           15            0            0            0    -29827.66   -31572.276   -30980.689   -26930.014   -5899.2497    -711.1613   -1411.7258   -4296.3833 
     566   -4296.3833           15           15           15            0            0            0    -29827.66   -31572.276   -30980.689   -26930.014   -5899.2497    -711.1613   -1411.7258   -4296.3833 
Loop time of 4.40133 on 1 procs for 566 steps with 216 atoms

Minimization stats:
  Stopping criterion = linesearch alpha is zero
  Energy initial, next-to-last, final = 
        -4087.67602246     -4296.38331872     -4296.38331872
  Force two-norm initial, final = 45.6575 0.0463649
  Force max component initial, final = 8.28468 0.00937072
  Final line search alpha, max atom move = 3.8147e-06 3.57465e-08
  Iterations, force evaluations = 566 1083

Pair  time (%) = 1.77239 (40.2695)
Kspce time (%) = 2.475 (56.233)
Neigh time (%) = 0.103916 (2.36102)
Comm  time (%) = 0.0240195 (0.545733)
Outpt time (%) = 0.0160472 (0.3646)
Other time (%) = 0.00995588 (0.226202)

Nlocal:    216 ave 216 max 216 min
Histogram: 1 0 0 0 0 0 0 0 0 0
Nghost:    2977 ave 2977 max 2977 min
Histogram: 1 0 0 0 0 0 0 0 0 0
Neighs:    38380 ave 38380 max 38380 min
Histogram: 1 0 0 0 0 0 0 0 0 0

Total # of neighbors = 38380
Ave neighs/atom = 177.685
Neighbor list builds = 48
Dangerous builds = 0
pypospack:output_section:begin
tot_energy = -4296.38331871786
num_atoms = 216
xx = 15
yy = 15
zz = 15
xy = 0
xz = 0
yz = 0
tot_press = -29827.65966504
pxx = -31572.2762562884
pyy = -30980.6890930868
pzz = -26930.0136457448
pxy = -5899.24972171445
pxz = -711.161299546605
pyz = -1411.72582905508
pypospack:output_section:done
pypospack:lammps_sim:done
