# ['Ni']

107 atoms
1 atom types

    0.0000     9.9369 xlo xhi
    0.0000     9.9369 ylo yhi
    0.0000     9.9369 zlo zhi

    0.0000    -0.0000    -0.0000 xy xz yz

Atoms

1 1     1.6561     1.6561     0.0000
2 1     1.6561     0.0000     1.6561
3 1     0.0000     1.6561     1.6561
4 1     0.0000     0.0000     3.3123
5 1     1.6561     1.6561     3.3123
6 1     1.6561     0.0000     4.9684
7 1     0.0000     1.6561     4.9684
8 1     0.0000     0.0000     6.6246
9 1     1.6561     1.6561     6.6246
10 1     1.6561     0.0000     8.2807
11 1     0.0000     1.6561     8.2807
12 1     0.0000     3.3123     0.0000
13 1     1.6561     4.9684     0.0000
14 1     1.6561     3.3123     1.6561
15 1     0.0000     4.9684     1.6561
16 1     0.0000     3.3123     3.3123
17 1     1.6561     4.9684     3.3123
18 1     1.6561     3.3123     4.9684
19 1     0.0000     4.9684     4.9684
20 1     0.0000     3.3123     6.6246
21 1     1.6561     4.9684     6.6246
22 1     1.6561     3.3123     8.2807
23 1     0.0000     4.9684     8.2807
24 1     0.0000     6.6246     0.0000
25 1     1.6561     8.2807     0.0000
26 1     1.6561     6.6246     1.6561
27 1     0.0000     8.2807     1.6561
28 1     0.0000     6.6246     3.3123
29 1     1.6561     8.2807     3.3123
30 1     1.6561     6.6246     4.9684
31 1     0.0000     8.2807     4.9684
32 1     0.0000     6.6246     6.6246
33 1     1.6561     8.2807     6.6246
34 1     1.6561     6.6246     8.2807
35 1     0.0000     8.2807     8.2807
36 1     3.3123     0.0000     0.0000
37 1     4.9684     1.6561     0.0000
38 1     4.9684     0.0000     1.6561
39 1     3.3123     1.6561     1.6561
40 1     3.3123     0.0000     3.3123
41 1     4.9684     1.6561     3.3123
42 1     4.9684     0.0000     4.9684
43 1     3.3123     1.6561     4.9684
44 1     3.3123     0.0000     6.6246
45 1     4.9684     1.6561     6.6246
46 1     4.9684     0.0000     8.2807
47 1     3.3123     1.6561     8.2807
48 1     3.3123     3.3123     0.0000
49 1     4.9684     4.9684     0.0000
50 1     4.9684     3.3123     1.6561
51 1     3.3123     4.9684     1.6561
52 1     3.3123     3.3123     3.3123
53 1     4.9684     4.9684     3.3123
54 1     4.9684     3.3123     4.9684
55 1     3.3123     4.9684     4.9684
56 1     3.3123     3.3123     6.6246
57 1     4.9684     4.9684     6.6246
58 1     4.9684     3.3123     8.2807
59 1     3.3123     4.9684     8.2807
60 1     3.3123     6.6246     0.0000
61 1     4.9684     8.2807     0.0000
62 1     4.9684     6.6246     1.6561
63 1     3.3123     8.2807     1.6561
64 1     3.3123     6.6246     3.3123
65 1     4.9684     8.2807     3.3123
66 1     4.9684     6.6246     4.9684
67 1     3.3123     8.2807     4.9684
68 1     3.3123     6.6246     6.6246
69 1     4.9684     8.2807     6.6246
70 1     4.9684     6.6246     8.2807
71 1     3.3123     8.2807     8.2807
72 1     6.6246     0.0000     0.0000
73 1     8.2807     1.6561     0.0000
74 1     8.2807     0.0000     1.6561
75 1     6.6246     1.6561     1.6561
76 1     6.6246     0.0000     3.3123
77 1     8.2807     1.6561     3.3123
78 1     8.2807     0.0000     4.9684
79 1     6.6246     1.6561     4.9684
80 1     6.6246     0.0000     6.6246
81 1     8.2807     1.6561     6.6246
82 1     8.2807     0.0000     8.2807
83 1     6.6246     1.6561     8.2807
84 1     6.6246     3.3123     0.0000
85 1     8.2807     4.9684     0.0000
86 1     8.2807     3.3123     1.6561
87 1     6.6246     4.9684     1.6561
88 1     6.6246     3.3123     3.3123
89 1     8.2807     4.9684     3.3123
90 1     8.2807     3.3123     4.9684
91 1     6.6246     4.9684     4.9684
92 1     6.6246     3.3123     6.6246
93 1     8.2807     4.9684     6.6246
94 1     8.2807     3.3123     8.2807
95 1     6.6246     4.9684     8.2807
96 1     6.6246     6.6246     0.0000
97 1     8.2807     8.2807     0.0000
98 1     8.2807     6.6246     1.6561
99 1     6.6246     8.2807     1.6561
100 1     6.6246     6.6246     3.3123
101 1     8.2807     8.2807     3.3123
102 1     8.2807     6.6246     4.9684
103 1     6.6246     8.2807     4.9684
104 1     6.6246     6.6246     6.6246
105 1     8.2807     8.2807     6.6246
106 1     8.2807     6.6246     8.2807
107 1     6.6246     8.2807     8.2807
