   2   2   0   0
  0.9563318E+01  0.3001819E-09  0.3001820E-09  0.3001819E-09  0.5000000E-15
  1.000000000000000E-004
  CAR 
 automatically generated by pyflamestk   
     44.09542525    -16.45789264  301      3.75177720      1.00000000
    -16.458  0.0000E+00  0.0000E+00
    -16.256  0.0000E+00  0.0000E+00
    -16.054  0.0000E+00  0.0000E+00
    -15.852  0.0000E+00  0.0000E+00
    -15.651  0.0000E+00  0.0000E+00
    -15.449  0.0000E+00  0.0000E+00
    -15.247  0.0000E+00  0.0000E+00
    -15.045  0.0000E+00  0.0000E+00
    -14.843  0.0000E+00  0.0000E+00
    -14.641  0.0000E+00  0.0000E+00
    -14.439  0.0000E+00  0.0000E+00
    -14.238  0.0000E+00  0.0000E+00
    -14.036  0.0000E+00  0.0000E+00
    -13.834  0.4337E-04  0.8754E-05
    -13.632  0.3037E+00  0.6132E-01
    -13.430  0.1288E-01  0.6392E-01
    -13.228  0.9214E+00  0.2499E+00
    -13.027  0.7511E+00  0.4015E+00
    -12.825  0.8918E+00  0.5815E+00
    -12.623  0.2694E+01  0.1125E+01
    -12.421  0.3108E+01  0.1753E+01
    -12.219  0.1226E+01  0.2000E+01
    -12.017  0.2443E-07  0.2000E+01
    -11.815  0.0000E+00  0.2000E+01
    -11.614  0.0000E+00  0.2000E+01
    -11.412  0.0000E+00  0.2000E+01
    -11.210  0.0000E+00  0.2000E+01
    -11.008  0.0000E+00  0.2000E+01
    -10.806  0.0000E+00  0.2000E+01
    -10.604  0.0000E+00  0.2000E+01
    -10.403  0.0000E+00  0.2000E+01
    -10.201  0.0000E+00  0.2000E+01
     -9.999  0.0000E+00  0.2000E+01
     -9.797  0.0000E+00  0.2000E+01
     -9.595  0.0000E+00  0.2000E+01
     -9.393  0.0000E+00  0.2000E+01
     -9.191  0.0000E+00  0.2000E+01
     -8.990  0.0000E+00  0.2000E+01
     -8.788  0.0000E+00  0.2000E+01
     -8.586  0.0000E+00  0.2000E+01
     -8.384  0.0000E+00  0.2000E+01
     -8.182  0.0000E+00  0.2000E+01
     -7.980  0.0000E+00  0.2000E+01
     -7.779  0.0000E+00  0.2000E+01
     -7.577  0.0000E+00  0.2000E+01
     -7.375  0.0000E+00  0.2000E+01
     -7.173  0.0000E+00  0.2000E+01
     -6.971  0.0000E+00  0.2000E+01
     -6.769  0.0000E+00  0.2000E+01
     -6.568  0.0000E+00  0.2000E+01
     -6.366  0.0000E+00  0.2000E+01
     -6.164  0.0000E+00  0.2000E+01
     -5.962  0.0000E+00  0.2000E+01
     -5.760  0.0000E+00  0.2000E+01
     -5.558  0.0000E+00  0.2000E+01
     -5.356  0.0000E+00  0.2000E+01
     -5.155  0.0000E+00  0.2000E+01
     -4.953  0.0000E+00  0.2000E+01
     -4.751  0.0000E+00  0.2000E+01
     -4.549  0.0000E+00  0.2000E+01
     -4.347  0.0000E+00  0.2000E+01
     -4.145  0.0000E+00  0.2000E+01
     -3.944  0.0000E+00  0.2000E+01
     -3.742  0.0000E+00  0.2000E+01
     -3.540  0.0000E+00  0.2000E+01
     -3.338  0.0000E+00  0.2000E+01
     -3.136  0.0000E+00  0.2000E+01
     -2.934  0.0000E+00  0.2000E+01
     -2.732  0.0000E+00  0.2000E+01
     -2.531  0.0000E+00  0.2000E+01
     -2.329  0.0000E+00  0.2000E+01
     -2.127  0.0000E+00  0.2000E+01
     -1.925  0.0000E+00  0.2000E+01
     -1.723  0.0000E+00  0.2000E+01
     -1.521  0.0000E+00  0.2000E+01
     -1.320  0.0000E+00  0.2000E+01
     -1.118  0.0000E+00  0.2000E+01
     -0.916  0.3385E-02  0.2001E+01
     -0.714  0.9244E+00  0.2187E+01
     -0.512  0.2840E+00  0.2245E+01
     -0.310  0.9077E+00  0.2428E+01
     -0.108  0.2828E+01  0.2999E+01
      0.093  0.2115E+01  0.3426E+01
      0.295  0.1128E+01  0.3653E+01
      0.497  0.4786E+00  0.3750E+01
      0.699  0.0000E+00  0.3750E+01
      0.901  0.1161E-02  0.3750E+01
      1.103  0.2079E+01  0.4170E+01
      1.304  0.1633E+01  0.4499E+01
      1.506  0.2526E-02  0.4500E+01
      1.708  0.1663E+00  0.4534E+01
      1.910  0.2620E+01  0.5062E+01
      2.112  0.9672E+00  0.5258E+01
      2.314  0.2759E+01  0.5815E+01
      2.515  0.2156E+01  0.6250E+01
      2.717  0.4205E+01  0.7098E+01
      2.919  0.8392E+00  0.7268E+01
      3.121  0.2967E+01  0.7867E+01
      3.323  0.1052E+00  0.7888E+01
      3.525  0.5556E+00  0.8000E+01
      3.727  0.2737E-05  0.8000E+01
      3.928  0.0000E+00  0.8000E+01
      4.130  0.0000E+00  0.8000E+01
      4.332  0.0000E+00  0.8000E+01
      4.534  0.0000E+00  0.8000E+01
      4.736  0.0000E+00  0.8000E+01
      4.938  0.0000E+00  0.8000E+01
      5.139  0.0000E+00  0.8000E+01
      5.341  0.0000E+00  0.8000E+01
      5.543  0.0000E+00  0.8000E+01
      5.745  0.0000E+00  0.8000E+01
      5.947  0.0000E+00  0.8000E+01
      6.149  0.0000E+00  0.8000E+01
      6.351  0.0000E+00  0.8000E+01
      6.552  0.0000E+00  0.8000E+01
      6.754  0.0000E+00  0.8000E+01
      6.956  0.0000E+00  0.8000E+01
      7.158  0.0000E+00  0.8000E+01
      7.360  0.0000E+00  0.8000E+01
      7.562  0.0000E+00  0.8000E+01
      7.763  0.0000E+00  0.8000E+01
      7.965  0.0000E+00  0.8000E+01
      8.167  0.0000E+00  0.8000E+01
      8.369  0.0000E+00  0.8000E+01
      8.571  0.6062E-10  0.8000E+01
      8.773  0.9033E-01  0.8018E+01
      8.975  0.2193E+00  0.8062E+01
      9.176  0.3810E-07  0.8062E+01
      9.378  0.0000E+00  0.8062E+01
      9.580  0.0000E+00  0.8062E+01
      9.782  0.0000E+00  0.8062E+01
      9.984  0.0000E+00  0.8062E+01
     10.186  0.4976E-09  0.8063E+01
     10.387  0.3237E+00  0.8128E+01
     10.589  0.6052E+00  0.8250E+01
     10.791  0.4832E-07  0.8250E+01
     10.993  0.7906E-01  0.8266E+01
     11.195  0.4159E+00  0.8350E+01
     11.397  0.7436E+00  0.8500E+01
     11.598  0.5303E-06  0.8500E+01
     11.800  0.2948E+00  0.8560E+01
     12.002  0.6341E+00  0.8687E+01
     12.204  0.3407E-04  0.8688E+01
     12.406  0.8911E+00  0.8867E+01
     12.608  0.4304E-01  0.8876E+01
     12.810  0.1850E+01  0.9249E+01
     13.011  0.9093E+00  0.9433E+01
     13.213  0.7096E+00  0.9576E+01
     13.415  0.2419E+00  0.9625E+01
     13.617  0.3601E+00  0.9698E+01
     13.819  0.6586E+00  0.9831E+01
     14.021  0.2424E+01  0.1032E+02
     14.222  0.2733E+00  0.1037E+02
     14.424  0.0000E+00  0.1038E+02
     14.626  0.0000E+00  0.1038E+02
     14.828  0.4626E-02  0.1038E+02
     15.030  0.3698E+01  0.1112E+02
     15.232  0.1358E-01  0.1113E+02
     15.434  0.1505E+01  0.1143E+02
     15.635  0.1999E+01  0.1183E+02
     15.837  0.2378E+01  0.1231E+02
     16.039  0.1611E-02  0.1231E+02
     16.241  0.9277E+00  0.1250E+02
     16.443  0.9301E+00  0.1269E+02
     16.645  0.1254E-04  0.1269E+02
     16.846  0.2730E-11  0.1269E+02
     17.048  0.1891E+00  0.1273E+02
     17.250  0.1687E+01  0.1307E+02
     17.452  0.1162E+01  0.1330E+02
     17.654  0.5778E-01  0.1331E+02
     17.856  0.3216E-08  0.1331E+02
     18.057  0.4335E+00  0.1340E+02
     18.259  0.4955E+00  0.1350E+02
     18.461  0.0000E+00  0.1350E+02
     18.663  0.7770E-03  0.1350E+02
     18.865  0.9234E+00  0.1369E+02
     19.067  0.4776E-02  0.1369E+02
     19.269  0.1340E-05  0.1369E+02
     19.470  0.5402E+00  0.1380E+02
     19.672  0.1577E+01  0.1411E+02
     19.874  0.2330E+01  0.1459E+02
     20.076  0.1191E+01  0.1483E+02
     20.278  0.8959E+00  0.1501E+02
     20.480  0.2039E+01  0.1542E+02
     20.681  0.1008E+01  0.1562E+02
     20.883  0.2636E-01  0.1563E+02
     21.085  0.9195E+00  0.1581E+02
     21.287  0.8925E+00  0.1599E+02
     21.489  0.9451E+00  0.1618E+02
     21.691  0.1033E+01  0.1639E+02
     21.893  0.8458E+00  0.1656E+02
     22.094  0.1434E-05  0.1656E+02
     22.296  0.7908E+00  0.1672E+02
     22.498  0.1381E+00  0.1675E+02
     22.700  0.8337E+00  0.1692E+02
     22.902  0.1778E+01  0.1728E+02
     23.104  0.2111E+00  0.1732E+02
     23.305  0.1821E+01  0.1769E+02
     23.507  0.2493E-03  0.1769E+02
     23.709  0.4585E+00  0.1778E+02
     23.911  0.9708E+00  0.1798E+02
     24.113  0.1189E+00  0.1800E+02
     24.315  0.2881E+00  0.1806E+02
     24.517  0.6856E+00  0.1820E+02
     24.718  0.8831E+00  0.1837E+02
     24.920  0.1501E-02  0.1838E+02
     25.122  0.1178E+01  0.1861E+02
     25.324  0.5975E-01  0.1863E+02
     25.526  0.8214E+00  0.1879E+02
     25.728  0.1754E+01  0.1914E+02
     25.929  0.2110E+00  0.1919E+02
     26.131  0.3859E+00  0.1927E+02
     26.333  0.1472E+01  0.1956E+02
     26.535  0.2719E-01  0.1957E+02
     26.737  0.2759E+01  0.2012E+02
     26.939  0.1203E-02  0.2013E+02
     27.140  0.9078E+00  0.2031E+02
     27.342  0.9438E+00  0.2050E+02
     27.544  0.3110E+00  0.2056E+02
     27.746  0.4812E-02  0.2056E+02
     27.948  0.0000E+00  0.2056E+02
     28.150  0.0000E+00  0.2056E+02
     28.352  0.0000E+00  0.2056E+02
     28.553  0.0000E+00  0.2056E+02
     28.755  0.1886E-05  0.2056E+02
     28.957  0.5491E+00  0.2067E+02
     29.159  0.2764E+01  0.2123E+02
     29.361  0.1005E+01  0.2143E+02
     29.563  0.3409E+00  0.2150E+02
     29.764  0.6051E+00  0.2162E+02
     29.966  0.5019E-07  0.2163E+02
     30.168  0.1015E+01  0.2183E+02
     30.370  0.2395E+01  0.2231E+02
     30.572  0.1277E+01  0.2257E+02
     30.774  0.8871E+00  0.2275E+02
     30.976  0.2735E-04  0.2275E+02
     31.177  0.4446E-01  0.2276E+02
     31.379  0.1808E+01  0.2312E+02
     31.581  0.6061E-01  0.2314E+02
     31.783  0.1821E+01  0.2350E+02
     31.985  0.2759E+01  0.2406E+02
     32.187  0.1128E+01  0.2429E+02
     32.388  0.1118E+01  0.2451E+02
     32.590  0.3885E+01  0.2530E+02
     32.792  0.7283E+00  0.2545E+02
     32.994  0.2749E+01  0.2600E+02
     33.196  0.8890E+00  0.2618E+02
     33.398  0.4271E+00  0.2627E+02
     33.600  0.2090E+01  0.2669E+02
     33.801  0.2820E-03  0.2669E+02
     34.003  0.0000E+00  0.2669E+02
     34.205  0.0000E+00  0.2669E+02
     34.407  0.0000E+00  0.2669E+02
     34.609  0.0000E+00  0.2669E+02
     34.811  0.1687E-09  0.2669E+02
     35.012  0.2743E+00  0.2674E+02
     35.214  0.2510E+01  0.2725E+02
     35.416  0.2213E-02  0.2725E+02
     35.618  0.6483E+00  0.2738E+02
     35.820  0.2883E+01  0.2796E+02
     36.022  0.4187E+00  0.2805E+02
     36.223  0.6948E+00  0.2819E+02
     36.425  0.3936E-03  0.2819E+02
     36.627  0.1865E+01  0.2856E+02
     36.829  0.9215E+00  0.2875E+02
     37.031  0.1894E+00  0.2879E+02
     37.233  0.4300E+00  0.2887E+02
     37.435  0.5059E+00  0.2898E+02
     37.636  0.1354E+01  0.2925E+02
     37.838  0.9249E+00  0.2944E+02
     38.040  0.7576E+00  0.2959E+02
     38.242  0.1102E+01  0.2981E+02
     38.444  0.8650E+00  0.2999E+02
     38.646  0.6399E-01  0.3000E+02
     38.847  0.3713E-13  0.3000E+02
     39.049  0.7662E-01  0.3002E+02
     39.251  0.3443E+01  0.3071E+02
     39.453  0.5060E+00  0.3081E+02
     39.655  0.0000E+00  0.3081E+02
     39.857  0.0000E+00  0.3081E+02
     40.059  0.2063E-15  0.3081E+02
     40.260  0.7539E-02  0.3081E+02
     40.462  0.9210E+00  0.3100E+02
     40.664  0.4406E-03  0.3100E+02
     40.866  0.0000E+00  0.3100E+02
     41.068  0.1177E-02  0.3100E+02
     41.270  0.1857E+01  0.3138E+02
     41.471  0.3096E+01  0.3200E+02
     41.673  0.2698E-03  0.3200E+02
     41.875  0.0000E+00  0.3200E+02
     42.077  0.0000E+00  0.3200E+02
     42.279  0.0000E+00  0.3200E+02
     42.481  0.0000E+00  0.3200E+02
     42.683  0.0000E+00  0.3200E+02
     42.884  0.0000E+00  0.3200E+02
     43.086  0.0000E+00  0.3200E+02
     43.288  0.0000E+00  0.3200E+02
     43.490  0.0000E+00  0.3200E+02
     43.692  0.0000E+00  0.3200E+02
     43.894  0.0000E+00  0.3200E+02
     44.095  0.0000E+00  0.3200E+02
