    2    2    1    1
  0.9563318E+01  0.3001819E-09  0.3001820E-09  0.3001819E-09  0.5000000E-15
  1.000000000000000E-004
  CAR 
 automatically generated by pyflamestk   
      8     10     16
 
  0.1250000E+00  0.1250000E+00  0.1250000E+00  0.3125000E-01
    1      -13.705469   1.000000
    2        2.518324   1.000000
    3        3.367590   1.000000
    4        3.367591   1.000000
    5        8.792043   0.000000
    6       17.420431   0.000000
    7       19.431020   0.000000
    8       19.431022   0.000000
    9       23.686348   0.000000
   10       23.686352   0.000000
   11       25.027092   0.000000
   12       27.467958   0.000000
   13       28.915168   0.000000
   14       28.915172   0.000000
   15       39.242570   0.000000
   16       41.162139   0.000000
 
  0.3750000E+00  0.1250000E+00  0.1250000E+00  0.9375000E-01
    1      -13.057319   1.000000
    2        0.296537   1.000000
    3        2.495017   1.000000
    4        3.060804   1.000000
    5       11.224609   0.000000
    6       15.372885   0.000000
    7       18.774149   0.000000
    8       20.435131   0.000000
    9       22.259383   0.000000
   10       24.496634   0.000000
   11       26.614129   0.000000
   12       31.289121   0.000000
   13       32.606444   0.000000
   14       33.413834   0.000000
   15       35.782032   0.000000
   16       39.113940   0.000000
 
 -0.3750000E+00  0.1250000E+00  0.1250000E+00  0.9375000E-01
    1      -12.624739   1.000000
    2       -0.821004   1.000000
    3        2.339924   1.000000
    4        2.714694   1.000000
    5       11.817116   0.000000
    6       15.621008   0.000000
    7       18.060458   0.000000
    8       19.878140   0.000000
    9       23.870830   0.000000
   10       26.139911   0.000000
   11       26.211138   0.000000
   12       32.482129   0.000000
   13       33.135411   0.000000
   14       33.445826   0.000000
   15       36.045271   0.000000
   16       37.735689   0.000000
 
 -0.1250000E+00  0.1250000E+00  0.1250000E+00  0.9375000E-01
    1      -13.344315   1.000000
    2        1.206131   1.000000
    3        2.985397   1.000000
    4        3.001396   1.000000
    5       10.401179   0.000000
    6       15.600283   0.000000
    7       19.566378   0.000000
    8       20.053604   0.000000
    9       21.224994   0.000000
   10       25.067989   0.000000
   11       27.070112   0.000000
   12       30.178442   0.000000
   13       30.451808   0.000000
   14       31.236565   0.000000
   15       37.450023   0.000000
   16       39.243098   0.000000
 
  0.3750000E+00  0.3750000E+00  0.1250000E+00  0.9375000E-01
    1      -12.823733   1.000000
    2        0.113730   1.000000
    3        2.285721   1.000000
    4        2.521379   1.000000
    5       12.344220   0.000000
    6       14.001474   0.000000
    7       17.322775   0.000000
    8       20.965811   0.000000
    9       21.417752   0.000000
   10       27.254975   0.000000
   11       30.355392   0.000000
   12       30.631665   0.000000
   13       32.537131   0.000000
   14       35.032228   0.000000
   15       36.690364   0.000000
   16       38.102063   0.000000
 
 -0.3750000E+00  0.3750000E+00  0.1250000E+00  0.1875000E+00
    1      -12.415894   1.000000
    2        0.004660   1.000000
    3        1.014822   1.000000
    4        2.110039   1.000000
    5       13.877518   0.000000
    6       14.935717   0.000000
    7       15.726388   0.000000
    8       19.712418   0.000000
    9       23.176609   0.000000
   10       26.619795   0.000000
   11       30.181454   0.000000
   12       31.647618   0.000000
   13       32.873610   0.000000
   14       36.549965   0.000000
   15       39.119010   0.000000
   16       41.343002   0.000000
 
 -0.1250000E+00  0.3750000E+00  0.1250000E+00  0.1875000E+00
    1      -12.669527   1.000000
    2       -0.201827   1.000000
    3        1.763403   1.000000
    4        2.618589   1.000000
    5       12.705455   0.000000
    6       14.934177   0.000000
    7       17.093234   0.000000
    8       20.291376   0.000000
    9       22.855252   0.000000
   10       25.530888   0.000000
   11       29.061863   0.000000
   12       31.893202   0.000000
   13       32.450806   0.000000
   14       35.106866   0.000000
   15       35.752248   0.000000
   16       41.242524   0.000000
 
 -0.3750000E+00 -0.3750000E+00  0.1250000E+00  0.9375000E-01
    1      -12.451965   1.000000
    2       -0.364167   1.000000
    3        1.762714   1.000000
    4        2.215917   1.000000
    5       12.941647   0.000000
    6       13.627016   0.000000
    7       16.187814   0.000000
    8       21.676932   0.000000
    9       21.696212   0.000000
   10       29.112513   0.000000
   11       29.576381   0.000000
   12       32.146267   0.000000
   13       32.865350   0.000000
   14       38.013515   0.000000
   15       38.391309   0.000000
   16       41.320868   0.000000
 
  0.3750000E+00  0.3750000E+00  0.3750000E+00  0.3125000E-01
    1      -12.859364   1.000000
    2       -0.560327   1.000000
    3        2.911972   1.000000
    4        2.911973   1.000000
    5       11.016202   0.000000
    6       15.606577   0.000000
    7       19.668980   0.000000
    8       19.668983   0.000000
    9       24.262384   0.000000
   10       24.615286   0.000000
   11       24.615289   0.000000
   12       32.101963   0.000000
   13       33.482021   0.000000
   14       33.482023   0.000000
   15       37.048832   0.000000
   16       37.048838   0.000000
 
 -0.3750000E+00  0.3750000E+00  0.3750000E+00  0.9375000E-01
    1      -12.498420   1.000000
    2       -0.228139   1.000000
    3        1.126349   1.000000
    4        2.588434   1.000000
    5       13.190529   0.000000
    6       15.418655   0.000000
    7       16.294340   0.000000
    8       20.607775   0.000000
    9       22.655123   0.000000
   10       25.701128   0.000000
   11       29.286899   0.000000
   12       31.856597   0.000000
   13       32.301936   0.000000
   14       35.599650   0.000000
   15       37.462620   0.000000
   16       40.345365   0.000000
