       N       E                     dE             d eps       ncg     rms          rms(c)
DAV:   1    -0.280692293308E+03   -0.28069E+03   -0.92394E+03   480   0.520E+02
DAV:   2    -0.292841695497E+03   -0.12149E+02   -0.12149E+02   400   0.756E+01
DAV:   3    -0.292915038232E+03   -0.73343E-01   -0.73343E-01   464   0.521E+00
DAV:   4    -0.292915164447E+03   -0.12622E-03   -0.12622E-03   480   0.121E-01
DAV:   5    -0.292915164466E+03   -0.18199E-07   -0.18199E-07   464   0.193E-03    0.895E+01
DAV:   6    -0.658237670648E+02    0.22709E+03   -0.24364E+02   320   0.868E+01    0.385E+01
DAV:   7    -0.230692792807E+02    0.42754E+02   -0.40167E+02   480   0.714E+01    0.261E+01
DAV:   8    -0.213011264173E+02    0.17682E+01   -0.19547E+02   320   0.442E+01    0.167E+01
DAV:   9    -0.118251525149E+02    0.94760E+01   -0.31788E+01   320   0.179E+01    0.260E+00
DAV:  10    -0.118226900325E+02    0.24625E-02   -0.22714E+00   416   0.609E+00    0.173E+00
DAV:  11    -0.117824690111E+02    0.40221E-01   -0.67256E-01   352   0.275E+00    0.576E-01
DAV:  12    -0.117748247068E+02    0.76443E-02   -0.42805E-02   416   0.742E-01    0.943E-02
DAV:  13    -0.117747918313E+02    0.32875E-04   -0.34101E-03   368   0.254E-01    0.584E-02
DAV:  14    -0.117747458779E+02    0.45953E-04   -0.43306E-04   368   0.748E-02    0.617E-03
DAV:  15    -0.117747456765E+02    0.20138E-06   -0.12315E-05   368   0.152E-02    0.265E-03
DAV:  16    -0.117747458236E+02   -0.14710E-06   -0.18883E-07   192   0.296E-03
   1 F= -.11774746E+02 E0= -.11774746E+02  d E =-.403333E-28
