    2    2    1    1
  0.9563318E+01  0.3001819E-09  0.3001820E-09  0.3001819E-09  0.5000000E-15
  1.000000000000000E-004
  CAR 
 automatically generated by pyflamestk   
      8     10     16
 
  0.1250000E+00  0.1250000E+00  0.1250000E+00  0.3125000E-01
    1      -13.572813   1.000000
    2        2.468686   1.000000
    3        3.315356   1.000000
    4        3.315357   1.000000
    5        8.833814   0.000000
    6       17.412378   0.000000
    7       19.428933   0.000000
    8       19.428936   0.000000
    9       23.679247   0.000000
   10       23.679250   0.000000
   11       25.017758   0.000000
   12       27.455156   0.000000
   13       28.886229   0.000000
   14       28.886233   0.000000
   15       39.150675   0.000000
   16       41.053213   0.000000
 
  0.3750000E+00  0.1250000E+00  0.1250000E+00  0.9375000E-01
    1      -12.913778   1.000000
    2        0.296256   1.000000
    3        2.453615   1.000000
    4        3.017008   1.000000
    5       11.250103   0.000000
    6       15.350690   0.000000
    7       18.762779   0.000000
    8       20.430512   0.000000
    9       22.251131   0.000000
   10       24.481944   0.000000
   11       26.600368   0.000000
   12       31.261472   0.000000
   13       32.535376   0.000000
   14       33.410442   0.000000
   15       35.780916   0.000000
   16       39.074328   0.000000
 
 -0.3750000E+00  0.1250000E+00  0.1250000E+00  0.9375000E-01
    1      -12.472704   1.000000
    2       -0.837613   1.000000
    3        2.302496   1.000000
    4        2.677327   1.000000
    5       11.837305   0.000000
    6       15.561726   0.000000
    7       18.052152   0.000000
    8       19.868362   0.000000
    9       23.858472   0.000000
   10       26.108205   0.000000
   11       26.204179   0.000000
   12       32.487873   0.000000
   13       33.084097   0.000000
   14       33.429439   0.000000
   15       36.010943   0.000000
   16       37.721774   0.000000
 
 -0.1250000E+00  0.1250000E+00  0.1250000E+00  0.9375000E-01
    1      -13.205890   1.000000
    2        1.185299   1.000000
    3        2.944634   1.000000
    4        2.948470   1.000000
    5       10.422525   0.000000
    6       15.591505   0.000000
    7       19.556867   0.000000
    8       20.037526   0.000000
    9       21.212909   0.000000
   10       25.058735   0.000000
   11       27.058007   0.000000
   12       30.156000   0.000000
   13       30.440811   0.000000
   14       31.194116   0.000000
   15       37.416050   0.000000
   16       39.178210   0.000000
 
  0.3750000E+00  0.3750000E+00  0.1250000E+00  0.9375000E-01
    1      -12.675772   1.000000
    2        0.109820   1.000000
    3        2.253145   1.000000
    4        2.486307   1.000000
    5       12.353120   0.000000
    6       13.995076   0.000000
    7       17.306508   0.000000
    8       20.936416   0.000000
    9       21.393453   0.000000
   10       27.239401   0.000000
   11       30.345249   0.000000
   12       30.614056   0.000000
   13       32.527481   0.000000
   14       35.019265   0.000000
   15       36.672321   0.000000
   16       38.088478   0.000000
 
 -0.3750000E+00  0.3750000E+00  0.1250000E+00  0.1875000E+00
    1      -12.259557   1.000000
    2       -0.008491   1.000000
    3        0.992010   1.000000
    4        2.074601   1.000000
    5       13.867253   0.000000
    6       14.905943   0.000000
    7       15.697836   0.000000
    8       19.711239   0.000000
    9       23.156835   0.000000
   10       26.610034   0.000000
   11       30.173325   0.000000
   12       31.595773   0.000000
   13       32.863827   0.000000
   14       36.538007   0.000000
   15       39.109457   0.000000
   16       41.328863   0.000000
 
 -0.1250000E+00  0.3750000E+00  0.1250000E+00  0.1875000E+00
    1      -12.518512   1.000000
    2       -0.211805   1.000000
    3        1.734933   1.000000
    4        2.575684   1.000000
    5       12.711124   0.000000
    6       14.905000   0.000000
    7       17.078902   0.000000
    8       20.274299   0.000000
    9       22.843755   0.000000
   10       25.518237   0.000000
   11       29.053083   0.000000
   12       31.844926   0.000000
   13       32.426586   0.000000
   14       35.091260   0.000000
   15       35.734239   0.000000
   16       41.235764   0.000000
 
 -0.3750000E+00 -0.3750000E+00  0.1250000E+00  0.9375000E-01
    1      -12.296284   1.000000
    2       -0.373105   1.000000
    3        1.734708   1.000000
    4        2.191666   1.000000
    5       12.941574   0.000000
    6       13.624166   0.000000
    7       16.148557   0.000000
    8       21.647411   0.000000
    9       21.658369   0.000000
   10       29.127007   0.000000
   11       29.558737   0.000000
   12       32.141569   0.000000
   13       32.856160   0.000000
   14       38.004982   0.000000
   15       38.386680   0.000000
   16       41.317688   0.000000
 
  0.3750000E+00  0.3750000E+00  0.3750000E+00  0.3125000E-01
    1      -12.712039   1.000000
    2       -0.567098   1.000000
    3        2.872667   1.000000
    4        2.872668   1.000000
    5       11.047482   0.000000
    6       15.566975   0.000000
    7       19.663960   0.000000
    8       19.663963   0.000000
    9       24.253346   0.000000
   10       24.593341   0.000000
   11       24.593344   0.000000
   12       32.107916   0.000000
   13       33.427920   0.000000
   14       33.427923   0.000000
   15       37.041738   0.000000
   16       37.041744   0.000000
 
 -0.3750000E+00  0.3750000E+00  0.3750000E+00  0.9375000E-01
    1      -12.343925   1.000000
    2       -0.250666   1.000000
    3        1.098015   1.000000
    4        2.545218   1.000000
    5       13.190088   0.000000
    6       15.364165   0.000000
    7       16.270150   0.000000
    8       20.586094   0.000000
    9       22.669892   0.000000
   10       25.694438   0.000000
   11       29.273278   0.000000
   12       31.815166   0.000000
   13       32.237952   0.000000
   14       35.576679   0.000000
   15       37.461335   0.000000
   16       40.335135   0.000000
