   4   4   0   0
  0.1064635E+02  0.3492102E-09  0.3492102E-09  0.3492102E-09  0.5000000E-15
  1.000000000000000E-004
  CAR 
 automatically generated by pyflamestk   
     33.72337495     -0.88461968  301      9.69808694      1.00000000
     -0.885  0.0000E+00  0.0000E+00  0.0000E+00  0.0000E+00
     -0.769  0.0000E+00  0.0000E+00  0.0000E+00  0.0000E+00
     -0.654  0.0000E+00  0.0000E+00  0.0000E+00  0.0000E+00
     -0.539 -0.1834E-29 -0.5046E-29 -0.2116E-30 -0.5821E-30
     -0.423 -0.1826E-25 -0.4678E-25 -0.2107E-26 -0.5398E-26
     -0.308 -0.9298E-22 -0.2217E-21 -0.1073E-22 -0.2558E-22
     -0.192 -0.2417E-18 -0.5366E-18 -0.2790E-19 -0.6193E-19
     -0.077 -0.3205E-15 -0.6623E-15 -0.3701E-16 -0.7646E-16
      0.038 -0.2093E-12 -0.4020E-12 -0.2418E-13 -0.4645E-13
      0.154 -0.7115E-10 -0.1271E-09 -0.8233E-11 -0.1471E-10
      0.269 -0.1220E-07 -0.2026E-07 -0.1416E-08 -0.2352E-08
      0.384 -0.1047E-05 -0.1613E-05 -0.1222E-06 -0.1885E-06
      0.500 -0.4428E-04 -0.6321E-04 -0.5230E-05 -0.7481E-05
      0.615 -0.8972E-03 -0.1181E-02 -0.1087E-03 -0.1437E-03
      0.730 -0.8113E-02 -0.9715E-02 -0.1045E-02 -0.1264E-02
      0.846 -0.2499E-01 -0.2533E-01 -0.3928E-02 -0.4186E-02
      0.961  0.3630E-01  0.5546E-01  0.2593E-03  0.2211E-02
      1.077  0.3133E+00  0.3480E+00  0.3640E-01  0.4236E-01
      1.192  0.5045E+00  0.4984E+00  0.9459E-01  0.9986E-01
      1.307  0.2755E+00  0.2400E+00  0.1264E+00  0.1275E+00
      1.423  0.1924E-01  0.6137E-02  0.1286E+00  0.1283E+00
      1.538 -0.2386E-01 -0.2228E-01  0.1258E+00  0.1257E+00
      1.653 -0.6617E-02 -0.5400E-02  0.1251E+00  0.1251E+00
      1.769 -0.6636E-03 -0.4950E-03  0.1250E+00  0.1250E+00
      1.884 -0.3231E-04 -0.2271E-04  0.1250E+00  0.1250E+00
      1.999 -0.1013E-03 -0.9219E-04  0.1250E+00  0.1250E+00
      2.115 -0.2169E-02 -0.2018E-02  0.1247E+00  0.1248E+00
      2.230 -0.2104E-01 -0.2004E-01  0.1223E+00  0.1224E+00
      2.345 -0.7273E-01 -0.7177E-01  0.1139E+00  0.1142E+00
      2.461  0.7106E-01  0.5977E-01  0.1221E+00  0.1211E+00
      2.576  0.8584E+00  0.8315E+00  0.2211E+00  0.2170E+00
      2.692  0.1515E+01  0.1514E+01  0.3960E+00  0.3916E+00
      2.807  0.9082E+00  0.9348E+00  0.5007E+00  0.4995E+00
      2.922  0.9353E-01  0.1064E+00  0.5115E+00  0.5117E+00
      3.038 -0.7424E-01 -0.7488E-01  0.5030E+00  0.5031E+00
      3.153 -0.2302E-01 -0.2413E-01  0.5003E+00  0.5003E+00
      3.268 -0.2760E-02 -0.2696E-02  0.5000E+00  0.5000E+00
      3.384 -0.4937E-02 -0.1159E-02  0.4994E+00  0.4999E+00
      3.499 -0.3540E-01 -0.1249E-01  0.4953E+00  0.4984E+00
      3.614 -0.7350E-01 -0.5985E-01  0.4868E+00  0.4915E+00
      3.730  0.2445E+00 -0.1852E-01  0.5151E+00  0.4894E+00
      3.845  0.1158E+01  0.5941E+00  0.6487E+00  0.5579E+00
      3.960  0.1447E+01  0.1450E+01  0.8156E+00  0.7253E+00
      4.076  0.5759E+00  0.1164E+01  0.8820E+00  0.8595E+00
      4.191 -0.6103E-02  0.2449E+00  0.8813E+00  0.8877E+00
      4.307  0.1743E+00 -0.9247E-01  0.9014E+00  0.8771E+00
      4.422  0.4143E+00 -0.6311E-01  0.9492E+00  0.8698E+00
      4.537  0.4883E+00  0.9875E-01  0.1006E+01  0.8812E+00
      4.653  0.1049E+01  0.4632E+00  0.1127E+01  0.9346E+00
      4.768  0.1343E+01  0.1068E+01  0.1281E+01  0.1058E+01
      4.883  0.8713E+00  0.1581E+01  0.1382E+01  0.1240E+01
      4.999  0.1524E+01  0.1080E+01  0.1558E+01  0.1365E+01
      5.114  0.2616E+01  0.1354E+00  0.1859E+01  0.1380E+01
      5.229  0.2446E+01 -0.2521E+00  0.2142E+01  0.1351E+01
      5.345  0.2718E+01  0.1759E+00  0.2455E+01  0.1372E+01
      5.460  0.3029E+01  0.2025E+01  0.2805E+01  0.1605E+01
      5.576  0.2664E+01  0.4168E+01  0.3112E+01  0.2086E+01
      5.691  0.3679E+01  0.4350E+01  0.3536E+01  0.2588E+01
      5.806  0.4648E+01  0.2293E+01  0.4072E+01  0.2852E+01
      5.922  0.4131E+01  0.9873E-01  0.4549E+01  0.2864E+01
      6.037  0.4296E+01  0.1591E+00  0.5045E+01  0.2882E+01
      6.152  0.3150E+01  0.3174E+01  0.5408E+01  0.3248E+01
      6.268  0.1299E+01  0.5615E+01  0.5558E+01  0.3896E+01
      6.383  0.2684E+01  0.3514E+01  0.5867E+01  0.4301E+01
      6.498  0.4626E+01  0.1253E+01  0.6401E+01  0.4446E+01
      6.614  0.4178E+01  0.2999E+01  0.6883E+01  0.4792E+01
      6.729  0.3452E+01  0.4562E+01  0.7281E+01  0.5318E+01
      6.844  0.4484E+01  0.3543E+01  0.7798E+01  0.5727E+01
      6.960  0.6611E+01  0.3241E+01  0.8561E+01  0.6101E+01
      7.075  0.6621E+01  0.3017E+01  0.9325E+01  0.6449E+01
      7.191  0.4537E+01  0.1723E+01  0.9848E+01  0.6648E+01
      7.306  0.4013E+01  0.2278E+01  0.1031E+02  0.6910E+01
      7.421  0.5466E+01  0.4644E+01  0.1094E+02  0.7446E+01
      7.537  0.7242E+01  0.6548E+01  0.1178E+02  0.8201E+01
      7.652  0.6764E+01  0.6712E+01  0.1256E+02  0.8976E+01
      7.767  0.3552E+01  0.4689E+01  0.1297E+02  0.9517E+01
      7.883  0.2522E+01  0.2831E+01  0.1326E+02  0.9843E+01
      7.998  0.4160E+01  0.4460E+01  0.1374E+02  0.1036E+02
      8.113  0.4676E+01  0.7452E+01  0.1428E+02  0.1122E+02
      8.229  0.5802E+01  0.7356E+01  0.1495E+02  0.1207E+02
      8.344  0.7294E+01  0.4768E+01  0.1579E+02  0.1262E+02
      8.460  0.5603E+01  0.2668E+01  0.1643E+02  0.1292E+02
      8.575  0.2903E+01  0.2849E+01  0.1677E+02  0.1325E+02
      8.690  0.4191E+01  0.4116E+01  0.1725E+02  0.1373E+02
      8.806  0.6795E+01  0.3581E+01  0.1804E+02  0.1414E+02
      8.921  0.6519E+01  0.4998E+01  0.1879E+02  0.1472E+02
      9.036  0.6774E+01  0.8450E+01  0.1957E+02  0.1569E+02
      9.152  0.7799E+01  0.6770E+01  0.2047E+02  0.1647E+02
      9.267  0.5744E+01  0.2243E+01  0.2113E+02  0.1673E+02
      9.382  0.2211E+01  0.1469E+01  0.2139E+02  0.1690E+02
      9.498  0.1742E+00  0.4134E+01  0.2141E+02  0.1738E+02
      9.613 -0.1971E+00  0.6469E+01  0.2138E+02  0.1812E+02
      9.728 -0.7419E-01  0.5704E+01  0.2138E+02  0.1878E+02
      9.844 -0.1056E-01  0.6165E+01  0.2138E+02  0.1949E+02
      9.959 -0.6983E-03  0.8782E+01  0.2138E+02  0.2051E+02
     10.075 -0.3086E-04  0.6580E+01  0.2137E+02  0.2127E+02
     10.190 -0.3386E-03  0.1559E+01  0.2137E+02  0.2145E+02
     10.305 -0.6616E-02 -0.3511E+00  0.2137E+02  0.2140E+02
     10.421 -0.5842E-01 -0.2191E+00  0.2137E+02  0.2138E+02
     10.536 -0.1824E+00 -0.3648E-01  0.2135E+02  0.2138E+02
     10.651  0.2123E+00 -0.2782E-02  0.2137E+02  0.2138E+02
     10.767  0.2196E+01 -0.1620E-02  0.2162E+02  0.2137E+02
     10.882  0.4081E+01 -0.2104E-01  0.2209E+02  0.2137E+02
     10.997  0.3006E+01 -0.1252E+00  0.2244E+02  0.2136E+02
     11.113  0.7545E+00 -0.1675E+00  0.2253E+02  0.2134E+02
     11.228 -0.1286E+00  0.1015E+01  0.2251E+02  0.2146E+02
     11.344 -0.1003E+00  0.3670E+01  0.2250E+02  0.2188E+02
     11.459 -0.1859E-01  0.4108E+01  0.2250E+02  0.2235E+02
     11.574 -0.1591E-02  0.1550E+01  0.2250E+02  0.2253E+02
     11.690 -0.1914E-02 -0.7847E-01  0.2250E+02  0.2252E+02
     11.805 -0.1891E-01 -0.1620E+00  0.2250E+02  0.2250E+02
     11.920 -0.7054E-01 -0.3392E-01  0.2249E+02  0.2250E+02
     12.036  0.4735E-01 -0.1329E-01  0.2249E+02  0.2250E+02
     12.151  0.8004E+00 -0.5531E-01  0.2259E+02  0.2249E+02
     12.266  0.1511E+01 -0.3590E-01  0.2276E+02  0.2249E+02
     12.382  0.9655E+00  0.5200E+00  0.2287E+02  0.2255E+02
     12.497  0.1221E+00  0.1411E+01  0.2289E+02  0.2271E+02
     12.612 -0.7559E-01  0.1232E+01  0.2288E+02  0.2285E+02
     12.728 -0.2829E-01  0.3053E+00  0.2288E+02  0.2289E+02
     12.843 -0.2807E-01 -0.6891E-01  0.2287E+02  0.2288E+02
     12.959 -0.7549E-01 -0.4020E-01  0.2286E+02  0.2288E+02
     13.074  0.1189E+00 -0.8696E-02  0.2288E+02  0.2287E+02
     13.189  0.9594E+00 -0.2528E-01  0.2299E+02  0.2287E+02
     13.305  0.1511E+01 -0.7525E-01  0.2316E+02  0.2286E+02
     13.420  0.8067E+00  0.1156E+00  0.2325E+02  0.2288E+02
     13.535  0.4978E-01  0.9530E+00  0.2326E+02  0.2299E+02
     13.651 -0.7080E-01  0.1512E+01  0.2325E+02  0.2316E+02
     13.766 -0.1914E-01  0.8131E+00  0.2325E+02  0.2325E+02
     13.881 -0.2062E-02  0.5234E-01  0.2325E+02  0.2326E+02
     13.997 -0.3974E-02 -0.7106E-01  0.2325E+02  0.2325E+02
     14.112 -0.3907E-01 -0.1939E-01  0.2325E+02  0.2325E+02
     14.228 -0.1425E+00 -0.2843E-02  0.2323E+02  0.2325E+02
     14.343  0.1084E+00 -0.1398E-01  0.2324E+02  0.2325E+02
     14.458  0.1636E+01 -0.8807E-01  0.2343E+02  0.2324E+02
     14.574  0.3025E+01 -0.1262E+00  0.2378E+02  0.2322E+02
     14.689  0.1897E+01  0.7175E+00  0.2400E+02  0.2331E+02
     14.804  0.2264E+00  0.2574E+01  0.2402E+02  0.2360E+02
     14.920 -0.1503E+00  0.2740E+01  0.2401E+02  0.2392E+02
     15.035 -0.4941E-01  0.9159E+00  0.2400E+02  0.2403E+02
     15.150 -0.5506E-02 -0.9611E-01  0.2400E+02  0.2401E+02
     15.266 -0.2736E-03 -0.1021E+00  0.2400E+02  0.2400E+02
     15.381 -0.1184E-04 -0.1816E-01  0.2400E+02  0.2400E+02
     15.496 -0.2055E-03 -0.1326E-02  0.2400E+02  0.2400E+02
     15.612 -0.3767E-02 -0.4515E-04  0.2400E+02  0.2400E+02
     15.727 -0.3032E-01 -0.2184E-05  0.2400E+02  0.2400E+02
     15.843 -0.7584E-01 -0.6944E-04  0.2399E+02  0.2400E+02
     15.958  0.1807E+00 -0.1621E-02  0.2401E+02  0.2400E+02
     16.073  0.1067E+01 -0.1723E-01  0.2413E+02  0.2400E+02
     16.189  0.1489E+01 -0.6837E-01  0.2430E+02  0.2399E+02
     16.304  0.6922E+00  0.2920E-01  0.2438E+02  0.2399E+02
     16.419 -0.1990E-01  0.7514E+00  0.2438E+02  0.2408E+02
     16.535 -0.1414E+00  0.1502E+01  0.2436E+02  0.2425E+02
     16.650  0.1676E+00  0.1004E+01  0.2438E+02  0.2437E+02
     16.765  0.1069E+01  0.9626E-01  0.2451E+02  0.2438E+02
     16.881  0.1488E+01 -0.1212E+00  0.2468E+02  0.2437E+02
     16.996  0.6923E+00  0.4458E+00  0.2476E+02  0.2442E+02
     17.112  0.9435E-02  0.1378E+01  0.2476E+02  0.2458E+02
     17.227 -0.6563E-01  0.1273E+01  0.2475E+02  0.2472E+02
     17.342 -0.1983E-01  0.3448E+00  0.2475E+02  0.2476E+02
     17.458 -0.4450E-01 -0.6504E-01  0.2474E+02  0.2476E+02
     17.573 -0.1464E+00 -0.4869E-01  0.2473E+02  0.2475E+02
     17.688  0.1539E+00 -0.5707E-01  0.2475E+02  0.2474E+02
     17.804  0.1744E+01 -0.1511E+00  0.2495E+02  0.2473E+02
     17.919  0.3032E+01  0.2381E+00  0.2530E+02  0.2475E+02
     18.034  0.1789E+01  0.1919E+01  0.2550E+02  0.2497E+02
     18.150  0.1710E+00  0.3023E+01  0.2552E+02  0.2532E+02
     18.265 -0.1661E+00  0.1613E+01  0.2550E+02  0.2551E+02
     18.380 -0.5704E-01  0.9815E-01  0.2550E+02  0.2552E+02
     18.496  0.1679E+00 -0.1512E+00  0.2552E+02  0.2550E+02
     18.611  0.4698E+00 -0.6357E-01  0.2557E+02  0.2550E+02
     18.727  0.4113E+00  0.5077E-01  0.2562E+02  0.2550E+02
     18.842  0.1023E+00  0.3463E+00  0.2563E+02  0.2554E+02
     18.957 -0.2294E-01  0.4988E+00  0.2563E+02  0.2560E+02
     19.073 -0.1415E-01  0.2416E+00  0.2563E+02  0.2563E+02
     19.188 -0.1394E-01  0.6635E-02  0.2562E+02  0.2563E+02
     19.303 -0.8083E-01 -0.2322E-01  0.2561E+02  0.2563E+02
     19.419 -0.1371E+00 -0.1860E-01  0.2560E+02  0.2562E+02
     19.534  0.6182E+00 -0.8581E-01  0.2567E+02  0.2561E+02
     19.649  0.2473E+01 -0.1306E+00  0.2595E+02  0.2560E+02
     19.765  0.2817E+01  0.6800E+00  0.2628E+02  0.2568E+02
     19.880  0.1031E+01  0.2538E+01  0.2640E+02  0.2597E+02
     19.996 -0.7442E-01  0.2770E+01  0.2639E+02  0.2629E+02
     20.111 -0.1185E+00  0.9579E+00  0.2638E+02  0.2640E+02
     20.226 -0.7089E-01 -0.8907E-01  0.2637E+02  0.2639E+02
     20.342 -0.5234E-01 -0.1146E+00  0.2636E+02  0.2638E+02
     20.457  0.4426E+00 -0.7171E-01  0.2641E+02  0.2637E+02
     20.572  0.1359E+01 -0.4535E-01  0.2657E+02  0.2636E+02
     20.688  0.1301E+01  0.4802E+00  0.2672E+02  0.2642E+02
     20.803  0.3729E+00  0.1386E+01  0.2676E+02  0.2658E+02
     20.918 -0.6132E-01  0.1268E+01  0.2676E+02  0.2672E+02
     21.034 -0.4649E-01  0.3388E+00  0.2675E+02  0.2676E+02
     21.149 -0.2638E-01 -0.6565E-01  0.2675E+02  0.2676E+02
     21.264 -0.1055E+00 -0.4693E-01  0.2674E+02  0.2675E+02
     21.380 -0.8911E-01 -0.4881E-01  0.2673E+02  0.2674E+02
     21.495  0.9478E+00 -0.1466E+00  0.2683E+02  0.2673E+02
     21.611  0.2715E+01  0.1350E+00  0.2715E+02  0.2674E+02
     21.726  0.2500E+01  0.1671E+01  0.2744E+02  0.2694E+02
     21.841  0.1193E+01  0.2980E+01  0.2757E+02  0.2728E+02
     21.957  0.1277E+01  0.2254E+01  0.2772E+02  0.2754E+02
     22.072  0.1152E+01  0.1543E+01  0.2785E+02  0.2772E+02
     22.187  0.2936E+00  0.1153E+01  0.2789E+02  0.2785E+02
     22.303 -0.1004E+00  0.3277E+00  0.2788E+02  0.2789E+02
     22.418 -0.1357E+00 -0.7530E-01  0.2786E+02  0.2788E+02
     22.533  0.9055E-01 -0.1041E+00  0.2787E+02  0.2787E+02
     22.649  0.1097E+01 -0.1099E+00  0.2800E+02  0.2786E+02
     22.764  0.2305E+01  0.3888E+00  0.2826E+02  0.2790E+02
     22.880  0.2230E+01  0.1813E+01  0.2852E+02  0.2811E+02
     22.995  0.9732E+00  0.2675E+01  0.2863E+02  0.2842E+02
     23.110  0.4986E-01  0.1665E+01  0.2864E+02  0.2861E+02
     23.226 -0.9541E-01  0.2981E+00  0.2863E+02  0.2864E+02
     23.341 -0.5902E-01 -0.1106E+00  0.2862E+02  0.2863E+02
     23.456 -0.9612E-01 -0.7283E-01  0.2861E+02  0.2862E+02
     23.572  0.9159E-01 -0.9363E-01  0.2862E+02  0.2861E+02
     23.687  0.9850E+00 -0.2327E-01  0.2873E+02  0.2861E+02
     23.802  0.2376E+01  0.7189E+00  0.2901E+02  0.2869E+02
     23.918  0.3401E+01  0.2233E+01  0.2940E+02  0.2895E+02
     24.033  0.2599E+01  0.3497E+01  0.2970E+02  0.2935E+02
     24.148  0.6739E+00  0.2839E+01  0.2978E+02  0.2968E+02
     24.264 -0.1384E+00  0.8403E+00  0.2976E+02  0.2978E+02
     24.379 -0.9092E-01 -0.1199E+00  0.2975E+02  0.2976E+02
     24.495 -0.1437E-01 -0.1046E+00  0.2975E+02  0.2975E+02
     24.610 -0.9784E-03 -0.1826E-01  0.2975E+02  0.2975E+02
     24.725 -0.6002E-03 -0.1340E-02  0.2975E+02  0.2975E+02
     24.841 -0.9669E-02 -0.5561E-03  0.2975E+02  0.2975E+02
     24.956 -0.7096E-01 -0.8903E-02  0.2974E+02  0.2975E+02
     25.071 -0.1474E+00 -0.6751E-01  0.2972E+02  0.2974E+02
     25.187  0.4837E+00 -0.1516E+00  0.2978E+02  0.2972E+02
     25.302  0.2283E+01  0.4257E+00  0.3004E+02  0.2977E+02
     25.417  0.2882E+01  0.2209E+01  0.3038E+02  0.3003E+02
     25.533  0.1549E+01  0.3049E+01  0.3055E+02  0.3038E+02
     25.648  0.9094E+00  0.1966E+01  0.3066E+02  0.3061E+02
     25.764  0.6956E+00  0.9768E+00  0.3074E+02  0.3072E+02
     25.879  0.1733E+00  0.3468E+00  0.3076E+02  0.3076E+02
     25.994 -0.4848E-01 -0.1774E-01  0.3075E+02  0.3076E+02
     26.110 -0.2641E-01 -0.4639E-01  0.3075E+02  0.3075E+02
     26.225 -0.4046E-02 -0.1060E-01  0.3075E+02  0.3075E+02
     26.340 -0.3895E-02 -0.1094E-02  0.3075E+02  0.3075E+02
     26.456 -0.2974E-01 -0.2840E-02  0.3075E+02  0.3075E+02
     26.571 -0.7593E-01 -0.2499E-01  0.3074E+02  0.3075E+02
     26.686  0.1736E+00 -0.7527E-01  0.3076E+02  0.3074E+02
     26.802  0.1056E+01  0.1165E+00  0.3088E+02  0.3075E+02
     26.917  0.1492E+01  0.9548E+00  0.3105E+02  0.3086E+02
     27.032  0.7078E+00  0.1512E+01  0.3113E+02  0.3104E+02
     27.148  0.1440E-01  0.8113E+00  0.3113E+02  0.3113E+02
     27.263 -0.6622E-01  0.5160E-01  0.3113E+02  0.3114E+02
     27.379 -0.1581E-01 -0.7098E-01  0.3113E+02  0.3113E+02
     27.494 -0.1441E-02 -0.1930E-01  0.3113E+02  0.3113E+02
     27.609 -0.3105E-03 -0.1924E-02  0.3112E+02  0.3113E+02
     27.725 -0.4392E-02 -0.5381E-03  0.3112E+02  0.3112E+02
     27.840 -0.3341E-01 -0.6848E-02  0.3112E+02  0.3112E+02
     27.955 -0.7474E-01 -0.4366E-01  0.3111E+02  0.3112E+02
     28.071  0.2193E+00 -0.6371E-01  0.3114E+02  0.3111E+02
     28.186  0.1125E+01  0.3537E+00  0.3127E+02  0.3115E+02
     28.301  0.1468E+01  0.1282E+01  0.3144E+02  0.3130E+02
     28.417  0.6358E+00  0.1374E+01  0.3151E+02  0.3146E+02
     28.532 -0.7355E-02  0.4636E+00  0.3151E+02  0.3151E+02
     28.648 -0.6244E-01 -0.4708E-01  0.3150E+02  0.3151E+02
     28.763 -0.1634E-01 -0.5251E-01  0.3150E+02  0.3150E+02
     28.878 -0.2551E-01 -0.2199E-01  0.3150E+02  0.3150E+02
     28.994 -0.7503E-01 -0.6118E-01  0.3149E+02  0.3149E+02
     29.109  0.1090E+00 -0.1574E-01  0.3150E+02  0.3149E+02
     29.224  0.9399E+00  0.6050E+00  0.3161E+02  0.3156E+02
     29.340  0.1513E+01  0.1455E+01  0.3178E+02  0.3173E+02
     29.455  0.8264E+00  0.1154E+01  0.3188E+02  0.3186E+02
     29.570  0.5766E-01  0.2406E+00  0.3189E+02  0.3189E+02
     29.686 -0.7158E-01 -0.7372E-01  0.3188E+02  0.3188E+02
     29.801 -0.1985E-01 -0.3509E-01  0.3188E+02  0.3188E+02
     29.916 -0.1990E-02 -0.4750E-02  0.3188E+02  0.3188E+02
     30.032 -0.9015E-04 -0.2785E-03  0.3188E+02  0.3188E+02
     30.147 -0.1965E-05 -0.7739E-05  0.3188E+02  0.3188E+02
     30.263 -0.2117E-07 -0.1055E-06  0.3188E+02  0.3188E+02
     30.378 -0.1142E-09 -0.7183E-09  0.3188E+02  0.3188E+02
     30.493 -0.3419E-12 -0.2461E-11  0.3187E+02  0.3188E+02
     30.609 -0.1319E-10 -0.5747E-13  0.3187E+02  0.3187E+02
     30.724 -0.2782E-08 -0.2099E-10  0.3187E+02  0.3187E+02
     30.839 -0.2944E-06 -0.4185E-08  0.3187E+02  0.3187E+02
     30.955 -0.1544E-04 -0.4183E-06  0.3187E+02  0.3187E+02
     31.070 -0.3925E-03 -0.2070E-04  0.3187E+02  0.3187E+02
     31.185 -0.4585E-02 -0.4949E-03  0.3187E+02  0.3187E+02
     31.301 -0.2084E-01 -0.5400E-02  0.3187E+02  0.3187E+02
     31.416 -0.2114E-02 -0.2228E-01  0.3187E+02  0.3187E+02
     31.532  0.2131E+00  0.6137E-02  0.3190E+02  0.3187E+02
     31.647  0.4899E+00  0.2400E+00  0.3195E+02  0.3190E+02
     31.762  0.3738E+00  0.4984E+00  0.3200E+02  0.3196E+02
     31.878  0.7229E-01  0.3480E+00  0.3200E+02  0.3200E+02
     31.993 -0.2495E-01  0.5546E-01  0.3200E+02  0.3200E+02
     32.108 -0.1107E-01 -0.2533E-01  0.3200E+02  0.3200E+02
     32.224 -0.1450E-02 -0.9715E-02  0.3200E+02  0.3200E+02
     32.339 -0.8269E-04 -0.1181E-02  0.3200E+02  0.3200E+02
     32.454 -0.2239E-05 -0.6321E-04  0.3200E+02  0.3200E+02
     32.570 -0.2978E-07 -0.1613E-05  0.3200E+02  0.3200E+02
     32.685 -0.1978E-09 -0.2026E-07  0.3200E+02  0.3200E+02
     32.800 -0.6612E-12 -0.1271E-09  0.3200E+02  0.3200E+02
     32.916 -0.1203E-14 -0.4018E-12  0.3200E+02  0.3200E+02
     33.031  0.0000E+00 -0.7218E-15  0.3200E+02  0.3200E+02
     33.147  0.0000E+00  0.0000E+00  0.3200E+02  0.3200E+02
     33.262  0.0000E+00  0.0000E+00  0.3200E+02  0.3200E+02
     33.377  0.0000E+00  0.0000E+00  0.3200E+02  0.3200E+02
     33.493  0.0000E+00  0.0000E+00  0.3200E+02  0.3200E+02
     33.608  0.0000E+00  0.0000E+00  0.3200E+02  0.3200E+02
     33.723  0.0000E+00  0.0000E+00  0.3200E+02  0.3200E+02
