    4    4    1    2
  0.1064635E+02  0.3492102E-09  0.3492102E-09  0.3492102E-09  0.5000000E-15
  1.000000000000000E-004
  CAR 
 automatically generated by pyflamestk   
     40      4     32
 
  0.1250000E+00  0.1250000E+00  0.1250000E+00  0.1250000E+00
    1        1.127661      1.115380   1.000000   1.000000
    2        5.107664      5.510428   1.000000   1.000000
    3        5.107664      5.510428   1.000000   1.000000
    4        5.107664      5.510428   1.000000   1.000000
    5        5.556056      6.197659   1.000000   1.000000
    6        5.556056      6.197659   1.000000   1.000000
    7        5.556056      6.197659   1.000000   1.000000
    8        7.030958      7.792516   1.000000   1.000000
    9        7.301697      8.087740   1.000000   1.000000
   10        7.301697      8.087740   1.000000   1.000000
   11        8.324655      9.013187   1.000000   1.000007
   12        8.324655      9.013187   1.000000   1.000007
   13        8.349242      9.031614   1.000000   1.000013
   14        8.349242      9.031614   1.000000   1.000013
   15        8.349242      9.031614   1.000000   1.000013
   16        8.798648      9.535774   1.000000   0.992948
   17        8.798648      9.535774   1.000000   0.992948
   18        8.798648      9.535774   1.000000   0.992948
   19        9.149605     10.003743   1.000366  -0.026375
   20        9.149605     10.003743   1.000366  -0.026375
   21        9.149605     10.003743   1.000366  -0.026375
   22       12.218254     12.482317  -0.000000  -0.000000
   23       12.218254     12.482317  -0.000000  -0.000000
   24       12.218254     12.482317  -0.000000  -0.000000
   25       20.567539     20.793308   0.000000   0.000000
   26       20.567539     20.793308   0.000000   0.000000
   27       20.567539     20.793308   0.000000   0.000000
   28       21.942629     22.067407   0.000000   0.000000
   29       21.942629     22.067407   0.000000   0.000000
   30       21.942629     22.067407   0.000000   0.000000
   31       25.632194     25.685457   0.000000   0.000000
   32       25.632194     25.685457   0.000000   0.000000
 
  0.3750000E+00  0.1250000E+00  0.1250000E+00  0.3750000E+00
    1        2.636723      2.639802   1.000000   1.000000
    2        4.690874      4.852539   1.000000   1.000000
    3        5.741790      6.197090   1.000000   1.000000
    4        5.741790      6.197090   1.000000   1.000000
    5        5.988612      6.637159   1.000000   1.000000
    6        6.033589      6.637159   1.000000   1.000000
    7        6.033589      6.656990   1.000000   1.000000
    8        6.611971      7.331443   1.000000   1.000000
    9        7.054978      7.687784   1.000000   1.000000
   10        7.054978      7.687784   1.000000   1.000000
   11        7.483275      8.078237   1.000000   1.000000
   12        7.485796      8.208142   1.000000   1.000000
   13        7.612888      8.389570   1.000000   1.000000
   14        8.161821      8.881558   1.000000   1.000000
   15        8.199035      8.969860   1.000000   1.000002
   16        8.378835      9.057081   1.000000   1.000028
   17        8.378835      9.057081   1.000000   1.000028
   18        8.616023      9.338368   1.000000   1.014486
   19        8.981573      9.755898   1.000002   0.266343
   20        9.051257      9.926168   1.000024  -0.034232
   21        9.051257      9.926168   1.000024  -0.034232
   22        9.272325      9.932697   1.005159  -0.035016
   23       14.523451     14.811169  -0.000000  -0.000000
   24       14.523451     14.811169  -0.000000  -0.000000
   25       17.862693     18.083262   0.000000   0.000000
   26       17.862693     18.083262   0.000000   0.000000
   27       21.600979     21.786264   0.000000   0.000000
   28       21.600979     21.786264   0.000000   0.000000
   29       23.720956     23.864499   0.000000   0.000000
   30       23.912454     24.039898   0.000000   0.000000
   31       23.912454     24.039898   0.000000   0.000000
   32       26.839236     26.966547   0.000000   0.000000
 
  0.3750000E+00  0.3750000E+00  0.1250000E+00  0.3750000E+00
    1        3.869764      3.936517   1.000000   1.000000
    2        5.359601      5.667060   1.000000   1.000000
    3        5.359601      5.667060   1.000000   1.000000
    4        5.752885      6.286144   1.000000   1.000000
    5        6.382020      6.842030   1.000000   1.000000
    6        6.445056      7.003259   1.000000   1.000000
    7        6.445056      7.003259   1.000000   1.000000
    8        6.672829      7.323996   1.000000   1.000000
    9        6.853379      7.506361   1.000000   1.000000
   10        6.853379      7.506361   1.000000   1.000000
   11        6.983957      7.619194   1.000000   1.000000
   12        7.274218      7.959550   1.000000   1.000000
   13        7.588920      8.308210   1.000000   1.000000
   14        7.952922      8.641930   1.000000   1.000000
   15        7.952922      8.649167   1.000000   1.000000
   16        7.958300      8.649167   1.000000   1.000000
   17        8.230632      8.990403   1.000000   1.000003
   18        8.737279      9.541122   1.000000   0.986063
   19        8.737279      9.541122   1.000000   0.986063
   20        8.786057      9.625636   1.000000   0.785405
   21        9.178634      9.926367   1.000742  -0.034262
   22       10.810165     11.374555  -0.000000  -0.000000
   23       10.810165     11.374555  -0.000000  -0.000000
   24       13.238179     13.585003  -0.000000  -0.000000
   25       16.801109     17.102675   0.000000   0.000000
   26       19.663683     19.889754   0.000000   0.000000
   27       19.663683     19.889754   0.000000   0.000000
   28       22.687470     22.875439   0.000000   0.000000
   29       22.830193     22.988067   0.000000   0.000000
   30       25.326562     25.445827   0.000000   0.000000
   31       25.326562     25.445827   0.000000   0.000000
   32       28.215087     28.309026   0.000000   0.000000
 
  0.3750000E+00  0.3750000E+00  0.3750000E+00  0.1250000E+00
    1        4.374791      4.640314   1.000000   1.000000
    2        5.026539      5.489871   1.000000   1.000000
    3        5.026539      5.489871   1.000000   1.000000
    4        5.026539      5.489871   1.000000   1.000000
    5        6.927075      7.491194   1.000000   1.000000
    6        6.927075      7.491194   1.000000   1.000000
    7        6.927075      7.491194   1.000000   1.000000
    8        7.270354      7.968783   1.000000   1.000000
    9        7.270354      7.968783   1.000000   1.000000
   10        7.429722      8.019918   1.000000   1.000000
   11        7.429722      8.123398   1.000000   1.000000
   12        7.429722      8.123398   1.000000   1.000000
   13        7.612823      8.123398   1.000000   1.000000
   14        7.612823      8.141098   1.000000   1.000000
   15        7.612823      8.141098   1.000000   1.000000
   16        7.702681      8.141098   1.000000   1.000000
   17        8.846244      9.643125   1.000000   0.723113
   18        8.846244      9.643125   1.000000   0.723113
   19        9.072692      9.893156   1.000045  -0.022376
   20        9.072692      9.893156   1.000045  -0.022376
   21        9.072692      9.893156   1.000045  -0.022376
   22       10.917546     11.318913  -0.000000  -0.000000
   23       10.917546     11.318913  -0.000000  -0.000000
   24       10.917546     11.318913  -0.000000  -0.000000
   25       16.109380     16.492215   0.000000   0.000000
   26       16.109380     16.492215   0.000000   0.000000
   27       16.109380     16.492215   0.000000   0.000000
   28       18.596629     18.881364   0.000000   0.000000
   29       29.275480     29.314403   0.000000   0.000000
   30       29.275480     29.314403   0.000000   0.000000
   31       29.275480     29.314403   0.000000   0.000000
   32       31.617477     31.723375   0.000000   0.000000
