 vasp.5.4.4.18Apr17-6-g9f103f2a35 (build Dec 03 2018 15:37:19) complex          
  
 executed on             LinuxIFC date 2019.01.08  19:13:26
 running on   16 total cores
 distrk:  each k-point on   16 cores,    1 groups
 distr:  one band on NCORES_PER_BAND=   1 cores,   16 groups


--------------------------------------------------------------------------------------------------------


 INCAR:
 POTCAR:    PAW_PBE Ni 02Aug2007                  

 ----------------------------------------------------------------------------- 
|                                                                             |
|           W    W    AA    RRRRR   N    N  II  N    N   GGGG   !!!           |
|           W    W   A  A   R    R  NN   N  II  NN   N  G    G  !!!           |
|           W    W  A    A  R    R  N N  N  II  N N  N  G       !!!           |
|           W WW W  AAAAAA  RRRRR   N  N N  II  N  N N  G  GGG   !            |
|           WW  WW  A    A  R   R   N   NN  II  N   NN  G    G                |
|           W    W  A    A  R    R  N    N  II  N    N   GGGG   !!!           |
|                                                                             |
|      For optimal performance we recommend to set                            |
|        NCORE= 4 - approx SQRT( number of cores)                             |
|      NCORE specifies how many cores store one orbital (NPAR=cpu/NCORE).     |
|      This setting can  greatly improve the performance of VASP for DFT.     |
|      The default,   NCORE=1            might be grossly inefficient         |
|      on modern multi-core architectures or massively parallel machines.     |
|      Do your own testing !!!!                                               |
|      Unfortunately you need to use the default for GW and RPA calculations. |
|      (for HF NCORE is supported but not extensively tested yet)             |
|                                                                             |
 ----------------------------------------------------------------------------- 

 POTCAR:    PAW_PBE Ni 02Aug2007                  
   VRHFIN =Ni:                                                                  
   LEXCH  = PE                                                                  
   EATOM  =  1077.6734 eV,   79.2068 Ry                                         
                                                                                
   TITEL  = PAW_PBE Ni 02Aug2007                                                
   LULTRA =        F    use ultrasoft PP ?                                      
   IUNSCR =        1    unscreen: 0-lin 1-nonlin 2-no                           
   RPACOR =    2.000    partial core radius                                     
   POMASS =   58.690; ZVAL   =   10.000    mass and valenz                      
   RCORE  =    2.300    outmost cutoff radius                                   
   RWIGS  =    2.430; RWIGS  =    1.286    wigner-seitz radius (au A)           
   ENMAX  =  269.532; ENMIN  =  202.149 eV                                      
   RCLOC  =    1.201    cutoff for local pot                                    
   LCOR   =        T    correct aug charges                                     
   LPAW   =        T    paw PP                                                  
   EAUG   =  544.565                                                            
   DEXC   =    0.000                                                            
   RMAX   =    2.808    core radius for proj-oper                               
   RAUG   =    1.300    factor for augmentation sphere                          
   RDEP   =    2.390    radius for radial grids                                 
   QCUT   =   -4.451; QGAM   =    8.902    optimization parameters              
                                                                                
   Description                                                                  
     l     E      TYP  RCUT    TYP  RCUT                                        
     2    -4.65     23  2.300                                                   
     2    -6.01     23  2.300                                                   
     0    -4.49     23  2.300                                                   
     0     5.01     23  2.300                                                   
     1    -2.72     23  2.300                                                   
     1    16.52     23  2.300                                                   
  local pseudopotential read in
  partial core-charges read in
  atomic valenz-charges read in
  non local Contribution for L=           2  read in
    real space projection operators read in
  non local Contribution for L=           2  read in
    real space projection operators read in
  non local Contribution for L=           0  read in
    real space projection operators read in
  non local Contribution for L=           0  read in
    real space projection operators read in
  non local Contribution for L=           1  read in
    real space projection operators read in
  non local Contribution for L=           1  read in
    real space projection operators read in
    PAW grid and wavefunctions read in
 
   number of l-projection  operators is LMAX  =           6
   number of lm-projection operators is LMMAX =          18
 
  PAW_PBE Ni 02Aug2007                  :
 energy of atom  1       EATOM=-1077.6734
 kinetic energy error for atom=    0.0031 (will be added to EATOM!!)
 
 
 POSCAR: Automatically generated by pypospack    
  positions in direct lattice
  No initial velocities read in
 exchange correlation table for  LEXCH =        8
   RHO(1)=    0.500       N(1)  =     2000
   RHO(2)=  100.500       N(2)  =     4000
 


--------------------------------------------------------------------------------------------------------


 ion  position               nearest neighbor table
   1  0.000  0.000  0.000-   2 2.47   3 2.47   4 2.47   2 2.47   3 2.47   2 2.47   4 2.47   2 2.47
                             3 2.47   4 2.47   3 2.47   4 2.47
   2  0.000  0.500  0.500-   1 2.47   3 2.47   4 2.47   1 2.47   4 2.47   1 2.47   3 2.47   1 2.47
                             3 2.47   4 2.47   4 2.47   3 2.47
   3  0.500  0.000  0.500-   1 2.47   2 2.47   4 2.47   1 2.47   4 2.47   2 2.47   4 2.47   4 2.47
                             1 2.47   2 2.47   1 2.47   2 2.47
   4  0.500  0.500  0.000-   1 2.47   2 2.47   3 2.47   2 2.47   3 2.47   1 2.47   3 2.47   3 2.47
                             1 2.47   2 2.47   2 2.47   1 2.47
 
  LATTYP: Found a simple cubic cell.
 ALAT       =     3.4921020000
  
  Lattice vectors:
  
 A1 = (   3.4921020000,   0.0000000000,   0.0000000000)
 A2 = (   0.0000000000,   3.4921020000,   0.0000000000)
 A3 = (   0.0000000000,   0.0000000000,   3.4921020000)


Analysis of symmetry for initial positions (statically):
=====================================================================
 Subroutine PRICEL returns following result:
 
  LATTYP: Found a face centered cubic cell.
 ALAT       =     3.4921020000
  
  Lattice vectors:
  
 A1 = (   1.7460510000,   1.7460510000,  -0.0000000000)
 A2 = (   1.7460510000,   0.0000000000,  -1.7460510000)
 A3 = (   0.0000000000,   1.7460510000,  -1.7460510000)
 
   4 primitive cells build up your supercell.
 

 Routine SETGRP: Setting up the symmetry group for a 
 simple cubic supercell.


 Subroutine GETGRP returns: Found 48 space group operations
 (whereof 48 operations were pure point group operations)
 out of a pool of 48 trial point group operations.


The static configuration has the point symmetry O_h .


Analysis of symmetry for dynamics (positions and initial velocities):
=====================================================================
 Subroutine PRICEL returns following result:
 
  LATTYP: Found a face centered cubic cell.
 ALAT       =     3.4921020000
  
  Lattice vectors:
  
 A1 = (   1.7460510000,   1.7460510000,  -0.0000000000)
 A2 = (   1.7460510000,   0.0000000000,  -1.7460510000)
 A3 = (   0.0000000000,   1.7460510000,  -1.7460510000)
 
   4 primitive cells build up your supercell.
 

 Routine SETGRP: Setting up the symmetry group for a 
 simple cubic supercell.


 Subroutine GETGRP returns: Found 48 space group operations
 (whereof 48 operations were pure point group operations)
 out of a pool of 48 trial point group operations.


The dynamic configuration has the point symmetry O_h .


Analysis of structural, dynamic, and magnetic symmetry:
=====================================================================
 Subroutine PRICEL returns following result:
 
  LATTYP: Found a face centered cubic cell.
 ALAT       =     3.4921020000
  
  Lattice vectors:
  
 A1 = (   1.7460510000,   1.7460510000,  -0.0000000000)
 A2 = (   1.7460510000,   0.0000000000,  -1.7460510000)
 A3 = (   0.0000000000,   1.7460510000,  -1.7460510000)
 
   4 primitive cells build up your supercell.
 

 Routine SETGRP: Setting up the symmetry group for a 
 simple cubic supercell.


 Subroutine GETGRP returns: Found 48 space group operations
 (whereof 48 operations were pure point group operations)
 out of a pool of 48 trial point group operations.


The magnetic configuration has the point symmetry O_h .


 Subroutine INISYM returns: Found 48 space group operations
 (whereof 48 operations are pure point group operations),
 and found     4 'primitive' translations

 
 
 KPOINTS: Automatic Mesh                          

Automatic generation of k-mesh.
Space group operators:
 irot       det(A)        alpha          n_x          n_y          n_z        tau_x        tau_y        tau_z
    1     1.000000     0.000000     1.000000     0.000000     0.000000     0.000000     0.000000     0.000000
    2    -1.000000     0.000000     1.000000     0.000000     0.000000     0.000000     0.000000     0.000000
    3     1.000000   120.000000    -0.577350    -0.577350    -0.577350     0.000000     0.000000     0.000000
    4    -1.000000   120.000000    -0.577350    -0.577350    -0.577350     0.000000     0.000000     0.000000
    5     1.000000   120.000000     0.577350     0.577350     0.577350     0.000000     0.000000     0.000000
    6    -1.000000   120.000000     0.577350     0.577350     0.577350     0.000000     0.000000     0.000000
    7     1.000000    90.000000     0.000000     0.000000    -1.000000     0.000000     0.000000     0.000000
    8    -1.000000    90.000000     0.000000     0.000000    -1.000000     0.000000     0.000000     0.000000
    9     1.000000   180.000000     0.000000     0.707107     0.707107     0.000000     0.000000     0.000000
   10    -1.000000   180.000000     0.000000     0.707107     0.707107     0.000000     0.000000     0.000000
   11     1.000000    90.000000     0.000000     1.000000     0.000000     0.000000     0.000000     0.000000
   12    -1.000000    90.000000     0.000000     1.000000     0.000000     0.000000     0.000000     0.000000
   13     1.000000   180.000000     0.000000     0.000000     1.000000     0.000000     0.000000     0.000000
   14    -1.000000   180.000000     0.000000     0.000000     1.000000     0.000000     0.000000     0.000000
   15     1.000000   120.000000    -0.577350     0.577350     0.577350     0.000000     0.000000     0.000000
   16    -1.000000   120.000000    -0.577350     0.577350     0.577350     0.000000     0.000000     0.000000
   17     1.000000   120.000000    -0.577350     0.577350    -0.577350     0.000000     0.000000     0.000000
   18    -1.000000   120.000000    -0.577350     0.577350    -0.577350     0.000000     0.000000     0.000000
   19     1.000000    90.000000     0.000000     0.000000     1.000000     0.000000     0.000000     0.000000
   20    -1.000000    90.000000     0.000000     0.000000     1.000000     0.000000     0.000000     0.000000
   21     1.000000    90.000000    -1.000000     0.000000     0.000000     0.000000     0.000000     0.000000
   22    -1.000000    90.000000    -1.000000     0.000000     0.000000     0.000000     0.000000     0.000000
   23     1.000000   180.000000     0.707107     0.000000     0.707107     0.000000     0.000000     0.000000
   24    -1.000000   180.000000     0.707107     0.000000     0.707107     0.000000     0.000000     0.000000
   25     1.000000   120.000000     0.577350    -0.577350     0.577350     0.000000     0.000000     0.000000
   26    -1.000000   120.000000     0.577350    -0.577350     0.577350     0.000000     0.000000     0.000000
   27     1.000000   120.000000    -0.577350    -0.577350     0.577350     0.000000     0.000000     0.000000
   28    -1.000000   120.000000    -0.577350    -0.577350     0.577350     0.000000     0.000000     0.000000
   29     1.000000   180.000000     1.000000     0.000000     0.000000     0.000000     0.000000     0.000000
   30    -1.000000   180.000000     1.000000     0.000000     0.000000     0.000000     0.000000     0.000000
   31     1.000000    90.000000     0.000000    -1.000000     0.000000     0.000000     0.000000     0.000000
   32    -1.000000    90.000000     0.000000    -1.000000     0.000000     0.000000     0.000000     0.000000
   33     1.000000   180.000000     0.707107     0.707107     0.000000     0.000000     0.000000     0.000000
   34    -1.000000   180.000000     0.707107     0.707107     0.000000     0.000000     0.000000     0.000000
   35     1.000000    90.000000     1.000000     0.000000     0.000000     0.000000     0.000000     0.000000
   36    -1.000000    90.000000     1.000000     0.000000     0.000000     0.000000     0.000000     0.000000
   37     1.000000   120.000000     0.577350    -0.577350    -0.577350     0.000000     0.000000     0.000000
   38    -1.000000   120.000000     0.577350    -0.577350    -0.577350     0.000000     0.000000     0.000000
   39     1.000000   180.000000     0.000000     1.000000     0.000000     0.000000     0.000000     0.000000
   40    -1.000000   180.000000     0.000000     1.000000     0.000000     0.000000     0.000000     0.000000
   41     1.000000   120.000000     0.577350     0.577350    -0.577350     0.000000     0.000000     0.000000
   42    -1.000000   120.000000     0.577350     0.577350    -0.577350     0.000000     0.000000     0.000000
   43     1.000000   180.000000     0.000000    -0.707107     0.707107     0.000000     0.000000     0.000000
   44    -1.000000   180.000000     0.000000    -0.707107     0.707107     0.000000     0.000000     0.000000
   45     1.000000   180.000000     0.707107    -0.707107     0.000000     0.000000     0.000000     0.000000
   46    -1.000000   180.000000     0.707107    -0.707107     0.000000     0.000000     0.000000     0.000000
   47     1.000000   180.000000     0.707107     0.000000    -0.707107     0.000000     0.000000     0.000000
   48    -1.000000   180.000000     0.707107     0.000000    -0.707107     0.000000     0.000000     0.000000
 
 Subroutine IBZKPT returns following result:
 ===========================================
 
 Found      4 irreducible k-points:
 
 Following reciprocal coordinates:
            Coordinates               Weight
  0.125000  0.125000  0.125000      8.000000
  0.375000  0.125000  0.125000     24.000000
  0.375000  0.375000  0.125000     24.000000
  0.375000  0.375000  0.375000      8.000000
 
 Following cartesian coordinates:
            Coordinates               Weight
  0.035795  0.035795  0.035795      8.000000
  0.107385  0.035795  0.035795     24.000000
  0.107385  0.107385  0.035795     24.000000
  0.107385  0.107385  0.107385      8.000000
 


--------------------------------------------------------------------------------------------------------




 Dimension of arrays:
   k-points           NKPTS =      4   k-points in BZ     NKDIM =      4   number of bands    NBANDS=     32
   number of dos      NEDOS =    301   number of ions     NIONS =      4
   non local maximal  LDIM  =      6   non local SUM 2l+1 LMDIM =     18
   total plane-waves  NPLWV =  21952
   max r-space proj   IRMAX =      1   max aug-charges    IRDMAX=   4638
   dimension x,y,z NGX =    28 NGY =   28 NGZ =   28
   dimension x,y,z NGXF=    36 NGYF=   36 NGZF=   36
   support grid    NGXF=    36 NGYF=   36 NGZF=   36
   ions per type =               4
   NGX,Y,Z   is equivalent  to a cutoff of  13.33, 13.33, 13.33 a.u.
   NGXF,Y,Z  is equivalent  to a cutoff of  17.14, 17.14, 17.14 a.u.

 SYSTEM =  automatically generated by pyflamestk   
 POSCAR =  Automatically generated by pypospack    

 Startparameter for this run:
   NWRITE =      2    write-flag & timer
   PREC   = high      normal or accurate (medium, high low for compatibility)
   ISTART =      0    job   : 0-new  1-cont  2-samecut
   ICHARG =      0    charge: 1-file 2-atom 10-const
   ISPIN  =      2    spin polarized calculation?
   LNONCOLLINEAR =      F non collinear calculations
   LSORBIT =      F    spin-orbit coupling
   INIWAV =      1    electr: 0-lowe 1-rand  2-diag
   LASPH  =      F    aspherical Exc in radial PAW
   METAGGA=      F    non-selfconsistent MetaGGA calc.

 Electronic Relaxation 1
   ENCUT  =  475.0 eV  34.91 Ry    5.91 a.u.   6.21  6.21  6.21*2*pi/ulx,y,z
   ENINI  =  475.0     initial cutoff
   ENAUG  =  544.6 eV  augmentation charge cutoff
   NELM   =     40;   NELMIN=  2; NELMDL= -5     # of ELM steps 
   EDIFF  = 0.1E-05   stopping-criterion for ELM
   LREAL  =      F    real-space projection
   NLSPLINE    = F    spline interpolate recip. space projectors
   LCOMPAT=      F    compatible to vasp.4.4
   GGA_COMPAT  = T    GGA compatible to vasp.4.4-vasp.4.6
   LMAXPAW     = -100 max onsite density
   LMAXMIX     =    2 max onsite mixed and CHGCAR
   VOSKOWN=      0    Vosko Wilk Nusair interpolation
   ROPT   =    0.00000
 Ionic relaxation
   EDIFFG = 0.1E-04   stopping-criterion for IOM
   NSW    =      0    number of steps for IOM
   NBLOCK =      1;   KBLOCK =      1    inner block; outer block 
   IBRION =     -1    ionic relax: 0-MD 1-quasi-New 2-CG
   NFREE  =      0    steps in history (QN), initial steepest desc. (CG)
   ISIF   =      2    stress and relaxation
   IWAVPR =     10    prediction:  0-non 1-charg 2-wave 3-comb
   ISYM   =      2    0-nonsym 1-usesym 2-fastsym
   LCORR  =      T    Harris-Foulkes like correction to forces

   POTIM  = 0.5000    time-step for ionic-motion
   TEIN   =    0.0    initial temperature
   TEBEG  =    0.0;   TEEND  =   0.0 temperature during run
   SMASS  =  -3.00    Nose mass-parameter (am)
   estimated Nose-frequenzy (Omega)   =  0.10E-29 period in steps =****** mass=  -0.279E-27a.u.
   SCALEE = 1.0000    scale energy and forces
   NPACO  =    256;   APACO  = 16.0  distance and # of slots for P.C.
   PSTRESS=    0.0 pullay stress

  Mass of Ions in am
   POMASS =  58.69
  Ionic Valenz
   ZVAL   =  10.00
  Atomic Wigner-Seitz radii
   RWIGS  =  -1.00
  virtual crystal weights 
   VCA    =   1.00
   NELECT =      40.0000    total number of electrons
   NUPDOWN=      -1.0000    fix difference up-down

 DOS related values:
   EMIN   =  10.00;   EMAX   =-10.00  energy-range for DOS
   EFERMI =   0.00
   ISMEAR =     1;   SIGMA  =   0.20  broadening in eV -4-tet -1-fermi 0-gaus

 Electronic relaxation 2 (details)
   IALGO  =     38    algorithm
   LDIAG  =      T    sub-space diagonalisation (order eigenvalues)
   LSUBROT=      F    optimize rotation matrix (better conditioning)
   TURBO    =      0    0=normal 1=particle mesh
   IRESTART =      0    0=no restart 2=restart with 2 vectors
   NREBOOT  =      0    no. of reboots
   NMIN     =      0    reboot dimension
   EREF     =   0.00    reference energy to select bands
   IMIX   =      4    mixing-type and parameters
     AMIX     =   0.40;   BMIX     =  1.00
     AMIX_MAG =   1.60;   BMIX_MAG =  1.00
     AMIN     =   0.10
     WC   =   100.;   INIMIX=   1;  MIXPRE=   1;  MAXMIX= -45

 Intra band minimization:
   WEIMIN = 0.0000     energy-eigenvalue tresh-hold
   EBREAK =  0.78E-08  absolut break condition
   DEPER  =   0.30     relativ break condition  

   TIME   =   0.40     timestep for ELM

  volume/ion in A,a.u.               =      10.65        71.85
  Fermi-wavevector in a.u.,A,eV,Ry     =   1.603275  3.029750 34.973631  2.570489
  Thomas-Fermi vector in A             =   2.699963
 
 Write flags
   LWAVE        =      F    write WAVECAR
   LDOWNSAMPLE  =      F    k-point downsampling of WAVECAR
   LCHARG       =      F    write CHGCAR
   LVTOT        =      F    write LOCPOT, total local potential
   LVHAR        =      F    write LOCPOT, Hartree potential only
   LELF         =      F    write electronic localiz. function (ELF)
   LORBIT       =      0    0 simple, 1 ext, 2 COOP (PROOUT), +10 PAW based schemes


 Dipole corrections
   LMONO  =      F    monopole corrections only (constant potential shift)
   LDIPOL =      F    correct potential (dipole corrections)
   IDIPOL =      0    1-x, 2-y, 3-z, 4-all directions 
   EPSILON=  1.0000000 bulk dielectric constant

 Exchange correlation treatment:
   GGA     =    --    GGA type
   LEXCH   =     8    internal setting for exchange type
   VOSKOWN=      0    Vosko Wilk Nusair interpolation
   LHFCALC =     F    Hartree Fock is set to
   LHFONE  =     F    Hartree Fock one center treatment
   AEXX    =    0.0000 exact exchange contribution

 Linear response parameters
   LEPSILON=     F    determine dielectric tensor
   LRPA    =     F    only Hartree local field effects (RPA)
   LNABLA  =     F    use nabla operator in PAW spheres
   LVEL    =     F    velocity operator in full k-point grid
   LINTERFAST=   F  fast interpolation
   KINTER  =     0    interpolate to denser k-point grid
   CSHIFT  =0.1000    complex shift for real part using Kramers Kronig
   OMEGAMAX=  -1.0    maximum frequency
   DEG_THRESHOLD= 0.2000000E-02 threshold for treating states as degnerate
   RTIME   =   -0.100 relaxation time in fs
  (WPLASMAI=    0.000 imaginary part of plasma frequency in eV, 0.658/RTIME)
   DFIELD  = 0.0000000 0.0000000 0.0000000 field for delta impulse in time
 
 Orbital magnetization related:
   ORBITALMAG=     F  switch on orbital magnetization
   LCHIMAG   =     F  perturbation theory with respect to B field
   DQ        =  0.001000  dq finite difference perturbation B field
   LLRAUG    =     F  two centre corrections for induced B field



--------------------------------------------------------------------------------------------------------


 Static calculation
 charge density and potential will be updated during run
 spin polarized calculation
 Variant of blocked Davidson
 Davidson routine will perform the subspace rotation
 perform sub-space diagonalisation
    after iterative eigenvector-optimisation
 modified Broyden-mixing scheme, WC =      100.0
 initial mixing is a Kerker type mixing with AMIX =  0.4000 and BMIX =      1.0000
 Hartree-type preconditioning will be used
 using additional bands           12
 reciprocal scheme for non local part
 use partial core corrections
 calculate Harris-corrections to forces 
   (improved forces if not selfconsistent)
 use gradient corrections 
 use of overlap-Matrix (Vanderbilt PP)
 Methfessel and Paxton  Order N= 1 SIGMA  =   0.20


--------------------------------------------------------------------------------------------------------


  energy-cutoff  :      475.00
  volume of cell :       42.59
      direct lattice vectors                 reciprocal lattice vectors
     3.492102000  0.000000000  0.000000000     0.286360479  0.000000000  0.000000000
     0.000000000  3.492102000  0.000000000     0.000000000  0.286360479  0.000000000
     0.000000000  0.000000000  3.492102000     0.000000000  0.000000000  0.286360479

  length of vectors
     3.492102000  3.492102000  3.492102000     0.286360479  0.286360479  0.286360479


 
 k-points in units of 2pi/SCALE and weight: Automatic Mesh                          
   0.03579506  0.03579506  0.03579506       0.125
   0.10738518  0.03579506  0.03579506       0.375
   0.10738518  0.10738518  0.03579506       0.375
   0.10738518  0.10738518  0.10738518       0.125
 
 k-points in reciprocal lattice and weights: Automatic Mesh                          
   0.12500000  0.12500000  0.12500000       0.125
   0.37500000  0.12500000  0.12500000       0.375
   0.37500000  0.37500000  0.12500000       0.375
   0.37500000  0.37500000  0.37500000       0.125
 
 position of ions in fractional coordinates (direct lattice) 
   0.00000000  0.00000000  0.00000000
   0.00000000  0.50000000  0.50000000
   0.50000000  0.00000000  0.50000000
   0.50000000  0.50000000  0.00000000
 
 position of ions in cartesian coordinates  (Angst):
   0.00000000  0.00000000  0.00000000
   0.00000000  1.74605100  1.74605100
   1.74605100  0.00000000  1.74605100
   1.74605100  1.74605100  0.00000000
 


--------------------------------------------------------------------------------------------------------


 k-point  1 :   0.1250 0.1250 0.1250  plane waves:     991
 k-point  2 :   0.3750 0.1250 0.1250  plane waves:    1004
 k-point  3 :   0.3750 0.3750 0.1250  plane waves:     998
 k-point  4 :   0.3750 0.3750 0.3750  plane waves:    1006

 maximum and minimum number of plane-waves per node :      1006      991

 maximum number of plane-waves:      1006
 maximum index in each direction: 
   IXMAX=    6   IYMAX=    6   IZMAX=    6
   IXMIN=   -6   IYMIN=   -6   IZMIN=   -6


 serial   3D FFT for wavefunctions
 parallel 3D FFT for charge:
    minimum data exchange during FFTs selected (reduces bandwidth)


 total amount of memory used by VASP MPI-rank0    33354. kBytes
=======================================================================

   base      :      30000. kBytes
   nonl-proj :        645. kBytes
   fftplans  :        234. kBytes
   grid      :       2073. kBytes
   one-center:        124. kBytes
   wavefun   :        278. kBytes
 
     INWAV:  cpu time    0.0000: real time    0.0000
 Broyden mixing: mesh for mixing (old mesh)
   NGX = 13   NGY = 13   NGZ = 13
  (NGX  = 36   NGY  = 36   NGZ  = 36)
  gives a total of   2197 points

 charge density for first step will be calculated from the start-wavefunctions


--------------------------------------------------------------------------------------------------------


 Maximum index for augmentation-charges          602 (set IRDMAX)


--------------------------------------------------------------------------------------------------------


 initial charge from wavefunction
 First call to EWALD:  gamma=   0.508
 Maximum number of real-space cells 3x 3x 3
 Maximum number of reciprocal cells 3x 3x 3

    FEWALD:  cpu time    0.0019: real time    0.0019


--------------------------------------- Iteration      1(   1)  ---------------------------------------


    POTLOK:  cpu time    0.0123: real time    0.0152
    SETDIJ:  cpu time    0.0059: real time    0.0059
     EDDAV:  cpu time    0.1210: real time    0.1214
       DOS:  cpu time    0.0005: real time    0.0005
    --------------------------------------------
      LOOP:  cpu time    0.1397: real time    0.1431

 eigenvalue-minimisations  :   512
 total energy-change (2. order) :-0.8238915E+03  (-0.2991905E+04)
 number of electron      40.0000068 magnetization       0.0000006
 augmentation part        3.4280754 magnetization       0.0565089

 Free energy of the ion-electron system (eV)
  ---------------------------------------------------
  alpha Z        PSCENC =       191.61485929
  Ewald energy   TEWEN  =     -3781.16325108
  -Hartree energ DENC   =       -89.13787323
  -exchange      EXHF   =         0.00000000
  -V(xc)+E(xc)   XCENC  =        85.93473076
  PAW double counting   =     86159.18099957   -86214.38535118
  entropy T*S    EENTRO =        -0.00257035
  eigenvalues    EBANDS =     -1486.61421409
  atomic energy  EATOM  =      4310.68113499
  Solvation  Ediel_sol  =         0.00000000
  ---------------------------------------------------
  free energy    TOTEN  =      -823.89153532 eV

  energy without entropy =     -823.88896497  energy(sigma->0) =     -823.89067853


--------------------------------------------------------------------------------------------------------




--------------------------------------- Iteration      1(   2)  ---------------------------------------


     EDDAV:  cpu time    0.1766: real time    0.1770
       DOS:  cpu time    0.0004: real time    0.0004
    --------------------------------------------
      LOOP:  cpu time    0.1771: real time    0.1775

 eigenvalue-minimisations  :   768
 total energy-change (2. order) :-0.1676644E+03  (-0.1623815E+03)
 number of electron      40.0000068 magnetization       0.0000006
 augmentation part        3.4280754 magnetization       0.0565089

 Free energy of the ion-electron system (eV)
  ---------------------------------------------------
  alpha Z        PSCENC =       191.61485929
  Ewald energy   TEWEN  =     -3781.16325108
  -Hartree energ DENC   =       -89.13787323
  -exchange      EXHF   =         0.00000000
  -V(xc)+E(xc)   XCENC  =        85.93473076
  PAW double counting   =     86159.18099957   -86214.38535118
  entropy T*S    EENTRO =         0.30381939
  eigenvalues    EBANDS =     -1654.58501874
  atomic energy  EATOM  =      4310.68113499
  Solvation  Ediel_sol  =         0.00000000
  ---------------------------------------------------
  free energy    TOTEN  =      -991.55595023 eV

  energy without entropy =     -991.85976962  energy(sigma->0) =     -991.65722336


--------------------------------------------------------------------------------------------------------




--------------------------------------- Iteration      1(   3)  ---------------------------------------


     EDDAV:  cpu time    0.1171: real time    0.1174
       DOS:  cpu time    0.0005: real time    0.0005
    --------------------------------------------
      LOOP:  cpu time    0.1176: real time    0.1178

 eigenvalue-minimisations  :   512
 total energy-change (2. order) :-0.1875132E+01  (-0.1815049E+01)
 number of electron      40.0000068 magnetization       0.0000006
 augmentation part        3.4280754 magnetization       0.0565089

 Free energy of the ion-electron system (eV)
  ---------------------------------------------------
  alpha Z        PSCENC =       191.61485929
  Ewald energy   TEWEN  =     -3781.16325108
  -Hartree energ DENC   =       -89.13787323
  -exchange      EXHF   =         0.00000000
  -V(xc)+E(xc)   XCENC  =        85.93473076
  PAW double counting   =     86159.18099957   -86214.38535118
  entropy T*S    EENTRO =         0.26366453
  eigenvalues    EBANDS =     -1656.41999553
  atomic energy  EATOM  =      4310.68113499
  Solvation  Ediel_sol  =         0.00000000
  ---------------------------------------------------
  free energy    TOTEN  =      -993.43108188 eV

  energy without entropy =     -993.69474641  energy(sigma->0) =     -993.51897006


--------------------------------------------------------------------------------------------------------




--------------------------------------- Iteration      1(   4)  ---------------------------------------


     EDDAV:  cpu time    0.1602: real time    0.1604
       DOS:  cpu time    0.0005: real time    0.0005
    --------------------------------------------
      LOOP:  cpu time    0.1606: real time    0.1608

 eigenvalue-minimisations  :   720
 total energy-change (2. order) :-0.4831963E-01  (-0.4826776E-01)
 number of electron      40.0000068 magnetization       0.0000006
 augmentation part        3.4280754 magnetization       0.0565089

 Free energy of the ion-electron system (eV)
  ---------------------------------------------------
  alpha Z        PSCENC =       191.61485929
  Ewald energy   TEWEN  =     -3781.16325108
  -Hartree energ DENC   =       -89.13787323
  -exchange      EXHF   =         0.00000000
  -V(xc)+E(xc)   XCENC  =        85.93473076
  PAW double counting   =     86159.18099957   -86214.38535118
  entropy T*S    EENTRO =         0.26355179
  eigenvalues    EBANDS =     -1656.46820242
  atomic energy  EATOM  =      4310.68113499
  Solvation  Ediel_sol  =         0.00000000
  ---------------------------------------------------
  free energy    TOTEN  =      -993.47940151 eV

  energy without entropy =     -993.74295330  energy(sigma->0) =     -993.56725211


--------------------------------------------------------------------------------------------------------




--------------------------------------- Iteration      1(   5)  ---------------------------------------


     EDDAV:  cpu time    0.1497: real time    0.1503
       DOS:  cpu time    0.0005: real time    0.0005
    CHARGE:  cpu time    0.0202: real time    0.0202
    MIXING:  cpu time    0.0004: real time    0.0004
    --------------------------------------------
      LOOP:  cpu time    0.1707: real time    0.1714

 eigenvalue-minimisations  :   656
 total energy-change (2. order) :-0.1177243E-02  (-0.1177203E-02)
 number of electron      40.0000732 magnetization       0.7918878
 augmentation part       37.2917583 magnetization       0.7480830

 Broyden mixing:
  rms(total) = 0.13906E+02    rms(broyden)= 0.13903E+02
  rms(prec ) = 0.32964E+02
  weight for this iteration     100.00

 Free energy of the ion-electron system (eV)
  ---------------------------------------------------
  alpha Z        PSCENC =       191.61485929
  Ewald energy   TEWEN  =     -3781.16325108
  -Hartree energ DENC   =       -89.13787323
  -exchange      EXHF   =         0.00000000
  -V(xc)+E(xc)   XCENC  =        85.93473076
  PAW double counting   =     86159.18099957   -86214.38535118
  entropy T*S    EENTRO =         0.26354703
  eigenvalues    EBANDS =     -1656.46937491
  atomic energy  EATOM  =      4310.68113499
  Solvation  Ediel_sol  =         0.00000000
  ---------------------------------------------------
  free energy    TOTEN  =      -993.48057876 eV

  energy without entropy =     -993.74412579  energy(sigma->0) =     -993.56842777


--------------------------------------------------------------------------------------------------------




--------------------------------------- Iteration      1(   6)  ---------------------------------------


    POTLOK:  cpu time    0.0069: real time    0.0071
    SETDIJ:  cpu time    0.0057: real time    0.0057
     EDDAV:  cpu time    0.1703: real time    0.1703
       DOS:  cpu time    0.0005: real time    0.0005
    CHARGE:  cpu time    0.0203: real time    0.0203
    MIXING:  cpu time    0.0004: real time    0.0004
    --------------------------------------------
      LOOP:  cpu time    0.2040: real time    0.2043

 eigenvalue-minimisations  :   768
 total energy-change (2. order) : 0.8684747E+03  (-0.6051269E+02)
 number of electron      40.0000683 magnetization      -1.0003515
 augmentation part       33.7186965 magnetization      -0.9707364

 Broyden mixing:
  rms(total) = 0.70488E+01    rms(broyden)= 0.70485E+01
  rms(prec ) = 0.17018E+02
  weight for this iteration     100.00

 eigenvalues of (default mixing * dielectric matrix)
  average eigenvalue GAMMA=   1.9027
  1.9027

 Free energy of the ion-electron system (eV)
  ---------------------------------------------------
  alpha Z        PSCENC =       191.61485929
  Ewald energy   TEWEN  =     -3781.16325108
  -Hartree energ DENC   =      -509.63317339
  -exchange      EXHF   =         0.00000000
  -V(xc)+E(xc)   XCENC  =       105.10175721
  PAW double counting   =     45394.33292665   -45691.29537519
  entropy T*S    EENTRO =         0.05253993
  eigenvalues    EBANDS =      -144.69730697
  atomic energy  EATOM  =      4310.68113499
  Solvation  Ediel_sol  =         0.00000000
  ---------------------------------------------------
  free energy    TOTEN  =      -125.00588855 eV

  energy without entropy =     -125.05842848  energy(sigma->0) =     -125.02340186


--------------------------------------------------------------------------------------------------------




--------------------------------------- Iteration      1(   7)  ---------------------------------------


    POTLOK:  cpu time    0.0067: real time    0.0069
    SETDIJ:  cpu time    0.0055: real time    0.0055
     EDDAV:  cpu time    0.1390: real time    0.1390
       DOS:  cpu time    0.0004: real time    0.0004
    CHARGE:  cpu time    0.0194: real time    0.0194
    MIXING:  cpu time    0.0004: real time    0.0004
    --------------------------------------------
      LOOP:  cpu time    0.1714: real time    0.1716

 eigenvalue-minimisations  :   656
 total energy-change (2. order) :-0.1572118E+03  (-0.3411994E+03)
 number of electron      40.0000198 magnetization       0.1414379
 augmentation part        9.2028223 magnetization       0.0717254

 Broyden mixing:
  rms(total) = 0.10944E+02    rms(broyden)= 0.10943E+02
  rms(prec ) = 0.25597E+02
  weight for this iteration     100.00

 eigenvalues of (default mixing * dielectric matrix)
  average eigenvalue GAMMA=   0.9052
  0.9052  0.9052

 Free energy of the ion-electron system (eV)
  ---------------------------------------------------
  alpha Z        PSCENC =       191.61485929
  Ewald energy   TEWEN  =     -3781.16325108
  -Hartree energ DENC   =     -1336.02869743
  -exchange      EXHF   =         0.00000000
  -V(xc)+E(xc)   XCENC  =       148.21492704
  PAW double counting   =      9458.14003461    -9971.95384146
  entropy T*S    EENTRO =        -0.03445747
  eigenvalues    EBANDS =       698.31155705
  atomic energy  EATOM  =      4310.68113499
  Solvation  Ediel_sol  =         0.00000000
  ---------------------------------------------------
  free energy    TOTEN  =      -282.21773446 eV

  energy without entropy =     -282.18327699  energy(sigma->0) =     -282.20624863


--------------------------------------------------------------------------------------------------------




--------------------------------------- Iteration      1(   8)  ---------------------------------------


    POTLOK:  cpu time    0.0066: real time    0.0068
    SETDIJ:  cpu time    0.0055: real time    0.0055
     EDDAV:  cpu time    0.1131: real time    0.1131
       DOS:  cpu time    0.0004: real time    0.0004
    CHARGE:  cpu time    0.0188: real time    0.0188
    MIXING:  cpu time    0.0004: real time    0.0004
    --------------------------------------------
      LOOP:  cpu time    0.1449: real time    0.1451

 eigenvalue-minimisations  :   528
 total energy-change (2. order) : 0.2475424E+03  (-0.1650852E+03)
 number of electron      40.0000605 magnetization       0.2749954
 augmentation part       29.6954767 magnetization       0.3080293

 Broyden mixing:
  rms(total) = 0.36317E+01    rms(broyden)= 0.36315E+01
  rms(prec ) = 0.88130E+01
  weight for this iteration     100.00

 eigenvalues of (default mixing * dielectric matrix)
  average eigenvalue GAMMA=   1.3169
  2.2937  0.9891  0.6680

 Free energy of the ion-electron system (eV)
  ---------------------------------------------------
  alpha Z        PSCENC =       191.61485929
  Ewald energy   TEWEN  =     -3781.16325108
  -Hartree energ DENC   =      -702.51174725
  -exchange      EXHF   =         0.00000000
  -V(xc)+E(xc)   XCENC  =       114.27978821
  PAW double counting   =     18916.70118525   -19225.34149582
  entropy T*S    EENTRO =        -0.01313226
  eigenvalues    EBANDS =       141.07730701
  atomic energy  EATOM  =      4310.68113499
  Solvation  Ediel_sol  =         0.00000000
  ---------------------------------------------------
  free energy    TOTEN  =       -34.67535165 eV

  energy without entropy =      -34.66221939  energy(sigma->0) =      -34.67097423


--------------------------------------------------------------------------------------------------------




--------------------------------------- Iteration      1(   9)  ---------------------------------------


    POTLOK:  cpu time    0.0067: real time    0.0069
    SETDIJ:  cpu time    0.0055: real time    0.0055
     EDDAV:  cpu time    0.1429: real time    0.1429
       DOS:  cpu time    0.0004: real time    0.0004
    CHARGE:  cpu time    0.0190: real time    0.0190
    MIXING:  cpu time    0.0004: real time    0.0004
    --------------------------------------------
      LOOP:  cpu time    0.1750: real time    0.1753

 eigenvalue-minimisations  :   672
 total energy-change (2. order) : 0.1186849E+02  (-0.9930343E+01)
 number of electron      40.0000544 magnetization       1.2718857
 augmentation part       25.9343523 magnetization       1.2152179

 Broyden mixing:
  rms(total) = 0.98821E+00    rms(broyden)= 0.98817E+00
  rms(prec ) = 0.24124E+01
  weight for this iteration     100.00

 eigenvalues of (default mixing * dielectric matrix)
  average eigenvalue GAMMA=   1.2591
  2.2925  1.0948  1.0948  0.5544

 Free energy of the ion-electron system (eV)
  ---------------------------------------------------
  alpha Z        PSCENC =       191.61485929
  Ewald energy   TEWEN  =     -3781.16325108
  -Hartree energ DENC   =      -827.21872464
  -exchange      EXHF   =         0.00000000
  -V(xc)+E(xc)   XCENC  =       120.32158580
  PAW double counting   =      7029.81402106    -7319.98577539
  entropy T*S    EENTRO =        -0.02744934
  eigenvalues    EBANDS =       253.15673481
  atomic energy  EATOM  =      4310.68113499
  Solvation  Ediel_sol  =         0.00000000
  ---------------------------------------------------
  free energy    TOTEN  =       -22.80686449 eV

  energy without entropy =      -22.77941515  energy(sigma->0) =      -22.79771471


--------------------------------------------------------------------------------------------------------




--------------------------------------- Iteration      1(  10)  ---------------------------------------


    POTLOK:  cpu time    0.0067: real time    0.0070
    SETDIJ:  cpu time    0.0057: real time    0.0057
     EDDAV:  cpu time    0.1408: real time    0.1408
       DOS:  cpu time    0.0004: real time    0.0004
    CHARGE:  cpu time    0.0198: real time    0.0198
    MIXING:  cpu time    0.0004: real time    0.0004
    --------------------------------------------
      LOOP:  cpu time    0.1738: real time    0.1740

 eigenvalue-minimisations  :   656
 total energy-change (2. order) :-0.2332829E+01  (-0.3239139E+00)
 number of electron      40.0000555 magnetization       2.4850709
 augmentation part       26.6834704 magnetization       2.3650289

 Broyden mixing:
  rms(total) = 0.13845E+01    rms(broyden)= 0.13845E+01
  rms(prec ) = 0.33082E+01
  weight for this iteration     100.00

 eigenvalues of (default mixing * dielectric matrix)
  average eigenvalue GAMMA=   1.6843
  2.7777  2.7777  1.5556  0.6552  0.6552

 Free energy of the ion-electron system (eV)
  ---------------------------------------------------
  alpha Z        PSCENC =       191.61485929
  Ewald energy   TEWEN  =     -3781.16325108
  -Hartree energ DENC   =      -828.14190979
  -exchange      EXHF   =         0.00000000
  -V(xc)+E(xc)   XCENC  =       120.16029864
  PAW double counting   =      4980.98845120    -5245.71258130
  entropy T*S    EENTRO =         0.00597303
  eigenvalues    EBANDS =       226.42733195
  atomic energy  EATOM  =      4310.68113499
  Solvation  Ediel_sol  =         0.00000000
  ---------------------------------------------------
  free energy    TOTEN  =       -25.13969307 eV

  energy without entropy =      -25.14566610  energy(sigma->0) =      -25.14168408


--------------------------------------------------------------------------------------------------------




--------------------------------------- Iteration      1(  11)  ---------------------------------------


    POTLOK:  cpu time    0.0068: real time    0.0070
    SETDIJ:  cpu time    0.0057: real time    0.0057
     EDDAV:  cpu time    0.1212: real time    0.1212
       DOS:  cpu time    0.0004: real time    0.0004
    CHARGE:  cpu time    0.0195: real time    0.0195
    MIXING:  cpu time    0.0005: real time    0.0004
    --------------------------------------------
      LOOP:  cpu time    0.1541: real time    0.1543

 eigenvalue-minimisations  :   544
 total energy-change (2. order) :-0.4000516E+01  (-0.6657120E+01)
 number of electron      40.0000476 magnetization       3.3254088
 augmentation part       21.7787152 magnetization       3.1360494

 Broyden mixing:
  rms(total) = 0.19534E+01    rms(broyden)= 0.19534E+01
  rms(prec ) = 0.45534E+01
  weight for this iteration     100.00

 eigenvalues of (default mixing * dielectric matrix)
  average eigenvalue GAMMA=   1.5358
  2.9916  2.9916  1.3326  0.6910  0.6910  0.5171

 Free energy of the ion-electron system (eV)
  ---------------------------------------------------
  alpha Z        PSCENC =       191.61485929
  Ewald energy   TEWEN  =     -3781.16325108
  -Hartree energ DENC   =      -953.79785822
  -exchange      EXHF   =         0.00000000
  -V(xc)+E(xc)   XCENC  =       126.90380941
  PAW double counting   =      4629.39831643    -4933.12509422
  entropy T*S    EENTRO =         0.00026291
  eigenvalues    EBANDS =       380.34761153
  atomic energy  EATOM  =      4310.68113499
  Solvation  Ediel_sol  =         0.00000000
  ---------------------------------------------------
  free energy    TOTEN  =       -29.14020895 eV

  energy without entropy =      -29.14047186  energy(sigma->0) =      -29.14029659


--------------------------------------------------------------------------------------------------------




--------------------------------------- Iteration      1(  12)  ---------------------------------------


    POTLOK:  cpu time    0.0069: real time    0.0071
    SETDIJ:  cpu time    0.0056: real time    0.0056
     EDDAV:  cpu time    0.1271: real time    0.1271
       DOS:  cpu time    0.0006: real time    0.0006
    CHARGE:  cpu time    0.0213: real time    0.0213
    MIXING:  cpu time    0.0005: real time    0.0005
    --------------------------------------------
      LOOP:  cpu time    0.1619: real time    0.1622

 eigenvalue-minimisations  :   528
 total energy-change (2. order) : 0.6777869E+01  (-0.1060268E+01)
 number of electron      40.0000511 magnetization       2.6449186
 augmentation part       23.8901763 magnetization       2.5693659

 Broyden mixing:
  rms(total) = 0.55733E+00    rms(broyden)= 0.55732E+00
  rms(prec ) = 0.12269E+01
  weight for this iteration     100.00

 eigenvalues of (default mixing * dielectric matrix)
  average eigenvalue GAMMA=   1.2698
  2.5818  2.5818  1.1734  0.8220  0.5805  0.5745  0.5745

 Free energy of the ion-electron system (eV)
  ---------------------------------------------------
  alpha Z        PSCENC =       191.61485929
  Ewald energy   TEWEN  =     -3781.16325108
  -Hartree energ DENC   =      -902.12676081
  -exchange      EXHF   =         0.00000000
  -V(xc)+E(xc)   XCENC  =       124.30935292
  PAW double counting   =      4415.59667915    -4697.10146030
  entropy T*S    EENTRO =         0.00699343
  eigenvalues    EBANDS =       315.82011233
  atomic energy  EATOM  =      4310.68113499
  Solvation  Ediel_sol  =         0.00000000
  ---------------------------------------------------
  free energy    TOTEN  =       -22.36234008 eV

  energy without entropy =      -22.36933350  energy(sigma->0) =      -22.36467122


--------------------------------------------------------------------------------------------------------




--------------------------------------- Iteration      1(  13)  ---------------------------------------


    POTLOK:  cpu time    0.0076: real time    0.0078
    SETDIJ:  cpu time    0.0057: real time    0.0057
     EDDAV:  cpu time    0.1396: real time    0.1396
       DOS:  cpu time    0.0004: real time    0.0004
    CHARGE:  cpu time    0.0207: real time    0.0207
    MIXING:  cpu time    0.0005: real time    0.0005
    --------------------------------------------
      LOOP:  cpu time    0.1745: real time    0.1748

 eigenvalue-minimisations  :   624
 total energy-change (2. order) : 0.4416096E+00  (-0.1606198E+00)
 number of electron      40.0000525 magnetization       2.7727470
 augmentation part       24.6797701 magnetization       2.5918611

 Broyden mixing:
  rms(total) = 0.62120E-01    rms(broyden)= 0.62082E-01
  rms(prec ) = 0.11440E+00
  weight for this iteration     100.00

 eigenvalues of (default mixing * dielectric matrix)
  average eigenvalue GAMMA=   1.2580
  2.7591  2.7591  1.2428  0.7427  0.7427  0.7155  0.6091  0.4926

 Free energy of the ion-electron system (eV)
  ---------------------------------------------------
  alpha Z        PSCENC =       191.61485929
  Ewald energy   TEWEN  =     -3781.16325108
  -Hartree energ DENC   =      -881.08586021
  -exchange      EXHF   =         0.00000000
  -V(xc)+E(xc)   XCENC  =       123.03742981
  PAW double counting   =      4493.14914126    -4768.69525107
  entropy T*S    EENTRO =         0.01404003
  eigenvalues    EBANDS =       290.52702649
  atomic energy  EATOM  =      4310.68113499
  Solvation  Ediel_sol  =         0.00000000
  ---------------------------------------------------
  free energy    TOTEN  =       -21.92073049 eV

  energy without entropy =      -21.93477052  energy(sigma->0) =      -21.92541050


--------------------------------------------------------------------------------------------------------




--------------------------------------- Iteration      1(  14)  ---------------------------------------


    POTLOK:  cpu time    0.0069: real time    0.0071
    SETDIJ:  cpu time    0.0056: real time    0.0056
     EDDAV:  cpu time    0.1289: real time    0.1289
       DOS:  cpu time    0.0004: real time    0.0004
    CHARGE:  cpu time    0.0208: real time    0.0208
    MIXING:  cpu time    0.0006: real time    0.0006
    --------------------------------------------
      LOOP:  cpu time    0.1632: real time    0.1634

 eigenvalue-minimisations  :   544
 total energy-change (2. order) :-0.2219198E-02  (-0.3179565E-02)
 number of electron      40.0000525 magnetization       2.7348664
 augmentation part       24.6504355 magnetization       2.5604897

 Broyden mixing:
  rms(total) = 0.29742E-01    rms(broyden)= 0.29740E-01
  rms(prec ) = 0.49213E-01
  weight for this iteration     100.00

 eigenvalues of (default mixing * dielectric matrix)
  average eigenvalue GAMMA=   1.2676
  2.7711  2.7711  1.1726  1.1726  1.1341  0.8014  0.5766  0.5042  0.5042

 Free energy of the ion-electron system (eV)
  ---------------------------------------------------
  alpha Z        PSCENC =       191.61485929
  Ewald energy   TEWEN  =     -3781.16325108
  -Hartree energ DENC   =      -882.65593754
  -exchange      EXHF   =         0.00000000
  -V(xc)+E(xc)   XCENC  =       123.12220274
  PAW double counting   =      4406.32405802    -4681.53011986
  entropy T*S    EENTRO =         0.01335486
  eigenvalues    EBANDS =       291.67074889
  atomic energy  EATOM  =      4310.68113499
  Solvation  Ediel_sol  =         0.00000000
  ---------------------------------------------------
  free energy    TOTEN  =       -21.92294969 eV

  energy without entropy =      -21.93630455  energy(sigma->0) =      -21.92740131


--------------------------------------------------------------------------------------------------------




--------------------------------------- Iteration      1(  15)  ---------------------------------------


    POTLOK:  cpu time    0.0075: real time    0.0077
    SETDIJ:  cpu time    0.0056: real time    0.0056
     EDDAV:  cpu time    0.1649: real time    0.1649
       DOS:  cpu time    0.0004: real time    0.0004
    CHARGE:  cpu time    0.0207: real time    0.0207
    MIXING:  cpu time    0.0006: real time    0.0006
    --------------------------------------------
      LOOP:  cpu time    0.1997: real time    0.2000

 eigenvalue-minimisations  :   736
 total energy-change (2. order) :-0.8268242E-03  (-0.8780645E-04)
 number of electron      40.0000525 magnetization       2.7491023
 augmentation part       24.6619544 magnetization       2.5665164

 Broyden mixing:
  rms(total) = 0.24511E-01    rms(broyden)= 0.24511E-01
  rms(prec ) = 0.53509E-01
  weight for this iteration     100.00

 eigenvalues of (default mixing * dielectric matrix)
  average eigenvalue GAMMA=   1.2840
  3.3076  2.5877  1.5515  1.1517  1.1517  0.7210  0.6358  0.6358  0.5807  0.5165

 Free energy of the ion-electron system (eV)
  ---------------------------------------------------
  alpha Z        PSCENC =       191.61485929
  Ewald energy   TEWEN  =     -3781.16325108
  -Hartree energ DENC   =      -882.57318295
  -exchange      EXHF   =         0.00000000
  -V(xc)+E(xc)   XCENC  =       123.09320311
  PAW double counting   =      4367.78883224    -4642.76272031
  entropy T*S    EENTRO =         0.01349482
  eigenvalues    EBANDS =       291.38385337
  atomic energy  EATOM  =      4310.68113499
  Solvation  Ediel_sol  =         0.00000000
  ---------------------------------------------------
  free energy    TOTEN  =       -21.92377651 eV

  energy without entropy =      -21.93727134  energy(sigma->0) =      -21.92827479


--------------------------------------------------------------------------------------------------------




--------------------------------------- Iteration      1(  16)  ---------------------------------------


    POTLOK:  cpu time    0.0067: real time    0.0070
    SETDIJ:  cpu time    0.0055: real time    0.0055
     EDDAV:  cpu time    0.1280: real time    0.1280
       DOS:  cpu time    0.0004: real time    0.0004
    CHARGE:  cpu time    0.0209: real time    0.0209
    MIXING:  cpu time    0.0007: real time    0.0007
    --------------------------------------------
      LOOP:  cpu time    0.1624: real time    0.1626

 eigenvalue-minimisations  :   544
 total energy-change (2. order) :-0.3502754E-03  (-0.8125511E-03)
 number of electron      40.0000524 magnetization       2.7394298
 augmentation part       24.6011071 magnetization       2.5601249

 Broyden mixing:
  rms(total) = 0.22415E-01    rms(broyden)= 0.22415E-01
  rms(prec ) = 0.51923E-01
  weight for this iteration     100.00

 eigenvalues of (default mixing * dielectric matrix)
  average eigenvalue GAMMA=   1.3452
  3.6782  2.3575  2.3575  1.2490  0.9975  0.9975  0.7339  0.7339  0.5842  0.5540
  0.5540

 Free energy of the ion-electron system (eV)
  ---------------------------------------------------
  alpha Z        PSCENC =       191.61485929
  Ewald energy   TEWEN  =     -3781.16325108
  -Hartree energ DENC   =      -884.45204523
  -exchange      EXHF   =         0.00000000
  -V(xc)+E(xc)   XCENC  =       123.18174995
  PAW double counting   =      4316.15157063    -4591.42180226
  entropy T*S    EENTRO =         0.01337746
  eigenvalues    EBANDS =       293.47027945
  atomic energy  EATOM  =      4310.68113499
  Solvation  Ediel_sol  =         0.00000000
  ---------------------------------------------------
  free energy    TOTEN  =       -21.92412679 eV

  energy without entropy =      -21.93750425  energy(sigma->0) =      -21.92858594


--------------------------------------------------------------------------------------------------------




--------------------------------------- Iteration      1(  17)  ---------------------------------------


    POTLOK:  cpu time    0.0068: real time    0.0070
    SETDIJ:  cpu time    0.0057: real time    0.0057
     EDDAV:  cpu time    0.1466: real time    0.1467
       DOS:  cpu time    0.0005: real time    0.0005
    CHARGE:  cpu time    0.0206: real time    0.0206
    MIXING:  cpu time    0.0008: real time    0.0008
    --------------------------------------------
      LOOP:  cpu time    0.1810: real time    0.1812

 eigenvalue-minimisations  :   640
 total energy-change (2. order) : 0.7972732E-03  (-0.1038391E-03)
 number of electron      40.0000524 magnetization       2.7433782
 augmentation part       24.6224319 magnetization       2.5632215

 Broyden mixing:
  rms(total) = 0.95985E-02    rms(broyden)= 0.95985E-02
  rms(prec ) = 0.19247E-01
  weight for this iteration     100.00

 eigenvalues of (default mixing * dielectric matrix)
  average eigenvalue GAMMA=   1.3034
  3.5457  2.3967  2.3967  1.1142  1.1142  1.1080  0.8345  0.8345  0.6059  0.6059
  0.5667  0.5183

 Free energy of the ion-electron system (eV)
  ---------------------------------------------------
  alpha Z        PSCENC =       191.61485929
  Ewald energy   TEWEN  =     -3781.16325108
  -Hartree energ DENC   =      -883.94643259
  -exchange      EXHF   =         0.00000000
  -V(xc)+E(xc)   XCENC  =       123.15251164
  PAW double counting   =      4305.86802572    -4580.92775097
  entropy T*S    EENTRO =         0.01340651
  eigenvalues    EBANDS =       292.78416697
  atomic energy  EATOM  =      4310.68113499
  Solvation  Ediel_sol  =         0.00000000
  ---------------------------------------------------
  free energy    TOTEN  =       -21.92332951 eV

  energy without entropy =      -21.93673603  energy(sigma->0) =      -21.92779835


--------------------------------------------------------------------------------------------------------




--------------------------------------- Iteration      1(  18)  ---------------------------------------


    POTLOK:  cpu time    0.0071: real time    0.0073
    SETDIJ:  cpu time    0.0056: real time    0.0056
     EDDAV:  cpu time    0.1671: real time    0.1671
       DOS:  cpu time    0.0005: real time    0.0005
    CHARGE:  cpu time    0.0213: real time    0.0213
    MIXING:  cpu time    0.0008: real time    0.0008
    --------------------------------------------
      LOOP:  cpu time    0.2023: real time    0.2026

 eigenvalue-minimisations  :   720
 total energy-change (2. order) : 0.3135807E-04  (-0.1543058E-05)
 number of electron      40.0000524 magnetization       2.7548980
 augmentation part       24.6245877 magnetization       2.5749987

 Broyden mixing:
  rms(total) = 0.76479E-02    rms(broyden)= 0.76479E-02
  rms(prec ) = 0.15181E-01
  weight for this iteration     100.00

 eigenvalues of (default mixing * dielectric matrix)
  average eigenvalue GAMMA=   1.3674
  3.5997  2.6051  2.6051  1.4533  1.4533  1.1989  0.8949  0.8949  0.7123  0.6803
  0.5399  0.5399  0.5987

 Free energy of the ion-electron system (eV)
  ---------------------------------------------------
  alpha Z        PSCENC =       191.61485929
  Ewald energy   TEWEN  =     -3781.16325108
  -Hartree energ DENC   =      -883.86408588
  -exchange      EXHF   =         0.00000000
  -V(xc)+E(xc)   XCENC  =       123.14989005
  PAW double counting   =      4305.93249239    -4580.99479122
  entropy T*S    EENTRO =         0.01339577
  eigenvalues    EBANDS =       292.70705752
  atomic energy  EATOM  =      4310.68113499
  Solvation  Ediel_sol  =         0.00000000
  ---------------------------------------------------
  free energy    TOTEN  =       -21.92329816 eV

  energy without entropy =      -21.93669393  energy(sigma->0) =      -21.92776341


--------------------------------------------------------------------------------------------------------




--------------------------------------- Iteration      1(  19)  ---------------------------------------


    POTLOK:  cpu time    0.0072: real time    0.0075
    SETDIJ:  cpu time    0.0057: real time    0.0057
     EDDAV:  cpu time    0.1315: real time    0.1316
       DOS:  cpu time    0.0004: real time    0.0004
    CHARGE:  cpu time    0.0218: real time    0.0218
    MIXING:  cpu time    0.0008: real time    0.0008
    --------------------------------------------
      LOOP:  cpu time    0.1674: real time    0.1676

 eigenvalue-minimisations  :   560
 total energy-change (2. order) : 0.5544544E-04  (-0.9448471E-05)
 number of electron      40.0000524 magnetization       2.7555295
 augmentation part       24.6310595 magnetization       2.5767909

 Broyden mixing:
  rms(total) = 0.17415E-02    rms(broyden)= 0.17414E-02
  rms(prec ) = 0.39909E-02
  weight for this iteration     100.00

 eigenvalues of (default mixing * dielectric matrix)
  average eigenvalue GAMMA=   1.3330
  3.5556  2.6172  2.6172  1.5245  1.5245  1.0822  0.9769  0.9769  0.7287  0.7003
  0.7003  0.5368  0.5368  0.5842

 Free energy of the ion-electron system (eV)
  ---------------------------------------------------
  alpha Z        PSCENC =       191.61485929
  Ewald energy   TEWEN  =     -3781.16325108
  -Hartree energ DENC   =      -883.68857285
  -exchange      EXHF   =         0.00000000
  -V(xc)+E(xc)   XCENC  =       123.14426248
  PAW double counting   =      4305.09510535    -4580.10709838
  entropy T*S    EENTRO =         0.01333766
  eigenvalues    EBANDS =       292.48697983
  atomic energy  EATOM  =      4310.68113499
  Solvation  Ediel_sol  =         0.00000000
  ---------------------------------------------------
  free energy    TOTEN  =       -21.92324271 eV

  energy without entropy =      -21.93658037  energy(sigma->0) =      -21.92768860


--------------------------------------------------------------------------------------------------------




--------------------------------------- Iteration      1(  20)  ---------------------------------------


    POTLOK:  cpu time    0.0073: real time    0.0076
    SETDIJ:  cpu time    0.0057: real time    0.0057
     EDDAV:  cpu time    0.1368: real time    0.1369
       DOS:  cpu time    0.0004: real time    0.0004
    --------------------------------------------
      LOOP:  cpu time    0.1503: real time    0.1506

 eigenvalue-minimisations  :   560
 total energy-change (2. order) : 0.2544984E-06  (-0.2102117E-06)
 number of electron      40.0000524 magnetization       2.7555295
 augmentation part       24.6310595 magnetization       2.5767909

 Free energy of the ion-electron system (eV)
  ---------------------------------------------------
  alpha Z        PSCENC =       191.61485929
  Ewald energy   TEWEN  =     -3781.16325108
  -Hartree energ DENC   =      -883.69177305
  -exchange      EXHF   =         0.00000000
  -V(xc)+E(xc)   XCENC  =       123.14446327
  PAW double counting   =      4304.71218305    -4579.71928045
  entropy T*S    EENTRO =         0.01333357
  eigenvalues    EBANDS =       292.48508795
  atomic energy  EATOM  =      4310.68113499
  Solvation  Ediel_sol  =         0.00000000
  ---------------------------------------------------
  free energy    TOTEN  =       -21.92324246 eV

  energy without entropy =      -21.93657603  energy(sigma->0) =      -21.92768698


--------------------------------------------------------------------------------------------------------




 average (electrostatic) potential at core
  the test charge radii are     0.9791
  (the norm of the test charge is              1.0000)
       1 -81.7298       2 -81.7298       3 -81.7298       4 -81.7298
 
 
 
 E-fermi :   9.6981     XC(G=0): -13.3837     alpha+bet :-16.8239


 spin component 1

 k-point     1 :       0.1250    0.1250    0.1250
  band No.  band energies     occupation 
      1       1.1277      1.00000
      2       5.1077      1.00000
      3       5.1077      1.00000
      4       5.1077      1.00000
      5       5.5561      1.00000
      6       5.5561      1.00000
      7       5.5561      1.00000
      8       7.0310      1.00000
      9       7.3017      1.00000
     10       7.3017      1.00000
     11       8.3247      1.00000
     12       8.3247      1.00000
     13       8.3492      1.00000
     14       8.3492      1.00000
     15       8.3492      1.00000
     16       8.7986      1.00000
     17       8.7986      1.00000
     18       8.7986      1.00000
     19       9.1496      1.00037
     20       9.1496      1.00037
     21       9.1496      1.00037
     22      12.2183     -0.00000
     23      12.2183     -0.00000
     24      12.2183     -0.00000
     25      20.5675      0.00000
     26      20.5675      0.00000
     27      20.5675      0.00000
     28      21.9426      0.00000
     29      21.9426      0.00000
     30      21.9426      0.00000
     31      25.6322      0.00000
     32      25.6322      0.00000

 k-point     2 :       0.3750    0.1250    0.1250
  band No.  band energies     occupation 
      1       2.6367      1.00000
      2       4.6909      1.00000
      3       5.7418      1.00000
      4       5.7418      1.00000
      5       5.9886      1.00000
      6       6.0336      1.00000
      7       6.0336      1.00000
      8       6.6120      1.00000
      9       7.0550      1.00000
     10       7.0550      1.00000
     11       7.4833      1.00000
     12       7.4858      1.00000
     13       7.6129      1.00000
     14       8.1618      1.00000
     15       8.1990      1.00000
     16       8.3788      1.00000
     17       8.3788      1.00000
     18       8.6160      1.00000
     19       8.9816      1.00000
     20       9.0513      1.00002
     21       9.0513      1.00002
     22       9.2723      1.00516
     23      14.5235     -0.00000
     24      14.5235     -0.00000
     25      17.8627      0.00000
     26      17.8627      0.00000
     27      21.6010      0.00000
     28      21.6010      0.00000
     29      23.7210      0.00000
     30      23.9125      0.00000
     31      23.9125      0.00000
     32      26.8392      0.00000

 k-point     3 :       0.3750    0.3750    0.1250
  band No.  band energies     occupation 
      1       3.8698      1.00000
      2       5.3596      1.00000
      3       5.3596      1.00000
      4       5.7529      1.00000
      5       6.3820      1.00000
      6       6.4451      1.00000
      7       6.4451      1.00000
      8       6.6728      1.00000
      9       6.8534      1.00000
     10       6.8534      1.00000
     11       6.9840      1.00000
     12       7.2742      1.00000
     13       7.5889      1.00000
     14       7.9529      1.00000
     15       7.9529      1.00000
     16       7.9583      1.00000
     17       8.2306      1.00000
     18       8.7373      1.00000
     19       8.7373      1.00000
     20       8.7861      1.00000
     21       9.1786      1.00074
     22      10.8102     -0.00000
     23      10.8102     -0.00000
     24      13.2382     -0.00000
     25      16.8011      0.00000
     26      19.6637      0.00000
     27      19.6637      0.00000
     28      22.6875      0.00000
     29      22.8302      0.00000
     30      25.3266      0.00000
     31      25.3266      0.00000
     32      28.2151      0.00000

 k-point     4 :       0.3750    0.3750    0.3750
  band No.  band energies     occupation 
      1       4.3748      1.00000
      2       5.0265      1.00000
      3       5.0265      1.00000
      4       5.0265      1.00000
      5       6.9271      1.00000
      6       6.9271      1.00000
      7       6.9271      1.00000
      8       7.2704      1.00000
      9       7.2704      1.00000
     10       7.4297      1.00000
     11       7.4297      1.00000
     12       7.4297      1.00000
     13       7.6128      1.00000
     14       7.6128      1.00000
     15       7.6128      1.00000
     16       7.7027      1.00000
     17       8.8462      1.00000
     18       8.8462      1.00000
     19       9.0727      1.00005
     20       9.0727      1.00005
     21       9.0727      1.00005
     22      10.9175     -0.00000
     23      10.9175     -0.00000
     24      10.9175     -0.00000
     25      16.1094      0.00000
     26      16.1094      0.00000
     27      16.1094      0.00000
     28      18.5966      0.00000
     29      29.2755      0.00000
     30      29.2755      0.00000
     31      29.2755      0.00000
     32      31.6175      0.00000

 spin component 2

 k-point     1 :       0.1250    0.1250    0.1250
  band No.  band energies     occupation 
      1       1.1154      1.00000
      2       5.5104      1.00000
      3       5.5104      1.00000
      4       5.5104      1.00000
      5       6.1977      1.00000
      6       6.1977      1.00000
      7       6.1977      1.00000
      8       7.7925      1.00000
      9       8.0877      1.00000
     10       8.0877      1.00000
     11       9.0132      1.00001
     12       9.0132      1.00001
     13       9.0316      1.00001
     14       9.0316      1.00001
     15       9.0316      1.00001
     16       9.5358      0.99295
     17       9.5358      0.99295
     18       9.5358      0.99295
     19      10.0037     -0.02637
     20      10.0037     -0.02637
     21      10.0037     -0.02637
     22      12.4823     -0.00000
     23      12.4823     -0.00000
     24      12.4823     -0.00000
     25      20.7933      0.00000
     26      20.7933      0.00000
     27      20.7933      0.00000
     28      22.0674      0.00000
     29      22.0674      0.00000
     30      22.0674      0.00000
     31      25.6855      0.00000
     32      25.6855      0.00000

 k-point     2 :       0.3750    0.1250    0.1250
  band No.  band energies     occupation 
      1       2.6398      1.00000
      2       4.8525      1.00000
      3       6.1971      1.00000
      4       6.1971      1.00000
      5       6.6372      1.00000
      6       6.6372      1.00000
      7       6.6570      1.00000
      8       7.3314      1.00000
      9       7.6878      1.00000
     10       7.6878      1.00000
     11       8.0782      1.00000
     12       8.2081      1.00000
     13       8.3896      1.00000
     14       8.8816      1.00000
     15       8.9699      1.00000
     16       9.0571      1.00003
     17       9.0571      1.00003
     18       9.3384      1.01449
     19       9.7559      0.26634
     20       9.9262     -0.03423
     21       9.9262     -0.03423
     22       9.9327     -0.03502
     23      14.8112     -0.00000
     24      14.8112     -0.00000
     25      18.0833      0.00000
     26      18.0833      0.00000
     27      21.7863      0.00000
     28      21.7863      0.00000
     29      23.8645      0.00000
     30      24.0399      0.00000
     31      24.0399      0.00000
     32      26.9665      0.00000

 k-point     3 :       0.3750    0.3750    0.1250
  band No.  band energies     occupation 
      1       3.9365      1.00000
      2       5.6671      1.00000
      3       5.6671      1.00000
      4       6.2861      1.00000
      5       6.8420      1.00000
      6       7.0033      1.00000
      7       7.0033      1.00000
      8       7.3240      1.00000
      9       7.5064      1.00000
     10       7.5064      1.00000
     11       7.6192      1.00000
     12       7.9596      1.00000
     13       8.3082      1.00000
     14       8.6419      1.00000
     15       8.6492      1.00000
     16       8.6492      1.00000
     17       8.9904      1.00000
     18       9.5411      0.98606
     19       9.5411      0.98606
     20       9.6256      0.78541
     21       9.9264     -0.03426
     22      11.3746     -0.00000
     23      11.3746     -0.00000
     24      13.5850     -0.00000
     25      17.1027      0.00000
     26      19.8898      0.00000
     27      19.8898      0.00000
     28      22.8754      0.00000
     29      22.9881      0.00000
     30      25.4458      0.00000
     31      25.4458      0.00000
     32      28.3090      0.00000

 k-point     4 :       0.3750    0.3750    0.3750
  band No.  band energies     occupation 
      1       4.6403      1.00000
      2       5.4899      1.00000
      3       5.4899      1.00000
      4       5.4899      1.00000
      5       7.4912      1.00000
      6       7.4912      1.00000
      7       7.4912      1.00000
      8       7.9688      1.00000
      9       7.9688      1.00000
     10       8.0199      1.00000
     11       8.1234      1.00000
     12       8.1234      1.00000
     13       8.1234      1.00000
     14       8.1411      1.00000
     15       8.1411      1.00000
     16       8.1411      1.00000
     17       9.6431      0.72311
     18       9.6431      0.72311
     19       9.8932     -0.02238
     20       9.8932     -0.02238
     21       9.8932     -0.02238
     22      11.3189     -0.00000
     23      11.3189     -0.00000
     24      11.3189     -0.00000
     25      16.4922      0.00000
     26      16.4922      0.00000
     27      16.4922      0.00000
     28      18.8814      0.00000
     29      29.3144      0.00000
     30      29.3144      0.00000
     31      29.3144      0.00000
     32      31.7234      0.00000


--------------------------------------------------------------------------------------------------------


 soft charge-density along one line, spin component           1
         0         1         2         3         4         5         6         7         8         9
 total charge-density along one line
 
 soft charge-density along one line, spin component           2
         0         1         2         3         4         5         6         7         8         9
 total charge-density along one line
 
 pseudopotential strength for first ion, spin component:           1
 -0.414   0.000  -0.000  -0.000   0.000  -2.371  -0.000   0.000
  0.000  -0.414   0.000   0.000  -0.000  -0.000  -2.371  -0.000
 -0.000   0.000  -0.313   0.000  -0.000   0.000  -0.000  -2.416
 -0.000   0.000   0.000  -0.414   0.000   0.000  -0.000  -0.000
  0.000  -0.000  -0.000   0.000  -0.313  -0.000   0.000   0.000
 -2.371  -0.000   0.000   0.000  -0.000   2.424   0.000  -0.000
 -0.000  -2.371  -0.000  -0.000   0.000   0.000   2.424   0.000
  0.000  -0.000  -2.416  -0.000   0.000  -0.000   0.000   2.445
  0.000  -0.000  -0.000  -2.371  -0.000   0.000   0.000   0.000
 -0.000   0.000   0.000  -0.000  -2.416   0.000  -0.000  -0.000
 -0.000  -0.000  -0.000  -0.000  -0.000  -0.000  -0.000  -0.000
  0.000   0.000   0.000   0.000   0.000  -0.000  -0.000  -0.000
  0.000  -0.000   0.000   0.000   0.000  -0.000   0.000   0.000
  0.000   0.000  -0.000   0.000  -0.000   0.000   0.000   0.000
  0.000   0.000  -0.000  -0.000   0.000   0.000   0.000   0.000
 -0.000   0.000  -0.000  -0.000  -0.000   0.000  -0.000   0.000
 -0.000  -0.000   0.000  -0.000   0.000   0.000   0.000  -0.000
 -0.000  -0.000   0.000   0.000   0.000   0.000   0.000  -0.000
 pseudopotential strength for first ion, spin component:           2
  0.257   0.000  -0.000   0.000   0.000  -2.688  -0.000   0.000
  0.000   0.257   0.000   0.000  -0.000  -0.000  -2.688  -0.000
 -0.000   0.000   0.234   0.000  -0.000   0.000  -0.000  -2.678
  0.000   0.000   0.000   0.257  -0.000  -0.000  -0.000  -0.000
  0.000  -0.000  -0.000  -0.000   0.234  -0.000   0.000   0.000
 -2.688  -0.000   0.000  -0.000  -0.000   2.573   0.000  -0.000
 -0.000  -2.688  -0.000  -0.000   0.000   0.000   2.573   0.000
  0.000  -0.000  -2.678  -0.000   0.000  -0.000   0.000   2.570
 -0.000  -0.000  -0.000  -2.688   0.000   0.000   0.000   0.000
 -0.000   0.000   0.000   0.000  -2.678   0.000  -0.000  -0.000
 -0.000  -0.000  -0.000  -0.000  -0.000  -0.000  -0.000  -0.000
  0.000   0.000   0.000   0.000   0.000  -0.000  -0.000  -0.000
  0.000  -0.000   0.000   0.000   0.000  -0.000   0.000   0.000
  0.000   0.000  -0.000   0.000  -0.000   0.000   0.000   0.000
 -0.000   0.000  -0.000  -0.000   0.000   0.000   0.000   0.000
 -0.000   0.000  -0.000  -0.000  -0.000   0.000  -0.000   0.000
 -0.000  -0.000   0.000  -0.000   0.000   0.000   0.000  -0.000
 -0.000  -0.000   0.000   0.000  -0.000   0.000   0.000  -0.000
 total augmentation occupancy for first ion, spin component:           1
  1.760   0.000  -0.000  -0.000   0.000   0.101   0.000  -0.000   0.000   0.000  -0.000   0.000   0.000   0.000   0.000   0.000
  0.000   1.760   0.000  -0.000  -0.000  -0.000   0.101  -0.000   0.000  -0.000  -0.000   0.000  -0.000   0.000   0.000  -0.000
 -0.000   0.000   1.826   0.000  -0.000   0.000  -0.000   0.017  -0.000  -0.000  -0.000  -0.000  -0.000   0.000  -0.000   0.000
 -0.000  -0.000  -0.000   1.760   0.000   0.000  -0.000   0.000   0.101  -0.000   0.000  -0.000  -0.000   0.000  -0.000  -0.000
 -0.000  -0.000  -0.000   0.000   1.826   0.000  -0.000   0.000  -0.000   0.017   0.000  -0.000  -0.000  -0.000  -0.000   0.000
  0.101   0.000   0.000   0.000  -0.000   0.118  -0.000  -0.000   0.000   0.000   0.000  -0.000   0.000   0.000   0.000  -0.000
 -0.000   0.101  -0.000  -0.000  -0.000  -0.000   0.118   0.000   0.000  -0.000   0.000   0.000  -0.000   0.000   0.000  -0.000
 -0.000  -0.000   0.017   0.000   0.000  -0.000  -0.000   0.120  -0.000   0.000   0.000  -0.000   0.000  -0.000  -0.000   0.000
  0.000   0.000   0.000   0.101   0.000  -0.000   0.000   0.000   0.118   0.000   0.000   0.000   0.000   0.000   0.000   0.000
  0.000  -0.000  -0.000  -0.000   0.017   0.000  -0.000  -0.000   0.000   0.120  -0.000  -0.000   0.000   0.000   0.000   0.000
 -0.000  -0.000  -0.000   0.000  -0.000   0.000   0.000   0.000   0.000  -0.000   1.311  -0.331  -0.000  -0.000  -0.000   0.000
  0.000   0.000  -0.000  -0.000  -0.000  -0.000   0.000  -0.000   0.000  -0.000  -0.331   0.114   0.000   0.000   0.000   0.000
  0.000  -0.000   0.000  -0.000  -0.000   0.000  -0.000   0.000   0.000   0.000  -0.000   0.000   0.224   0.000   0.000  -0.017
  0.000   0.000   0.000   0.000   0.000   0.000   0.000  -0.000   0.000   0.000  -0.000  -0.000   0.000   0.224   0.000   0.000
  0.000   0.000  -0.000  -0.000  -0.000   0.000  -0.000  -0.000   0.000   0.000  -0.000   0.000   0.000   0.000   0.224   0.000
  0.000  -0.000  -0.000  -0.000  -0.000  -0.000  -0.000   0.000   0.000   0.000   0.000   0.000  -0.017  -0.000  -0.000   0.002
  0.000   0.000   0.000  -0.000  -0.000   0.000   0.000  -0.000   0.000   0.000  -0.000  -0.000  -0.000  -0.017  -0.000  -0.000
  0.000  -0.000   0.000   0.000   0.000  -0.000  -0.000   0.000   0.000   0.000   0.000   0.000  -0.000  -0.000  -0.017  -0.000
 total augmentation occupancy for first ion, spin component:           2
  0.126   0.000   0.000   0.000   0.000  -0.098  -0.000  -0.000   0.000   0.000  -0.000   0.000  -0.000  -0.000  -0.000   0.000
 -0.000   0.126   0.000  -0.000  -0.000  -0.000  -0.098  -0.000  -0.000  -0.000  -0.000   0.000   0.000  -0.000  -0.000  -0.000
 -0.000  -0.000   0.062  -0.000   0.000  -0.000  -0.000  -0.064  -0.000   0.000  -0.000  -0.000   0.000   0.000  -0.000   0.000
 -0.000  -0.000   0.000   0.126   0.000  -0.000   0.000  -0.000  -0.098   0.000  -0.000   0.000   0.000  -0.000   0.000   0.000
  0.000  -0.000   0.000   0.000   0.062  -0.000  -0.000  -0.000  -0.000  -0.064  -0.000  -0.000  -0.000  -0.000  -0.000  -0.000
 -0.098  -0.000  -0.000  -0.000  -0.000   0.015   0.000  -0.000  -0.000   0.000  -0.000  -0.000  -0.000   0.000   0.000   0.000
  0.000  -0.098  -0.000   0.000  -0.000   0.000   0.015  -0.000  -0.000   0.000   0.000   0.000  -0.000   0.000   0.000  -0.000
  0.000  -0.000  -0.064  -0.000  -0.000  -0.000   0.000   0.008  -0.000   0.000   0.000  -0.000   0.000   0.000   0.000   0.000
  0.000   0.000  -0.000  -0.098   0.000  -0.000  -0.000  -0.000   0.015  -0.000  -0.000  -0.000  -0.000  -0.000   0.000   0.000
 -0.000  -0.000  -0.000   0.000  -0.064  -0.000   0.000  -0.000  -0.000   0.008   0.000  -0.000   0.000  -0.000  -0.000   0.000
 -0.000  -0.000  -0.000   0.000  -0.000   0.000   0.000   0.000  -0.000   0.000   0.012   0.043   0.000  -0.000  -0.000   0.000
  0.000   0.000   0.000  -0.000  -0.000  -0.000   0.000   0.000  -0.000   0.000   0.043  -0.019  -0.000  -0.000  -0.000  -0.000
 -0.000   0.000   0.000   0.000  -0.000  -0.000  -0.000  -0.000  -0.000   0.000   0.000  -0.000  -0.009  -0.000   0.000   0.001
 -0.000  -0.000   0.000  -0.000   0.000   0.000   0.000  -0.000  -0.000   0.000  -0.000   0.000   0.000  -0.009   0.000   0.000
 -0.000  -0.000  -0.000   0.000  -0.000   0.000  -0.000   0.000   0.000   0.000  -0.000  -0.000   0.000  -0.000  -0.009   0.000
  0.000  -0.000  -0.000   0.000  -0.000   0.000  -0.000   0.000   0.000  -0.000   0.000  -0.000   0.001  -0.000   0.000  -0.000
 -0.000  -0.000  -0.000  -0.000   0.000   0.000   0.000   0.000   0.000   0.000  -0.000  -0.000  -0.000   0.001  -0.000   0.000
  0.000  -0.000   0.000   0.000   0.000   0.000   0.000  -0.000  -0.000   0.000   0.000  -0.000   0.000  -0.000   0.001   0.000


------------------------ aborting loop because EDIFF is reached ----------------------------------------


    CHARGE:  cpu time    0.0216: real time    0.0216
    FORLOC:  cpu time    0.0002: real time    0.0002
    FORNL :  cpu time    0.0153: real time    0.0153
    STRESS:  cpu time    0.0416: real time    0.0416
    FORCOR:  cpu time    0.0057: real time    0.0057
    FORHAR:  cpu time    0.0007: real time    0.0007
    MIXING:  cpu time    0.0008: real time    0.0008
    OFIELD:  cpu time    0.0000: real time    0.0000

  FORCE on cell =-STRESS in cart. coord.  units (eV):
  Direction    XX          YY          ZZ          XY          YZ          ZX
  --------------------------------------------------------------------------------------
  Alpha Z   191.61486   191.61486   191.61486
  Ewald   -1260.38830 -1260.38830 -1260.38830    -0.00000    -0.00000    -0.00000
  Hartree   294.48000   294.48000   294.48000    -0.00000    -0.00000    -0.00000
  E(xc)    -220.50259  -220.50259  -220.50259    -0.00000     0.00000    -0.00000
  Local       8.26306     8.26306     8.26306    -0.00000     0.00000    -0.00000
  n-local   -26.93865   -32.47109   -29.06876     5.83544     3.86605     4.15634
  augment   703.90525   703.90525   703.90525     0.00000     0.00000     0.00000
  Kinetic   319.92258   311.30449   307.91162     1.93377     0.92017     0.65466
  Fock        0.00000     0.00000     0.00000     0.00000     0.00000     0.00000
  -------------------------------------------------------------------------------------
  Total       0.92567     0.92567     0.92567    -0.00000     0.00000    -0.00000
  in kB      34.82603    34.82603    34.82603    -0.00000     0.00000    -0.00000
  external pressure =       34.83 kB  Pullay stress =        0.00 kB


 VOLUME and BASIS-vectors are now :
 -----------------------------------------------------------------------------
  energy-cutoff  :      475.00
  volume of cell :       42.59
      direct lattice vectors                 reciprocal lattice vectors
     3.492102000  0.000000000  0.000000000     0.286360479  0.000000000  0.000000000
     0.000000000  3.492102000  0.000000000     0.000000000  0.286360479  0.000000000
     0.000000000  0.000000000  3.492102000     0.000000000  0.000000000  0.286360479

  length of vectors
     3.492102000  3.492102000  3.492102000     0.286360479  0.286360479  0.286360479


 FORCES acting on ions
    electron-ion (+dipol)            ewald-force                    non-local-force                 convergence-correction
 -----------------------------------------------------------------------------------------------
   -.860E-14 -.122E-13 -.641E-13   0.445E-14 -.162E-13 -.473E-14   0.187E-24 0.284E-24 0.000E+00   0.262E-13 0.266E-13 -.175E-13
   -.101E-13 0.757E-12 0.699E-12   0.423E-14 0.112E-13 0.554E-14   0.000E+00 0.258E-25 0.000E+00   0.428E-13 0.280E-13 0.206E-13
   0.755E-12 -.159E-13 -.817E-12   -.336E-14 -.107E-13 0.556E-14   -.414E-24 0.000E+00 0.103E-24   -.290E-14 0.152E-13 0.323E-13
   0.755E-12 0.750E-12 0.677E-12   -.357E-14 0.167E-13 -.411E-14   0.000E+00 -.414E-24 0.284E-24   0.260E-14 0.163E-13 -.297E-13
 -----------------------------------------------------------------------------------------------
   0.149E-11 0.148E-11 0.494E-12   0.176E-14 0.994E-15 0.227E-14   -.226E-24 -.103E-24 0.388E-24   0.687E-13 0.861E-13 0.573E-14
 
 
 POSITION                                       TOTAL-FORCE (eV/Angst)
 -----------------------------------------------------------------------------------
      0.00000      0.00000      0.00000         0.000000      0.000000     -0.000000
      0.00000      1.74605      1.74605        -0.000000      0.000000     -0.000000
      1.74605      0.00000      1.74605         0.000000     -0.000000     -0.000000
      1.74605      1.74605      0.00000         0.000000     -0.000000      0.000000
 -----------------------------------------------------------------------------------
    total drift:                                0.000000      0.000000      0.000000


--------------------------------------------------------------------------------------------------------



  FREE ENERGIE OF THE ION-ELECTRON SYSTEM (eV)
  ---------------------------------------------------
  free  energy   TOTEN  =       -21.92324246 eV

  energy  without entropy=      -21.93657603  energy(sigma->0) =      -21.92768698
 


--------------------------------------------------------------------------------------------------------


    POTLOK:  cpu time    0.0135: real time    0.0135


--------------------------------------------------------------------------------------------------------


     LOOP+:  cpu time    3.4639: real time    3.4779
    4ORBIT:  cpu time    0.0000: real time    0.0000

 total amount of memory used by VASP MPI-rank0    33354. kBytes
=======================================================================

   base      :      30000. kBytes
   nonl-proj :        645. kBytes
   fftplans  :        234. kBytes
   grid      :       2073. kBytes
   one-center:        124. kBytes
   wavefun   :        278. kBytes
 
  
  
 General timing and accounting informations for this job:
 ========================================================
  
                  Total CPU time used (sec):        4.607
                            User time (sec):        4.522
                          System time (sec):        0.084
                         Elapsed time (sec):        4.830
  
                   Maximum memory used (kb):       36324.
                   Average memory used (kb):           0.
  
                          Minor page faults:        15173
                          Major page faults:            0
                 Voluntary context switches:          466
