# ['Ni']

18 atoms
1 atom types

    0.0000     2.4807 xlo xhi
    0.0000     4.2967 ylo yhi
    0.0000    36.4525 zlo zhi

    0.0000     0.0000    -0.0004 xy xz yz

Atoms

1 1     0.0000     0.0000     0.0000
2 1     1.2403     0.7161     2.0252
3 1     0.0000     1.4322     4.0503
4 1     1.2403     2.1483     0.0000
5 1     0.0000     2.8645     2.0252
6 1     1.2403     3.5806     4.0503
7 1     0.0000     0.0000     6.0754
8 1     1.2403     0.7161     8.1005
9 1     0.0000     1.4322    10.1257
10 1     1.2403     2.1483     6.0754
11 1     0.0000     2.8645     8.1005
12 1     1.2403     3.5806    10.1257
13 1     0.0000     0.0000    12.1508
14 1     1.2403     0.7161    14.1760
15 1     0.0000     1.4322    16.2011
16 1     1.2403     2.1483    12.1508
17 1     0.0000     2.8645    14.1760
18 1     1.2403     3.5806    16.2011
