# ['Ni']

107 atoms
1 atom types

    0.0000    10.7564 xlo xhi
    0.0000    10.7564 ylo yhi
    0.0000    10.7564 zlo zhi

    0.0000    -0.0000    -0.0000 xy xz yz

Atoms

1 1     1.7927     1.7927     0.0000
2 1     1.7927     0.0000     1.7927
3 1     0.0000     1.7927     1.7927
4 1     0.0000     0.0000     3.5855
5 1     1.7927     1.7927     3.5855
6 1     1.7927     0.0000     5.3782
7 1     0.0000     1.7927     5.3782
8 1     0.0000     0.0000     7.1709
9 1     1.7927     1.7927     7.1709
10 1     1.7927     0.0000     8.9637
11 1     0.0000     1.7927     8.9637
12 1     0.0000     3.5855     0.0000
13 1     1.7927     5.3782     0.0000
14 1     1.7927     3.5855     1.7927
15 1     0.0000     5.3782     1.7927
16 1     0.0000     3.5855     3.5855
17 1     1.7927     5.3782     3.5855
18 1     1.7927     3.5855     5.3782
19 1     0.0000     5.3782     5.3782
20 1     0.0000     3.5855     7.1709
21 1     1.7927     5.3782     7.1709
22 1     1.7927     3.5855     8.9637
23 1     0.0000     5.3782     8.9637
24 1     0.0000     7.1709     0.0000
25 1     1.7927     8.9637     0.0000
26 1     1.7927     7.1709     1.7927
27 1     0.0000     8.9637     1.7927
28 1     0.0000     7.1709     3.5855
29 1     1.7927     8.9637     3.5855
30 1     1.7927     7.1709     5.3782
31 1     0.0000     8.9637     5.3782
32 1     0.0000     7.1709     7.1709
33 1     1.7927     8.9637     7.1709
34 1     1.7927     7.1709     8.9637
35 1     0.0000     8.9637     8.9637
36 1     3.5855     0.0000     0.0000
37 1     5.3782     1.7927     0.0000
38 1     5.3782     0.0000     1.7927
39 1     3.5855     1.7927     1.7927
40 1     3.5855     0.0000     3.5855
41 1     5.3782     1.7927     3.5855
42 1     5.3782     0.0000     5.3782
43 1     3.5855     1.7927     5.3782
44 1     3.5855     0.0000     7.1709
45 1     5.3782     1.7927     7.1709
46 1     5.3782     0.0000     8.9637
47 1     3.5855     1.7927     8.9637
48 1     3.5855     3.5855     0.0000
49 1     5.3782     5.3782     0.0000
50 1     5.3782     3.5855     1.7927
51 1     3.5855     5.3782     1.7927
52 1     3.5855     3.5855     3.5855
53 1     5.3782     5.3782     3.5855
54 1     5.3782     3.5855     5.3782
55 1     3.5855     5.3782     5.3782
56 1     3.5855     3.5855     7.1709
57 1     5.3782     5.3782     7.1709
58 1     5.3782     3.5855     8.9637
59 1     3.5855     5.3782     8.9637
60 1     3.5855     7.1709     0.0000
61 1     5.3782     8.9637     0.0000
62 1     5.3782     7.1709     1.7927
63 1     3.5855     8.9637     1.7927
64 1     3.5855     7.1709     3.5855
65 1     5.3782     8.9637     3.5855
66 1     5.3782     7.1709     5.3782
67 1     3.5855     8.9637     5.3782
68 1     3.5855     7.1709     7.1709
69 1     5.3782     8.9637     7.1709
70 1     5.3782     7.1709     8.9637
71 1     3.5855     8.9637     8.9637
72 1     7.1709     0.0000     0.0000
73 1     8.9637     1.7927     0.0000
74 1     8.9637     0.0000     1.7927
75 1     7.1709     1.7927     1.7927
76 1     7.1709     0.0000     3.5855
77 1     8.9637     1.7927     3.5855
78 1     8.9637     0.0000     5.3782
79 1     7.1709     1.7927     5.3782
80 1     7.1709     0.0000     7.1709
81 1     8.9637     1.7927     7.1709
82 1     8.9637     0.0000     8.9637
83 1     7.1709     1.7927     8.9637
84 1     7.1709     3.5855     0.0000
85 1     8.9637     5.3782     0.0000
86 1     8.9637     3.5855     1.7927
87 1     7.1709     5.3782     1.7927
88 1     7.1709     3.5855     3.5855
89 1     8.9637     5.3782     3.5855
90 1     8.9637     3.5855     5.3782
91 1     7.1709     5.3782     5.3782
92 1     7.1709     3.5855     7.1709
93 1     8.9637     5.3782     7.1709
94 1     8.9637     3.5855     8.9637
95 1     7.1709     5.3782     8.9637
96 1     7.1709     7.1709     0.0000
97 1     8.9637     8.9637     0.0000
98 1     8.9637     7.1709     1.7927
99 1     7.1709     8.9637     1.7927
100 1     7.1709     7.1709     3.5855
101 1     8.9637     8.9637     3.5855
102 1     8.9637     7.1709     5.3782
103 1     7.1709     8.9637     5.3782
104 1     7.1709     7.1709     7.1709
105 1     8.9637     8.9637     7.1709
106 1     8.9637     7.1709     8.9637
107 1     7.1709     8.9637     8.9637
