# ['Mg', 'O']

40 atoms
2 atom types

    0.0000     4.4135 xlo xhi
    0.0000     4.4135 ylo yhi
    0.0000    44.1352 zlo zhi

    0.0000     0.0000     0.0000 xy xz yz

Atoms

1 1     1.0000     2.2068     2.2068     0.0000
2 1     1.0000     2.2068     0.0000     2.2068
3 1     1.0000     0.0000     0.0000     0.0000
4 1     1.0000     0.0000     2.2068     2.2068
5 1     1.0000     2.2068     2.2068     4.4135
6 1     1.0000     2.2068     0.0000     6.6203
7 1     1.0000     0.0000     0.0000     4.4135
8 1     1.0000     0.0000     2.2068     6.6203
9 1     1.0000     2.2068     2.2068     8.8270
10 1     1.0000     2.2068     0.0000    11.0338
11 1     1.0000     0.0000     0.0000     8.8270
12 1     1.0000     0.0000     2.2068    11.0338
13 1     1.0000     2.2068     2.2068    13.2406
14 1     1.0000     2.2068     0.0000    15.4473
15 1     1.0000     0.0000     0.0000    13.2406
16 1     1.0000     0.0000     2.2068    15.4473
17 1     1.0000     2.2068     2.2068    17.6541
18 1     1.0000     2.2068     0.0000    19.8609
19 1     1.0000     0.0000     0.0000    17.6541
20 1     1.0000     0.0000     2.2068    19.8609
21 2     1.0000     0.0000     2.2068     0.0000
22 2     1.0000     2.2068     0.0000     0.0000
23 2     1.0000     2.2068     2.2068     2.2068
24 2     1.0000     0.0000     0.0000     2.2068
25 2     1.0000     0.0000     2.2068     4.4135
26 2     1.0000     2.2068     0.0000     4.4135
27 2     1.0000     2.2068     2.2068     6.6203
28 2     1.0000     0.0000     0.0000     6.6203
29 2     1.0000     0.0000     2.2068     8.8270
30 2     1.0000     2.2068     0.0000     8.8270
31 2     1.0000     2.2068     2.2068    11.0338
32 2     1.0000     0.0000     0.0000    11.0338
33 2     1.0000     0.0000     2.2068    13.2406
34 2     1.0000     2.2068     0.0000    13.2406
35 2     1.0000     2.2068     2.2068    15.4473
36 2     1.0000     0.0000     0.0000    15.4473
37 2     1.0000     0.0000     2.2068    17.6541
38 2     1.0000     2.2068     0.0000    17.6541
39 2     1.0000     2.2068     2.2068    19.8609
40 2     1.0000     0.0000     0.0000    19.8609
