    2    2    1    2
  0.1090254E+02  0.2793739E-09  0.2793739E-09  0.2793739E-09  0.5000000E-15
  1.000000000000000E-004
  CAR 
 automatically generated by pyflamestk   
     20      4     16
 
  0.1250000E+00  0.1250000E+00  0.1250000E+00  0.1250000E+00
    1        1.298525      1.279223   1.000000   1.000000
    2        5.411678      5.712208   1.000000   1.000000
    3        5.411678      5.712208   1.000000   1.000000
    4        6.788548      7.364098   1.000000   1.000000
    5        6.788548      7.364098   1.000000   1.000000
    6        7.456874      8.062055   1.000000   1.000000
    7        7.940133      8.535674   1.000000   1.000003
    8        8.307425      8.764947   1.000000   1.001669
    9        8.307425      8.764947   1.000000   1.001669
   10        8.790916      9.439279   1.002849  -0.019855
   11        8.790916      9.439279   1.002849  -0.019855
   12       17.519181     17.611085   0.000000   0.000000
   13       17.519181     17.611085   0.000000   0.000000
   14       18.521742     18.623125   0.000000   0.000000
   15       27.788682     27.831511   0.000000   0.000000
   16       27.788682     27.831511   0.000000   0.000000
 
  0.3750000E+00  0.1250000E+00  0.1250000E+00  0.3750000E+00
    1        3.477540      3.493744   1.000000   1.000000
    2        5.536921      5.757889   1.000000   1.000000
    3        6.082397      6.433521   1.000000   1.000000
    4        6.638460      7.131690   1.000000   1.000000
    5        6.702494      7.252940   1.000000   1.000000
    6        7.059157      7.600228   1.000000   1.000000
    7        7.828323      8.313892   1.000000   1.000000
    8        7.905560      8.483988   1.000000   1.000000
    9        8.223945      8.835161   1.000000   1.006439
   10        8.685342      9.188987   1.000254   0.738806
   11        8.728864      9.313617   1.000744   0.238943
   12       11.494439     11.750099  -0.000000  -0.000000
   13       20.639946     20.765678   0.000000   0.000000
   14       21.144274     21.261727   0.000000   0.000000
   15       25.262666     25.339136   0.000000   0.000000
   16       26.035508     26.127007   0.000000   0.000000
 
  0.3750000E+00  0.3750000E+00  0.1250000E+00  0.3750000E+00
    1        4.580255      4.779694   1.000000   1.000000
    2        5.176870      5.515758   1.000000   1.000000
    3        6.132839      6.669961   1.000000   1.000000
    4        6.280629      6.807324   1.000000   1.000000
    5        7.069370      7.369108   1.000000   1.000000
    6        7.178310      7.499533   1.000000   1.000000
    7        8.126913      8.643924   1.000000   1.000083
    8        8.272022      8.778585   1.000000   1.002222
    9        8.493055      8.961935   1.000001   1.030572
   10        8.864486      9.462058   1.010307  -0.030903
   11        9.533051     10.077401  -0.030853  -0.000000
   12       12.085378     12.285220  -0.000000  -0.000000
   13       15.925451     16.191200   0.000000   0.000000
   14       19.156758     19.326484   0.000000   0.000000
   15       23.080153     23.167130   0.000000   0.000000
   16       26.875722     26.886668   0.000000   0.000000
 
  0.3750000E+00  0.3750000E+00  0.3750000E+00  0.1250000E+00
    1        5.692213      6.166212   1.000000   1.000000
    2        5.938485      6.201886   1.000000   1.000000
    3        6.015563      6.493018   1.000000   1.000000
    4        6.015563      6.493018   1.000000   1.000000
    5        6.338124      6.730765   1.000000   1.000000
    6        6.338124      6.730765   1.000000   1.000000
    7        8.479112      8.965593   1.000000   1.031285
    8        8.479112      8.965593   1.000000   1.031285
    9        8.486439      8.983342   1.000001   1.034129
   10        8.486439      8.983342   1.000001   1.034129
   11       12.008349     12.391705  -0.000000  -0.000000
   12       15.701981     15.898933   0.000000   0.000000
   13       15.701981     15.898933   0.000000   0.000000
   14       17.946955     18.123789   0.000000   0.000000
   15       20.739826     20.862212   0.000000   0.000000
   16       20.739826     20.862212   0.000000   0.000000
