# ['Ni']

18 atoms
1 atom types

    0.0000     2.3355 xlo xhi
    0.0000     4.0453 ylo yhi
    0.0000    34.3198 zlo zhi

    0.0000     0.0000    -0.0004 xy xz yz

Atoms

1 1     0.0000     0.0000     0.0000
2 1     1.1678     0.6742     1.9067
3 1     0.0000     1.3484     3.8133
4 1     1.1678     2.0227     0.0000
5 1     0.0000     2.6969     1.9067
6 1     1.1678     3.3711     3.8133
7 1     0.0000     0.0000     5.7200
8 1     1.1678     0.6742     7.6266
9 1     0.0000     1.3484     9.5333
10 1     1.1678     2.0227     5.7200
11 1     0.0000     2.6969     7.6266
12 1     1.1678     3.3711     9.5333
13 1     0.0000     0.0000    11.4399
14 1     1.1678     0.6742    13.3466
15 1     0.0000     1.3484    15.2532
16 1     1.1678     2.0227    11.4399
17 1     0.0000     2.6969    13.3466
18 1     1.1678     3.3711    15.2532
