LAMMPS (11 Aug 2017)
# ---- initialize simulations
clear
units metal
dimension 3
boundary p p p
atom_style atomic
atom_modify map array
# ---- create atoms
read_data /ufrc/phillpot/eragasa/pareto_optimization_3.5NN/rank_2/Ni_hcp.lmps_min_all/lammps.structure
  triclinic box = (0 0 0) to (3.6 6.2354 5.8788) with tilt (0 0 0)
  1 by 1 by 1 MPI processor grid
  reading atoms ...
  4 atoms
# ---- define interatomic potential
include potential.mod
mass 1 58.6934

group Ni type 1
4 atoms in group Ni

pair_style eam/alloy
pair_coeff * * /ufrc/phillpot/eragasa/pareto_optimization_3.5NN/rank_2/Ni_hcp.lmps_min_all/Ni.eam.alloy Ni

neighbor 1.0 bin
neigh_modify every 1 delay 0 check yes
# ---- define settings
compute eng all pe/atom
compute eatoms all reduce sum c_eng
# ---- run minimization
reset_timestep 0
fix 1 all box/relax aniso 0.0 vmax 0.001
thermo 10
thermo_style custom step pe xhi xlo yhi ylo zhi xy xz yz press pxx pyy pzz pxy pxz pyz c_eatoms
min_style cg
minimize 1e-25 1e-25 5000 10000
Neighbor list info ...
  update every 1 steps, delay 0 steps, check yes
  max neighbors/atom: 2000, page size: 100000
  master list distance cutoff = 5.64464
  ghost atom cutoff = 5.64464
  binsize = 2.82232, bins = 2 3 3
  1 neighbor lists, perpetual/occasional/extra = 1 0 0
  (1) pair eam/alloy, perpetual
      attributes: half, newton on
      pair build: half/bin/newton/tri
      stencil: half/bin/3d/newton/tri
      bin: standard
Per MPI rank memory allocation (min/avg/max) = 4.194 | 4.194 | 4.194 Mbytes
Step PotEng Xhi Xlo Yhi Ylo Zhi Xy Xz Yz Press Pxx Pyy Pzz Pxy Pxz Pyz c_eatoms 
       0   -4.3254464          3.6            0       6.2354            0       5.8788            0            0            0   -84359.843   -84360.681   -84359.363   -84359.485 1.0109422e-12 -1.347923e-12 8.087538e-12   -4.3254464 
      10   -4.5364424        3.582        0.018    6.2042235  0.031176514    5.8494064            0            0            0   -88179.964   -88180.825   -88179.469   -88179.598 1.9372587e-12 -2.170598e-14 2.7783654e-12   -4.5364424 
      20   -4.7525612        3.564        0.036     6.173047  0.062353031    5.8200128            0            0            0   -92154.191   -92155.075   -92153.681   -92153.817 -1.0550871e-11 -2.2377245e-13 2.8642874e-12   -4.7525612 
      30    -4.973828        3.546        0.054    6.1418704  0.093529551    5.7906192            0            0            0   -96280.648   -96281.554   -96280.123   -96280.266 2.6076419e-12 -4.7768308e-12 8.8613672e-12    -4.973828 
      40   -5.2002451        3.528        0.072    6.1106939   0.12470607    5.7612256            0            0            0   -100555.15   -100556.08   -100554.61   -100554.76 -2.9280331e-12 2.8566177e-12 9.1411767e-12   -5.2002451 
      50   -5.4317867         3.51         0.09    6.0795174    0.1558826     5.731832            0            0            0   -104970.63   -104971.58   -104970.08   -104970.24 9.5065862e-12 -2.5547415e-12 3.1442972e-12   -5.4317867 
      60   -5.6683936        3.492        0.108    6.0483409   0.18705913    5.7024384            0            0            0   -109516.45   -109517.41   -109515.89   -109516.05 3.7021465e-12 -8.2664366e-12 6.4914349e-12   -5.6683936 
      70   -5.9099663        3.474        0.126    6.0171643   0.21823567    5.6730448            0            0            0   -114177.54   -114178.52   -114176.97   -114177.14 3.5610185e-12 1.2620668e-11 2.0109281e-11   -5.9099663 
      80   -6.1563579        3.456        0.144    5.9859878   0.24941221    5.6436512            0            0            0    -118933.4   -118934.38   -118932.82      -118933 2.704709e-13 -2.1637672e-13 1.7310137e-11   -6.1563579 
      90   -6.4073993        3.438        0.162    5.9548112   0.28058878    5.6142576            0            0            0   -123920.92   -123921.76   -123920.48   -123920.53 -1.1249302e-12 3.9844191e-12 5.1549404e-11   -6.4073993 
     100   -6.6638866         3.42         0.18    5.9236346   0.31176542    5.5848639            0            0            0   -129575.59    -129576.4   -129575.16    -129575.2 -1.646763e-12 -6.8109538e-12 7.843792e-12   -6.6638866 
     110   -6.9259357        3.402        0.198    5.8924579   0.34294208    5.5554702            0            0            0   -135228.87   -135229.65   -135228.45    -135228.5 -8.2456084e-12 1.1711154e-11 -6.9310911e-12   -6.9259357 
     120   -7.1930598        3.384        0.216    5.8612812   0.37411876    5.5260765            0            0            0   -140827.85   -140828.58   -140827.45    -140827.5 -1.4649198e-11 1.9068682e-11 6.613773e-12   -7.1930598 
     130   -7.4646708        3.366        0.234    5.8301045   0.40529546    5.4966828            0            0            0   -146304.85   -146305.52   -146304.48   -146304.53 -8.6355384e-12 -2.4627276e-12 -1.0298679e-11   -7.4646708 
     140   -7.7400588        3.348        0.252    5.7989278   0.43647219     5.467289            0            0            0   -151574.24   -151574.84   -151573.92   -151573.97 8.3442728e-12 -9.1058533e-12 9.8674338e-12   -7.7400588 
     150   -8.0183693         3.33         0.27    5.7677511   0.46764894    5.4378952            0            0            0   -156528.63   -156529.13   -156528.36   -156528.41 2.8121617e-12 1.6392845e-11 1.8107578e-11   -8.0183693 
     160   -8.2985766        3.312        0.288    5.7365743   0.49882574    5.4085014            0            0            0   -161034.19   -161034.55   -161033.98   -161034.03 1.5279661e-11 5.6143871e-12 -2.2031139e-11   -8.2985766 
     170   -8.5794525        3.294        0.306    5.7053974   0.53000257    5.3791075            0            0            0   -164925.04   -164925.24    -164924.9   -164924.96 2.9467192e-12 1.1492205e-11 -1.1786877e-12   -8.5794525 
     180   -8.8595305        3.276        0.324    5.6742205   0.56117945    5.3497136            0            0            0   -167996.47   -167996.49   -167996.44    -167996.5 -3.9725993e-12 -3.0558456e-13 -9.0911408e-12   -8.8595305 
     190    -9.137064        3.258        0.342    5.6430436   0.59235639    5.3203197            0            0            0   -169996.75   -169996.53   -169996.83   -169996.89 -6.8164198e-12 1.0700194e-11 2.6314551e-11    -9.137064 
     200    -9.409977         3.24   0.35999998    5.6118666   0.62353337    5.2909257            0            0            0   -170617.11   -170616.61   -170617.33   -170617.39 -3.619892e-12 1.3656865e-11 -4.6071353e-12    -9.409977 
     210   -9.6758079    3.2220001   0.37799992    5.5806896   0.65471035    5.2615317            0            0            0   -169479.74   -169478.97   -169480.19   -169480.06 5.6386548e-12 1.7257701e-11 -1.2985993e-11   -9.6758079 
     220   -9.9314773    3.2040412   0.39595883    5.5495836   0.68581637    5.2321377            0            0            0   -166416.68   -166126.14   -166127.94   -166995.95 -2.3076874e-12 -2.130173e-12 -2.8402306e-12   -9.9314773 
     230    -10.17332    3.1861826    0.4138174    5.5186513   0.71674873    5.2027437            0            0            0   -160626.45   -160027.85   -160030.32   -161821.18 9.9620814e-12 -1.8448299e-13 1.3098292e-11    -10.17332 
     240   -10.397396     3.168439   0.43156097    5.4879179   0.74748205    5.1733497            0            0            0    -151474.6   -150560.65   -150563.87   -153299.28 -9.9730236e-12 8.8222901e-12 4.0275672e-12   -10.397396 
     250   -10.599168    3.1508321   0.44916786    5.4574211   0.77797885    5.1439557            0            0            0   -138217.18   -136993.77    -136997.8   -140659.98 6.7811442e-12 2.7922359e-12 -1.1966725e-11   -10.599168 
     260   -10.773871    3.1333755   0.46662451    5.4271844   0.80821563    5.1145617            0            0            0   -121082.81   -119883.09   -119887.07   -123478.29 9.052422e-12 -1.8913646e-11 -1.017891e-12   -10.773871 
     270   -10.919449    3.1158547   0.48414526    5.3968363   0.83856369    5.0851677            0            0            0   -99348.244   -98666.204   -98671.057   -100707.47 -1.2909656e-11 -2.4665338e-12 -2.5643854e-12   -10.919449 
     280   -11.029425    3.0981368   0.50186321     5.366146   0.86925401    5.0557737            0            0            0   -69894.241   -69783.542   -69789.115   -70110.065 -2.7473876e-11 -1.3779119e-11 -3.93197e-11   -11.029425 
     290   -11.094158    3.0801591    0.5198409    5.3350041   0.90039585    5.0266775            0            0            0   -30872.843   -31297.539   -31303.102    -30017.89 -3.8408073e-12 -6.9193169e-12 2.1989355e-13   -11.094158 
     300    -11.10674    3.0678973   0.53210266     5.313749   0.92165102    5.0104679            0            0            0  -0.29857689   -1.9310063   0.79486505   0.24041057 -5.6330265e-12 4.9883914e-11 5.1194271e-11    -11.10674 
     310    -11.10674     3.067893   0.53210696    5.3137552   0.92164483    5.0104685            0            0            0 -2.7730865e-11 -1.9953571e-10 3.1708375e-10 -2.0074063e-10 1.9098073e-11 -1.1808273e-11 -7.7055003e-11    -11.10674 
     311    -11.10674     3.067893   0.53210696    5.3137552   0.92164483    5.0104685            0            0            0 -2.9707947e-10 2.7930179e-10 -6.9158221e-10 -4.7895799e-10 -2.4399747e-12 -9.6394062e-12 1.2320366e-11    -11.10674 
Loop time of 0.0047071 on 1 procs for 311 steps with 4 atoms

83.7% CPU use with 1 MPI tasks x no OpenMP threads

Minimization stats:
  Stopping criterion = energy tolerance
  Energy initial, next-to-last, final = 
        -4.32544642537     -11.1067395677     -11.1067395677
  Force two-norm initial, final = 12.0349 4.06334e-14
  Force max component initial, final = 6.94841 2.82706e-14
  Final line search alpha, max atom move = 1 2.82706e-14
  Iterations, force evaluations = 311 326

MPI task timing breakdown:
Section |  min time  |  avg time  |  max time  |%varavg| %total
---------------------------------------------------------------
Pair    | 0.0016954  | 0.0016954  | 0.0016954  |   0.0 | 36.02
Neigh   | 7.3671e-05 | 7.3671e-05 | 7.3671e-05 |   0.0 |  1.57
Comm    | 0.00040531 | 0.00040531 | 0.00040531 |   0.0 |  8.61
Output  | 0.0012212  | 0.0012212  | 0.0012212  |   0.0 | 25.94
Modify  | 0          | 0          | 0          |   0.0 |  0.00
Other   |            | 0.001312   |            |       | 27.86

Nlocal:    4 ave 4 max 4 min
Histogram: 1 0 0 0 0 0 0 0 0 0
Nghost:    266 ave 266 max 266 min
Histogram: 1 0 0 0 0 0 0 0 0 0
Neighs:    112 ave 112 max 112 min
Histogram: 1 0 0 0 0 0 0 0 0 0

Total # of neighbors = 112
Ave neighs/atom = 28
Neighbor list builds = 5
Dangerous builds = 0
# ---- define output variables ----
variable natoms equal "count(all)"
variable tot_energy equal "c_eatoms"
variable a11 equal "xhi-xlo"
variable a22 equal "yhi-ylo"
variable a33 equal "zhi-zlo"
variable tilt_xy equal "xy"
variable tilt_xz equal "xz"
variable tilt_yz equal "yz"
variable tot_press equal "press"
variable press_xx equal "pxx"
variable press_yy equal "pyy"
variable press_zz equal "pzz"
variable press_xy equal "pxy"
variable press_xz equal "pxz"
variable press_yz equal "pyz"

# ---- output ----
print "pypospack:output_section:begin"
pypospack:output_section:begin
print "tot_energy = ${tot_energy}"
tot_energy = -11.1067395676951
print "num_atoms = ${natoms}"
num_atoms = 4
print "a11 = ${a11}"
a11 = 2.53578608195058
print "a22 = ${a22}"
a22 = 4.39211033106443
print "a33 = ${a33}"
a33 = 4.14213702267465
print "a12 = ${tilt_xy}"
a12 = 0
print "a13 = ${tilt_xz}"
a13 = 0
print "a23 = ${tilt_yz}"
a23 = 0
print "tot_press = ${tot_press}"
tot_press = -2.97079468936984e-10
print "pxx = ${press_xx}"
pxx = 2.79301793316248e-10
print "pyy = ${press_yy}"
pyy = -6.91582206843299e-10
print "pzz = ${press_zz}"
pzz = -4.78957993283902e-10
print "pxy = ${press_xy}"
pxy = -2.43997468276705e-12
print "pxz = ${press_xz}"
pxz = -9.63940615414142e-12
print "pyz = ${press_yz}"
pyz = 1.2320365990762e-11
print "pypospack:output_section:done"
pypospack:output_section:done
print "pypospack:lammps_sim:done"
pypospack:lammps_sim:done
Total wall time: 0:00:00
