# ['Ni']

20 atoms
1 atom types

    0.0000     3.5280 xlo xhi
    0.0000     3.5280 ylo yhi
    0.0000    35.2804 zlo zhi

    0.0000    -0.0000     0.0000 xy xz yz

Atoms

1 1     0.0000     0.0000     0.0000
2 1     1.7640     1.7640     0.0000
3 1     1.7640     0.0000     1.7640
4 1     0.0000     1.7640     1.7640
5 1     0.0000     0.0000     3.5280
6 1     1.7640     1.7640     3.5280
7 1     1.7640     0.0000     5.2921
8 1     0.0000     1.7640     5.2921
9 1     0.0000     0.0000     7.0561
10 1     1.7640     1.7640     7.0561
11 1     1.7640     0.0000     8.8201
12 1     0.0000     1.7640     8.8201
13 1     0.0000     0.0000    10.5841
14 1     1.7640     1.7640    10.5841
15 1     1.7640     0.0000    12.3481
16 1     0.0000     1.7640    12.3481
17 1     0.0000     0.0000    14.1121
18 1     1.7640     1.7640    14.1121
19 1     1.7640     0.0000    15.8762
20 1     0.0000     1.7640    15.8762
