# ['Ni']

107 atoms
1 atom types

    0.0000    10.4826 xlo xhi
    0.0000    10.4826 ylo yhi
    0.0000    10.4826 zlo zhi

    0.0000    -0.0000    -0.0000 xy xz yz

Atoms

1 1     1.7471     1.7471     0.0000
2 1     1.7471     0.0000     1.7471
3 1     0.0000     1.7471     1.7471
4 1     0.0000     0.0000     3.4942
5 1     1.7471     1.7471     3.4942
6 1     1.7471     0.0000     5.2413
7 1     0.0000     1.7471     5.2413
8 1     0.0000     0.0000     6.9884
9 1     1.7471     1.7471     6.9884
10 1     1.7471     0.0000     8.7355
11 1     0.0000     1.7471     8.7355
12 1     0.0000     3.4942     0.0000
13 1     1.7471     5.2413     0.0000
14 1     1.7471     3.4942     1.7471
15 1     0.0000     5.2413     1.7471
16 1     0.0000     3.4942     3.4942
17 1     1.7471     5.2413     3.4942
18 1     1.7471     3.4942     5.2413
19 1     0.0000     5.2413     5.2413
20 1     0.0000     3.4942     6.9884
21 1     1.7471     5.2413     6.9884
22 1     1.7471     3.4942     8.7355
23 1     0.0000     5.2413     8.7355
24 1     0.0000     6.9884     0.0000
25 1     1.7471     8.7355     0.0000
26 1     1.7471     6.9884     1.7471
27 1     0.0000     8.7355     1.7471
28 1     0.0000     6.9884     3.4942
29 1     1.7471     8.7355     3.4942
30 1     1.7471     6.9884     5.2413
31 1     0.0000     8.7355     5.2413
32 1     0.0000     6.9884     6.9884
33 1     1.7471     8.7355     6.9884
34 1     1.7471     6.9884     8.7355
35 1     0.0000     8.7355     8.7355
36 1     3.4942     0.0000     0.0000
37 1     5.2413     1.7471     0.0000
38 1     5.2413     0.0000     1.7471
39 1     3.4942     1.7471     1.7471
40 1     3.4942     0.0000     3.4942
41 1     5.2413     1.7471     3.4942
42 1     5.2413     0.0000     5.2413
43 1     3.4942     1.7471     5.2413
44 1     3.4942     0.0000     6.9884
45 1     5.2413     1.7471     6.9884
46 1     5.2413     0.0000     8.7355
47 1     3.4942     1.7471     8.7355
48 1     3.4942     3.4942     0.0000
49 1     5.2413     5.2413     0.0000
50 1     5.2413     3.4942     1.7471
51 1     3.4942     5.2413     1.7471
52 1     3.4942     3.4942     3.4942
53 1     5.2413     5.2413     3.4942
54 1     5.2413     3.4942     5.2413
55 1     3.4942     5.2413     5.2413
56 1     3.4942     3.4942     6.9884
57 1     5.2413     5.2413     6.9884
58 1     5.2413     3.4942     8.7355
59 1     3.4942     5.2413     8.7355
60 1     3.4942     6.9884     0.0000
61 1     5.2413     8.7355     0.0000
62 1     5.2413     6.9884     1.7471
63 1     3.4942     8.7355     1.7471
64 1     3.4942     6.9884     3.4942
65 1     5.2413     8.7355     3.4942
66 1     5.2413     6.9884     5.2413
67 1     3.4942     8.7355     5.2413
68 1     3.4942     6.9884     6.9884
69 1     5.2413     8.7355     6.9884
70 1     5.2413     6.9884     8.7355
71 1     3.4942     8.7355     8.7355
72 1     6.9884     0.0000     0.0000
73 1     8.7355     1.7471     0.0000
74 1     8.7355     0.0000     1.7471
75 1     6.9884     1.7471     1.7471
76 1     6.9884     0.0000     3.4942
77 1     8.7355     1.7471     3.4942
78 1     8.7355     0.0000     5.2413
79 1     6.9884     1.7471     5.2413
80 1     6.9884     0.0000     6.9884
81 1     8.7355     1.7471     6.9884
82 1     8.7355     0.0000     8.7355
83 1     6.9884     1.7471     8.7355
84 1     6.9884     3.4942     0.0000
85 1     8.7355     5.2413     0.0000
86 1     8.7355     3.4942     1.7471
87 1     6.9884     5.2413     1.7471
88 1     6.9884     3.4942     3.4942
89 1     8.7355     5.2413     3.4942
90 1     8.7355     3.4942     5.2413
91 1     6.9884     5.2413     5.2413
92 1     6.9884     3.4942     6.9884
93 1     8.7355     5.2413     6.9884
94 1     8.7355     3.4942     8.7355
95 1     6.9884     5.2413     8.7355
96 1     6.9884     6.9884     0.0000
97 1     8.7355     8.7355     0.0000
98 1     8.7355     6.9884     1.7471
99 1     6.9884     8.7355     1.7471
100 1     6.9884     6.9884     3.4942
101 1     8.7355     8.7355     3.4942
102 1     8.7355     6.9884     5.2413
103 1     6.9884     8.7355     5.2413
104 1     6.9884     6.9884     6.9884
105 1     8.7355     8.7355     6.9884
106 1     8.7355     6.9884     8.7355
107 1     6.9884     8.7355     8.7355
