LAMMPS (10 Feb 2015)
# ---- initialize simulations
clear
units metal
dimension 3
boundary p p p
atom_style charge
atom_modify map array
# ---- create atoms
read_data /Users/eugeneragasa/pyflamestk_git/pypospack/tests/tests_integration/workflow/WorkflowLammpsThermalExpansion/param_5378/MgO_NaCl_unit.npt.T300/lammps.structure
  triclinic box = (0 0 0) to (4.2565 4.2565 4.2565) with tilt (0 0 0)
  1 by 1 by 1 MPI processor grid
  reading atoms ...
  8 atoms
# ---- define interatomic potential
include potential.mod
mass 1 24.305
mass 2 15.999

group Mg type 1
4 atoms in group Mg
group O type 2
4 atoms in group O

set group Mg charge 1.67557694923
  4 settings made for charge
set group O charge -1.67557694923
  4 settings made for charge

variable R_cut equal 10.0

pair_style buck/coul/long ${R_cut}
pair_style buck/coul/long 10
pair_coeff 1 1 0.0 0.5 0.0 ${R_cut}
pair_coeff 1 1 0.0 0.5 0.0 10
pair_coeff 1 2 1405.50211521 0.282257384366 0.0 ${R_cut}
pair_coeff 1 2 1405.50211521 0.282257384366 0.0 10
pair_coeff 2 2 19860.1058829 0.143671361936 6.84969713079 ${R_cut}
pair_coeff 2 2 19860.1058829 0.143671361936 6.84969713079 10

kspace_style pppm 1.0e-5

neighbor 1.0 bin
neigh_modify every 1 delay 0 check yes
# ---- define settings
compute eng all pe/atom
compute eatoms all reduce sum c_eng
# ---- run minimization
reset_timestep 0
fix 1 all box/relax iso 0.0 vmax 0.001
thermo 10
thermo_style custom step pe lx ly lz xy xz yz press pxx pyy pzz pxy pxz pyz c_eatoms
min_style cg
minimize 1e-25 1e-25 5000 10000
PPPM initialization ...
  G vector (1/distance) = 0.352969
  grid = 8 8 8
  stencil order = 5
  estimated absolute RMS force accuracy = 4.01483e-05
  estimated relative force accuracy = 2.78815e-06
  using double precision FFTs
  3d grid and FFT values/proc = 3375 512
Neighbor list info ...
  1 neighbor list requests
  update every 1 steps, delay 0 steps, check yes
  master list distance cutoff = 11
Memory usage per processor = 4.06549 Mbytes
Step PotEng Lx Ly Lz Xy Xz Yz Press Pxx Pyy Pzz Pxy Pxz Pyz eatoms 
       0   -115.02334       4.2565       4.2565       4.2565            0            0            0    14836.064    14836.064    14836.064    14836.064 5.7083842e-11 -5.8546636e-11 3.613515e-11   -115.02334 
       4   -115.02629     4.268627     4.268627     4.268627            0            0            0   -3.7663252   -3.7663252   -3.7663252   -3.7663252 5.5364648e-11 -5.1262271e-11 1.3911233e-11   -115.02629 
Loop time of 0.00742507 on 1 procs for 4 steps with 8 atoms

Minimization stats:
  Stopping criterion = linesearch alpha is zero
  Energy initial, next-to-last, final = 
        -115.023341276       -115.0262927       -115.0262927
  Force two-norm initial, final = 2.14234 0.00179672
  Force max component initial, final = 2.14234 0.000546963
  Final line search alpha, max atom move = 0.00390625 2.13657e-06
  Iterations, force evaluations = 4 21

Pair  time (%) = 0.00212789 (28.6581)
Kspce time (%) = 0.00119019 (16.0293)
Neigh time (%) = 0 (0)
Comm  time (%) = 0.000250816 (3.37797)
Outpt time (%) = 0 (0)
Other time (%) = 0.00385618 (51.9346)

Nlocal:    8 ave 8 max 8 min
Histogram: 1 0 0 0 0 0 0 0 0 0
Nghost:    2189 ave 2189 max 2189 min
Histogram: 1 0 0 0 0 0 0 0 0 0
Neighs:    2344 ave 2344 max 2344 min
Histogram: 1 0 0 0 0 0 0 0 0 0

Total # of neighbors = 2344
Ave neighs/atom = 293
Neighbor list builds = 0
Dangerous builds = 0
unfix 1
# ---- define output variables ----
variable natoms equal "count(all)"
variable tot_energy equal "c_eatoms"
variable length_x equal "lx"
variable length_y equal "ly"
variable length_z equal "lz"
variable tilt_xy equal "xy"
variable tilt_xz equal "xz"
variable tilt_yz equal "yz"
variable tot_press equal "press"
variable press_xx equal "pxx"
variable press_yy equal "pyy"
variable press_zz equal "pzz"
variable press_xy equal "pxy"
variable press_xz equal "pxz"
variable press_yz equal "pyz"

# ---- output ----
print "pypospack:output_section:begin"
pypospack:output_section:begin
print "tot_energy = ${tot_energy}"
tot_energy = -115.026292700229
print "num_atoms = ${natoms}"
num_atoms = 8
print "xx = ${length_x}"
xx = 4.26862697136346
print "yy = ${length_y}"
yy = 4.26862697136346
print "zz = ${length_z}"
zz = 4.26862697136346
print "xy = ${tilt_xy}"
xy = 0
print "xz = ${tilt_xz}"
xz = 0
print "yz = ${tilt_yz}"
yz = 0
print "tot_press = ${tot_press}"
tot_press = -3.7663252179344
print "pxx = ${press_xx}"
pxx = -3.76632521787482
print "pyy = ${press_yy}"
pyy = -3.76632521789834
print "pzz = ${press_zz}"
pzz = -3.76632521803003
print "pxy = ${press_xy}"
pxy = 5.53646482695888e-11
print "pxz = ${press_xz}"
pxz = -5.12622707696674e-11
print "pyz = ${press_yz}"
pyz = 1.39112332535826e-11
print "pypospack:output_section:done"
pypospack:output_section:done
print "pypospack:lammps_sim:done"
pypospack:lammps_sim:done
#------------------------------------------------------------------------------
# RUN THERMOSTAT
# running using an NPT Nose-Hoover style thermostat
#------------------------------------------------------------------------------
variable tempdamp equal 0.1
variable pressdamp equal 1.0
# set initial velocities
velocity all create 300 4584802 mom yes dist gaussian loop all
# fix for Nose-Hoover style thermostat
fix 20 all npt temp 300 300 0.1 aniso 0.0 0.0 1.0 drag 1.0 couple xyz
variable boxx equal lx
variable boxy equal ly
variable boxz equal lz
variable boxp equal press
variable boxt equal temp
# calculate averages every 10000 steps
reset_timestep 0
fix 21 all ave/time 10 10 100 v_boxx v_boxy v_boxz v_boxp v_boxt file lattice.out
thermo_style custom step temp pe ke etotal press lx ly lz press pxx pyy pzz pxy pxz pyz vol
thermo_modify flush yes
thermo 100
run 100000
PPPM initialization ...
  G vector (1/distance) = 0.352845
  grid = 8 8 8
  stencil order = 5
  estimated absolute RMS force accuracy = 4.03767e-05
  estimated relative force accuracy = 2.80401e-06
  using double precision FFTs
  3d grid and FFT values/proc = 3375 512
Memory usage per processor = 3.06549 Mbytes
Step Temp PotEng KinEng TotEng Press Lx Ly Lz Press Pxx Pyy Pzz Pxy Pxz Pyz Volume 
       0          300    -115.0263    0.2714463   -114.75485    3723.4507     4.268627     4.268627     4.268627    3723.4507    5260.5878    2960.0593     2949.705     2101.971    807.97872   -422.73345    77.779404 
     100    111.72236   -114.81892   0.10108874   -114.71783   -5679.8704    4.2796255    4.2796255    4.2796255   -5679.8704   -4830.2899   -13350.991      1141.67   -5752.7366   -467.81993    208.62935    78.382174 
     200    201.97296   -114.82746   0.18274938   -114.64471    1378.8479    4.2694308    4.2694308    4.2694308    1378.8479    1240.9109   -4534.4306    7430.0635   -8813.5385   -1617.1434    3594.6213    77.823353 
     300    288.39294   -114.84014   0.26094399    -114.5792   -2819.5797    4.2851546    4.2851546    4.2851546   -2819.5797    20.537429   -11120.594    2641.3177    578.61028    164.44453   -483.24935    78.686364 
     400    414.74604   -114.90606   0.37527093   -114.53079    7592.2659    4.2706878    4.2706878    4.2706878    7592.2659    11579.678     2127.792    9069.3274     228.5855   -528.41367   -1703.5564    77.892111 
     500    207.20859   -114.68692   0.18748669   -114.49943   -615.91009    4.2815485    4.2815485    4.2815485   -615.91009   -571.13714   -11994.744    10718.151   -10750.933    914.77421    1502.5344     78.48788 
     600    288.95327   -114.74481   0.26145099   -114.48336   -696.82489    4.2812868    4.2812868    4.2812868   -696.82489    1743.7911   -4635.8071    801.54135   -5115.2074   -2186.4573    3973.7982     78.47349 
     700    436.21506   -114.87208   0.39469655   -114.47739    11825.672    4.2719534    4.2719534    4.2719534    11825.672    17301.392     2736.454    15439.171    2699.7264    2936.0701    1348.9802    77.961378 
     800    331.43831   -114.78118   0.29989235   -114.48128   -6997.0314    4.2865683    4.2865683    4.2865683   -6997.0314   -8061.5185   -10309.012   -2620.5642   -6670.7411   -1076.2354   -1271.3636    78.764268 
     900    167.07474   -114.63431   0.15117274   -114.48314    2148.9049    4.2731735    4.2731735    4.2731735    2148.9049    393.48039   -4755.6966    10808.931   -10057.437   -807.01247    3477.6192    78.028201 
    1000    412.91935    -114.8553   0.37361811   -114.48168   -7102.1156    4.2819847    4.2819847    4.2819847   -7102.1156   -6950.8825   -9035.5529   -5319.9116    1173.3191   -5905.1529    552.34649    78.511875 
    1100    341.50182    -114.7902   0.30899802    -114.4812     5011.468    4.2785172    4.2785172    4.2785172     5011.468    5047.4728   -2699.3338    12686.265   -1025.5658    3157.4218    1427.3821    78.321292 
    1200    202.43864   -114.66701   0.18317074   -114.48384   -6522.2955    4.2778064    4.2778064    4.2778064   -6522.2955   -14470.758   -16341.668    11245.539   -14508.556   -819.30854    1248.5596    78.282261 
    1300    288.17526   -114.74433   0.26074703   -114.48358   -4125.6596    4.2796297    4.2796297    4.2796297   -4125.6596   -8232.7468   -10606.215    6461.9833   -2723.3093   -490.59023    3566.6605    78.382401 
    1400    374.73933   -114.82017   0.33907202    -114.4811   -10.756356     4.281571     4.281571     4.281571   -10.756356    3905.6721   -6588.9903    2651.0491     991.4922   -1107.4399   -459.38272     78.48912 
    1500      254.621   -114.71233   0.23038643   -114.48194    4093.3276    4.2740338    4.2740338    4.2740338    4093.3276   -3106.2092   -8590.5511    23976.743   -7795.0081   -996.22046   -1006.6219    78.075336 
    1600    221.33368   -114.68398   0.20026736   -114.48371   -8598.5607     4.283404     4.283404     4.283404   -8598.5607    -6476.959   -16730.532   -2588.1914   -7112.1778   -1670.0946    3342.0477    78.589968 
    1700    288.26657   -114.74338   0.26082965   -114.48255    3092.5109    4.2774269    4.2774269    4.2774269    3092.5109    5983.7014    1232.3494    2061.4819    3044.8091   -2481.5391    3113.2681    78.261434 
    1800    375.36586   -114.82083   0.33963892   -114.48119    1805.2283    4.2768207    4.2768207    4.2768207    1805.2283    5159.1326   -5880.6548    6137.2072   -3791.9921    2510.8793    288.28351    78.228164 
    1900    172.82343   -114.63982   0.15637427   -114.48345   -3094.8987    4.2823287    4.2823287    4.2823287   -3094.8987   -9751.2267   -8344.1506    8810.6812   -9785.5411   -204.71468    333.63471    78.530794 
    2000    262.23158   -114.71951   0.23727264   -114.48224   -963.77728    4.2770352    4.2770352    4.2770352   -963.77728   -1783.1622    -695.1595   -413.01013    426.84647    -2165.066    6845.1309    78.239936 
    2100    299.44672   -114.75226   0.27094568   -114.48132    5317.2937    4.2792487    4.2792487    4.2792487    5317.2937    6085.2533   -4452.8968    14319.524    732.44387   -3063.4638   -2887.9439    78.361473 
    2200    300.44775   -114.75379   0.27185143   -114.48194   -1494.6025    4.2781115    4.2781115    4.2781115   -1494.6025   -13026.621    731.80395    7811.0099   -6464.0363    1002.3312    635.29918    78.299016 
    2300    188.73129   -114.65357   0.17076803   -114.48281    -3499.731    4.2803339    4.2803339    4.2803339    -3499.731    -12030.77   -14249.393     15780.97   -7501.0369   -513.14109   -710.34805    78.421106 
    2400    305.14697    -114.7576   0.27610339    -114.4815    1868.8671    4.2777257    4.2777257    4.2777257    1868.8671    4413.6218     76.86084    1116.1186    4558.9921   -1778.3327    6744.3721    78.277833 
    2500     279.3444   -114.73418   0.25275669   -114.48143    486.34318     4.278927     4.278927     4.278927    486.34318    -5496.606   -5748.4118    12704.047   -6809.5611   -850.75994   -3080.2301    78.343801 
    2600     254.1202   -114.71212   0.22993329   -114.48218    -7195.635    4.2800114    4.2800114    4.2800114    -7195.635   -8553.8958   -14741.699    1708.6898   -8942.6088    2008.9924    785.78864    78.403381 
    2700    267.86213   -114.72484   0.24236729   -114.48247    -1579.476    4.2783283    4.2783283    4.2783283    -1579.476   -2008.7834   -3013.9061     284.2614    888.33038   -2304.3343     3036.948     78.31092 
    2800    277.62591    -114.7331   0.25120176    -114.4819    3329.2521    4.2789293    4.2789293    4.2789293    3329.2521    6915.8981    -916.7984    3988.6565    817.07447    -3476.347    2042.4098    78.343924 
    2900    279.18059   -114.73451   0.25260847    -114.4819   -2570.8579    4.2788704    4.2788704    4.2788704   -2570.8579   -6681.5658   -13719.417    12688.409   -9077.5713   -1471.1524   -1123.5684    78.340691 
    3000    272.30127   -114.72838   0.24638391     -114.482   -2107.7297    4.2800438    4.2800438    4.2800438   -2107.7297   -4192.6059   -1.8650822   -2128.7181   -5609.0914    1477.4672    59.133072    78.405158 
    3100    292.46872   -114.74595   0.26463184   -114.48132    4974.3657    4.2781632    4.2781632    4.2781632    4974.3657    7526.2635    -3497.796     10894.63    5030.3939    100.54442    5973.5452    78.301854 
    3200    302.92765   -114.75604    0.2740953   -114.48194   -1775.8788    4.2779665    4.2779665    4.2779665   -1775.8788    -8604.051    -5406.063    8682.4775   -7721.0328    -2291.889   -2302.0428    78.291056 
    3300    254.63695   -114.71304   0.23040086   -114.48264   -2079.9216    4.2809224    4.2809224    4.2809224   -2079.9216   -11226.654   -5298.4618    10285.351   -7344.8769   -1188.0047    1459.3418    78.453454 
    3400    332.30466   -114.78178   0.30067624   -114.48111    -485.1637    4.2785644    4.2785644    4.2785644    -485.1637    1657.8719   -7005.2835    3891.9205    442.73564   -2287.9033   -1984.6462    78.323884 
    3500     287.7525   -114.74195   0.26036451   -114.48158    906.07673    4.2764071    4.2764071    4.2764071    906.07673    2029.5977   -598.97125    1287.6038    940.79827   -908.39893      6687.19    78.205467 
    3600    254.47845   -114.71221   0.23025745   -114.48195   -5831.0753    4.2839999    4.2839999    4.2839999   -5831.0753   -9728.2606   -12040.998    4276.0327   -8841.9398   -437.48881   -3833.0414    78.622772 
    3700    352.23171   -114.79914   0.31870666   -114.48043    564.21475    4.2760665    4.2760665    4.2760665    564.21475    291.74729   -4526.5757    5927.4726   -4134.4569   -1710.8222    4803.2186    78.186787 
    3800    319.93181   -114.77029   0.28948103   -114.48081    3955.1979    4.2772004    4.2772004    4.2772004    3955.1979    9216.8867    1052.8352    1595.8719    1695.1962   -2129.8844    1613.5372    78.249001 
    3900    270.57042   -114.72683    0.2448178   -114.48201   -4122.9444    4.2838702    4.2838702    4.2838702   -4122.9444   -5496.9889   -9940.1164    3068.2722   -8108.6897   -276.30135     490.5013    78.615632 
    4000     329.8244    -114.7797   0.29843204   -114.48126    2840.6511    4.2746961    4.2746961    4.2746961    2840.6511    1969.0046   -7381.7328    13934.682   -5686.7261    1424.1149   -586.21925    78.111637 
    4100    338.52136   -114.78749   0.30630124   -114.48118    6644.9954    4.2792596    4.2792596    4.2792596    6644.9954    4934.3847    4416.7007    10583.901    2236.6915   -4402.5919    2828.9735     78.36207 
    4200    338.19372   -114.78841   0.30600478   -114.48241   -5917.0536    4.2815665    4.2815665    4.2815665   -5917.0536   -6761.5229   -12592.872    1603.2345   -3412.5774    437.72884    2670.7598    78.488871 
    4300    235.00698   -114.69621   0.21263925   -114.48357    153.34204    4.2757913    4.2757913    4.2757913    153.34204   -6227.9861   -4780.5302    11468.542   -11967.317   -2732.0768   -1879.5912    78.171689 
    4400    394.94315   -114.83827   0.35735286   -114.48092   -1024.0167     4.281397     4.281397     4.281397   -1024.0167   -6674.8623   -4892.0217     8494.834    86.577103    3524.1315    2177.7152    78.479547 
    4500    351.39377   -114.79949   0.31794847   -114.48154   -1845.5267    4.2781617    4.2781617    4.2781617   -1845.5267      2409.36   -6976.0258   -969.91439    2470.2772   -7674.8264    2041.4872    78.301774 
    4600    234.36749   -114.69568   0.21206063   -114.48362   -3798.3368    4.2788562    4.2788562    4.2788562   -3798.3368    -10263.91   -7465.0661    6333.9658   -12179.659    37.289883    2286.8593    78.339911 
    4700    358.60714   -114.80755   0.32447527   -114.48307     -2499.45    4.2817427    4.2817427    4.2817427     -2499.45   -3918.8795   -9031.5685    5452.0979   -6130.3992   -1537.9891   -2679.9063    78.498561 
    4800    401.81961   -114.84548   0.36357483   -114.48191    6566.5096    4.2735001    4.2735001    4.2735001    6566.5096    10517.352     3020.067    6162.1102    4313.8792    762.61729    3600.3144    78.046094 
    4900    286.06551   -114.74222   0.25883809   -114.48338   -3397.2032    4.2840112    4.2840112    4.2840112   -3397.2032   -5077.4254   -10071.764      4957.58   -3388.1649   -4027.7405     2227.338    78.623396 
    5000    258.29514   -114.71636   0.23371087   -114.48265    3702.2891    4.2781242    4.2781242    4.2781242    3702.2891     2921.481   -6040.3844    14225.771   -11838.277     1910.772     821.6152    78.299715 
    5100    426.50857   -114.86674   0.38591391   -114.48082    5658.3258    4.2743436    4.2743436    4.2743436    5658.3258    3886.8915    717.60591     12370.48   -2201.0164    550.50163   -3154.1904    78.092313 
    5200    352.36699   -114.80066   0.31882906   -114.48183   -3877.0597    4.2859839    4.2859839    4.2859839   -3877.0597   -6875.5526   -7268.8252    2513.1988    2555.7592   -4052.6771     1685.412    78.732057 
    5300    227.39858   -114.68858   0.20575501   -114.48283   -1181.4505    4.2756557    4.2756557    4.2756557   -1181.4505    -3223.106   -6711.9443    6390.6989    -11437.63   -2608.6397    936.98054    78.164253 
    5400    318.11479   -114.77014   0.28783695    -114.4823    886.42035    4.2768241    4.2768241    4.2768241    886.42035   -7500.1751    -6039.949    16199.385   -5560.1756   -591.91255    775.23811     78.22835 
    5500    444.27478    -114.8823   0.40198916   -114.48031   -7521.1192    4.2851831    4.2851831    4.2851831   -7521.1192   -7423.6803   -7543.0301   -7596.6471    2151.2849     3707.386   -114.26959    78.687935 
    5600    243.54232   -114.70284   0.22036221   -114.48247   -1302.2568    4.2744516    4.2744516    4.2744516   -1302.2568   -5933.1202   -6036.7128    8063.0627     -8695.84   -7401.9404    3645.9312    78.098233 
    5700    244.80094   -114.70568   0.22150103   -114.48418   -1495.4279    4.2799134    4.2799134    4.2799134   -1495.4279   -7055.9388   -10290.045    12859.701   -10072.765   -670.94999   -1353.0205    78.397991 
    5800     400.5264    -114.8447   0.36240471    -114.4823    1257.4307    4.2809557    4.2809557    4.2809557    1257.4307    3703.0085   -3891.3901    3960.6737    2019.9547   -503.93519   -3134.9293    78.455284 
    5900    348.19165   -114.79774   0.31505113   -114.48269    3184.2063    4.2759875    4.2759875    4.2759875    3184.2063   -2224.9975   -4292.9466    16070.563   -488.48859    1385.5134     735.3349    78.182452 
    6000     170.9727   -114.63872   0.15469969   -114.48402    1218.8571    4.2813144    4.2813144    4.2813144    1218.8571    3422.7148   -8270.9931    8504.8495   -12788.347   -3940.3343    1290.0262    78.475006 
    6100    378.25639   -114.82448   0.34225433   -114.48222   -2083.5197    4.2781422    4.2781422    4.2781422   -2083.5197   -7215.8272    -5128.577    6093.8452   -2046.9077    54.139252     1921.461    78.300699 
    6200    354.65772   -114.80205   0.32090176   -114.48115    4792.6241    4.2786647    4.2786647    4.2786647    4792.6241    5069.1449   -2628.4837    11937.211    2807.0364    1360.2074    -2841.417    78.329393 
    6300    232.39826   -114.69441   0.21027883   -114.48413   -4110.2865    4.2812514    4.2812514    4.2812514   -4110.2865   -8450.2935   -4987.9326    1107.3666   -8052.6082   -946.10844    1973.0048    78.471542 
    6400    212.74188   -114.67679   0.19249333    -114.4843   -1044.4603    4.2749857    4.2749857    4.2749857   -1044.4603   -5850.5081   -4394.0222    7111.1494   -11169.567   -5285.7613    287.10128    78.127513 
    6500    392.43632   -114.83654   0.35508463   -114.48145   -4754.0505     4.283147     4.283147     4.283147   -4754.0505   -10893.214   -6998.8721    3629.9345    2715.5252     1338.579   -477.97125    78.575825 
    6600    315.84444   -114.76766   0.28578269   -114.48188    632.47148    4.2778589    4.2778589    4.2778589    632.47148   -536.85136   -2256.7041    4690.9699   -1100.2465   -1464.3213   -78.769549    78.285147 
    6700    151.52539   -114.62122   0.13710335   -114.48411    186.42308    4.2769191    4.2769191    4.2769191    186.42308   -6141.3116   -9130.4207    15831.002   -13065.964    1137.5334    1827.7423    78.233562 
    6800    308.35357   -114.76218   0.27900479   -114.48318    -3299.419    4.2827205    4.2827205    4.2827205    -3299.419    -3532.039   -10904.224    4538.0056   -1119.5954   -1911.2091    2456.6817    78.552354 
    6900     405.4365    -114.8477   0.36684747   -114.48085    2564.5554    4.2768461    4.2768461    4.2768461    2564.5554    369.25768    -1641.932    8966.3405    1906.8507    1548.1325   -2519.5622    78.229557 
    7000    188.51116   -114.65399   0.17056886   -114.48342    1276.8671      4.27826      4.27826      4.27826    1276.8671   -1448.4017   -9093.1443    14372.147   -8679.3171   -2692.0384    189.57073    78.307171 
    7100     220.0941   -114.68269   0.19914577   -114.48355     -5668.43    4.2815436    4.2815436    4.2815436     -5668.43   -4783.1718   -10733.921   -1488.1976   -8879.6563    49.986754    1580.5653    78.487612 
    7200    362.89163   -114.80949   0.32835197   -114.48114    1526.8965    4.2776635    4.2776635    4.2776635    1526.8965    -4058.702   -574.79845    9214.1899     4572.274    -961.5191    278.92287    78.274422 
    7300    277.47189   -114.73436   0.25106239    -114.4833    2472.9722    4.2786221    4.2786221    4.2786221    2472.9722    498.09673   -918.75297    7839.5728   -1836.2848    3781.3915    1121.8017    78.327056 
    7400    221.62646   -114.68568   0.20053228   -114.48515   -5509.6492     4.279547     4.279547     4.279547   -5509.6492   -14437.035   -765.76166   -1326.1515   -11326.589   -3848.4591    2028.6088     78.37786 
    7500    240.53812   -114.70166   0.21764395   -114.48402    2565.0373    4.2791136    4.2791136    4.2791136    2565.0373   -7376.9177   -2318.3095    17390.339   -1281.5896   -311.96033    2100.0728    78.354048 
    7600    417.87732   -114.85902   0.37810418   -114.48092    1239.4081    4.2781491    4.2781491    4.2781491    1239.4081   -4946.8499    4071.5836    4593.4906     1274.326   -65.782805   -3032.7955    78.301077 
    7700    197.72898   -114.66219   0.17890933   -114.48328    2784.1888    4.2791128    4.2791128    4.2791128    2784.1888    -3022.779   -2946.7901    14322.135   -8833.1748    3213.2358    520.99113    78.354005 
    7800    223.59176   -114.68591   0.20231052    -114.4836    -2870.215    4.2797162    4.2797162    4.2797162    -2870.215   -8222.0439   -9350.7701    8962.1689   -6301.0242    -4206.748     902.8651    78.387158 
    7900    389.02099   -114.83334   0.35199437   -114.48134   -1516.6733    4.2786107    4.2786107    4.2786107   -1516.6733    -792.5096    -1259.742   -2497.7682    3205.4759   -431.58241    4820.9815    78.326427 
    8000    288.11223   -114.74223      0.26069   -114.48154     872.7555    4.2796496    4.2796496    4.2796496     872.7555    200.85247   -4756.9952    7174.4093   -2979.6176    1379.0656    -1303.654    78.383495 
    8100    228.52506   -114.68978   0.20677427     -114.483   -3889.0744    4.2783602    4.2783602    4.2783602   -3889.0744   -8609.4334   -14238.476    11180.686   -11937.258    701.03137    1335.4182    78.312673 
    8200    312.84737   -114.76627   0.28307087    -114.4832   -2781.9991    4.2804966    4.2804966    4.2804966   -2781.9991    2160.9828   -3525.4789   -6981.5011    647.05114    -3855.346    1551.6356    78.430048 
    8300    350.75897   -114.79967   0.31737409   -114.48229    2047.1093    4.2787935    4.2787935    4.2787935    2047.1093   -2755.7712   -2283.4259    11180.525   -71.022833   -287.87217   -328.56604    78.336469 
    8400    303.05943   -114.75729   0.27421454   -114.48307    1119.3566    4.2767551    4.2767551    4.2767551    1119.3566   -402.94154   -1251.4421    5012.4534   -8693.4625    2131.4305    38.149758    78.224563 
    8500    232.28191   -114.69325   0.21017355   -114.48308   -446.41457     4.283007     4.283007     4.283007   -446.41457   -12600.437   -1108.2362    12369.429   -3806.7791   -2226.4338    1830.1718    78.568118 
    8600     401.5626   -114.84411   0.36334228   -114.48077    888.14685    4.2762386    4.2762386    4.2762386    888.14685    176.61013    2710.7812   -222.95078    2819.7958   -2100.9901    4410.4252    78.196223 
    8700    289.20811   -114.74342   0.26168157   -114.48174    4936.6618    4.2785548    4.2785548    4.2785548    4936.6618   -1398.0873     8273.554    7934.5186    -4510.641   -2655.1357   -2923.6257    78.323359 
    8800    306.50118   -114.75968   0.27732871   -114.48235    -6126.796    4.2826475    4.2826475    4.2826475    -6126.796    -11457.32   -10432.054    3508.9863   -10818.362    2611.1649    316.29491    78.548334 
    8900    290.39691   -114.74477   0.26275723   -114.48201    2710.2885    4.2750517    4.2750517    4.2750517    2710.2885   -80.051014    7522.8034    688.11316    2779.5194   -8403.5989   -400.52473    78.131129 
    9000    400.92468   -114.84376   0.36276508   -114.48099    -5283.633    4.2821945    4.2821945    4.2821945    -5283.633   -4516.7367    -3726.002   -7608.1604   -1703.4144    34.267287    4091.0453    78.523414 
    9100    243.14014   -114.70284   0.21999831   -114.48285    2445.7849    4.2782214    4.2782214    4.2782214    2445.7849   -4299.0816   -9183.4605    20819.897   -8622.5629   -1078.6416   -1226.7534    78.305048 
    9200    352.13449   -114.80171   0.31861869   -114.48309   -3307.5945    4.2778705    4.2778705    4.2778705   -3307.5945    711.19418   -5500.0495   -5133.9282   -4855.2384    1016.7173    2476.3535    78.285783 
    9300    319.45385   -114.77186   0.28904856   -114.48281    1026.3229     4.282334     4.282334     4.282334    1026.3229   -114.09586   -5943.9686    9137.0331    4389.9306   -6936.1432   -718.27391    78.531087 
    9400    331.77861   -114.78273   0.30020026   -114.48253    2325.8258    4.2747704    4.2747704    4.2747704    2325.8258   -3974.6159   -3789.7105    14741.804   -7526.3432    404.50987    2277.8782    78.115707 
    9500    279.62712   -114.73557   0.25301249   -114.48255   -1734.2672    4.2817151    4.2817151    4.2817151   -1734.2672   -8025.7704   -9215.0519    12038.021   -10350.085   -1240.6018   -2937.0754    78.497041 
    9600    393.04557   -114.83624   0.35563589   -114.48061   -4391.8478    4.2808921    4.2808921    4.2808921   -4391.8478   -4915.5359    -580.1943   -7679.8133    2310.3595   -1579.3979    1217.2972    78.451789 
    9700    265.52618   -114.72222   0.24025366   -114.48196    5437.8383    4.2737364    4.2737364    4.2737364    5437.8383   -402.82517    3251.1348    13465.205   -3506.6352   -5143.3772    1644.4535     78.05904 
    9800     350.7579   -114.80011   0.31737312   -114.48273   -10442.123    4.2850542    4.2850542    4.2850542   -10442.123   -18879.476    -8502.748   -3944.1436   -7335.7508    407.53648    2462.4863    78.680836 
    9900    246.16468    -114.7053   0.22273498   -114.48257     6865.761    4.2765526    4.2765526    4.2765526     6865.761    2349.6422    5365.0121    12882.629   -2115.6471   -4307.4626    147.12061     78.21345 
   10000    408.45933   -114.85074   0.36958258   -114.48116   -1252.4985    4.2764293    4.2764293    4.2764293   -1252.4985   -5270.8977    7154.4667   -5641.0646    2796.6537   -3584.2983   -566.86152    78.206687 
   10100    238.66115    -114.6986   0.21594562   -114.48265   -1588.6758    4.2840238    4.2840238    4.2840238   -1588.6758   -9348.4097   -11965.632    16548.014    -9691.451   -235.73236   -81.796069    78.624087 
   10200    315.17962   -114.76715   0.28518115   -114.48197    2368.5756    4.2756074    4.2756074    4.2756074    2368.5756    3178.7455   -831.68805    4758.6693   -6511.5316   -367.58643   -398.10623    78.161605 
   10300    361.68693   -114.80876   0.32726194    -114.4815    2578.7348     4.279354     4.279354     4.279354    2578.7348   -2107.8213   -2945.9029    12789.929    3020.4655   -1667.2934    3622.5404    78.367254 
   10400    240.83575   -114.70082   0.21791325    -114.4829   -1564.1546    4.2807754    4.2807754    4.2807754   -1564.1546    1993.7524    -9867.228    3181.0119   -3776.3062   -1723.4984   -30.837033    78.445375 
   10500    265.64011   -114.72298   0.24035676   -114.48262   -3812.2239    4.2766867    4.2766867    4.2766867   -3812.2239   -11507.119   -13639.167    13709.614   -11544.378    404.38001    1798.1478     78.22081 
   10600    371.59886   -114.81754   0.33623046   -114.48131   -3483.2991    4.2821528    4.2821528    4.2821528   -3483.2991    1805.5699   -5324.0269   -6931.4404   -704.71194   -1219.1523   -976.36324    78.521121 
   10700    260.99242    -114.7195   0.23615142   -114.48335    998.71668    4.2763046    4.2763046    4.2763046    998.71668   -3919.9006   -5211.9496        12128   -77.181436    -4166.637    3403.1085    78.199846 
   10800    250.27609    -114.7106   0.22645506   -114.48415   -9010.3374    4.2809455    4.2809455    4.2809455   -9010.3374   -15320.747   -14851.685      3141.42   -13291.442    532.13359   -208.77719    78.454722 
   10900    261.52634   -114.71894   0.23663453   -114.48231    4218.1231    4.2802937    4.2802937    4.2802937    4218.1231   -836.57297   -827.50441    14318.447   -4809.6378   -511.63162    1404.0421    78.418892 
   11000    403.94596   -114.84583   0.36549879   -114.48033    2655.1751    4.2751128    4.2751128    4.2751128    2655.1751    4111.8186    1759.4355    2094.2713    3621.5067   -466.98618    2383.3752    78.134479 
   11100    210.93557   -114.67358   0.19085894   -114.48272   -587.95863    4.2820235    4.2820235    4.2820235   -587.95863   -10678.619   -7065.8203    15980.564   -6828.6494   -1296.5975    928.40326    78.514008 
   11200    231.85759   -114.69242   0.20978962   -114.48263     1483.947    4.2799344    4.2799344    4.2799344     1483.947     8010.456   -9108.2975    5549.6826   -8733.0911    425.29984   -213.50696    78.399146 
   11300    385.37393   -114.82922   0.34869443   -114.48053    8753.6907    4.2736539    4.2736539    4.2736539    8753.6907    83.638381     6423.105    19754.329    1408.5753   -1818.0575   -1427.8751    78.054518 
   11400    291.17193   -114.74539   0.26345848   -114.48193   -4076.9374    4.2845728    4.2845728    4.2845728   -4076.9374    3725.7636   -10666.434   -5290.1412   -625.96699   -628.80987     2791.606     78.65432 
   11500    192.35487   -114.65695   0.17404673    -114.4829   -3323.8545    4.2773559    4.2773559    4.2773559   -3323.8545   -10784.054   -9614.7295     10427.22   -13331.069    551.06616     2821.636    78.257536 
   11600    325.15954   -114.77623   0.29421119   -114.48202    1733.7769    4.2769923    4.2769923    4.2769923    1733.7769    4655.0956   -4082.0271    4628.2621   -5370.0138    809.57701    84.050792     78.23758 
   11700    342.04584   -114.79171   0.30949027   -114.48222    -2947.564    4.2824435    4.2824435    4.2824435    -2947.564   -9736.4983   -8076.3849    8970.1913    3926.5248    -3792.391    1391.3221    78.537114 
   11800    234.10577   -114.69645   0.21182382   -114.48462   -5787.6524    4.2768554    4.2768554    4.2768554   -5787.6524   -12030.459   -12757.379    7424.8809   -11231.963   -752.33335   -227.99702    78.230065 
   11900    237.99641   -114.69978   0.21534415   -114.48444   -1872.9245    4.2802393    4.2802393    4.2802393   -1872.9245   -8130.4112   -13285.823    15797.461    -10277.45   -206.15149    828.44919    78.415905 
   12000    396.62684   -114.84045    0.3588763   -114.48158    2246.4608    4.2782685    4.2782685    4.2782685    2246.4608    4702.1024    -673.1795    2710.4595    2881.2272    1387.9202   -989.32615    78.307635 
   12100    303.19366   -114.75678     0.274336   -114.48244   -1602.0515    4.2793587    4.2793587    4.2793587   -1602.0515    -10258.73   -9457.0326    14909.608    -4341.625   -1709.7946    3560.5759    78.367517 
   12200    176.49574   -114.64398   0.15969705   -114.48428     256.2304    4.2798856    4.2798856    4.2798856     256.2304    7794.0477    -11117.74    4092.3839   -11152.126   -390.69686   -1481.0583    78.396466 
   12300    358.96099   -114.80744   0.32479545   -114.48265    3290.7758    4.2763713    4.2763713    4.2763713    3290.7758   -2810.4038    1487.8485    11194.883   -1761.1695    1237.1201    746.98055    78.203505 
   12400    410.08803   -114.85222   0.37105627   -114.48116   -1176.9741      4.28184      4.28184      4.28184   -1176.9741    7839.6691   -3816.5424    -7554.049    3151.1745   -946.14362   -332.51553    78.503915 
   12500    201.48596   -114.66572   0.18230873   -114.48342    1034.1424    4.2779273    4.2779273    4.2779273    1034.1424   -3488.6937   -4952.7939    11543.915   -10068.458   -3133.0055    1522.0059    78.288904 
   12600    264.24456   -114.72248   0.23909403   -114.48338   -1074.7709    4.2780162    4.2780162    4.2780162   -1074.7709   -1634.5977   -812.73577   -776.97929   -7213.7395   -2992.6308   -575.34296    78.293781 
   12700    394.03818   -114.83825   0.35653402   -114.48172    836.25505    4.2810004    4.2810004    4.2810004    836.25505   -3597.0573   -3918.7384    10024.561    1794.8621    1778.2692   -1772.0474    78.457741 
   12800    338.47129   -114.78974   0.30625594   -114.48348   -862.81156    4.2781772    4.2781772    4.2781772   -862.81156   -4171.3934   -1550.8098    3133.7685   -4212.2501   -504.47844     3007.322    78.302623 
   12900    204.97567    -114.6699   0.18546629   -114.48444   -1095.5674    4.2786778    4.2786778    4.2786778   -1095.5674   -5121.8071   -11896.121    13731.226   -12285.219   -1209.7979    346.31253    78.330113 
   13000    343.09598   -114.79292   0.31044045   -114.48248   -1811.2565    4.2810014    4.2810014    4.2810014   -1811.2565    5454.0428   -7777.2974   -3110.5148    2023.0015   -488.26015     975.4062    78.457799 
   13100    412.90655   -114.85451   0.37360653    -114.4809      3304.39    4.2776175    4.2776175    4.2776175      3304.39   -1387.3917   -895.75283    12196.314   -353.69454   -113.25919   -5110.2353    78.271895 
   13200    210.11495    -114.6736   0.19011642   -114.48348   -1529.0414    4.2814745    4.2814745    4.2814745   -1529.0414    8208.4883   -13730.237    934.62449   -12050.046   -1026.0227    2976.7501    78.483809 
   13300    262.09229    -114.7209   0.23714661   -114.48375   -924.70883    4.2758305    4.2758305    4.2758305   -924.70883   -6071.2784   -2970.3209    6267.4728    -6962.116   -3296.2072   -968.97741    78.173839 
   13400    434.48074   -114.87446   0.39312731   -114.48134   -3589.5956    4.2832458    4.2832458    4.2832458   -3589.5956    5663.4767   -4076.6158   -12355.648    5472.3059    2021.4051    1182.1644    78.581259 
   13500     300.0005   -114.75365   0.27144676    -114.4822    2328.6727    4.2771507    4.2771507    4.2771507    2328.6727   -1403.0575   -6956.6442     15345.72   -7522.4358    1674.9535   -762.82649     78.24627 
   13600    234.37309   -114.69531    0.2120657   -114.48325   -5025.5654    4.2778425    4.2778425    4.2778425   -5025.5654   -6676.0979   -6022.3715   -2378.2268   -13223.833   -4340.8922    2142.9002    78.284245 
   13700    315.26444   -114.76791   0.28525789   -114.48266   -1575.4984    4.2838383    4.2838383    4.2838383   -1575.4984   -4144.2609   -5470.8034     4888.569    1195.0487    -2708.856   -1510.6083    78.613874 
   13800    404.56932   -114.84734   0.36606283   -114.48128    5937.0358    4.2741177    4.2741177    4.2741177    5937.0358    7842.1416    4445.8308    5523.1349     634.6121    2347.1987    -2741.042    78.079933 
   13900    236.72131   -114.69777   0.21419042   -114.48358   -825.79675    4.2804881    4.2804881    4.2804881   -825.79675   -3187.1682   -7699.0144    8408.7923   -10263.779     1870.434    2052.5974    78.429579 
   14000    250.26255   -114.70936   0.22644281   -114.48291   -3394.0185    4.2826457    4.2826457    4.2826457   -3394.0185    6828.1699   -11201.093   -5809.1321   -4871.5995   -5227.8509    660.27589    78.548236 
   14100    429.93143   -114.86943   0.38901099   -114.48042     3868.192    4.2743281    4.2743281    4.2743281     3868.192    6568.3279    440.14011    4596.1081    3066.5878    863.55999    3078.5376    78.091466 
   14200    260.95114   -114.71861   0.23611408    -114.4825    1518.8616    4.2828163    4.2828163    4.2828163    1518.8616    11644.422   -7775.6428    687.80592   -6125.5541    1490.7885   -3788.4618    78.557625 
   14300    219.10816   -114.68332   0.19825366   -114.48507   -6094.9725    4.2782898    4.2782898    4.2782898   -6094.9725   -8884.1399   -10873.207    1472.4297   -10052.297   -1029.9024    4184.3628    78.308803 
   14400    334.90556   -114.78739   0.30302959   -114.48436   -690.48189    4.2769538    4.2769538    4.2769538   -690.48189    5614.8174    587.85124   -8274.1143    1075.5925   -8180.2218   -768.35278    78.235468 
   14500    346.55963    -114.7957   0.31357443   -114.48213      -3149.2    4.2839169    4.2839169    4.2839169      -3149.2   -7738.4344   -8312.2033    6603.0378   -1109.2208    1828.8151    1884.0128    78.618201 
   14600    251.66169   -114.70963   0.22770879   -114.48192   -1815.2142    4.2745166    4.2745166    4.2745166   -1815.2142   -3188.5811   -8329.3753    6072.3138    -13147.67   -985.91863   -555.49068    78.101799 
   14700    229.10024   -114.68987   0.20729471   -114.48257   -1180.4159    4.2827171    4.2827171    4.2827171   -1180.4159    420.74042   -7169.1635    3207.1755    -2856.337   -849.32054    2252.9694    78.552166 
   14800     357.2169   -114.80412   0.32321736   -114.48091    3176.0244    4.2784225    4.2784225    4.2784225    3176.0244    6269.5917   -3594.8398    6853.3214    4786.5409   -4365.8317     279.1703    78.316093 
   14900    326.81923   -114.77719   0.29571291   -114.48148    2072.4796    4.2755264    4.2755264    4.2755264    2072.4796   -1296.2848    -887.2791    8401.0028   -8256.5446    2095.0732   -958.75128    78.157161 
   15000    167.94213   -114.63499   0.15195757   -114.48303   -809.05263    4.2861229    4.2861229    4.2861229   -809.05263    11260.934   -15759.958    2071.8661   -8316.8131   -793.33744    2447.2427    78.739721 
   15100    363.04268   -114.80908   0.32848864   -114.48059    2804.8026    4.2730902    4.2730902    4.2730902    2804.8026    4858.7948    1485.4261     2070.187    1495.0578   -4258.4593    1500.1691    78.023635 
   15200    281.19684   -114.73586   0.25443281   -114.48142    1022.8094    4.2809634    4.2809634    4.2809634    1022.8094    8706.4338   -8510.3783    2872.3726    712.53906   -1595.2758    939.42083    78.455709 
   15300    270.41436   -114.72869   0.24467659   -114.48401   -6905.9478     4.282131     4.282131     4.282131   -6905.9478   -9835.6281   -11474.245    592.02987   -9709.4838    227.73168   -454.17755    78.519919 
   15400    249.27064   -114.70986   0.22554531   -114.48431    2280.7881    4.2730555    4.2730555    4.2730555    2280.7881    5555.5151   -113.27188    1400.1212   -3650.0683   -2604.4296    4957.3104    78.021733 
   15500     319.2605   -114.77118   0.28887361    -114.4823   -5273.0184    4.2849535    4.2849535    4.2849535   -5273.0184   -6630.4914   -9769.5314    580.96771    2170.5238    -4113.592    50.389951    78.675289 
   15600    260.40904   -114.71704   0.23562358   -114.48142    1321.0345    4.2778124    4.2778124    4.2778124    1321.0345   -5499.3051   -2741.0964    12203.505   -8599.8808    656.79221    239.12025    78.282591 
   15700    289.09529   -114.74318    0.2615795    -114.4816    446.06709    4.2765343    4.2765343    4.2765343    446.06709    4295.5513     -9667.22      6709.87   -7074.7619   -400.81866   -790.25508    78.212451 
   15800    245.56636   -114.70403   0.22219361   -114.48183    1071.4271    4.2835642    4.2835642    4.2835642    1071.4271    1825.7359    -3911.433    5299.9783    3703.2081   -4796.4761    2346.1685    78.598788 
   15900    387.99316   -114.83178   0.35106437   -114.48072   -516.89647    4.2749548    4.2749548    4.2749548   -516.89647   -4141.7867    2.6413215     2588.456   -1850.9242   -1250.8557    665.60234     78.12582 
   16000    173.27528   -114.63995   0.15678311   -114.48316     5784.226    4.2813692    4.2813692    4.2813692     5784.226    14270.246   -10219.059    13301.492    -8265.221   -952.42693     1081.088    78.478021 
   16100    337.33272   -114.78712   0.30522574   -114.48189   -6117.4064    4.2791306    4.2791306    4.2791306   -6117.4064   -11298.727   -1446.4249   -5607.0676   -2877.5799   -687.76471    926.37219    78.354985 
   16200    255.10781   -114.71233   0.23082691   -114.48151   -222.55639    4.2777523    4.2777523    4.2777523   -222.55639    678.03455   -2114.5646    768.86085    2809.1725   -8257.9506     1857.195    78.279294 
   16300    324.50361   -114.77562   0.29361769     -114.482   -4192.1169     4.281622     4.281622     4.281622   -4192.1169   -2156.4281   -7945.2042   -2474.7182   -8573.9347    1357.1616   -1575.6893    78.491924 
   16400    257.82403   -114.71649    0.2332846   -114.48321   -157.56929    4.2766179    4.2766179    4.2766179   -157.56929    -2299.701   -4282.5737    6109.5668   -4192.3238   -2965.1075    2504.0869    78.217035 
   16500    281.76708   -114.73754   0.25494877   -114.48259   -4093.7807    4.2811077    4.2811077    4.2811077   -4093.7807   -5235.8583   -1251.4639   -5794.0199    590.33239   -3065.0502    2285.5044    78.463642 
   16600    294.05297   -114.74772   0.26606531   -114.48166    3442.1127    4.2794432    4.2794432    4.2794432    3442.1127    2948.7016   -3571.7196    10949.356   -197.90193   -2883.6714    543.35824    78.372158 
   16700     341.2897   -114.79009   0.30880609   -114.48128    2311.4696    4.2766536    4.2766536    4.2766536    2311.4696    4177.1021    404.58276    2352.7239   -10145.555    1143.5788   -56.712609    78.218992 
   16800    210.36607   -114.67286   0.19034364   -114.48252    3196.6033    4.2816623    4.2816623    4.2816623    3196.6033    8700.0987   -9126.3374    10016.049   -110.82705    -3332.754    639.68258    78.494137 
   16900    387.54025   -114.83292   0.35065457   -114.48227    -2687.388    4.2776899    4.2776899    4.2776899    -2687.388   -4292.1685    3134.8653   -6904.8609   -335.96129   -3764.8019    753.44328    78.275866 
   17000    241.00181    -114.7011   0.21806351   -114.48304    5406.1958    4.2789902    4.2789902    4.2789902    5406.1958    10084.489   -4856.7849    10990.883   -5526.0891   -2085.4242   -2375.2112    78.347274 
   17100    351.22745   -114.79974   0.31779798   -114.48194   -8125.6819    4.2802576    4.2802576    4.2802576   -8125.6819   -11348.037    -11611.16   -1417.8491   -6494.1627    -1972.167    2113.0289    78.416912 
   17200    260.52302   -114.71798    0.2357267   -114.48225   -2317.5254    4.2786866    4.2786866    4.2786866   -2317.5254   -2642.0443    2967.6893   -7278.2211    1858.5852   -9067.5953    1676.0759    78.330596 
   17300    338.30257   -114.78723   0.30610328   -114.48112   -4849.5904    4.2798311    4.2798311    4.2798311   -4849.5904    -1785.504   -9933.0731   -2830.1941   -3441.3261   -111.21587    1789.0865    78.393473 
   17400    298.18289   -114.75128   0.26980214   -114.48148   -2350.2392    4.2786387    4.2786387    4.2786387   -2350.2392   -5183.8306   -10667.211    8800.3236   -12055.912    1155.1892   -3045.5402    78.327963 
   17500    335.10135   -114.78468   0.30320674   -114.48147   -3151.7052    4.2802514    4.2802514    4.2802514   -3151.7052   -1201.4518    -2147.857    -6105.807    538.70005   -5547.7992    2216.8232    78.416569 
   17600    277.65158   -114.73317   0.25122498   -114.48194     4370.172    4.2788471    4.2788471    4.2788471     4370.172    10708.453   -4037.4349    6439.4981   -2004.6609    -7773.921    299.43936    78.339413 
   17700    354.64804   -114.80218     0.320893   -114.48128    1846.3906    4.2769645    4.2769645    4.2769645    1846.3906    4092.7856   -5319.6159    6766.0022   -5230.1961    2414.8325   -307.61548    78.236056 
   17800    295.18467   -114.74891   0.26708929   -114.48182    2627.2489    4.2821626    4.2821626    4.2821626    2627.2489    7522.2088   -5889.2135    6248.7514   -3231.8742    733.72844   -98.544291    78.521659 
   17900    383.25968   -114.82875   0.34678141   -114.48197   -62.838063    4.2771558    4.2771558    4.2771558   -62.838063    2640.3337   -1260.4065   -1568.4414    2024.8134   -6200.6791    2645.5985     78.24655 
   18000    251.37641   -114.71089   0.22745066   -114.48344    4407.9259    4.2779359    4.2779359    4.2779359    4407.9259    12449.237   -504.99381    1279.5341   -4745.9575   -6705.8668    1219.6514    78.289374 
   18100    328.62989   -114.77987   0.29735123   -114.48252   -4973.3395     4.283038     4.283038     4.283038   -4973.3395   -4336.0681   -9968.2567   -615.69378   -8044.5005     4501.194   -1392.6092    78.569822 
   18200    379.22266   -114.82466   0.34312863   -114.48153   -478.14916    4.2750789    4.2750789    4.2750789   -478.14916    204.98085   -248.45311   -1390.9752    529.89148   -5164.1567    474.12329    78.132621 
   18300    278.26987   -114.73462   0.25178443   -114.48283   -1855.5197    4.2803804    4.2803804    4.2803804   -1855.5197   -416.52145    1394.6908   -6544.7284     497.9091   -8481.5364    649.98948    78.423659 
   18400    292.82511   -114.74777   0.26495431   -114.48281   -4680.8567    4.2816497    4.2816497    4.2816497   -4680.8567   -2152.8655   -15546.206    3656.5013   -10041.093   -2084.8802    821.64136    78.493446 
   18500    358.29133   -114.80573   0.32418953   -114.48154    3391.4085    4.2753577    4.2753577    4.2753577    3391.4085    7071.7476   -2466.4015    5568.8794   -3111.4328    2266.4502   -624.89094    78.147909 
   18600    316.94254   -114.76848   0.28677627   -114.48171     684.7114    4.2822622    4.2822622    4.2822622     684.7114    5975.0201   -4000.1141    79.228231    2678.1758   -4378.2228    2550.4911    78.527135 
   18700    305.92322    -114.7591   0.27680576   -114.48229   -1465.2261    4.2776878    4.2776878    4.2776878   -1465.2261   -4239.3159   -8125.5154    7969.1531   -4814.0055   -4504.5685   -102.00885    78.275752 
   18800    291.49581   -114.74653   0.26375153   -114.48277    3064.5397    4.2786145    4.2786145    4.2786145    3064.5397    14648.225   -10796.544    5341.9383   -7935.5847    906.29538    314.53083    78.326635 
   18900    362.55682    -114.8094   0.32804903   -114.48135    2815.1564    4.2803607    4.2803607    4.2803607    2815.1564    3541.4298   -1275.1502    6179.1896    386.75885   -3657.9963    -2376.145    78.422573 
   19000    276.17704     -114.732   0.24989079   -114.48211   -1441.7932    4.2780962    4.2780962    4.2780962   -1441.7932    6389.2658   -6022.1096    -4692.536    1378.2317   -4443.7977    4461.7391    78.298172 
   19100    249.99877   -114.70894   0.22620415   -114.48274   -2564.2686    4.2795096    4.2795096    4.2795096   -2564.2686   -3929.6083   -5224.8833    1461.6859   -8375.4604   -3928.4611     174.7765    78.375804 
   19200    371.77668   -114.81768   0.33639135   -114.48129   -3021.2635    4.2809046    4.2809046    4.2809046   -3021.2635   -5359.4983   -3472.4605   -231.83158     -2023.19    2534.7167    1823.4299    78.452473 
   19300    295.33974   -114.74931    0.2672296   -114.48208    2751.6704    4.2748724    4.2748724    4.2748724    2751.6704    3636.4913    4235.0218    383.49806    825.01337   -8456.2239   -646.20783    78.121302 
   19400    211.65526   -114.67526   0.19151013   -114.48375   -4425.3812    4.2840193    4.2840193    4.2840193   -4425.3812   -8049.0118   -2876.5845   -2350.5473   -4784.7777   -2127.1451    1918.9546    78.623841 
   19500    314.28875   -114.76618   0.28437506   -114.48181    1739.1909    4.2772625    4.2772625    4.2772625    1739.1909    2956.4373   -7951.3755    10212.511   -8561.9124   -1499.2159   -1307.3592     78.25241 
   19600    338.81392   -114.78753   0.30656596   -114.48096     4538.765    4.2769388    4.2769388    4.2769388     4538.765    3871.5401    3669.3917     6075.363    3689.9712   -1635.6009    309.06567    78.234643 
   19700    285.40916   -114.74051   0.25824421   -114.48226   -4100.7902    4.2834757    4.2834757    4.2834757   -4100.7902   -6479.1624   -7496.2456    1673.0373   -2647.0283   -3562.2919    1778.5142    78.593913 
   19800    205.28158   -114.66903   0.18574309   -114.48329     1414.779    4.2760235    4.2760235    4.2760235     1414.779    13342.566   -10387.706    1289.4772   -9687.1088   -69.545352    781.26103    78.184423 
   19900    291.45403   -114.74675   0.26371373   -114.48304    3080.2097    4.2773882    4.2773882    4.2773882    3080.2097    497.63768   -6525.4791     15268.47   -5072.5262    532.02498    1552.8337    78.259309 
   20000    399.26324     -114.843   0.36126177   -114.48174    -12814.98     4.285891     4.285891     4.285891    -12814.98    -10167.51   -11810.427   -16467.004    4944.4016   -4563.5849   -1556.6072    78.726939 
   20100    116.92974    -114.5889   0.10580048    -114.4831    3424.0204    4.2724253    4.2724253    4.2724253    3424.0204    6793.4129   -5791.5224    9270.1707   -9259.0289   -5230.8827    3848.2734    77.987219 
   20200    319.43749   -114.77118   0.28903376   -114.48214   -11364.936    4.2829384    4.2829384    4.2829384   -11364.936   -13983.532   -16312.346    -3798.931   -9661.5032    974.47128   -1192.1544    78.564341 
   20300    308.59685    -114.7608   0.27922491   -114.48158    842.51977    4.2801766    4.2801766    4.2801766    842.51977   -1315.1916   -473.32378    4316.0747    1505.3323   -1466.8713    2662.9523    78.412457 
   20400    284.92821   -114.74042   0.25780903   -114.48261   -60.430544    4.2751954    4.2751954    4.2751954   -60.430544     1703.026   -2075.6601    191.34242   -2083.0647   -2851.2655   -250.17533    78.139011 
   20500     185.6847   -114.65154   0.16801142   -114.48353    -1077.243    4.2833514    4.2833514    4.2833514    -1077.243   -1776.4342   -8592.3078    7137.0129   -10563.909   -2255.4454    1472.3292    78.587072 
   20600    329.80367   -114.77962   0.29841329   -114.48121    3761.8722    4.2771546    4.2771546    4.2771546    3761.8722    7685.4854    -1455.765    5055.8962   -2229.7528    2729.6444   -604.44159    78.246489 
   20700    338.37203   -114.78748   0.30616612   -114.48131    6571.1949    4.2777255    4.2777255    4.2777255    6571.1949    8059.4867    664.37449    10989.724    3899.8413   -5256.3788    489.37306    78.277822 
   20800    229.46346    -114.6911   0.20762336   -114.48348    -2379.927    4.2822695    4.2822695    4.2822695    -2379.927    1849.3347   -6003.6594   -2985.4563    -8463.345   -1506.8657    804.32316    78.527538 
   20900    208.77072   -114.67325   0.18890014   -114.48435    2397.0158    4.2744466    4.2744466    4.2744466    2397.0158   -1489.4303   -4404.6347    13085.112   -8989.9461   -2467.5781    78.118158    78.097959 
   21000    434.18947   -114.87512   0.39286376   -114.48226   -5483.1291    4.2840997    4.2840997    4.2840997   -5483.1291    -2230.485   -6814.6181   -7404.2842    2187.0879    4112.4808    749.46015    78.628267 
   21100    250.12317   -114.70982    0.2263167    -114.4835     1288.798    4.2764372    4.2764372    4.2764372     1288.798    3957.0818    -574.7107    484.02299   -1137.1051   -8452.7495    1804.4066     78.20712 
   21200    205.11261   -114.66913    0.1855902   -114.48354    -7733.132    4.2782941    4.2782941    4.2782941    -7733.132   -10623.929   -14696.907    2121.4408   -13171.688   -2715.4422    3183.1933    78.309044 
   21300    364.02402   -114.81079   0.32937658   -114.48141   -4604.3794    4.2842239    4.2842239    4.2842239   -4604.3794   -2776.1732   -11643.179    606.21349   -929.87434   -432.08859   -2258.7859    78.635108 
   21400     349.6368   -114.79694   0.31635873   -114.48058    7876.0227    4.2736454    4.2736454    4.2736454    7876.0227    11956.771    5839.1865    5832.1108    2380.2309   -2110.8095   -504.02493     78.05405 
   21500    256.28196    -114.7146   0.23188931   -114.48271   -4163.1197    4.2811054    4.2811054    4.2811054   -4163.1197    593.42031    -14602.77    1519.9909   -6332.8583   -2383.9851    1533.5937    78.463515 
   21600    251.10222   -114.70986   0.22720256   -114.48266   -1095.5895    4.2824523    4.2824523    4.2824523   -1095.5895   -4116.5447   -7982.8445    8812.6208    -9610.639   -3321.3276    2028.8854    78.537595 
   21700    437.30867   -114.87603   0.39568607   -114.48034    8625.1425    4.2725781    4.2725781    4.2725781    8625.1425    13246.708      4426.09    8202.6296    3758.8091    3244.4419   -223.60014    77.995585 
   21800    313.14914   -114.76572   0.28334392   -114.48237     -1615.22    4.2841477    4.2841477    4.2841477     -1615.22   -4328.1966   -8692.5647    8175.1013   -2563.2178   -3329.8381   -601.34798    78.630911 
   21900    195.28759   -114.66069   0.17670032   -114.48399   -2898.3865    4.2779705    4.2779705    4.2779705   -2898.3865    -8052.338   -4113.0785    3470.2571   -10395.883   -323.55461    1254.1861    78.291271 
   22000    371.64789    -114.8187   0.33627482   -114.48243    509.52381    4.2772957    4.2772957    4.2772957    509.52381   -1560.9366    -3627.584     6717.092   -192.81077   -4667.6847    640.32612    78.254231 
   22100    427.85688   -114.86789   0.38713389   -114.48075   -1789.4397    4.2827203    4.2827203    4.2827203   -1789.4397    2314.8094   -4072.5171   -3610.6112    1160.5046    1171.2864   -508.64807     78.55234 
   22200        199.1   -114.66345   0.18014986    -114.4833   -831.47568    4.2762906    4.2762906    4.2762906   -831.47568   -6819.6108   -5646.6052     9971.789   -11525.188   -3628.0026    1692.3476    78.199075 
   22300     315.3895    -114.7689   0.28537105   -114.48353   -6120.3907    4.2812407    4.2812407    4.2812407   -6120.3907    1210.5883   -16243.645   -3328.1159   -6840.1866    1289.7384    773.98162    78.470956 
   22400    390.72654     -114.835   0.35353758   -114.48146    6842.2837    4.2787897    4.2787897    4.2787897    6842.2837    10019.839    55.985898    10451.026    4913.1859   -1898.6208    838.26035    78.336257 
   22500    368.80032   -114.81591   0.33369828   -114.48221    304.07925    4.2773119    4.2773119    4.2773119    304.07925    5685.1472   -2825.5829   -1947.3265   -1969.1158   -2083.8821   -1302.7729     78.25512 
   22600    221.94436   -114.68514   0.20081992   -114.48432   -3671.6039    4.2826311    4.2826311    4.2826311   -3671.6039   -4141.3179   -17336.159    10462.665   -13289.829   -1240.9977    788.67613    78.547435 
   22700    326.31909   -114.77799   0.29526037   -114.48273    6937.0665    4.2756407    4.2756407    4.2756407    6937.0665    5912.4599    5838.2164    9060.5231   -215.59887    290.54339    357.02425    78.163428 
   22800    452.57663   -114.89033   0.40950085   -114.48083   -644.70888    4.2807033    4.2807033    4.2807033   -644.70888    295.01709   -7641.8358    5412.6921    2067.1233    266.51408     263.0977    78.441409 
   22900    212.71333    -114.6761   0.19246749   -114.48363   -1335.7346    4.2798728    4.2798728    4.2798728   -1335.7346   -5881.7603   -3835.6067    5710.1631   -9796.2589   -381.45682    33.157893    78.395763 
   23000    283.20978   -114.73947   0.25625416   -114.48322   -4756.8083    4.2775985    4.2775985    4.2775985   -4756.8083   -7734.8512   -6123.5329   -412.04073   -9087.7707   -1484.7799     796.7344     78.27085 
   23100    399.52398   -114.84278   0.36149769   -114.48128    991.41882    4.2808831    4.2808831    4.2808831    991.41882    5047.0367   -4783.5392    2710.7589    3561.1322    962.95174    2172.2978    78.451293 
   23200    306.11992   -114.75924   0.27698373   -114.48226      1611.88    4.2785889    4.2785889    4.2785889      1611.88    3994.5004   -3409.1916    4250.3312    -3763.165   -2395.9282   -1383.8825    78.325231 
   23300    248.45415   -114.70853   0.22480654   -114.48372   -5395.0925    4.2785703    4.2785703    4.2785703   -5395.0925   -2032.8314   -12712.527   -1439.9191   -11189.332    89.634322    1568.6237    78.324207 
   23400    288.93416   -114.74452    0.2614337   -114.48309    838.91482    4.2811457    4.2811457    4.2811457    838.91482    7914.8817   -7760.1077    2361.9704    228.67022   -1685.6755   -2081.4927    78.465731 
   23500    414.63115   -114.85648   0.37516698   -114.48132    2945.4096    4.2767072    4.2767072    4.2767072    2945.4096    10027.688   -698.89464   -492.56509    241.93359     3653.839    2005.5241    78.221936 
   23600    251.53419   -114.71167   0.22759342   -114.48408   -4411.9327     4.281705     4.281705     4.281705   -4411.9327    -3266.822    -7763.797   -2205.1791   -9185.3469   -3300.3122   -910.04548    78.496489 
   23700    188.54775   -114.65507   0.17060197   -114.48447    1077.2131    4.2774383    4.2774383    4.2774383    1077.2131   -4648.3104   -3398.1631    11278.113   -5529.7275    705.41134    3348.1313    78.262059 
   23800    400.72638   -114.84451   0.36258565   -114.48193   -1835.2949     4.280621     4.280621     4.280621   -1835.2949    -730.2094    1356.7308    -6132.406    5412.8248   -2089.0456   -2168.1335    78.436882 
   23900    308.37324   -114.76093   0.27902259    -114.4819     3404.448    4.2786215    4.2786215    4.2786215     3404.448    5354.1382      1889.54    2969.6658   -4936.7246    1760.0392   -506.73927    78.327022 
   24000    213.71504   -114.67643   0.19337386   -114.48306   -3343.1305     4.279265     4.279265     4.279265   -3343.1305   -11464.921    806.53634    628.99332   -12361.963   -2613.0681    539.53169    78.362366 
   24100    271.93777   -114.72847   0.24605501   -114.48241   -7.8009779    4.2802033    4.2802033    4.2802033   -7.8009779    4923.7748   -1700.9172   -3246.2605   -189.41262     -25.1336     3404.501    78.413927 
   24200    356.85323   -114.80336    0.3228883   -114.48047    3911.9963    4.2781937    4.2781937    4.2781937    3911.9963    10825.438    769.30647    141.24416    2497.6771    1537.8079    784.70997    78.303526 
   24300      252.936   -114.71073    0.2288618   -114.48187   -2247.3257    4.2799152    4.2799152    4.2799152   -2247.3257   -2965.7388   -6323.2026    2546.9645   -7581.3027   -406.27881    -3349.966    78.398094 
   24400    252.48973   -114.71077   0.22845801   -114.48231   -7075.7338     4.280213     4.280213     4.280213   -7075.7338   -3913.7361   -10260.586   -7052.8797   -6989.1923   -2703.4138    3643.9139     78.41446 
   24500    269.81142   -114.72644   0.24413104   -114.48231    4049.0478    4.2778984    4.2778984    4.2778984    4049.0478    10122.753    842.88033    1181.5096     2915.464   -2466.8923   -1665.0725    78.287312 
   24600    369.50305   -114.81618   0.33433413   -114.48185   -6565.7338    4.2816654    4.2816654    4.2816654   -6565.7338    -8347.492   -7502.0656    -3847.644    -3668.258    3643.6694    2438.9081    78.494312 
   24700    159.49457    -114.6282   0.14431404   -114.48388   -74.396414    4.2778242    4.2778242    4.2778242   -74.396414   -2284.2419   -3308.8852    5369.9379    -9135.436   -2436.9206   -2885.6323     78.28324 
   24800    314.13581   -114.76691   0.28423668   -114.48268   -2905.5413    4.2795891    4.2795891    4.2795891   -2905.5413   -4286.9563   -4000.1579   -429.50967   -625.77794   -2971.5472    4033.0965    78.380175 
   24900    315.49046   -114.76729   0.28546239   -114.48183    3369.9446    4.2800458    4.2800458    4.2800458    3369.9446      12374.4    3696.7766   -5961.3428     1764.366    640.70307   -1731.9777    78.405268 
   25000    270.09876   -114.72656   0.24439103   -114.48217     1219.221    4.2777101    4.2777101    4.2777101     1219.221   -5665.9739    3167.7932    6155.8438    -6236.882    685.35722    87.929527    78.276975 
   25100    233.98482   -114.69422   0.21171438   -114.48251   -410.12595    4.2811256    4.2811256    4.2811256   -410.12595     1875.565    -432.6412   -2673.3017   -6608.4614   -1713.7658     1500.113    78.464626 
   25200    288.49725   -114.74216   0.26103837   -114.48113    4191.5562    4.2778755    4.2778755    4.2778755    4191.5562    12537.855    482.61627   -445.80272    3155.8908   -4081.1859    1643.9101    78.286058 
   25300     331.3995    -114.7811   0.29985723   -114.48124    -2888.284    4.2793776    4.2793776    4.2793776    -2888.284   -1336.1888   -1586.5894   -5742.0737   -4221.9026    3996.9884   -322.72285    78.368553 
   25400    225.26657   -114.68633   0.20382593    -114.4825   -4517.1161     4.281622     4.281622     4.281622   -4517.1161   -6508.3502   -8842.2188    1799.2207   -6929.0797   -7.2008756   -2727.3981    78.491925 
   25500     256.9546   -114.71463   0.23249792   -114.48213   -577.46393    4.2763471    4.2763471    4.2763471   -577.46393    7757.2612    -2079.172    -7410.481   -3456.6519    -5053.786    5622.4474    78.202177 
   25600    327.26279   -114.77765   0.29611425   -114.48154   -5678.6387    4.2825515    4.2825515    4.2825515   -5678.6387   -8692.1863   -10159.697    1815.9673    2485.9287   -73.146883   -594.79808    78.543056 
   25700    261.48591   -114.71915   0.23659795   -114.48255   -1000.9801    4.2784699    4.2784699    4.2784699   -1000.9801    3265.1204   -7121.7314    853.67078   -8696.6449    2213.7189     997.4392    78.318693 
   25800    266.01557   -114.72338   0.24069648   -114.48268    1925.5854    4.2775173    4.2775173    4.2775173    1925.5854    1619.8012   -6001.3216    10158.277    -4271.275   -1743.2165   -3082.6554    78.266393 
   25900    305.03741   -114.75774   0.27600425   -114.48173   -79.667697    4.2820694    4.2820694    4.2820694   -79.667697    12162.032   -3918.6207   -8482.4143    346.28783   -5091.2133    2636.1562    78.516531 
   26000    280.84548   -114.73565   0.25411489   -114.48153    3652.5788    4.2774713    4.2774713    4.2774713    3652.5788    2842.5707    6286.0252    1829.1405   -3077.9943    3015.6262    654.96001    78.263871 
   26100    283.46023   -114.73855   0.25648078   -114.48207     1737.862    4.2790508    4.2790508    4.2790508     1737.862    3695.8042   -2473.7617    3991.5435   -5201.0813    1165.8333    571.98452    78.350599 
   26200    300.80321   -114.75367   0.27217306   -114.48149   -2678.3924    4.2817545    4.2817545    4.2817545   -2678.3924    4841.4519   -3154.8192   -9721.8099   -487.15995   -2555.5058    1790.6478    78.499211 
   26300    292.61214   -114.74614   0.26476161   -114.48138    941.42887    4.2766571    4.2766571    4.2766571    941.42887    5296.5142    -561.0564   -1911.1712   -78.555896   -4184.4728    1645.7386    78.219183 
   26400    331.97667   -114.78205   0.30037946   -114.48167   -8447.0631    4.2830955    4.2830955    4.2830955   -8447.0631   -12812.737   -3816.9844   -8711.4677   -6487.5166    5378.7207   -540.58541     78.57299 
   26500    220.20461   -114.68237   0.19924576   -114.48312    2936.7685    4.2757967    4.2757967    4.2757967    2936.7685    11209.368   -3322.0942     923.0321   -5143.1159   -3792.9346    910.72344    78.171988 
   26600    354.79787   -114.80309   0.32102857   -114.48206   -8462.8848    4.2825025    4.2825025    4.2825025   -8462.8848   -8711.8213   -6102.1735    -10574.66    1831.4848   -3332.7339    3646.3397    78.540359 
   26700     279.4831   -114.73499   0.25288218    -114.4821    2519.3967    4.2788438    4.2788438    4.2788438    2519.3967    10712.879   -7283.8144    4129.1254   -4846.0659    528.29274   -43.365545    78.339231 
   26800    311.81968   -114.76412     0.282141   -114.48198    1890.4198    4.2769495    4.2769495    4.2769495    1890.4198    6806.6305   -4699.6431     3564.272   -5953.3008    2556.8187    824.36136    78.235231 
   26900    315.60794   -114.76736    0.2855687    -114.4818   -37.737272    4.2823194    4.2823194    4.2823194   -37.737272    9902.7283   -8844.8141    -1171.126   -185.84407   -4899.4311    1837.4717    78.530284 
   27000    316.30013   -114.76726     0.286195   -114.48107    3006.0062    4.2789371    4.2789371    4.2789371    3006.0062    8043.8814    4359.0809   -3384.9437    1209.3513   -1937.7398    847.13573    78.344356 
   27100    296.31273   -114.74955   0.26810999   -114.48144      6635.78     4.275742     4.275742     4.275742      6635.78    9940.8321    4962.8658    5003.6419   -7319.8059      3172.02   -1360.4572    78.168983 
   27200    348.08554   -114.79644   0.31495511   -114.48148   -6500.5297    4.2841529    4.2841529    4.2841529   -6500.5297   -7964.3839   -6746.6083   -4790.5971   -1526.8643   -32.791559    2267.6142    78.631199 
   27300    282.84243   -114.73789   0.25592177   -114.48197      2229.45    4.2768582    4.2768582    4.2768582      2229.45    9696.5499    2338.9418   -5347.1416    2667.5965   -8955.1131    3139.7949    78.230221 
   27400    373.19242   -114.81955   0.33767235   -114.48188   -4219.9898     4.279538     4.279538     4.279538   -4219.9898   -7701.1171    211.62728   -5170.4794   -1519.2825   -43.998122     562.1772    78.377364 
   27500    286.71058   -114.74264   0.25942176   -114.48322   -3630.3063    4.2810588    4.2810588    4.2810588   -3630.3063   -256.98099   -3646.2834   -6987.6545    -10314.84    3154.7268   -3382.6526    78.460952 
   27600    312.53727   -114.76564   0.28279029   -114.48285   -1438.9389    4.2781725    4.2781725    4.2781725   -1438.9389    3754.7979    1112.2123   -9183.8268    647.17028   -3874.5532    5060.0051    78.302363 
   27700    348.37423   -114.79711   0.31521632    -114.4819    89.453769    4.2797975    4.2797975    4.2797975    89.453769    8132.6106    -1635.208   -6229.0413    1544.8343   -3950.1783    3892.9729    78.391624 
   27800    323.10141   -114.77445   0.29234895    -114.4821    514.41773    4.2787081    4.2787081    4.2787081    514.41773    4536.0755   -6229.4126    3236.5903   -4927.0848    2042.1138   -139.05104    78.331774 
   27900    312.34702   -114.76516   0.28261815   -114.48254    1520.1692    4.2795762    4.2795762    4.2795762    1520.1692    11106.186   -2899.9109   -3645.7675     -2485.24    104.55665   -2295.4847    78.379463 
   28000    359.47235   -114.80704   0.32525813   -114.48178     637.8307    4.2806691    4.2806691    4.2806691     637.8307   -893.50888    -2145.343     4952.344    500.99264   -4692.8271    3377.8302     78.43953 
   28100    291.60792   -114.74588   0.26385298   -114.48202    7083.4649    4.2756927    4.2756927    4.2756927    7083.4649    16686.941    7029.9016    -2466.448    2075.6656    290.86144    3095.9403    78.166279 
   28200    362.89906   -114.81043    0.3283587   -114.48208    -5683.053     4.283641     4.283641     4.283641    -5683.053   -14314.848   -8172.5632    5438.2524   -9481.0701    2815.8618   -1293.3434    78.603015 
   28300    300.80457   -114.75403    0.2721743   -114.48185    3174.6775    4.2770772    4.2770772    4.2770772    3174.6775    6235.9282    3064.0226    224.08173    3138.7536   -3267.1667    1092.9488    78.242236 
   28400    332.02188   -114.78231   0.30042038   -114.48189   -1883.0136    4.2782067    4.2782067    4.2782067   -1883.0136   -2818.5054    2415.9444   -5246.4796    -591.1927   -6278.2169    68.892869    78.304241 
   28500    342.21866   -114.79142   0.30964664   -114.48177   -4884.0484    4.2825143    4.2825143    4.2825143   -4884.0484   -3911.9418   -5633.9372   -5106.2661   -959.56326    2295.0123    2942.8116    78.541009 
   28600    306.15181    -114.7587   0.27701259   -114.48169    1678.6359    4.2779067    4.2779067    4.2779067    1678.6359    648.36559    8815.9417   -4428.3995   -4613.9444   -581.22467   -801.70189    78.287768 
   28700    309.57667   -114.76167   0.28011148   -114.48156    600.71804    4.2781739    4.2781739    4.2781739    600.71804    11216.566   -1615.1898   -7799.2222    2143.1585   -4761.9327    4031.2201    78.302442 
   28800    338.14184   -114.78761   0.30595785   -114.48165   -3499.7807    4.2811527    4.2811527    4.2811527   -3499.7807   -4811.6541   -4726.2627   -961.42539   -1441.4616   -410.45819    -6.519514    78.466116 
   28900    288.69221    -114.7435   0.26121478   -114.48229    4401.5443    4.2788396    4.2788396    4.2788396    4401.5443    17103.868   -4601.5523    702.31699   -5091.6571    5229.7814   -282.27682    78.338999 
   29000    377.33909   -114.82345   0.34142434   -114.48203    58.554824    4.2779891    4.2779891    4.2779891    58.554824   -1828.6447   -1868.2229    3872.5321    209.14981   -3577.5742    1357.9147    78.292297 
   29100    237.26977    -114.6978   0.21468667   -114.48312     1134.218    4.2809982    4.2809982    4.2809982     1134.218    7799.1818    -4002.572   -393.95562    2448.2837   -3546.4765    2859.3819    78.457623 
   29200    335.08922   -114.78514   0.30319577   -114.48194   -881.45544     4.279186     4.279186     4.279186   -881.45544    1339.9476   -1526.0544   -2458.2595   -1231.0382    754.45694    941.93225    78.358029 
   29300    290.99763   -114.74502   0.26330077   -114.48172    2667.7489     4.279151     4.279151     4.279151    2667.7489   -1621.2352   -3375.9542    13000.436   -6355.0887    2650.7138    226.60252    78.356103 
   29400    290.13867   -114.74412   0.26252357    -114.4816   -3625.1119    4.2792195    4.2792195    4.2792195   -3625.1119    1313.7416   -3401.5625   -8787.5149    2300.1744   -5468.1849    3679.7486    78.359869 
   29500    304.84855   -114.75744   0.27583337   -114.48161    -6046.848    4.2807225    4.2807225    4.2807225    -6046.848   -1263.5534   -10615.095   -6261.8958   -2452.4385    -1094.427    639.91513    78.442462 
   29600     287.4267   -114.74133   0.26006972   -114.48126    1957.9039    4.2791399    4.2791399    4.2791399    1957.9039   -465.89548    2866.9922     3472.615   -2455.5081    2822.5982   -2461.0335    78.355496 
   29700    287.96586   -114.74191   0.26055756   -114.48135    87.031402    4.2784605    4.2784605    4.2784605    87.031402    5125.1591   -247.83069   -4616.2342    -738.6666   -2845.2744    897.24169    78.318178 
   29800    264.73165   -114.72136   0.23953476   -114.48182   -2952.7183    4.2805314    4.2805314    4.2805314   -2952.7183    1936.5542    -6344.286   -4450.4231    2419.3759   -6686.5091    5083.2599    78.431958 
   29900    273.04912   -114.72876   0.24706058    -114.4817    2753.9404    4.2795646    4.2795646    4.2795646    2753.9404    6799.3413   -4523.6701      5986.15   -3241.2229    3002.5973    1002.0266    78.378828 
   30000    329.97703   -114.77961   0.29857015   -114.48104    2545.8849    4.2775821    4.2775821    4.2775821    2545.8849    11481.544   -4683.3963    839.50747   -2839.3197    4647.6975   -2562.0569    78.269952 
   30100    254.73429   -114.71226   0.23048894   -114.48177   -1850.2309    4.2803947    4.2803947    4.2803947   -1850.2309   -2752.5215   -9399.7868    6601.6158     94.18618   -5607.5406    2042.8191    78.424444 
   30200    231.76937   -114.69173   0.20970979   -114.48202    -911.6867    4.2807787    4.2807787    4.2807787    -911.6867    13561.569   -11645.202    -4651.427    808.30109   -2580.0682    3900.8125    78.445555 
   30300    291.62948   -114.74499   0.26387248   -114.48112    2888.1727    4.2767077    4.2767077    4.2767077    2888.1727   -1456.8301    1610.9904    8510.3579   -5427.2207    2654.2853   -940.60514     78.22196 
   30400     268.4392   -114.72478   0.24288943   -114.48189   -4720.3351    4.2809964    4.2809964    4.2809964   -4720.3351    1382.5642   -14507.023   -1036.5466    794.14542    38.024658    524.91972     78.45752 
   30500    269.63569   -114.72651   0.24397204   -114.48254   -8830.4142    4.2806779    4.2806779    4.2806779   -8830.4142   -1849.6712   -13692.464   -10949.108    654.16351   -6608.5902    1852.2321    78.440013 
   30600    260.93108   -114.71867   0.23609592   -114.48258    435.28525    4.2767382    4.2767382    4.2767382    435.28525    9993.3641   -8296.2287   -391.27961   -3927.8717    414.45125     3193.417    78.223636 
   30700    289.12703   -114.74361   0.26160821     -114.482   -1418.1736    4.2815248    4.2815248    4.2815248   -1418.1736   -4917.1263   -4394.4978    5057.1033   -3282.9003     4819.919   -2151.7837    78.486579 
   30800    255.62816   -114.71341   0.23129773   -114.48211   -932.59983    4.2794217    4.2794217    4.2794217   -932.59983    14298.221   -9557.3792   -7538.6416    467.26532   -4256.8369    3860.0314    78.370976 
   30900    253.08128   -114.71119   0.22899326    -114.4822    3579.1572    4.2775353    4.2775353    4.2775353    3579.1572    8616.9657   -4454.0347    6574.5407    194.36915   -4625.5127    1348.8985    78.267383 
   31000    273.51351   -114.72885   0.24748077   -114.48137    3971.8766     4.281486     4.281486     4.281486    3971.8766    16951.428   -7395.8888    2360.0905   -4089.9452    11.479181   -660.53267    78.484445 
   31100    385.90393   -114.82994   0.34917399   -114.48077   -2178.7926    4.2772404    4.2772404    4.2772404   -2178.7926   -1703.1654   -10448.487    5615.2751    1280.5385    3395.4414   -344.64058    78.251196 
   31200    164.79929   -114.63241   0.14911386    -114.4833    5448.2696    4.2801646    4.2801646    4.2801646    5448.2696    19267.229   -11326.559    8404.1385    712.50525   -4279.3549    2966.1606      78.4118 
   31300    358.72814   -114.80652   0.32458476   -114.48193   -7242.4659    4.2806773    4.2806773    4.2806773   -7242.4659   -4821.5274   -7812.6581   -9093.2123   -2528.6941   -204.54968    2838.9534    78.439978 
   31400    246.36797   -114.70499   0.22291892   -114.48207    3782.5808    4.2762243    4.2762243    4.2762243    3782.5808    4847.0075   -3700.5709    10201.306    -5665.669    893.91608   -2608.4685    78.195438 
   31500    339.69244   -114.78946   0.30736085    -114.4821   -9261.2754    4.2835738    4.2835738    4.2835738   -9261.2754   -3711.0798   -12770.236   -11302.511    2690.1545   -805.74606    2869.9636    78.599317 
   31600    250.59501   -114.70954   0.22674363   -114.48279   -653.47829    4.2767794    4.2767794    4.2767794   -653.47829    12514.959   -10792.956   -3682.4379     447.6643   -3883.0834   -189.86005    78.225895 
   31700    350.72942    -114.7989   0.31734735   -114.48155    -2767.138    4.2795801    4.2795801    4.2795801    -2767.138   -981.07544   -7087.7917   -232.54697   -5856.3008    34.895372   -27.425075    78.379678 
   31800    310.41308   -114.76228   0.28086828   -114.48141    2130.0538    4.2821921    4.2821921    4.2821921    2130.0538    16335.583   -11854.265    1908.8437    955.98228    2293.2329    232.44825    78.523279 
   31900    329.64726   -114.78005   0.29827177   -114.48178     873.3338     4.276084     4.276084     4.276084     873.3338    8825.2884   -1433.4291   -4771.8579    2474.1672   -3165.4127    3915.2559    78.187743 
   32000    246.96591   -114.70667   0.22345995   -114.48321    6099.7667     4.280255     4.280255     4.280255    6099.7667    16325.614   -5262.9056    7236.5922   -627.16824   -222.74135    75.651612    78.416766 
   32100    419.08075   -114.86065   0.37919307   -114.48145   -2211.5379    4.2809705    4.2809705    4.2809705   -2211.5379   -242.62998   -4390.5886   -2001.3951   -2901.1601   -1699.6447   -1891.6897      78.4561 
   32200    268.97544   -114.72587   0.24337463   -114.48249    5760.8537    4.2753904    4.2753904    4.2753904    5760.8537    9614.4638   -7512.2262    15180.324     5342.747    212.84485    1011.4951    78.149704 
   32300    316.40099   -114.76838   0.28628627    -114.4821   -6496.9249    4.2837974    4.2837974    4.2837974   -6496.9249   -3811.7968   -9735.8572   -5943.1207    674.74171   -4309.3517    1529.4066    78.611623 
   32400    360.13027   -114.80684   0.32585344   -114.48098   -1822.7251    4.2773795    4.2773795    4.2773795   -1822.7251    602.04821   -3956.4281   -2113.7954   -1998.6133    2356.6764    578.86029     78.25883 
   32500     321.7036    -114.7724   0.29108418   -114.48132    934.29181    4.2777023    4.2777023    4.2777023    934.29181    3496.9349   -5363.4566    4669.3972    2093.0424    379.28772   -920.56602    78.276549 
   32600     315.8732   -114.76788   0.28580871   -114.48207   -6064.8696    4.2840727    4.2840727    4.2840727   -6064.8696    2899.0506   -8507.1465   -12586.513    3872.8598   -3705.2591     2419.004    78.626782 
   32700    312.02825    -114.7641   0.28232972   -114.48177     3626.767    4.2744398    4.2744398    4.2744398     3626.767     13288.77   -3314.5817    906.11228    -3876.551   -1500.9007   -2780.1722    78.097589 
   32800    352.31523   -114.80051   0.31878222   -114.48173    1274.8243    4.2812351    4.2812351    4.2812351    1274.8243     14184.97   -10251.227   -109.26965   -324.13346    538.35331    400.66822    78.470649 
   32900    306.78178      -114.76    0.2775826   -114.48242    349.83178    4.2815987    4.2815987    4.2815987    349.83178    12202.995   -9228.6156   -1924.8838    5133.2182    1825.7382    1400.3365     78.49064 
   33000    314.29514   -114.76633   0.28438084   -114.48195    3477.3248    4.2747567    4.2747567    4.2747567    3477.3248    11578.933    214.04024   -1360.9983    2147.9093   -5157.1957    1469.5588    78.114959 
   33100    308.13515   -114.76003   0.27880716   -114.48122    832.12164    4.2831932    4.2831932    4.2831932    832.12164    13180.158   -10337.811   -345.98171   -3234.2238    1050.0752   -2814.4296    78.578368 
   33200    355.47152    -114.8026    0.3216381   -114.48097   -3350.1659    4.2783979    4.2783979    4.2783979   -3350.1659   -5597.5756   -8494.2788    4041.3568    4338.5112   -184.46736   -651.31966     78.31474 
   33300    216.55586   -114.67882   0.19594429   -114.48288    3835.3598     4.277196     4.277196     4.277196    3835.3598    8311.0547   -9781.4456     12976.47    8359.5939   -870.76016    1739.8028    78.248756 
   33400    374.66117    -114.8203    0.3390013    -114.4813   -9203.8097    4.2836453    4.2836453    4.2836453   -9203.8097   -3216.3716   -14421.986   -9973.0709   -3136.3501   -3720.4502    1213.8426     78.60325 
   33500     285.3561   -114.74015    0.2581962   -114.48195    1150.5499      4.27486      4.27486      4.27486    1150.5499    8084.0983   -8866.2486    4233.7999    1149.5019    183.33028   -384.06049    78.120624 
   33600    282.11382   -114.73837   0.25526251   -114.48311   -2749.5595    4.2826079    4.2826079    4.2826079   -2749.5595    2898.7931   -8778.7129   -2368.7586    4601.6396    2186.5538   -911.79492    78.546156 
   33700     290.1975   -114.74499    0.2625768   -114.48241    364.87809    4.2790808    4.2790808    4.2790808    364.87809    17207.924    -9029.399   -7083.8906    3433.0504   -3426.0028    1696.0823    78.352247 
[...]
   91300    291.59946   -114.74569   0.26384532   -114.48185    1593.8684    4.2777509    4.2777509    4.2777509    1593.8684   -5959.6324    397.80902    10343.428    1333.5285   -1421.9843   -2779.9749    78.279217 
   91400    322.40463   -114.77315   0.29171848   -114.48144   -4974.3482    4.2812613    4.2812613    4.2812613   -4974.3482   -41.539389   -5323.2521   -9558.2531    277.85061   -1466.1996    1144.3343    78.472089 
   91500    245.18368   -114.70422   0.22184735   -114.48238    2835.7956    4.2781881    4.2781881    4.2781881    2835.7956    1034.7832    2545.7851    4926.8184   -3757.8289   -2946.1127    5289.9144    78.303221 
   91600    280.03564   -114.73557   0.25338213   -114.48219    2414.5039    4.2781819    4.2781819    4.2781819    2414.5039    2533.6263   -823.54887    5533.4343    400.94247    1336.7526   -701.15961     78.30288 
   91700    285.52931   -114.74006   0.25835292    -114.4817    2675.6297    4.2809368    4.2809368    4.2809368    2675.6297   -3283.9321    4518.0739    6792.7473    3336.5433   -2972.0877   -2456.2513    78.454245 
   91800    355.68909   -114.80287   0.32183496   -114.48104   -1284.0021    4.2788148    4.2788148    4.2788148   -1284.0021    3153.0476   -8425.3409     1420.287   -762.99452   -729.97718    2839.7763    78.337639 
   91900    217.19307   -114.67869   0.19652086   -114.48216    5687.9122    4.2770087    4.2770087    4.2770087    5687.9122    89.772307    8036.5046    8937.4596    -1639.724   -5.9862058    846.98213     78.23848 
   92000    323.58804   -114.77462   0.29278926   -114.48184   -7241.4683    4.2827678    4.2827678    4.2827678   -7241.4683    -7659.789   -14927.216     862.6001    1874.4729   -100.40388   -1484.7889    78.554955 
   92100    297.55133   -114.75108    0.2692307   -114.48185    1205.6369    4.2774438    4.2774438    4.2774438    1205.6369    7543.9987    1340.8639    -5267.952    2734.3333   -785.47909   -1583.2107    78.262358 
   92200    291.74471   -114.74585   0.26397674   -114.48188    363.92277    4.2786729    4.2786729    4.2786729    363.92277   -5254.4344    5077.6899    1268.5129   -1436.4235   -4302.1393    6044.3313    78.329846 
   92300    300.40518   -114.75399   0.27181292   -114.48217   -8553.7755    4.2813577    4.2813577    4.2813577   -8553.7755   -10223.459   -8801.0289   -6636.8388   -1888.9161    2216.9193   -5785.4995     78.47739 
   92400    269.26818   -114.72592   0.24363951   -114.48228   -207.35639    4.2785216    4.2785216    4.2785216   -207.35639    2268.8439   -834.09222   -2056.8209    2057.7622   -5757.4249   -3223.9551    78.321534 
   92500    374.11265   -114.81961   0.33850499   -114.48111    747.94687    4.2789455    4.2789455    4.2789455    747.94687   -261.11718    9385.1783   -6880.2205    845.08836    1137.0757    1443.0133    78.344817 
   92600    272.80968   -114.72918   0.24684393   -114.48234    1945.1692    4.2792889    4.2792889    4.2792889    1945.1692     2934.895     -1995.12    4895.7326    1024.0512   -59.752971    5397.2053    78.363683 
   92700    261.86008   -114.71948    0.2369365   -114.48255   -502.09128    4.2803107    4.2803107    4.2803107   -502.09128    -3837.463    2007.3797    323.80946    727.65276    667.18551   -5011.9652    78.419828 
   92800    380.74392   -114.82547    0.3445051   -114.48097    1436.0907    4.2787125    4.2787125    4.2787125    1436.0907    1157.7715   -3034.5202    6185.0207     309.9234   -3119.6163   -3251.0705    78.332016 
   92900    332.69952    -114.7821   0.30103352   -114.48106    5084.1951    4.2779724    4.2779724    4.2779724    5084.1951    3394.3846     7320.453    4537.7476   -2443.8468   -2622.9419    3657.4359     78.29138 
   93000    310.84689    -114.7633    0.2812608   -114.48204   -5185.4167    4.2819166    4.2819166    4.2819166   -5185.4167   -10239.723    -10680.86    5364.3321    2198.6982    2265.8733    43.453036    78.508125 
   93100    240.43893   -114.70048    0.2175542   -114.48293     2484.442    4.2784947    4.2784947    4.2784947     2484.442    5924.9677   -1512.9212    3041.2795    2512.5245   -1900.1852   -6562.5508    78.320058 
   93200    381.00405   -114.82582   0.34474047   -114.48108    372.66774    4.2778381    4.2778381    4.2778381    372.66774    1095.6579    561.86533   -539.52006   -888.79543    1173.2353   -5655.2488    78.284003 
   93300    363.70929   -114.81041   0.32909181   -114.48132   -7273.1509    4.2826276    4.2826276    4.2826276   -7273.1509   -11980.901   -9000.9652   -837.58701   -2564.8176   -2498.9803    5419.5778    78.547241 
   93400    247.72163   -114.70677   0.22414373   -114.48263   -2210.8768    4.2781413    4.2781413    4.2781413   -2210.8768   -1440.3499   -2232.2065   -2960.0741    1507.1229    1785.1824   -5291.9677     78.30065 
   93500    346.96393   -114.79657   0.31394026   -114.48263     82.62038    4.2778094    4.2778094    4.2778094     82.62038    5356.4093   -568.47456   -4540.0736    1103.6486   -5596.4763   -3611.0084    78.282428 
   93600     369.8239   -114.81641   0.33462444   -114.48179    1559.6126    4.2812632    4.2812632    4.2812632    1559.6126    1005.7951    1553.7978    2119.2449   -1860.6144    158.17678   -2761.2039    78.472192 
   93700    294.00577    -114.7487    0.2660226   -114.48268    2316.8979    4.2788795    4.2788795    4.2788795    2316.8979    6259.9621   -2306.6448    2997.3765     228.7758    1217.6828    440.54411    78.341192 
   93800    308.76325   -114.76212   0.27937548   -114.48274    991.57167    4.2780851    4.2780851    4.2780851    991.57167   -149.16445    -2812.103    5935.9825    4140.1662    1195.3955    -3361.594    78.297565 
   93900    338.93911   -114.78861   0.30667923   -114.48193    4115.8789    4.2798623    4.2798623    4.2798623    4115.8789     4434.584    57.023154    7856.0296   -503.96087   -2130.7403   -899.93917    78.395185 
   94000    420.52886   -114.86185   0.38050335   -114.48135   -450.74974    4.2791982    4.2791982    4.2791982   -450.74974   -1605.3064   -4535.7009    4788.7581   -2339.1945   -2309.1505    547.47671    78.358696 
   94100     195.1488   -114.66013   0.17657474   -114.48355    3552.5261     4.279103     4.279103     4.279103    3552.5261   -2181.5267   -3954.4402    16793.545   -159.13944    571.13147   -4360.4318     78.35347 
   94200    329.98161   -114.78082   0.29857429   -114.48225   -5855.4717    4.2784532    4.2784532    4.2784532   -5855.4717     -1344.22   -11233.495   -4988.7002    3442.8005    135.97902   -5497.8097    78.317776 
   94300    371.55789   -114.81674   0.33619338   -114.48054   -3204.7731     4.281075     4.281075     4.281075   -3204.7731   -415.06252   -10540.631    1341.3741   -3113.9227   -1122.6398   -1115.1063    78.461846 
   94400    341.97472   -114.79097   0.30942591   -114.48154   -3426.9846    4.2791693    4.2791693    4.2791693   -3426.9846   -8054.3462    -3282.481    1055.8733   -3317.8584   -1360.0618    -1542.236    78.357111 
   94500    194.88381   -114.66003   0.17633496   -114.48369   -1231.1202    4.2773861    4.2773861    4.2773861   -1231.1202    13488.646   -15417.733   -1764.2745    3571.5707    -222.2821   -9553.1127    78.259194 
   94600    341.21862   -114.79069   0.30874177   -114.48195   -4331.8727    4.2812152    4.2812152    4.2812152   -4331.8727     3408.054   -8311.5796   -8092.0923    2605.0662     504.0557   -1348.5579    78.469552 
   94700    367.30323   -114.81335   0.33234368   -114.48101    3559.1668    4.2800089    4.2800089    4.2800089    3559.1668    4597.3795   -6008.9084    12089.029   -2830.5402   -1613.0711    1254.0418     78.40324 
   94800    289.17474   -114.74418   0.26165138   -114.48252    2211.6146    4.2762463    4.2762463    4.2762463    2211.6146    10951.454   -4302.2505   -14.360034   -1014.0436   -1349.1044   -4587.8873    78.196646 
   94900    210.71013   -114.67449   0.19065495   -114.48384   -683.51247    4.2823093    4.2823093    4.2823093   -683.51247   -1804.4485   -11803.923    11557.834     2931.397   -1377.9914   -5865.9361    78.529729 
   95000    395.70159   -114.83924   0.35803911   -114.48121    1018.1555    4.2793293    4.2793293    4.2793293    1018.1555    6942.6347   -6761.8415    2873.6733    1075.3641    3643.3684    809.11459    78.365902 
   95100    261.24815   -114.71863   0.23638282   -114.48225    7396.2437    4.2765481    4.2765481    4.2765481    7396.2437    3564.9817    5110.6411    13513.108    -1417.649   -411.02482    -1086.765    78.213203 
   95200    229.15734   -114.69053   0.20734638   -114.48318    -7516.893    4.2817376    4.2817376    4.2817376    -7516.893     -9439.89    -17770.61    4659.8214    774.81797   -208.92393   -4090.6895    78.498282 
   95300    306.20624   -114.75899   0.27706184   -114.48193   -5351.8469    4.2795654    4.2795654    4.2795654   -5351.8469    3502.5132   -11361.553   -8196.5007    1800.2285   -5363.2194   -2895.8318    78.378871 
   95400    329.60545   -114.77899   0.29823394   -114.48076    2962.2324    4.2782444    4.2782444    4.2782444    2962.2324    3359.1778   -2461.7433    7989.2628   -3694.4778    939.91169    1496.9612    78.306311 
   95500    255.11926    -114.7129   0.23083727   -114.48207   -4880.5841    4.2808687    4.2808687    4.2808687   -4880.5841    -453.4129   -12448.114   -1740.2248    1500.2455    1111.1948   -5220.7979    78.450504 
   95600    174.13045   -114.64026   0.15755689   -114.48271   -934.47628    4.2781096    4.2781096    4.2781096   -934.47628    14714.447   -13350.389   -4167.4864    1965.1844   -182.45239   -7831.3509    78.298913 
   95700    402.02646   -114.84417   0.36376199   -114.48041   -3596.1191    4.2810692    4.2810692    4.2810692   -3596.1191   -3854.8286   -10984.654    4051.1258    809.88173   -664.73376    2291.8789    78.461523 
   95800    247.25722   -114.70502   0.22372353    -114.4813     6628.167     4.277978     4.277978     4.277978     6628.167    15434.603   -209.35292     4659.251   -2737.3045   -1624.1122   -2843.6503    78.291682 
   95900    256.32263   -114.71393    0.2319261     -114.482   -6151.4844    4.2792913    4.2792913    4.2792913   -6151.4844    939.60606   -18121.168   -1272.8913    3393.9478    1102.9143    -3859.865    78.363814 
   96000      222.057   -114.68344   0.20092184   -114.48251    1819.7248    4.2818098    4.2818098    4.2818098    1819.7248    5688.3099   -7878.6302    7649.4949    2311.0128   -2006.1462   -1843.0223    78.502252 
   96100    356.73175   -114.80399   0.32277838   -114.48121    2123.0184    4.2764669    4.2764669    4.2764669    2123.0184    1600.1854    1622.3274    3146.5423   -969.61113    650.55655    3465.7337     78.20875 
   96200    239.13198   -114.69904   0.21637164   -114.48267   -983.64548    4.2786629    4.2786629    4.2786629   -983.64548   -3789.3833   -5518.2253    6356.6721   -1096.2506   -717.18295   -4617.8163    78.329294 
   96300     254.3739   -114.71308   0.23016285   -114.48292   -7986.1505    4.2837001    4.2837001    4.2837001   -7986.1505   -4821.1004   -11240.201   -7897.1505    2264.3978    1268.8853   -3378.4103    78.606266 
   96400    272.98098   -114.72892   0.24699893   -114.48192    6199.2923    4.2742409    4.2742409    4.2742409    6199.2923    13378.359   -542.63089    5762.1487    915.21978   -1600.0302    2222.1019    78.086684 
   96500    316.87748   -114.76882    0.2867174    -114.4821   -2628.3129    4.2822124    4.2822124    4.2822124   -2628.3129   -5404.6104    3022.5008   -5502.8292   -313.43274    125.29634    1575.7187    78.524398 
   96600    245.56294   -114.70494   0.22219051   -114.48275   -2424.9603    4.2805974    4.2805974    4.2805974   -2424.9603    8669.6811    -12849.69   -3094.8722    2058.9515   -3098.7114    -3446.022    78.435588 
   96700    303.34926   -114.75635   0.27447679   -114.48187    2251.1623     4.275902     4.275902     4.275902    2251.1623    1840.5554   -315.92016    5228.8516    327.81039   -36.741004   -2863.9705    78.177763 
   96800    279.05565   -114.73392   0.25249542   -114.48142    3001.5521    4.2823378    4.2823378    4.2823378    3001.5521    9198.4865   -3450.6635    3256.8333    -1378.246    933.78491    3947.0605    78.531298 
   96900    337.14947    -114.7862   0.30505992   -114.48114   -2521.6755    4.2779582    4.2779582    4.2779582   -2521.6755    2996.5432   -8370.4211   -2191.1487    1235.2961    2444.3814   -3078.7754    78.290601 
   97000    232.00881   -114.69247   0.20992645   -114.48254    3458.9205    4.2791439    4.2791439    4.2791439    3458.9205    2314.5256   -6345.8649    14408.101    4400.2509   -2130.9545   -1863.0682    78.355716 
   97100    385.98626   -114.83012   0.34924848   -114.48087   -6459.7736     4.281585     4.281585     4.281585   -6459.7736   -8323.0251   -6743.2744   -4313.0213   -1273.7581    261.62862      1595.49    78.489887 
   97200    229.00034   -114.68939   0.20720432   -114.48219    4029.3288    4.2757638    4.2757638    4.2757638    4029.3288    8087.5924    2552.1086    1448.2853   -2514.0378   -4368.5813    2577.0018    78.170184 
   97300    365.85984   -114.81262   0.33103767   -114.48158   -7564.9685    4.2828751    4.2828751    4.2828751   -7564.9685   -5813.1364   -14088.698   -2793.0708    1962.0631    2097.8073   -681.16566    78.560859 
   97400    265.86016   -114.72219   0.24055586   -114.48164    2257.5133     4.278621     4.278621     4.278621    2257.5133    6812.4062   -1252.9723    1213.1058     2577.075    -2321.463    1961.3497    78.326992 
   97500    367.00918   -114.81347   0.33207761    -114.4814   -4646.8263      4.27711      4.27711      4.27711   -4646.8263   -3663.0329   -1197.7458   -9079.7001   -1871.0633    2601.9091    3095.0682    78.244036 
   97600    305.75976   -114.75915   0.27665786    -114.4825   -1867.6966    4.2838546    4.2838546    4.2838546   -1867.6966    2437.7146   -7276.5266    -764.2777   -1070.9283   -1857.4125   -2004.6325    78.614772 
   97700    322.03753   -114.77338   0.29138633     -114.482     6353.733    4.2756519    4.2756519    4.2756519     6353.733    4563.8648    1695.3642     12801.97    4373.8962    797.12738   -1117.9875    78.164043 
   97800    341.44749   -114.79106   0.30894887   -114.48211    764.97448    4.2788623    4.2788623    4.2788623    764.97448    4609.8732   -3080.1663    765.21645     134.9621     -960.116    5751.3171    78.340247 
   97900    285.50466   -114.74037   0.25833061   -114.48204   -28.438313    4.2831115    4.2831115    4.2831115   -28.438313   -3522.2951   -3822.9123    7259.8924   -1881.2625   -134.34614     1693.328    78.573869 
   98000    397.72121   -114.84117   0.35986651   -114.48131    3027.5361    4.2745022    4.2745022    4.2745022    3027.5361    2614.7194   -4404.7868    10872.676    1495.4812   -643.04775   -1598.4339     78.10101 
   98100    329.73102   -114.78101   0.29834756   -114.48266   -538.47801      4.28266      4.28266      4.28266   -538.47801   -4093.1591   -4693.4539    7171.1789    3089.3442    1410.4026    349.79513    78.549023 
   98200    267.19776   -114.72501   0.24176615   -114.48325   -2232.5829    4.2785961    4.2785961    4.2785961   -2232.5829    5160.6669    -4511.347   -7347.0686   -689.98895    2082.6971    7882.0007    78.325623 
   98300    347.56637    -114.7967   0.31448536   -114.48221   -3021.3266    4.2775694    4.2775694    4.2775694   -3021.3266   -1522.5091   -8091.4206    549.95003   -1892.7022   -3354.2261    -319.6638    78.269252 
   98400     379.4541    -114.8241   0.34333805   -114.48076   -2914.7316    4.2833923    4.2833923    4.2833923   -2914.7316   -4262.2246   -6477.5763    1995.6061    2657.3969   -1094.1366   -3717.6853    78.589327 
   98500    297.81159   -114.75064   0.26946619   -114.48118   -1438.2561    4.2766974    4.2766974    4.2766974   -1438.2561    3663.5582   -4105.5796   -3872.7468    955.73384   -4887.8286    5893.7318    78.221397 
   98600    287.57743   -114.74201    0.2602061    -114.4818   -2800.5616    4.2794721    4.2794721    4.2794721   -2800.5616    270.76136   -8529.1377   -143.30853   -855.61362    7275.3349    3036.6937    78.373745 
   98700    331.08843   -114.78092   0.29957577   -114.48135    931.51813    4.2825123    4.2825123    4.2825123    931.51813    1120.1222   -7557.0969     9231.529   -1624.4542   -3043.2819    1953.2474    78.540895 
   98800      380.992   -114.82571   0.34472957   -114.48098    4050.2975    4.2742092    4.2742092    4.2742092    4050.2975    2301.0062    2998.7639    6851.1223    1865.0094    538.07124   -2473.8108    78.084947 
   98900    236.59413   -114.69658   0.21407534    -114.4825   -317.86666    4.2830005    4.2830005    4.2830005   -317.86666   -1444.6623   -8729.8609    9220.9232    393.51118   -411.10871    5212.0947    78.567762 
   99000    333.63496   -114.78342   0.30187992   -114.48154   -1540.3545    4.2789093    4.2789093    4.2789093   -1540.3545   -6001.3996   -5842.8625    7223.1985    570.46148    3985.3113   -541.11913    78.342827 
   99100     325.9045   -114.77587   0.29488524   -114.48098     6839.561    4.2767302    4.2767302    4.2767302     6839.561    9287.1276    671.73486    10559.821    1372.3526   -2889.0186   -535.06217    78.223199 
   99200    310.13272   -114.76254   0.28061461   -114.48193    -2219.047    4.2827963    4.2827963    4.2827963    -2219.047   -5105.7925   -5763.4223    4212.0737   -1779.8705   -2191.4215    3379.3911    78.556523 
   99300    251.72593    -114.7106   0.22776691   -114.48283   -2096.2339     4.276226     4.276226     4.276226   -2096.2339    2390.2724   -4032.7003   -4646.2737   -695.86753    1977.4563    2696.7028    78.195535 
   99400    311.22448   -114.76406   0.28160245   -114.48246   -1372.8007    4.2808879    4.2808879    4.2808879   -1372.8007    -6423.142   -6445.3278    8750.0678    514.18279    3308.3371    632.65926    78.451558 
   99500    324.83861   -114.77543    0.2939208   -114.48151     1778.757    4.2806761    4.2806761    4.2806761     1778.757    5785.4148    -892.1648    443.02103    1852.3794   -2388.6397    -762.7269    78.439913 
   99600    267.87572    -114.7246   0.24237958   -114.48222   -1633.8314    4.2756576    4.2756576    4.2756576   -1633.8314    1168.9399   -4724.5966   -1345.8374   -1929.7102   -2604.0491    4769.0815    78.164354 
   99700     240.8763   -114.70054   0.21794994   -114.48259   -4861.4802    4.2836999    4.2836999    4.2836999   -4861.4802    679.11921   -13642.349   -1621.2106   -248.60288    3075.0902   -113.59344    78.606255 
   99800     336.6489   -114.78552     0.304607   -114.48091    3429.3418    4.2774462    4.2774462    4.2774462    3429.3418   -2601.9292    751.56797    12138.387    1609.9676   -1675.2961   -2392.2798     78.26249 
   99900    295.48887   -114.74884   0.26736454   -114.48148    1792.6533    4.2774201    4.2774201    4.2774201    1792.6533    4710.8181   -6341.2211     7008.363    235.45587    343.68543     2065.537    78.261058 
  100000    231.63717   -114.69196   0.20959018   -114.48237   -7046.3888    4.2837751    4.2837751    4.2837751   -7046.3888   -6959.1516    -14519.24    339.22543   -1626.1181    1459.6722    4253.0114    78.610399 
Loop time of 22.3967 on 1 procs for 100000 steps with 8 atoms

Pair  time (%) = 7.1761 (32.0408)
Kspce time (%) = 5.39581 (24.0919)
Neigh time (%) = 0 (0)
Comm  time (%) = 1.07498 (4.7997)
Outpt time (%) = 0.0233598 (0.1043)
Other time (%) = 8.7265 (38.9633)

Nlocal:    8 ave 8 max 8 min
Histogram: 1 0 0 0 0 0 0 0 0 0
Nghost:    2189 ave 2189 max 2189 min
Histogram: 1 0 0 0 0 0 0 0 0 0
Neighs:    2344 ave 2344 max 2344 min
Histogram: 1 0 0 0 0 0 0 0 0 0

Total # of neighbors = 2344
Ave neighs/atom = 293
Neighbor list builds = 0
Dangerous builds = 0
unfix 20
unfix 21
print "seeds:4584802"
seeds:4584802
