LAMMPS (11 Aug 2017)
# ---- initialize simulations
clear
units metal
dimension 3
boundary p p p
atom_style atomic
atom_modify map array
# ---- create atoms
read_data /home/eragasa/repos/pypospack/examples/Ni__eam__born_exp_rose/preconditioning_3.5NN/rank_118/Ni_fcc.lmps_min_all/lammps.structure
  triclinic box = (0 0 0) to (3.5167 3.5167 3.5167) with tilt (0 -0 0)
  1 by 1 by 1 MPI processor grid
  reading atoms ...
  4 atoms
# ---- define interatomic potential
include potential.mod
mass 1 58.6934

group Ni type 1
4 atoms in group Ni

pair_style eam/alloy
pair_coeff * * /home/eragasa/repos/pypospack/examples/Ni__eam__born_exp_rose/preconditioning_3.5NN/rank_118/Ni_fcc.lmps_min_all/Ni.eam.alloy Ni

neighbor 1.0 bin
neigh_modify every 1 delay 0 check yes
# ---- define settings
compute eng all pe/atom
compute eatoms all reduce sum c_eng
# ---- run minimization
reset_timestep 0
fix 1 all box/relax aniso 0.0 vmax 0.001
thermo 10
thermo_style custom step pe xhi xlo yhi ylo zhi xy xz yz press pxx pyy pzz pxy pxz pyz c_eatoms
min_style cg
minimize 1e-25 1e-25 5000 10000
Neighbor list info ...
  update every 1 steps, delay 0 steps, check yes
  max neighbors/atom: 2000, page size: 100000
  master list distance cutoff = 5.64464
  ghost atom cutoff = 5.64464
  binsize = 2.82232, bins = 2 2 2
  1 neighbor lists, perpetual/occasional/extra = 1 0 0
  (1) pair eam/alloy, perpetual
      attributes: half, newton on
      pair build: half/bin/newton/tri
      stencil: half/bin/3d/newton/tri
      bin: standard
Per MPI rank memory allocation (min/avg/max) = 4.211 | 4.211 | 4.211 Mbytes
Step PotEng Xhi Xlo Yhi Ylo Zhi Xy Xz Yz Press Pxx Pyy Pzz Pxy Pxz Pyz c_eatoms 
       0   -17.812986       3.5167            0       3.5167            0       3.5167            0           -0            0     2615.178     2615.178     2615.178     2615.178 -1.8813624e-10 -1.5950681e-10 -1.6155177e-10   -17.812986 
      10   -17.813058    3.5180584 -0.0013584216    3.5180584 -0.0013584216    3.5180584            0           -0            0    137.08328    137.08328    137.08328    137.08328 -5.8146466e-10 9.7930891e-11 -5.1413718e-10   -17.813058 
      20   -17.813058    3.5180584 -0.0013583832    3.5180584 -0.0013583832    3.5180584            0           -0            0    138.13253    138.13253    138.13253    138.13253 -6.6715424e-10 -5.814647e-10 -4.4884995e-10   -17.813058 
      30   -17.813058    3.5180584 -0.0013583832    3.5180584 -0.0013583832    3.5180584            0           -0            0    138.13401    138.13401    138.13401    138.13401 -1.3281878e-09 -4.4884995e-10 7.5692423e-10   -17.813058 
      40   -17.813058    3.5180584 -0.0013583832    3.5180584 -0.0013583832    3.5180584            0           -0            0    138.13401    138.13401    138.13401    138.13401 -3.0603405e-11 2.6522951e-11 -5.4066016e-10   -17.813058 
      50   -17.813058    3.5180584 -0.0013583832    3.5180584 -0.0013583832    3.5180584            0           -0            0    138.13401    138.13401    138.13401    138.13401 5.8350493e-10 7.6508513e-10 8.2221149e-10   -17.813058 
      60   -17.813058    3.5180584 -0.0013583832    3.5180584 -0.0013583832    3.5180584            0           -0            0    138.13401    138.13401    138.13401    138.13401 -5.508613e-11 1.8362043e-11 -2.2442497e-11   -17.813058 
      70   -17.813058    3.5180584 -0.0013583832    3.5180584 -0.0013583832    3.5180584            0           -0            0    138.13401    138.13401    138.13401    138.13401 5.4474062e-10 1.2078144e-09 7.9568854e-11   -17.813058 
      80   -17.813058    3.5180584 -0.0013583832    3.5180584 -0.0013583832    3.5180584            0           -0            0    138.13401    138.13401    138.13401    138.13401 -5.508613e-11 -7.1407946e-11 -5.508613e-11   -17.813058 
      90   -17.813058    3.5180584 -0.0013583832    3.5180584 -0.0013583832    3.5180584            0           -0            0    138.13401    138.13401    138.13401    138.13401 -2.040227e-12 -1.2241362e-11 -5.9166584e-11   -17.813058 
     100   -17.813058    3.5180584 -0.0013583832    3.5180584 -0.0013583832    3.5180584            0           -0            0    138.13401    138.13401    138.13401    138.13401 -6.2226924e-10 -1.266981e-09 1.6321816e-11   -17.813058 
     110   -17.813058    3.5180584 -0.0013583832    3.5180584 -0.0013583832    3.5180584            0           -0            0    138.13401    138.13401    138.13401    138.13401 -2.040227e-12 1.2445385e-10 -4.5497063e-10   -17.813058 
     120   -17.813058    3.5180584 -0.0013583832    3.5180584 -0.0013583832    3.5180584            0           -0            0    138.13401    138.13401    138.13401    138.13401 1.2241362e-11 6.3247038e-11 2.6522951e-11   -17.813058 
     130   -17.813058    3.5180584 -0.0013583832    3.5180584 -0.0013583832    3.5180584            0           -0            0    138.13401    138.13401    138.13401    138.13401 6.4267151e-10 6.0798765e-10 5.7534402e-10   -17.813058 
     140   -17.813058    3.5180584 -0.0013583832    3.5180584 -0.0013583832    3.5180584            0           -0            0    138.13401    138.13401    138.13401    138.13401 4.080454e-12 7.5080354e-10 2.040227e-12   -17.813058 
     150   -17.813058    3.5180584 -0.0013583832    3.5180584 -0.0013583832    3.5180584            0           -0            0    138.13401    138.13401    138.13401    138.13401 -3.2643632e-11 5.7126357e-10 5.1821766e-10   -17.813058 
     160   -17.813058    3.5180584 -0.0013583832    3.5180584 -0.0013583832    3.5180584            0           -0            0    138.13401    138.13401    138.13401    138.13401 2.8563178e-11 -1.3077855e-09 4.080454e-12   -17.813058 
     170   -17.813058    3.5180584 -0.0013583832    3.5180584 -0.0013583832    3.5180584            0           -0            0    138.13401    138.13401    138.13401    138.13401            0 -5.3045903e-11 -6.1206811e-11   -17.813058 
     180   -17.813058    3.5180584 -0.0013583832    3.5180584 -0.0013583832    3.5180584            0           -0            0    138.13401    138.13401    138.13401    138.13401 -4.8965449e-10 -4.6925222e-11 -3.2643632e-11   -17.813058 
     190   -17.813058    3.5180584 -0.0013583832    3.5180584 -0.0013583832    3.5180584            0           -0            0    138.13401    138.13401    138.13401    138.13401 6.7123469e-10 1.9790202e-10 1.2180155e-09   -17.813058 
     200   -17.813058    3.5180584 -0.0013583832    3.5180584 -0.0013583832    3.5180584            0           -0            0    138.13401    138.13401    138.13401    138.13401 3.4683859e-11            0 1.4281589e-11   -17.813058 
     210   -17.813058    3.5180584 -0.0013583832    3.5180584 -0.0013583832    3.5180584            0           -0            0    138.13401    138.13401    138.13401    138.13401 -5.2637857e-10 1.6321816e-11 3.8764313e-11   -17.813058 
     220   -17.813058    3.5180584 -0.0013583832    3.5180584 -0.0013583832    3.5180584            0           -0            0    138.13401    138.13401    138.13401    138.13401 2.040227e-11 -4.080454e-11 -1.2241362e-11   -17.813058 
     230   -17.813058    3.5180584 -0.0013583832    3.5180584 -0.0013583832    3.5180584            0           -0            0    138.13401    138.13401    138.13401    138.13401 2.2442497e-11 8.1609081e-12 -2.040227e-12   -17.813058 
     240   -17.813058    3.5180584 -0.0013583832    3.5180584 -0.0013583832    3.5180584            0           -0            0    138.13401    138.13401    138.13401    138.13401 1.8362043e-11            0 7.9568854e-11   -17.813058 
     250   -17.813058    3.5180584 -0.0013583832    3.5180584 -0.0013583832    3.5180584            0           -0            0    138.13401    138.13401    138.13401    138.13401 6.0186697e-10 -5.1005676e-11 7.7528627e-11   -17.813058 
     260   -17.813058    3.5180584 -0.0013583832    3.5180584 -0.0013583832    3.5180584            0           -0            0    138.13401    138.13401    138.13401    138.13401 -1.2241362e-11 -1.0201135e-11 -6.1206811e-11   -17.813058 
     270   -17.813058    3.5180584 -0.0013583832    3.5180584 -0.0013583832    3.5180584            0           -0            0    138.13401    138.13401    138.13401    138.13401            0 6.3247038e-11 1.6321816e-11   -17.813058 
     280   -17.813058    3.5180584 -0.0013583832    3.5180584 -0.0013583832    3.5180584            0           -0            0    138.13401    138.13401    138.13401    138.13401 8.1609081e-12 8.1609081e-12 -2.2442497e-11   -17.813058 
     290   -17.813058    3.5180584 -0.0013583832    3.5180584 -0.0013583832    3.5180584            0           -0            0    138.13401    138.13401    138.13401    138.13401 3.6724086e-11 4.8965449e-11 -1.0201135e-11   -17.813058 
     300   -17.813058    3.5180584 -0.0013583832    3.5180584 -0.0013583832    3.5180584            0           -0            0    138.13401    138.13401    138.13401    138.13401 -4.8761426e-10 -4.6721199e-10 4.9373494e-10   -17.813058 
     310   -17.813058    3.5180584 -0.0013583832    3.5180584 -0.0013583832    3.5180584            0           -0            0    138.13401    138.13401    138.13401    138.13401 -2.040227e-12 -1.0201135e-10 -1.3261476e-10   -17.813058 
     320   -17.813058    3.5180584 -0.0013583832    3.5180584 -0.0013583832    3.5180584            0           -0            0    138.13401    138.13401    138.13401    138.13401 -4.8965449e-11 2.8563178e-11 -5.7126357e-11   -17.813058 
     330   -17.813058    3.5180584 -0.0013583832    3.5180584 -0.0013583832    3.5180584            0           -0            0    138.13401    138.13401    138.13401    138.13401 -2.2442497e-11 4.4884995e-11 2.040227e-12   -17.813058 
     340   -17.813058    3.5180584 -0.0013583832    3.5180584 -0.0013583832    3.5180584            0           -0            0    138.13401    138.13401    138.13401    138.13401 -2.6522951e-11 -1.6321816e-11 -5.9574629e-10   -17.813058 
     350   -17.813058    3.5180584 -0.0013583832    3.5180584 -0.0013583832    3.5180584            0           -0            0    138.13401    138.13401    138.13401    138.13401 2.040227e-11 -8.9769989e-11 -6.1206811e-12   -17.813058 
     360   -17.813058    3.5180584 -0.0013583832    3.5180584 -0.0013583832    3.5180584            0           -0            0    138.13401    138.13401    138.13401    138.13401 -1.3383889e-09 -5.814647e-10 -5.1005676e-11   -17.813058 
     370   -17.813058    3.5180584 -0.0013583832    3.5180584 -0.0013583832    3.5180584            0           -0            0    138.13401    138.13401    138.13401    138.13401 -4.9169471e-10 4.2844767e-11  7.54884e-11   -17.813058 
     380   -17.813058    3.5180584 -0.0013583832    3.5180584 -0.0013583832    3.5180584            0           -0            0    138.13401    138.13401    138.13401    138.13401 -6.2226924e-10 6.1206811e-12 -3.8764313e-11   -17.813058 
     390   -17.813058    3.5180584 -0.0013583832    3.5180584 -0.0013583832    3.5180584            0           -0            0    138.13401    138.13401    138.13401    138.13401 4.080454e-12 -7.3040127e-10 -7.3652196e-10   -17.813058 
     400   -17.813058    3.5180584 -0.0013583832    3.5180584 -0.0013583832    3.5180584            0           -0            0    138.13401    138.13401    138.13401    138.13401 -2.040227e-11 -7.5284377e-10 -2.040227e-12   -17.813058 
     410   -17.813058    3.5180584 -0.0013583832    3.5180584 -0.0013583832    3.5180584            0           -0            0    138.13401    138.13401    138.13401    138.13401 -1.0201135e-11 -4.080454e-12 -2.6522951e-11   -17.813058 
     420   -17.813058    3.5180584 -0.0013583832    3.5180584 -0.0013583832    3.5180584            0           -0            0    138.13401    138.13401    138.13401    138.13401 -3.8764313e-11 5.9166584e-11 3.4683859e-11   -17.813058 
     430   -17.813058    3.5180584 -0.0013583832    3.5180584 -0.0013583832    3.5180584            0           -0            0    138.13401    138.13401    138.13401    138.13401 -2.2442497e-11 -3.6724086e-11 -1.1588489e-09   -17.813058 
     440   -17.813058    3.5180584 -0.0013583832    3.5180584 -0.0013583832    3.5180584            0           -0            0    138.13401    138.13401    138.13401    138.13401 2.4482724e-11 5.3045903e-11 6.1206811e-11   -17.813058 
     450   -17.813058    3.5180584 -0.0013583832    3.5180584 -0.0013583832    3.5180584            0           -0            0    138.13401    138.13401    138.13401    138.13401 -6.1206811e-12 4.6925222e-11 5.9166584e-11   -17.813058 
     460   -17.813058    3.5180584 -0.0013583832    3.5180584 -0.0013583832    3.5180584            0           -0            0    138.13401    138.13401    138.13401    138.13401 3.8764313e-11 -1.0201135e-11 2.040227e-11   -17.813058 
     470   -17.813058    3.5180584 -0.0013583832    3.5180584 -0.0013583832    3.5180584            0           -0            0    138.13401    138.13401    138.13401    138.13401 2.6522951e-11 4.080454e-11 -5.2637857e-10   -17.813058 
     480   -17.813058    3.5180584 -0.0013583832    3.5180584 -0.0013583832    3.5180584            0           -0            0    138.13401    138.13401    138.13401    138.13401 -3.0603405e-11 -5.1005676e-11 -1.4077566e-10   -17.813058 
     490   -17.813058    3.5180584 -0.0013583832    3.5180584 -0.0013583832    3.5180584            0           -0            0    138.13401    138.13401    138.13401    138.13401 2.040227e-12 -6.1206811e-12 -5.508613e-11   -17.813058 
     500   -17.813058    3.5180584 -0.0013583832    3.5180584 -0.0013583832    3.5180584            0           -0            0    138.13401    138.13401    138.13401    138.13401 -1.4281589e-11 -1.6321816e-11 -1.464883e-09   -17.813058 
     510   -17.813058    3.5180584 -0.0013583832    3.5180584 -0.0013583832    3.5180584            0           -0            0    138.13401    138.13401    138.13401    138.13401 -8.1609081e-12 5.508613e-10 -6.1206811e-12   -17.813058 
     520   -17.813058    3.5180584 -0.0013583832    3.5180584 -0.0013583832    3.5180584            0           -0            0    138.13401    138.13401    138.13401    138.13401 6.7123469e-10 1.3179867e-09 -3.4683859e-11   -17.813058 
     530   -17.813058    3.5180584 -0.0013583832    3.5180584 -0.0013583832    3.5180584            0           -0            0    138.13401    138.13401    138.13401    138.13401 -6.1206811e-12 -1.2241362e-11 -2.8563178e-11   -17.813058 
     540   -17.813058    3.5180584 -0.0013583832    3.5180584 -0.0013583832    3.5180584            0           -0            0    138.13401    138.13401    138.13401    138.13401 8.1609081e-12 -4.2436722e-10 -4.1008563e-10   -17.813058 
     550   -17.813058    3.5180584 -0.0013583832    3.5180584 -0.0013583832    3.5180584            0           -0            0    138.13401    138.13401    138.13401    138.13401 8.1609081e-12 -1.8362043e-11 -6.5287265e-10   -17.813058 
     560   -17.813058    3.5180584 -0.0013583832    3.5180584 -0.0013583832    3.5180584            0           -0            0    138.13401    138.13401    138.13401    138.13401 -3.2643632e-11 4.1212586e-10 1.0201135e-11   -17.813058 
     570   -17.813058    3.5180584 -0.0013583832    3.5180584 -0.0013583832    3.5180584            0           -0            0    138.13401    138.13401    138.13401    138.13401 -5.8962561e-10 -1.1241651e-09 -3.0603405e-11   -17.813058 
     580   -17.813058    3.5180584 -0.0013583832    3.5180584 -0.0013583832    3.5180584            0           -0            0    138.13401    138.13401    138.13401    138.13401 4.080454e-12 4.8965449e-11 6.7327492e-11   -17.813058 
     590   -17.813058    3.5180584 -0.0013583832    3.5180584 -0.0013583832    3.5180584            0           -0            0    138.13401    138.13401    138.13401    138.13401 9.6094693e-10 4.5497063e-10 -3.6724086e-11   -17.813058 
     600   -17.813058    3.5180584 -0.0013583832    3.5180584 -0.0013583832    3.5180584            0           -0            0    138.13401    138.13401    138.13401    138.13401 2.2442497e-11 6.1206811e-11 8.9769989e-11   -17.813058 
     610   -17.813058    3.5180584 -0.0013583832    3.5180584 -0.0013583832    3.5180584            0           -0            0    138.13401    138.13401    138.13401    138.13401 8.1609081e-12 -1.1425271e-10 -5.3045903e-11   -17.813058 
     620   -17.813058    3.5180584 -0.0013583832    3.5180584 -0.0013583832    3.5180584            0           -0            0    138.13401    138.13401    138.13401    138.13401 -1.3812337e-09 -4.080454e-11 -2.040227e-11   -17.813058 
     630   -17.813058    3.5180584 -0.0013583832    3.5180584 -0.0013583832    3.5180584            0           -0            0    138.13401    138.13401    138.13401    138.13401 -4.2844767e-11 5.7126357e-11 -1.8362043e-11   -17.813058 
     640   -17.813058    3.5180584 -0.0013583832    3.5180584 -0.0013583832    3.5180584            0           -0            0    138.13401    138.13401    138.13401    138.13401            0 -2.040227e-12 -4.2844767e-11   -17.813058 
     650   -17.813058    3.5180584 -0.0013583832    3.5180584 -0.0013583832    3.5180584            0           -0            0    138.13401    138.13401    138.13401    138.13401 1.6321816e-11 -4.2844767e-11 -4.4884995e-11   -17.813058 
     660   -17.813058    3.5180584 -0.0013583832    3.5180584 -0.0013583832    3.5180584            0           -0            0    138.13401    138.13401    138.13401    138.13401 -2.040227e-12 -8.1609081e-12 -8.1609081e-12   -17.813058 
     670   -17.813058    3.5180584 -0.0013583832    3.5180584 -0.0013583832    3.5180584            0           -0            0    138.13401    138.13401    138.13401    138.13401 -9.5482625e-10 -9.5278602e-10 -3.0603405e-11   -17.813058 
     680   -17.813058    3.5180584 -0.0013583832    3.5180584 -0.0013583832    3.5180584            0           -0            0    138.13401    138.13401    138.13401    138.13401 -1.4873255e-09 -9.813492e-10 -7.9568854e-11   -17.813058 
     690   -17.813058    3.5180584 -0.0013583832    3.5180584 -0.0013583832    3.5180584            0           -0            0    138.13401    138.13401    138.13401    138.13401 3.8764313e-11 -2.040227e-11 -4.9781539e-10   -17.813058 
     700   -17.813058    3.5180584 -0.0013583832    3.5180584 -0.0013583832    3.5180584            0           -0            0    138.13401    138.13401    138.13401    138.13401            0 -6.1206811e-12 2.040227e-12   -17.813058 
     710   -17.813058    3.5180584 -0.0013583832    3.5180584 -0.0013583832    3.5180584            0           -0            0    138.13401    138.13401    138.13401    138.13401 6.9367719e-11 -3.6724086e-11 -6.8959673e-10   -17.813058 
     720   -17.813058    3.5180584 -0.0013583832    3.5180584 -0.0013583832    3.5180584            0           -0            0    138.13401    138.13401    138.13401    138.13401 -1.2241362e-11 5.1005676e-11 -1.4383601e-09   -17.813058 
     730   -17.813058    3.5180584 -0.0013583832    3.5180584 -0.0013583832    3.5180584            0           -0            0    138.13401    138.13401    138.13401    138.13401 -7.3856218e-10 -2.570686e-10 -7.4876332e-10   -17.813058 
     740   -17.813058    3.5180584 -0.0013583832    3.5180584 -0.0013583832    3.5180584            0           -0            0    138.13401    138.13401    138.13401    138.13401 1.8362043e-11 5.7126357e-11 3.2643632e-11   -17.813058 
     750   -17.813058    3.5180584 -0.0013583832    3.5180584 -0.0013583832    3.5180584            0           -0            0    138.13401    138.13401    138.13401    138.13401 -4.5089017e-10 6.0594743e-10 6.8143583e-10   -17.813058 
     760   -17.813058    3.5180584 -0.0013583832    3.5180584 -0.0013583832    3.5180584            0           -0            0    138.13401    138.13401    138.13401    138.13401 8.1609081e-12 3.6724086e-11 6.1614856e-10   -17.813058 
     770   -17.813058    3.5180584 -0.0013583832    3.5180584 -0.0013583832    3.5180584            0           -0            0    138.13401    138.13401    138.13401    138.13401 -6.3247038e-11 -3.6724086e-11 2.040227e-12   -17.813058 
     780   -17.813058    3.5180584 -0.0013583832    3.5180584 -0.0013583832    3.5180584            0           -0            0    138.13401    138.13401    138.13401    138.13401 2.040227e-12 -4.080454e-11 -4.080454e-11   -17.813058 
     790   -17.813058    3.5180584 -0.0013583832    3.5180584 -0.0013583832    3.5180584            0           -0            0    138.13401    138.13401    138.13401    138.13401 5.508613e-11 -6.793956e-10 -7.09999e-10   -17.813058 
     800   -17.813058    3.5180584 -0.0013583832    3.5180584 -0.0013583832    3.5180584            0           -0            0    138.13401    138.13401    138.13401    138.13401 -4.080454e-11 -1.2241362e-11 -7.3448173e-11   -17.813058 
     810   -17.813058    3.5180584 -0.0013583832    3.5180584 -0.0013583832    3.5180584            0           -0            0    138.13401    138.13401    138.13401    138.13401 4.080454e-12 1.1629294e-10 3.4683859e-11   -17.813058 
     820   -17.813058    3.5180584 -0.0013583832    3.5180584 -0.0013583832    3.5180584            0           -0            0    138.13401    138.13401    138.13401    138.13401 3.6724086e-11 -4.080454e-12 -2.040227e-12   -17.813058 
     830   -17.813058    3.5180584 -0.0013583832    3.5180584 -0.0013583832    3.5180584            0           -0            0    138.13401    138.13401    138.13401    138.13401 -1.4281589e-11 -1.6321816e-11 -1.8362043e-11   -17.813058 
     840   -17.813058    3.5180584 -0.0013583832    3.5180584 -0.0013583832    3.5180584            0           -0            0    138.13401    138.13401    138.13401    138.13401 -2.040227e-11 -6.1206811e-12 -2.4482724e-11   -17.813058 
     850   -17.813058    3.5180584 -0.0013583832    3.5180584 -0.0013583832    3.5180584            0           -0            0    138.13401    138.13401    138.13401    138.13401 1.2241362e-11 2.040227e-12 7.1203923e-10   -17.813058 
     860   -17.813058    3.5180584 -0.0013583832    3.5180584 -0.0013583832    3.5180584            0           -0            0    138.13401    138.13401    138.13401    138.13401 5.8962561e-10 1.3281878e-09 6.4471174e-10   -17.813058 
     870   -17.813058    3.5180584 -0.0013583832    3.5180584 -0.0013583832    3.5180584            0           -0            0    138.13401    138.13401    138.13401    138.13401 6.1206811e-12 -2.6522951e-11 -4.8965449e-11   -17.813058 
     880   -17.813058    3.5180584 -0.0013583832    3.5180584 -0.0013583832    3.5180584            0           -0            0    138.13401    138.13401    138.13401    138.13401 -6.9775764e-10 -7.6712536e-10 -5.059763e-10   -17.813058 
     890   -17.813058    3.5180584 -0.0013583832    3.5180584 -0.0013583832    3.5180584            0           -0            0    138.13401    138.13401    138.13401    138.13401 6.0594743e-10 5.9166584e-10 -1.5301703e-10   -17.813058 
     900   -17.813058    3.5180584 -0.0013583832    3.5180584 -0.0013583832    3.5180584            0           -0            0    138.13401    138.13401    138.13401    138.13401 -2.040227e-11 4.080454e-12 -6.1206811e-12   -17.813058 
     910   -17.813058    3.5180584 -0.0013583832    3.5180584 -0.0013583832    3.5180584            0           -0            0    138.13401    138.13401    138.13401    138.13401 -6.1206811e-12 -1.1425271e-10 4.080454e-12   -17.813058 
     920   -17.813058    3.5180584 -0.0013583832    3.5180584 -0.0013583832    3.5180584            0           -0            0    138.13401    138.13401    138.13401    138.13401 -4.080454e-12 1.3628717e-09 1.3893946e-09   -17.813058 
     930   -17.813058    3.5180584 -0.0013583832    3.5180584 -0.0013583832    3.5180584            0           -0            0    138.13401    138.13401    138.13401    138.13401 1.2241362e-11 1.0282744e-09 -2.8563178e-11   -17.813058 
     940   -17.813058    3.5180584 -0.0013583832    3.5180584 -0.0013583832    3.5180584            0           -0            0    138.13401    138.13401    138.13401    138.13401 8.1609081e-12 6.6715424e-10 3.6724086e-11   -17.813058 
     950   -17.813058    3.5180584 -0.0013583832    3.5180584 -0.0013583832    3.5180584            0           -0            0    138.13401    138.13401    138.13401    138.13401 -2.8563178e-11 -5.3045903e-11 -1.6321816e-11   -17.813058 
     955   -17.813058    3.5180675 -0.0013674803    3.5180675 -0.0013674803    3.5180675            0           -0            0   -122.24178   -122.24178   -122.24178   -122.24178 1.0200977e-11 -3.8763712e-11 2.0401954e-12   -17.813058 
Loop time of 0.165632 on 1 procs for 955 steps with 4 atoms

99.8% CPU use with 1 MPI tasks x no OpenMP threads

Minimization stats:
  Stopping criterion = max force evaluations
  Energy initial, next-to-last, final = 
        -17.8129862483     -17.8130576977     -17.8130577019
  Force two-norm initial, final = 0.124546 0.0057564
  Force max component initial, final = 0.0709899 0.00332346
  Final line search alpha, max atom move = 0.00416057 1.38275e-05
  Iterations, force evaluations = 955 10009

MPI task timing breakdown:
Section |  min time  |  avg time  |  max time  |%varavg| %total
---------------------------------------------------------------
Pair    | 0.090941   | 0.090941   | 0.090941   |   0.0 | 54.91
Neigh   | 0          | 0          | 0          |   0.0 |  0.00
Comm    | 0.017967   | 0.017967   | 0.017967   |   0.0 | 10.85
Output  | 0.0010421  | 0.0010421  | 0.0010421  |   0.0 |  0.63
Modify  | 0          | 0          | 0          |   0.0 |  0.00
Other   |            | 0.05568    |            |       | 33.62

Nlocal:    4 ave 4 max 4 min
Histogram: 1 0 0 0 0 0 0 0 0 0
Nghost:    360 ave 360 max 360 min
Histogram: 1 0 0 0 0 0 0 0 0 0
Neighs:    156 ave 156 max 156 min
Histogram: 1 0 0 0 0 0 0 0 0 0

Total # of neighbors = 156
Ave neighs/atom = 39
Neighbor list builds = 0
Dangerous builds = 0
# ---- define output variables ----
variable natoms equal "count(all)"
variable tot_energy equal "c_eatoms"
variable a11 equal "xhi-xlo"
variable a22 equal "yhi-ylo"
variable a33 equal "zhi-zlo"
variable tilt_xy equal "xy"
variable tilt_xz equal "xz"
variable tilt_yz equal "yz"
variable tot_press equal "press"
variable press_xx equal "pxx"
variable press_yy equal "pyy"
variable press_zz equal "pzz"
variable press_xy equal "pxy"
variable press_xz equal "pxz"
variable press_yz equal "pyz"

# ---- output ----
print "pypospack:output_section:begin"
pypospack:output_section:begin
print "tot_energy = ${tot_energy}"
tot_energy = -17.813057701858
print "num_atoms = ${natoms}"
num_atoms = 4
print "a11 = ${a11}"
a11 = 3.51943496058996
print "a22 = ${a22}"
a22 = 3.51943496058996
print "a33 = ${a33}"
a33 = 3.51943496058996
print "a12 = ${tilt_xy}"
a12 = 0
print "a13 = ${tilt_xz}"
a13 = -0
print "a23 = ${tilt_yz}"
a23 = 0
print "tot_press = ${tot_press}"
tot_press = -122.241784140671
print "pxx = ${press_xx}"
pxx = -122.241784139224
print "pyy = ${press_yy}"
pyy = -122.241784141097
print "pzz = ${press_zz}"
pzz = -122.241784141691
print "pxy = ${press_xy}"
pxy = 1.02009769075405e-11
print "pxz = ${press_xz}"
pxz = -3.87637122486539e-11
print "pyz = ${press_yz}"
pyz = 2.0401953815081e-12
print "pypospack:output_section:done"
pypospack:output_section:done
print "pypospack:lammps_sim:done"
pypospack:lammps_sim:done
Total wall time: 0:00:00
