# ['Mg', 'O']

40 atoms
2 atom types

    0.0000     4.2640 xlo xhi
    0.0000     4.2640 ylo yhi
    0.0000    42.6398 zlo zhi

    0.0000     0.0000     0.0000 xy xz yz

Atoms

1 1     1.0000     2.1320     2.1320     0.0000
2 1     1.0000     2.1320     0.0000     2.1320
3 1     1.0000     0.0000     0.0000     0.0000
4 1     1.0000     0.0000     2.1320     2.1320
5 1     1.0000     2.1320     2.1320     4.2640
6 1     1.0000     2.1320     0.0000     6.3960
7 1     1.0000     0.0000     0.0000     4.2640
8 1     1.0000     0.0000     2.1320     6.3960
9 1     1.0000     2.1320     2.1320     8.5280
10 1     1.0000     2.1320     0.0000    10.6600
11 1     1.0000     0.0000     0.0000     8.5280
12 1     1.0000     0.0000     2.1320    10.6600
13 1     1.0000     2.1320     2.1320    12.7919
14 1     1.0000     2.1320     0.0000    14.9239
15 1     1.0000     0.0000     0.0000    12.7919
16 1     1.0000     0.0000     2.1320    14.9239
17 1     1.0000     2.1320     2.1320    17.0559
18 1     1.0000     2.1320     0.0000    19.1879
19 1     1.0000     0.0000     0.0000    17.0559
20 1     1.0000     0.0000     2.1320    19.1879
21 2     1.0000     0.0000     2.1320     0.0000
22 2     1.0000     2.1320     0.0000     0.0000
23 2     1.0000     2.1320     2.1320     2.1320
24 2     1.0000     0.0000     0.0000     2.1320
25 2     1.0000     0.0000     2.1320     4.2640
26 2     1.0000     2.1320     0.0000     4.2640
27 2     1.0000     2.1320     2.1320     6.3960
28 2     1.0000     0.0000     0.0000     6.3960
29 2     1.0000     0.0000     2.1320     8.5280
30 2     1.0000     2.1320     0.0000     8.5280
31 2     1.0000     2.1320     2.1320    10.6600
32 2     1.0000     0.0000     0.0000    10.6600
33 2     1.0000     0.0000     2.1320    12.7919
34 2     1.0000     2.1320     0.0000    12.7919
35 2     1.0000     2.1320     2.1320    14.9239
36 2     1.0000     0.0000     0.0000    14.9239
37 2     1.0000     0.0000     2.1320    17.0559
38 2     1.0000     2.1320     0.0000    17.0559
39 2     1.0000     2.1320     2.1320    19.1879
40 2     1.0000     0.0000     0.0000    19.1879
