    2    2    1    1
  0.9639684E+01  0.3009788E-09  0.3009788E-09  0.3009788E-09  0.5000000E-15
  1.000000000000000E-004
  CAR 
 automatically generated by pyflamestk   
      8     10     16
 
  0.1250000E+00  0.1250000E+00  0.1250000E+00  0.3125000E-01
    1      -13.596769   1.000000
    2        2.410373   1.000000
    3        3.255657   1.000000
    4        3.255657   1.000000
    5        8.698906   0.000000
    6       17.308327   0.000000
    7       19.317575   0.000000
    8       19.317578   0.000000
    9       23.529631   0.000000
   10       23.529632   0.000000
   11       24.862160   0.000000
   12       27.257810   0.000000
   13       28.679884   0.000000
   14       28.679885   0.000000
   15       38.891766   0.000000
   16       40.798576   0.000000
 
  0.3750000E+00  0.1250000E+00  0.1250000E+00  0.9375000E-01
    1      -12.947647   1.000000
    2        0.254609   1.000000
    3        2.402047   1.000000
    4        2.961949   1.000000
    5       11.117373   0.000000
    6       15.239336   0.000000
    7       18.616746   0.000000
    8       20.290629   0.000000
    9       22.114007   0.000000
   10       24.329246   0.000000
   11       26.407668   0.000000
   12       31.059592   0.000000
   13       32.313801   0.000000
   14       33.206436   0.000000
   15       35.573699   0.000000
   16       38.845323   0.000000
 
 -0.3750000E+00  0.1250000E+00  0.1250000E+00  0.9375000E-01
    1      -12.514015   1.000000
    2       -0.866711   1.000000
    3        2.253229   1.000000
    4        2.625142   1.000000
    5       11.722779   0.000000
    6       15.416853   0.000000
    7       17.909972   0.000000
    8       19.720928   0.000000
    9       23.697371   0.000000
   10       25.946482   0.000000
   11       26.023427   0.000000
   12       32.285354   0.000000
   13       32.870161   0.000000
   14       33.239075   0.000000
   15       35.793366   0.000000
   16       37.501828   0.000000
 
 -0.1250000E+00  0.1250000E+00  0.1250000E+00  0.9375000E-01
    1      -13.235170   1.000000
    2        1.135657   1.000000
    3        2.888786   1.000000
    4        2.892165   1.000000
    5       10.285885   0.000000
    6       15.495634   0.000000
    7       19.417729   0.000000
    8       19.904822   0.000000
    9       21.069794   0.000000
   10       24.910642   0.000000
   11       26.868889   0.000000
   12       29.950458   0.000000
   13       30.257839   0.000000
   14       30.981505   0.000000
   15       37.177456   0.000000
   16       38.948913   0.000000
 
  0.3750000E+00  0.3750000E+00  0.1250000E+00  0.9375000E-01
    1      -12.713087   1.000000
    2        0.071443   1.000000
    3        2.202861   1.000000
    4        2.433710   1.000000
    5       12.213437   0.000000
    6       13.906686   0.000000
    7       17.159914   0.000000
    8       20.779076   0.000000
    9       21.234680   0.000000
   10       27.083052   0.000000
   11       30.145106   0.000000
   12       30.398641   0.000000
   13       32.327541   0.000000
   14       34.817825   0.000000
   15       36.464723   0.000000
   16       37.868270   0.000000
 
 -0.3750000E+00  0.3750000E+00  0.1250000E+00  0.1875000E+00
    1      -12.303768   1.000000
    2       -0.041992   1.000000
    3        0.951682   1.000000
    4        2.025641   1.000000
    5       13.757328   0.000000
    6       14.765933   0.000000
    7       15.560491   0.000000
    8       19.546137   0.000000
    9       22.990395   0.000000
   10       26.443808   0.000000
   11       29.974376   0.000000
   12       31.398831   0.000000
   13       32.667263   0.000000
   14       36.333073   0.000000
   15       38.880358   0.000000
   16       41.085250   0.000000
 
 -0.1250000E+00  0.3750000E+00  0.1250000E+00  0.1875000E+00
    1      -12.558674   1.000000
    2       -0.246666   1.000000
    3        1.689355   1.000000
    4        2.523891   1.000000
    5       12.582620   0.000000
    6       14.788248   0.000000
    7       16.931161   0.000000
    8       20.116966   0.000000
    9       22.695680   0.000000
   10       25.354267   0.000000
   11       28.862395   0.000000
   12       31.629569   0.000000
   13       32.232564   0.000000
   14       34.881217   0.000000
   15       35.523339   0.000000
   16       41.005860   0.000000
 
 -0.3750000E+00 -0.3750000E+00  0.1250000E+00  0.9375000E-01
    1      -12.339589   1.000000
    2       -0.404162   1.000000
    3        1.687760   1.000000
    4        2.141161   1.000000
    5       12.852629   0.000000
    6       13.485445   0.000000
    7       16.007310   0.000000
    8       21.472075   0.000000
    9       21.484206   0.000000
   10       28.914314   0.000000
   11       29.390851   0.000000
   12       31.962887   0.000000
   13       32.659297   0.000000
   14       37.793124   0.000000
   15       38.168528   0.000000
   16       41.096204   0.000000
 
  0.3750000E+00  0.3750000E+00  0.3750000E+00  0.3125000E-01
    1      -12.749403   1.000000
    2       -0.600170   1.000000
    3        2.818953   1.000000
    4        2.818953   1.000000
    5       10.929018   0.000000
    6       15.429950   0.000000
    7       19.524159   0.000000
    8       19.524161   0.000000
    9       24.069642   0.000000
   10       24.441087   0.000000
   11       24.441090   0.000000
   12       31.898395   0.000000
   13       33.209805   0.000000
   14       33.209808   0.000000
   15       36.838933   0.000000
   16       36.838937   0.000000
 
 -0.3750000E+00  0.3750000E+00  0.3750000E+00  0.9375000E-01
    1      -12.387025   1.000000
    2       -0.283391   1.000000
    3        1.057122   1.000000
    4        2.493882   1.000000
    5       13.072763   0.000000
    6       15.230517   0.000000
    7       16.121117   0.000000
    8       20.426180   0.000000
    9       22.509979   0.000000
   10       25.548471   0.000000
   11       29.074719   0.000000
   12       31.613351   0.000000
   13       32.035867   0.000000
   14       35.363420   0.000000
   15       37.237311   0.000000
   16       40.109785   0.000000
