# ['Ni']

28 atoms
1 atom types

    0.0000     2.5772 xlo xhi
    0.0000     4.4638 ylo yhi
    0.0000    29.4599 zlo zhi

    0.0000     0.0000     0.0000 xy xz yz

Atoms

1 1     0.0000     0.0000     0.0000
2 1     1.2886     2.2319     0.0000
3 1     1.2886     0.7440     2.1043
4 1     0.0000     2.9759     2.1043
5 1     0.0000     1.4879     4.2085
6 1     1.2886     3.7199     4.2085
7 1     0.0000     0.0000     6.3128
8 1     1.2886     2.2319     6.3128
9 1     1.2886     0.7440     8.4171
10 1     0.0000     2.9759     8.4171
11 1     0.0000     1.4879    10.5214
12 1     1.2886     3.7199    10.5214
13 1     0.0000     0.0000    12.6256
14 1     1.2886     2.2319    12.6256
15 1     0.0000     1.4879    14.7299
16 1     1.2886     3.7199    14.7299
17 1     0.0000     0.0000    16.8342
18 1     1.2886     2.2319    16.8342
19 1     1.2886     0.7440    18.9385
20 1     0.0000     2.9759    18.9385
21 1     0.0000     1.4879    21.0428
22 1     1.2886     3.7199    21.0428
23 1     0.0000     0.0000    23.1470
24 1     1.2886     2.2319    23.1470
25 1     1.2886     0.7440    25.2513
26 1     0.0000     2.9759    25.2513
27 1     0.0000     1.4879    27.3556
28 1     1.2886     3.7199    27.3556
