LAMMPS (10 Feb 2015)
# ---- initialize simulations
clear
units metal
dimension 3
boundary p p p
atom_style atomic
atom_modify map array
# ---- create atoms
read_data /Users/eugeneragasa/repos/pypospack/dev/cluster_sampling/dev__cluster_sampling/rank_0/Ni_fcc_isf.lmps_min_sf/lammps.structure
  triclinic box = (0 0 0) to (2.5772 4.4638 29.4599) with tilt (0 0 0)
  1 by 1 by 1 MPI processor grid
  reading atoms ...
  28 atoms
# ---- define interatomic potential
include potential.mod
mass 1 58.6934

group Ni type 1
28 atoms in group Ni

pair_style eam/alloy
pair_coeff * * /Users/eugeneragasa/repos/pypospack/dev/cluster_sampling/dev__cluster_sampling/rank_0/Ni_fcc_isf.lmps_min_sf/Ni.eam.alloy Ni

neighbor 1.0 bin
neigh_modify every 1 delay 0 check yes
# ---- define settings
compute eng all pe/atom
compute eatoms all reduce sum c_eng

# ---- run minimization
reset_timestep 0
thermo 100
thermo_style custom step pe lx ly lz xy xz yz press pxx pyy pzz pxy pxz pyz c_eatoms
fix 1 all box/relax aniso 0.0 vmax 0.001
min_style cg
minimize 1e-25 1e-25 5000 10000
Neighbor list info ...
  1 neighbor list requests
  update every 1 steps, delay 0 steps, check yes
  master list distance cutoff = 5.64464
Memory usage per processor = 3.39011 Mbytes
Step PotEng Lx Ly Lz Xy Xz Yz Press Pxx Pyy Pzz Pxy Pxz Pyz eatoms 
       0   -117.89162       2.5772       4.4638      29.4599            0            0            0     154.0527    208.17872    213.13938    40.840016 3.3787317e-12 8.5780422e-12   -1.2329602   -117.89162 
      44   -117.89163    2.5774958    4.4643539    29.457128            0            0            0  0.011338227  0.038516059 0.0065456024 -0.011046981 8.7735917e-12 7.1172688e-12 0.0076218972   -117.89163 
Loop time of 0.00431108 on 1 procs for 44 steps with 28 atoms

Minimization stats:
  Stopping criterion = energy tolerance
  Energy initial, next-to-last, final = 
        -117.891620838     -117.891626105     -117.891626105
  Force two-norm initial, final = 0.0636427 9.18803e-06
  Force max component initial, final = 0.0450856 8.14758e-06
  Final line search alpha, max atom move = 1 8.14758e-06
  Iterations, force evaluations = 44 88

Pair  time (%) = 0.00317097 (73.5538)
Neigh time (%) = 0 (0)
Comm  time (%) = 0.000253677 (5.8843)
Outpt time (%) = 0 (0)
Other time (%) = 0.00088644 (20.5619)

Nlocal:    28 ave 28 max 28 min
Histogram: 1 0 0 0 0 0 0 0 0 0
Nghost:    700 ave 700 max 700 min
Histogram: 1 0 0 0 0 0 0 0 0 0
Neighs:    760 ave 760 max 760 min
Histogram: 1 0 0 0 0 0 0 0 0 0

Total # of neighbors = 760
Ave neighs/atom = 27.1429
Neighbor list builds = 0
Dangerous builds = 0
unfix 1
fix 2 all setforce 0 0 NULL
min_style cg
minimize 1e-20 1e-20 1000 100000
Memory usage per processor = 3.51511 Mbytes
Step PotEng Lx Ly Lz Xy Xz Yz Press Pxx Pyy Pzz Pxy Pxz Pyz eatoms 
      44   -117.89163    2.5774958    4.4643539    29.457128            0            0            0  0.011338227  0.038516059 0.0065456024 -0.011046981 5.1956354e-12 -5.8993692e-12 0.0076218972   -117.89163 
      49   -117.89163    2.5774958    4.4643539    29.457128            0            0            0  0.011559651  0.038593373 0.0066229157 -0.010537335 -3.5611447e-12 8.5434899e-12 0.0076218991   -117.89163 
Loop time of 0.000428915 on 1 procs for 5 steps with 28 atoms

Minimization stats:
  Stopping criterion = energy tolerance
  Energy initial, next-to-last, final = 
        -117.891626105     -117.891626105     -117.891626105
  Force two-norm initial, final = 2.77255e-06 7.28924e-08
  Force max component initial, final = 1.14514e-06 3.16512e-08
  Final line search alpha, max atom move = 1 3.16512e-08
  Iterations, force evaluations = 5 10

Pair  time (%) = 0.000370741 (86.4369)
Neigh time (%) = 0 (0)
Comm  time (%) = 3.02792e-05 (7.05948)
Outpt time (%) = 0 (0)
Other time (%) = 2.7895e-05 (6.50361)

Nlocal:    28 ave 28 max 28 min
Histogram: 1 0 0 0 0 0 0 0 0 0
Nghost:    700 ave 700 max 700 min
Histogram: 1 0 0 0 0 0 0 0 0 0
Neighs:    760 ave 760 max 760 min
Histogram: 1 0 0 0 0 0 0 0 0 0

Total # of neighbors = 760
Ave neighs/atom = 27.1429
Neighbor list builds = 0
Dangerous builds = 0

# ---- define output variables ----
variable natoms equal "count(all)"
variable tot_energy equal "c_eatoms"
variable a11 equal "xhi-xlo"
variable a22 equal "yhi-ylo"
variable a33 equal "zhi-zlo"
variable tilt_xy equal "xy"
variable tilt_xz equal "xz"
variable tilt_yz equal "yz"
variable tot_press equal "press"
variable press_xx equal "pxx"
variable press_yy equal "pyy"
variable press_zz equal "pzz"
variable press_xy equal "pxy"
variable press_xz equal "pxz"
variable press_yz equal "pyz"

# ---- output ----
print "pypospack:output_section:begin"
pypospack:output_section:begin
print "tot_energy = ${tot_energy}"
tot_energy = -117.891626105133
print "num_atoms = ${natoms}"
num_atoms = 28
print "a11 = ${a11}"
a11 = 2.57749575894276
print "a22 = ${a22}"
a22 = 4.4643538624718
print "a33 = ${a33}"
a33 = 29.4571278418984
print "a12 = ${tilt_xy}"
a12 = 0
print "a13 = ${tilt_xz}"
a13 = 0
print "a23 = ${tilt_yz}"
a23 = 0
print "tot_press = ${tot_press}"
tot_press = 0.011559651266554
print "pxx = ${press_xx}"
pxx = 0.0385933729045219
print "pyy = ${press_yy}"
pyy = 0.00662291572374646
print "pzz = ${press_zz}"
pzz = -0.0105373348286063
print "pxy = ${press_xy}"
pxy = -3.56114473260128e-12
print "pxz = ${press_xz}"
pxz = 8.54348993170128e-12
print "pyz = ${press_yz}"
pyz = 0.00762189911014838
print "pypospack:output_section:done"
pypospack:output_section:done
print "pypospack:lammps_sim:done"
pypospack:lammps_sim:done
