# ['Si']

215 atoms
1 atom types

    0.0000    90.1782 xlo xhi
    0.0000    90.1782 ylo yhi
    0.0000    90.1782 zlo zhi

    0.0000     0.0000     0.0000 xy xz yz

Atoms

1 1     7.5148     7.5148     7.5148
2 1     0.0000    15.0297    15.0297
3 1     7.5148    22.5445    22.5445
4 1    15.0297     0.0000    15.0297
5 1    22.5445     7.5148    22.5445
6 1    15.0297    15.0297     0.0000
7 1    22.5445    22.5445     7.5148
8 1     0.0000     0.0000    30.0594
9 1     7.5148     7.5148    37.5743
10 1     0.0000    15.0297    45.0891
11 1     7.5148    22.5445    52.6039
12 1    15.0297     0.0000    45.0891
13 1    22.5445     7.5148    52.6039
14 1    15.0297    15.0297    30.0594
15 1    22.5445    22.5445    37.5743
16 1     0.0000     0.0000    60.1188
17 1     7.5148     7.5148    67.6336
18 1     0.0000    15.0297    75.1484
19 1     7.5148    22.5445    82.6633
20 1    15.0297     0.0000    75.1484
21 1    22.5445     7.5148    82.6633
22 1    15.0297    15.0297    60.1188
23 1    22.5445    22.5445    67.6336
24 1     0.0000    30.0594     0.0000
25 1     7.5148    37.5743     7.5148
26 1     0.0000    45.0891    15.0297
27 1     7.5148    52.6039    22.5445
28 1    15.0297    30.0594    15.0297
29 1    22.5445    37.5743    22.5445
30 1    15.0297    45.0891     0.0000
31 1    22.5445    52.6039     7.5148
32 1     0.0000    30.0594    30.0594
33 1     7.5148    37.5743    37.5743
34 1     0.0000    45.0891    45.0891
35 1     7.5148    52.6039    52.6039
36 1    15.0297    30.0594    45.0891
37 1    22.5445    37.5743    52.6039
38 1    15.0297    45.0891    30.0594
39 1    22.5445    52.6039    37.5743
40 1     0.0000    30.0594    60.1188
41 1     7.5148    37.5743    67.6336
42 1     0.0000    45.0891    75.1484
43 1     7.5148    52.6039    82.6633
44 1    15.0297    30.0594    75.1484
45 1    22.5445    37.5743    82.6633
46 1    15.0297    45.0891    60.1188
47 1    22.5445    52.6039    67.6336
48 1     0.0000    60.1188     0.0000
49 1     7.5148    67.6336     7.5148
50 1     0.0000    75.1484    15.0297
51 1     7.5148    82.6633    22.5445
52 1    15.0297    60.1188    15.0297
53 1    22.5445    67.6336    22.5445
54 1    15.0297    75.1484     0.0000
55 1    22.5445    82.6633     7.5148
56 1     0.0000    60.1188    30.0594
57 1     7.5148    67.6336    37.5743
58 1     0.0000    75.1484    45.0891
59 1     7.5148    82.6633    52.6039
60 1    15.0297    60.1188    45.0891
61 1    22.5445    67.6336    52.6039
62 1    15.0297    75.1484    30.0594
63 1    22.5445    82.6633    37.5743
64 1     0.0000    60.1188    60.1188
65 1     7.5148    67.6336    67.6336
66 1     0.0000    75.1484    75.1484
67 1     7.5148    82.6633    82.6633
68 1    15.0297    60.1188    75.1484
69 1    22.5445    67.6336    82.6633
70 1    15.0297    75.1484    60.1188
71 1    22.5445    82.6633    67.6336
72 1    30.0594     0.0000     0.0000
73 1    37.5743     7.5148     7.5148
74 1    30.0594    15.0297    15.0297
75 1    37.5743    22.5445    22.5445
76 1    45.0891     0.0000    15.0297
77 1    52.6039     7.5148    22.5445
78 1    45.0891    15.0297     0.0000
79 1    52.6039    22.5445     7.5148
80 1    30.0594     0.0000    30.0594
81 1    37.5743     7.5148    37.5743
82 1    30.0594    15.0297    45.0891
83 1    37.5743    22.5445    52.6039
84 1    45.0891     0.0000    45.0891
85 1    52.6039     7.5148    52.6039
86 1    45.0891    15.0297    30.0594
87 1    52.6039    22.5445    37.5743
88 1    30.0594     0.0000    60.1188
89 1    37.5743     7.5148    67.6336
90 1    30.0594    15.0297    75.1484
91 1    37.5743    22.5445    82.6633
92 1    45.0891     0.0000    75.1484
93 1    52.6039     7.5148    82.6633
94 1    45.0891    15.0297    60.1188
95 1    52.6039    22.5445    67.6336
96 1    30.0594    30.0594     0.0000
97 1    37.5743    37.5743     7.5148
98 1    30.0594    45.0891    15.0297
99 1    37.5743    52.6039    22.5445
100 1    45.0891    30.0594    15.0297
101 1    52.6039    37.5743    22.5445
102 1    45.0891    45.0891     0.0000
103 1    52.6039    52.6039     7.5148
104 1    30.0594    30.0594    30.0594
105 1    37.5743    37.5743    37.5743
106 1    30.0594    45.0891    45.0891
107 1    37.5743    52.6039    52.6039
108 1    45.0891    30.0594    45.0891
109 1    52.6039    37.5743    52.6039
110 1    45.0891    45.0891    30.0594
111 1    52.6039    52.6039    37.5743
112 1    30.0594    30.0594    60.1188
113 1    37.5743    37.5743    67.6336
114 1    30.0594    45.0891    75.1484
115 1    37.5743    52.6039    82.6633
116 1    45.0891    30.0594    75.1484
117 1    52.6039    37.5743    82.6633
118 1    45.0891    45.0891    60.1188
119 1    52.6039    52.6039    67.6336
120 1    30.0594    60.1188     0.0000
121 1    37.5743    67.6336     7.5148
122 1    30.0594    75.1484    15.0297
123 1    37.5743    82.6633    22.5445
124 1    45.0891    60.1188    15.0297
125 1    52.6039    67.6336    22.5445
126 1    45.0891    75.1484     0.0000
127 1    52.6039    82.6633     7.5148
128 1    30.0594    60.1188    30.0594
129 1    37.5743    67.6336    37.5743
130 1    30.0594    75.1484    45.0891
131 1    37.5743    82.6633    52.6039
132 1    45.0891    60.1188    45.0891
133 1    52.6039    67.6336    52.6039
134 1    45.0891    75.1484    30.0594
135 1    52.6039    82.6633    37.5743
136 1    30.0594    60.1188    60.1188
137 1    37.5743    67.6336    67.6336
138 1    30.0594    75.1484    75.1484
139 1    37.5743    82.6633    82.6633
140 1    45.0891    60.1188    75.1484
141 1    52.6039    67.6336    82.6633
142 1    45.0891    75.1484    60.1188
143 1    52.6039    82.6633    67.6336
144 1    60.1188     0.0000     0.0000
145 1    67.6336     7.5148     7.5148
146 1    60.1188    15.0297    15.0297
147 1    67.6336    22.5445    22.5445
148 1    75.1484     0.0000    15.0297
149 1    82.6633     7.5148    22.5445
150 1    75.1484    15.0297     0.0000
151 1    82.6633    22.5445     7.5148
152 1    60.1188     0.0000    30.0594
153 1    67.6336     7.5148    37.5743
154 1    60.1188    15.0297    45.0891
155 1    67.6336    22.5445    52.6039
156 1    75.1484     0.0000    45.0891
157 1    82.6633     7.5148    52.6039
158 1    75.1484    15.0297    30.0594
159 1    82.6633    22.5445    37.5743
160 1    60.1188     0.0000    60.1188
161 1    67.6336     7.5148    67.6336
162 1    60.1188    15.0297    75.1484
163 1    67.6336    22.5445    82.6633
164 1    75.1484     0.0000    75.1484
165 1    82.6633     7.5148    82.6633
166 1    75.1484    15.0297    60.1188
167 1    82.6633    22.5445    67.6336
168 1    60.1188    30.0594     0.0000
169 1    67.6336    37.5743     7.5148
170 1    60.1188    45.0891    15.0297
171 1    67.6336    52.6039    22.5445
172 1    75.1484    30.0594    15.0297
173 1    82.6633    37.5743    22.5445
174 1    75.1484    45.0891     0.0000
175 1    82.6633    52.6039     7.5148
176 1    60.1188    30.0594    30.0594
177 1    67.6336    37.5743    37.5743
178 1    60.1188    45.0891    45.0891
179 1    67.6336    52.6039    52.6039
180 1    75.1484    30.0594    45.0891
181 1    82.6633    37.5743    52.6039
182 1    75.1484    45.0891    30.0594
183 1    82.6633    52.6039    37.5743
184 1    60.1188    30.0594    60.1188
185 1    67.6336    37.5743    67.6336
186 1    60.1188    45.0891    75.1484
187 1    67.6336    52.6039    82.6633
188 1    75.1484    30.0594    75.1484
189 1    82.6633    37.5743    82.6633
190 1    75.1484    45.0891    60.1188
191 1    82.6633    52.6039    67.6336
192 1    60.1188    60.1188     0.0000
193 1    67.6336    67.6336     7.5148
194 1    60.1188    75.1484    15.0297
195 1    67.6336    82.6633    22.5445
196 1    75.1484    60.1188    15.0297
197 1    82.6633    67.6336    22.5445
198 1    75.1484    75.1484     0.0000
199 1    82.6633    82.6633     7.5148
200 1    60.1188    60.1188    30.0594
201 1    67.6336    67.6336    37.5743
202 1    60.1188    75.1484    45.0891
203 1    67.6336    82.6633    52.6039
204 1    75.1484    60.1188    45.0891
205 1    82.6633    67.6336    52.6039
206 1    75.1484    75.1484    30.0594
207 1    82.6633    82.6633    37.5743
208 1    60.1188    60.1188    60.1188
209 1    67.6336    67.6336    67.6336
210 1    60.1188    75.1484    75.1484
211 1    67.6336    82.6633    82.6633
212 1    75.1484    60.1188    75.1484
213 1    82.6633    67.6336    82.6633
214 1    75.1484    75.1484    60.1188
215 1    82.6633    82.6633    67.6336
