# ['Ni']

28 atoms
1 atom types

    0.0000     2.3354 xlo xhi
    0.0000     4.0449 ylo yhi
    0.0000    26.6953 zlo zhi

    0.0000     0.0000     0.0000 xy xz yz

Atoms

1 1     0.0000     0.0000     0.0000
2 1     1.1677     2.0225     0.0000
3 1     1.1677     0.6742     1.9068
4 1     0.0000     2.6966     1.9068
5 1     0.0000     1.3483     3.8136
6 1     1.1677     3.3708     3.8136
7 1     0.0000     0.0000     5.7204
8 1     1.1677     2.0225     5.7204
9 1     1.1677     0.6742     7.6272
10 1     0.0000     2.6966     7.6272
11 1     0.0000     1.3483     9.5340
12 1     1.1677     3.3708     9.5340
13 1     0.0000     0.0000    11.4408
14 1     1.1677     2.0225    11.4408
15 1     0.0000     1.3483    13.3476
16 1     1.1677     3.3708    13.3476
17 1     0.0000     0.0000    15.2545
18 1     1.1677     2.0225    15.2545
19 1     1.1677     0.6742    17.1613
20 1     0.0000     2.6966    17.1613
21 1     0.0000     1.3483    19.0681
22 1     1.1677     3.3708    19.0681
23 1     0.0000     0.0000    20.9749
24 1     1.1677     2.0225    20.9749
25 1     1.1677     0.6742    22.8817
26 1     0.0000     2.6966    22.8817
27 1     0.0000     1.3483    24.7885
28 1     1.1677     3.3708    24.7885
