# ['Ni']

107 atoms
1 atom types

    0.0000    10.5545 xlo xhi
    0.0000    10.5545 ylo yhi
    0.0000    10.5545 zlo zhi

    0.0000    -0.0000    -0.0000 xy xz yz

Atoms

1 1     1.7591     1.7591     0.0000
2 1     1.7591     0.0000     1.7591
3 1     0.0000     1.7591     1.7591
4 1     0.0000     0.0000     3.5182
5 1     1.7591     1.7591     3.5182
6 1     1.7591     0.0000     5.2772
7 1     0.0000     1.7591     5.2772
8 1     0.0000     0.0000     7.0363
9 1     1.7591     1.7591     7.0363
10 1     1.7591     0.0000     8.7954
11 1     0.0000     1.7591     8.7954
12 1     0.0000     3.5182     0.0000
13 1     1.7591     5.2772     0.0000
14 1     1.7591     3.5182     1.7591
15 1     0.0000     5.2772     1.7591
16 1     0.0000     3.5182     3.5182
17 1     1.7591     5.2772     3.5182
18 1     1.7591     3.5182     5.2772
19 1     0.0000     5.2772     5.2772
20 1     0.0000     3.5182     7.0363
21 1     1.7591     5.2772     7.0363
22 1     1.7591     3.5182     8.7954
23 1     0.0000     5.2772     8.7954
24 1     0.0000     7.0363     0.0000
25 1     1.7591     8.7954     0.0000
26 1     1.7591     7.0363     1.7591
27 1     0.0000     8.7954     1.7591
28 1     0.0000     7.0363     3.5182
29 1     1.7591     8.7954     3.5182
30 1     1.7591     7.0363     5.2772
31 1     0.0000     8.7954     5.2772
32 1     0.0000     7.0363     7.0363
33 1     1.7591     8.7954     7.0363
34 1     1.7591     7.0363     8.7954
35 1     0.0000     8.7954     8.7954
36 1     3.5182     0.0000     0.0000
37 1     5.2772     1.7591     0.0000
38 1     5.2772     0.0000     1.7591
39 1     3.5182     1.7591     1.7591
40 1     3.5182     0.0000     3.5182
41 1     5.2772     1.7591     3.5182
42 1     5.2772     0.0000     5.2772
43 1     3.5182     1.7591     5.2772
44 1     3.5182     0.0000     7.0363
45 1     5.2772     1.7591     7.0363
46 1     5.2772     0.0000     8.7954
47 1     3.5182     1.7591     8.7954
48 1     3.5182     3.5182     0.0000
49 1     5.2772     5.2772     0.0000
50 1     5.2772     3.5182     1.7591
51 1     3.5182     5.2772     1.7591
52 1     3.5182     3.5182     3.5182
53 1     5.2772     5.2772     3.5182
54 1     5.2772     3.5182     5.2772
55 1     3.5182     5.2772     5.2772
56 1     3.5182     3.5182     7.0363
57 1     5.2772     5.2772     7.0363
58 1     5.2772     3.5182     8.7954
59 1     3.5182     5.2772     8.7954
60 1     3.5182     7.0363     0.0000
61 1     5.2772     8.7954     0.0000
62 1     5.2772     7.0363     1.7591
63 1     3.5182     8.7954     1.7591
64 1     3.5182     7.0363     3.5182
65 1     5.2772     8.7954     3.5182
66 1     5.2772     7.0363     5.2772
67 1     3.5182     8.7954     5.2772
68 1     3.5182     7.0363     7.0363
69 1     5.2772     8.7954     7.0363
70 1     5.2772     7.0363     8.7954
71 1     3.5182     8.7954     8.7954
72 1     7.0363     0.0000     0.0000
73 1     8.7954     1.7591     0.0000
74 1     8.7954     0.0000     1.7591
75 1     7.0363     1.7591     1.7591
76 1     7.0363     0.0000     3.5182
77 1     8.7954     1.7591     3.5182
78 1     8.7954     0.0000     5.2772
79 1     7.0363     1.7591     5.2772
80 1     7.0363     0.0000     7.0363
81 1     8.7954     1.7591     7.0363
82 1     8.7954     0.0000     8.7954
83 1     7.0363     1.7591     8.7954
84 1     7.0363     3.5182     0.0000
85 1     8.7954     5.2772     0.0000
86 1     8.7954     3.5182     1.7591
87 1     7.0363     5.2772     1.7591
88 1     7.0363     3.5182     3.5182
89 1     8.7954     5.2772     3.5182
90 1     8.7954     3.5182     5.2772
91 1     7.0363     5.2772     5.2772
92 1     7.0363     3.5182     7.0363
93 1     8.7954     5.2772     7.0363
94 1     8.7954     3.5182     8.7954
95 1     7.0363     5.2772     8.7954
96 1     7.0363     7.0363     0.0000
97 1     8.7954     8.7954     0.0000
98 1     8.7954     7.0363     1.7591
99 1     7.0363     8.7954     1.7591
100 1     7.0363     7.0363     3.5182
101 1     8.7954     8.7954     3.5182
102 1     8.7954     7.0363     5.2772
103 1     7.0363     8.7954     5.2772
104 1     7.0363     7.0363     7.0363
105 1     8.7954     8.7954     7.0363
106 1     8.7954     7.0363     8.7954
107 1     7.0363     8.7954     8.7954
