LAMMPS (11 Aug 2017)
Reading data file ...
  triclinic box = (0 0 0) to (3.6 6.2354 5.8788) with tilt (0 0 0)
  1 by 1 by 1 MPI processor grid
  reading atoms ...
  4 atoms
4 atoms in group Ni
Neighbor list info ...
  update every 1 steps, delay 0 steps, check yes
  max neighbors/atom: 2000, page size: 100000
  master list distance cutoff = 11
  ghost atom cutoff = 11
  binsize = 5.5, bins = 1 2 2
  1 neighbor lists, perpetual/occasional/extra = 1 0 0
  (1) pair eam/alloy, perpetual
      attributes: half, newton on
      pair build: half/bin/newton/tri
      stencil: half/bin/3d/newton/tri
      bin: standard
Setting up cg style minimization ...
  Unit style    : metal
  Current step  : 0
WARNING: Energy due to 3 extra global DOFs will be included in minimizer energies
Per MPI rank memory allocation (min/avg/max) = 4.231 | 4.231 | 4.231 Mbytes
Step PotEng Xhi Xlo Yhi Ylo Zhi Xy Xz Yz Press Pxx Pyy Pzz Pxy Pxz Pyz c_eatoms 
       0   -6.1103041          3.6            0       6.2354            0       5.8788            0            0            0   -124155.34   -124111.53   -124111.17   -124243.33 -4.3744355e-12 1.6341756e-11 2.9021973e-11   -6.1103041 
      10   -6.4232377     3.582019  0.017980965    6.2042561  0.031143946     5.849406            0            0            0   -131948.26   -131902.51   -131902.16   -132040.11 1.4127539e-11 -8.2818437e-12 -1.2923264e-12   -6.4232377 
      20   -6.7490243    3.5640379  0.035962103    6.1731118  0.062288197     5.820012            0            0            0   -140105.87   -140058.31   -140057.99    -140201.3 -7.8592369e-13 -2.058357e-12 -3.8702251e-11   -6.7490243 
      30   -7.0878111    3.5460565  0.053943476    6.1419671  0.093432864     5.790618            0            0            0   -148626.62   -148577.45   -148577.15   -148725.26 1.4429989e-12 -1.1634128e-11 -2.5944415e-11   -7.0878111 
      40   -7.4396907    3.5280749  0.071925142     6.110822   0.12457805     5.761224            0            0            0   -157499.84    -157448.6   -157448.33    -157602.6 -8.8728468e-12 1.4339719e-12 -5.838177e-11   -7.4396907 
      50   -7.8046951    3.5100936  0.089906415    6.0796774   0.15572256      5.73183            0            0            0   -166719.99   -166663.87   -166663.63   -166832.46 2.5396779e-12 4.5098444e-12 -2.1350953e-11   -7.8046951 
      60   -8.1827815    3.4921131   0.10788687    6.0485343   0.18686566     5.702436            0            0            0   -176265.64   -176204.28   -176204.08   -176388.55 3.8859187e-12 1.977192e-11 4.711968e-11   -8.1827815 
      70   -8.5738299    3.4741335   0.12586647    6.0173927    0.2180073     5.673042            0            0            0   -186102.04   -186035.03   -186034.88    -186236.2 1.5368637e-12 -1.0839066e-11 -6.048442e-11   -8.5738299 
      80   -8.9776269    3.4561547    0.1438453    5.9862524    0.2491476     5.643648            0            0            0   -196207.88   -196136.56   -196136.46   -196350.63 -1.9499361e-12 -2.443951e-11 -1.7919194e-11   -8.9776269 
      90   -9.3938717     3.438176   0.16182398    5.9551123   0.28028765     5.614254            0            0            0   -206534.51   -206460.22    -206460.2   -206683.11 3.2810779e-13 -2.1738178e-11 -5.9374193e-11   -9.3938717 
     100   -9.8221242    3.4201974   0.17980263    5.9239723   0.31142767      5.58486            0            0            0   -217011.64   -216934.59   -216934.65   -217165.69 -1.6050495e-11 -1.8646411e-11 -1.0362271e-10   -9.8221242 
     110   -10.261805    3.4022187   0.19778131    5.8928322   0.34256775     5.555466            0            0            0    -227584.9   -227505.78   -227505.92      -227743 -1.9557387e-11 -2.2981513e-11 -1.4810464e-11   -10.261805 
     120   -10.712202    3.3842397   0.21576029    5.8616916   0.37370837     5.526072            0            0            0   -238164.31   -238084.55    -238084.8   -238323.58 -1.3736515e-11 2.7039035e-12 3.0708929e-11   -10.712202 
     130   -11.172419      3.36626   0.23373996    5.8305498   0.40485019     5.496678            0            0            0   -248638.15   -248561.31   -248561.68   -248791.47 4.8361625e-12 5.147824e-11 1.1909584e-10   -11.172419 
     140   -11.641366    3.3482791   0.25172093    5.7994057   0.43599428     5.467284            0            0            0   -258873.56   -258800.56   -258801.07   -259019.05 -1.8087812e-11 2.5246806e-11 3.5960472e-11   -11.641366 
     150   -12.117713    3.3302971   0.26970294    5.7682598   0.46714017      5.43789            0            0            0   -268715.13    -268645.4   -268646.06   -268853.92 -1.6444937e-11 -2.9275854e-11 2.1935867e-11   -12.117713 
     160   -12.599872    3.3123141   0.28768585    5.7371123   0.49828766     5.408496            0            0            0   -277957.71   -277891.16   -277891.99   -278089.97 -9.3382969e-12 -3.8460952e-12 6.2525409e-12   -12.599872 
     170   -13.085979    3.2943301   0.30566986    5.7059629   0.52943706     5.379102            0            0            0   -286397.69   -286338.66   -286339.68   -286514.73 1.8695003e-11 3.6643293e-11 1.6362618e-10   -13.085979 
     180   -13.573866    3.2763443   0.32365571    5.6748103   0.56058967     5.349708            0            0            0   -293747.04   -293698.28   -293699.52   -293843.32 2.3278139e-12 -2.0691116e-11 -6.0545831e-11   -13.573866 
     190   -14.060997    3.2583565   0.34164353    5.6436543   0.59174572     5.320314            0            0            0   -299691.38    -299652.4   -299653.87   -299767.86 -3.0921474e-12 -9.562695e-12 2.0068012e-11   -14.060997 
     200   -14.544442    3.2403673   0.35963267    5.6124959   0.62290407      5.29092            0            0            0   -303867.54   -303835.48   -303837.22   -303929.93 6.1029146e-12 3.5909549e-11 1.9069809e-10   -14.544442 
     210    -15.02083    3.2223767   0.37762328     5.581335     0.654065     5.261526            0            0            0   -305814.13   -305792.92   -305794.94   -305854.52 -2.3038642e-11 -2.4866112e-11 -1.3202438e-10    -15.02083 
     220   -15.486301    3.2043844   0.39561563     5.550171   0.68522897     5.232132            0            0            0   -304992.49   -304981.75   -304984.08   -305011.63 1.5029971e-11 -4.1029068e-11 -1.002716e-10   -15.486301 
     230   -15.936436    3.1863902   0.41360983    5.5190038    0.7163962     5.202738            0            0            0   -300837.26   -300838.94    -300841.6   -300831.23 -4.5548859e-12 5.5520619e-11 7.3965655e-11   -15.936436 
     240   -16.366234    3.1683927    0.4316073    5.4878309   0.74756913     5.173344            0            0            0   -292677.84   -292705.98   -292708.99   -292618.56 -1.0776553e-11 -3.7673169e-11 -1.3366043e-10   -16.366234 
     250   -16.769956    3.1503929   0.44960709    5.4566539   0.77874613     5.143955            0            0            0   -279500.92   -279558.91    -279562.3   -279381.54 3.2927278e-11 -2.2391469e-11 -9.9324039e-11   -16.769956 
     260   -17.141091    3.1323932   0.46760684    5.4254769   0.80992313     5.114576            0            0            0   -260520.27   -260604.08   -260607.86   -260348.85 -1.1204345e-11 -4.1205692e-11 -1.3019116e-10   -17.141091 
     270   -17.472356    3.1143935   0.48560654    5.3942999   0.84110013    5.0852088            0            0            0   -234393.23    -234505.2   -234509.37   -234165.11  -1.1982e-11 4.720602e-11 8.973523e-11   -17.472356 
     280    -17.75554    3.0963938   0.50360616    5.3631229   0.87227713    5.0558582            0            0            0   -200056.96    -200195.3   -200199.83   -199775.75 2.2226662e-11 -5.5509383e-12 5.5376337e-11    -17.75554 
     290   -17.981464    3.0783943   0.52160566    5.3319459   0.90345413    5.0265322            0            0            0   -155794.75   -155960.32   -155965.16   -155458.75 -8.6297328e-11 -1.2734833e-12 -1.0928986e-10   -17.981464 
     300   -18.139808    3.0603951   0.53960494    5.3007689   0.93463113    4.9972546            0            0            0   -99908.483    -100097.3   -100102.28   -99525.874 4.0740831e-11 -5.892158e-11 2.7597081e-11   -18.139808 
     310   -18.219103    3.0423965   0.55760352    5.2695919   0.96580813    4.9681298            0            0            0   -30547.494   -30738.383   -30742.922   -30161.178 1.0319088e-10 -4.7752203e-11 2.4900564e-10   -18.219103 
     320   -18.225975    3.0353595    0.5646405    5.2573997   0.97800025    4.9576515            0            0            0   -1.8165727   -2.1699374   -1.0139136    -2.265867 -6.1704266e-11 -1.5705153e-11 -1.2991862e-10   -18.225975 
     330   -18.225975    3.0353577   0.56464231    5.2574023   0.97799772    4.9576502            0            0            0 -0.00044596524 -0.00044882833 -0.00083524716 -5.3820229e-05 9.2641935e-11 6.2823979e-11 -9.7556445e-11   -18.225975 
     340   -18.225975    3.0353577   0.56464231    5.2574023   0.97799771    4.9576502            0            0            0 -1.0618155e-09 -1.6964515e-09 -1.416654e-09 -7.2340893e-11 -9.6921364e-11 -9.8396162e-11 -8.3946931e-11   -18.225975 
Loop time of 0.0247099 on 1 procs for 340 steps with 4 atoms

98.1% CPU use with 1 MPI tasks x no OpenMP threads

Minimization stats:
  Stopping criterion = energy tolerance
  Energy initial, next-to-last, final = 
        -6.11030411794     -18.2259749058     -18.2259749058
  Force two-norm initial, final = 17.7121 9.37383e-14
  Force max component initial, final = 10.2334 6.58449e-14
  Final line search alpha, max atom move = 1 6.58449e-14
  Iterations, force evaluations = 340 367

MPI task timing breakdown:
Section |  min time  |  avg time  |  max time  |%varavg| %total
---------------------------------------------------------------
Pair    | 0.016912   | 0.016912   | 0.016912   |   0.0 | 68.44
Neigh   | 0.00022006 | 0.00022006 | 0.00022006 |   0.0 |  0.89
Comm    | 0.0018001  | 0.0018001  | 0.0018001  |   0.0 |  7.28
Output  | 0.00045323 | 0.00045323 | 0.00045323 |   0.0 |  1.83
Modify  | 0          | 0          | 0          |   0.0 |  0.00
Other   |            | 0.005325   |            |       | 21.55

Nlocal:    4 ave 4 max 4 min
Histogram: 1 0 0 0 0 0 0 0 0 0
Nghost:    1424 ave 1424 max 1424 min
Histogram: 1 0 0 0 0 0 0 0 0 0
Neighs:    848 ave 848 max 848 min
Histogram: 1 0 0 0 0 0 0 0 0 0

Total # of neighbors = 848
Ave neighs/atom = 212
Neighbor list builds = 5
Dangerous builds = 0
pypospack:output_section:begin
tot_energy = -18.2259749057737
num_atoms = 4
a11 = 2.47071538192996
a22 = 4.27940457254461
a33 = 4.03650033774256
a12 = 0
a13 = 0
a23 = 0
tot_press = -1.06181545702825e-09
pxx = -1.69645152410941e-09
pyy = -1.41665395375967e-09
pzz = -7.23408932156834e-11
pxy = -9.69213637569169e-11
pxz = -9.83961622582747e-11
pyz = -8.39469312395471e-11
pypospack:output_section:done
pypospack:lammps_sim:done
Total wall time: 0:00:00
