# ['Ni']

28 atoms
1 atom types

    0.0000     2.3341 xlo xhi
    0.0000     4.0428 ylo yhi
    0.0000    26.6809 zlo zhi

    0.0000     0.0000     0.0000 xy xz yz

Atoms

1 1     0.0000     0.0000     0.0000
2 1     1.1670     2.0214     0.0000
3 1     1.1670     0.6738     1.9058
4 1     0.0000     2.6952     1.9058
5 1     0.0000     1.3476     3.8116
6 1     1.1670     3.3690     3.8116
7 1     0.0000     0.0000     5.7174
8 1     1.1670     2.0214     5.7174
9 1     1.1670     0.6738     7.6231
10 1     0.0000     2.6952     7.6231
11 1     0.0000     1.3476     9.5289
12 1     1.1670     3.3690     9.5289
13 1     0.0000     0.0000    11.4347
14 1     1.1670     2.0214    11.4347
15 1     0.0000     1.3476    13.3405
16 1     1.1670     3.3690    13.3405
17 1     0.0000     0.0000    15.2463
18 1     1.1670     2.0214    15.2463
19 1     1.1670     0.6738    17.1520
20 1     0.0000     2.6952    17.1520
21 1     0.0000     1.3476    19.0578
22 1     1.1670     3.3690    19.0578
23 1     0.0000     0.0000    20.9636
24 1     1.1670     2.0214    20.9636
25 1     1.1670     0.6738    22.8694
26 1     0.0000     2.6952    22.8694
27 1     0.0000     1.3476    24.7751
28 1     1.1670     3.3690    24.7751
