   2   2   0   0
  0.9639684E+01  0.3009788E-09  0.3009788E-09  0.3009788E-09  0.5000000E-15
  1.000000000000000E-004
  CAR 
 automatically generated by pyflamestk   
     44.82628409    -16.51802900  301      3.57223353      1.00000000
    -16.518  0.0000E+00  0.0000E+00
    -16.314  0.0000E+00  0.0000E+00
    -16.109  0.0000E+00  0.0000E+00
    -15.905  0.0000E+00  0.0000E+00
    -15.700  0.0000E+00  0.0000E+00
    -15.496  0.0000E+00  0.0000E+00
    -15.291  0.0000E+00  0.0000E+00
    -15.087  0.0000E+00  0.0000E+00
    -14.882  0.0000E+00  0.0000E+00
    -14.678  0.0000E+00  0.0000E+00
    -14.473  0.0000E+00  0.0000E+00
    -14.269  0.0000E+00  0.0000E+00
    -14.064  0.0000E+00  0.0000E+00
    -13.860  0.2278E-05  0.4658E-06
    -13.655  0.5711E-01  0.1168E-01
    -13.451  0.2568E+00  0.6420E-01
    -13.246  0.4079E+00  0.1476E+00
    -13.042  0.6009E+00  0.2705E+00
    -12.837  0.8844E+00  0.4513E+00
    -12.633  0.1369E+01  0.7313E+00
    -12.428  0.2810E+01  0.1306E+01
    -12.224  0.3346E+01  0.1990E+01
    -12.019  0.4875E-01  0.2000E+01
    -11.815  0.0000E+00  0.2000E+01
    -11.610  0.0000E+00  0.2000E+01
    -11.406  0.0000E+00  0.2000E+01
    -11.202  0.0000E+00  0.2000E+01
    -10.997  0.0000E+00  0.2000E+01
    -10.793  0.0000E+00  0.2000E+01
    -10.588  0.0000E+00  0.2000E+01
    -10.384  0.0000E+00  0.2000E+01
    -10.179  0.0000E+00  0.2000E+01
     -9.975  0.0000E+00  0.2000E+01
     -9.770  0.0000E+00  0.2000E+01
     -9.566  0.0000E+00  0.2000E+01
     -9.361  0.0000E+00  0.2000E+01
     -9.157  0.0000E+00  0.2000E+01
     -8.952  0.0000E+00  0.2000E+01
     -8.748  0.0000E+00  0.2000E+01
     -8.543  0.0000E+00  0.2000E+01
     -8.339  0.0000E+00  0.2000E+01
     -8.134  0.0000E+00  0.2000E+01
     -7.930  0.0000E+00  0.2000E+01
     -7.725  0.0000E+00  0.2000E+01
     -7.521  0.0000E+00  0.2000E+01
     -7.316  0.0000E+00  0.2000E+01
     -7.112  0.0000E+00  0.2000E+01
     -6.907  0.0000E+00  0.2000E+01
     -6.703  0.0000E+00  0.2000E+01
     -6.498  0.0000E+00  0.2000E+01
     -6.294  0.0000E+00  0.2000E+01
     -6.089  0.0000E+00  0.2000E+01
     -5.885  0.0000E+00  0.2000E+01
     -5.681  0.0000E+00  0.2000E+01
     -5.476  0.0000E+00  0.2000E+01
     -5.272  0.0000E+00  0.2000E+01
     -5.067  0.0000E+00  0.2000E+01
     -4.863  0.0000E+00  0.2000E+01
     -4.658  0.0000E+00  0.2000E+01
     -4.454  0.0000E+00  0.2000E+01
     -4.249  0.0000E+00  0.2000E+01
     -4.045  0.0000E+00  0.2000E+01
     -3.840  0.0000E+00  0.2000E+01
     -3.636  0.0000E+00  0.2000E+01
     -3.431  0.0000E+00  0.2000E+01
     -3.227  0.0000E+00  0.2000E+01
     -3.022  0.0000E+00  0.2000E+01
     -2.818  0.0000E+00  0.2000E+01
     -2.613  0.0000E+00  0.2000E+01
     -2.409  0.0000E+00  0.2000E+01
     -2.204  0.0000E+00  0.2000E+01
     -2.000  0.0000E+00  0.2000E+01
     -1.795  0.0000E+00  0.2000E+01
     -1.591  0.0000E+00  0.2000E+01
     -1.386  0.0000E+00  0.2000E+01
     -1.182  0.1394E-03  0.2000E+01
     -0.977  0.1279E+00  0.2026E+01
     -0.773  0.3719E+00  0.2102E+01
     -0.569  0.6671E+00  0.2239E+01
     -0.364  0.1196E+01  0.2483E+01
     -0.160  0.2371E+01  0.2968E+01
      0.045  0.2084E+01  0.3394E+01
      0.249  0.8489E+00  0.3568E+01
      0.454  0.6516E+00  0.3701E+01
      0.658  0.6363E+00  0.3831E+01
      0.863  0.7407E+00  0.3983E+01
      1.067  0.8499E+00  0.4156E+01
      1.272  0.9669E+00  0.4354E+01
      1.476  0.8627E+00  0.4530E+01
      1.681  0.1125E+01  0.4761E+01
      1.885  0.1321E+01  0.5031E+01
      2.090  0.2032E+01  0.5446E+01
      2.294  0.2646E+01  0.5987E+01
      2.499  0.2837E+01  0.6567E+01
      2.703  0.2916E+01  0.7164E+01
      2.908  0.2178E+01  0.7609E+01
      3.112  0.1201E+01  0.7855E+01
      3.317  0.6574E+00  0.7989E+01
      3.521  0.5375E-01  0.8000E+01
      3.726  0.5186E-08  0.8000E+01
      3.930  0.0000E+00  0.8000E+01
      4.135  0.0000E+00  0.8000E+01
      4.339  0.0000E+00  0.8000E+01
      4.544  0.0000E+00  0.8000E+01
      4.748  0.0000E+00  0.8000E+01
      4.952  0.0000E+00  0.8000E+01
      5.157  0.0000E+00  0.8000E+01
      5.361  0.0000E+00  0.8000E+01
      5.566  0.0000E+00  0.8000E+01
      5.770  0.0000E+00  0.8000E+01
      5.975  0.0000E+00  0.8000E+01
      6.179  0.0000E+00  0.8000E+01
      6.384  0.0000E+00  0.8000E+01
      6.588  0.0000E+00  0.8000E+01
      6.793  0.0000E+00  0.8000E+01
      6.997  0.0000E+00  0.8000E+01
      7.202  0.0000E+00  0.8000E+01
      7.406  0.0000E+00  0.8000E+01
      7.611  0.0000E+00  0.8000E+01
      7.815  0.5985E-06  0.8000E+01
      8.020  0.1882E-01  0.8004E+01
      8.224  0.7423E-03  0.8004E+01
      8.429  0.5510E-01  0.8015E+01
      8.633  0.4070E-02  0.8016E+01
      8.838  0.5818E-01  0.8028E+01
      9.042  0.3562E-01  0.8035E+01
      9.247  0.4577E-01  0.8045E+01
      9.451  0.1163E+00  0.8068E+01
      9.656  0.5668E-01  0.8080E+01
      9.860  0.8455E-01  0.8097E+01
     10.065  0.1568E+00  0.8129E+01
     10.269  0.1297E+00  0.8156E+01
     10.473  0.2003E+00  0.8197E+01
     10.678  0.9956E-01  0.8217E+01
     10.882  0.2659E+00  0.8272E+01
     11.087  0.3001E+00  0.8333E+01
     11.291  0.4667E+00  0.8428E+01
     11.496  0.3880E+00  0.8508E+01
     11.700  0.4467E+00  0.8599E+01
     11.905  0.5764E+00  0.8717E+01
     12.109  0.3480E+00  0.8788E+01
     12.314  0.5663E+00  0.8904E+01
     12.518  0.5119E+00  0.9009E+01
     12.723  0.5408E+00  0.9119E+01
     12.927  0.1056E+01  0.9335E+01
     13.132  0.6449E+00  0.9467E+01
     13.336  0.1354E+01  0.9744E+01
     13.541  0.6511E+00  0.9877E+01
     13.745  0.6666E+00  0.1001E+02
     13.950  0.8227E+00  0.1018E+02
     14.154  0.3214E+00  0.1025E+02
     14.359  0.8722E+00  0.1043E+02
     14.563  0.5836E+00  0.1054E+02
     14.768  0.9939E+00  0.1075E+02
     14.972  0.1027E+01  0.1096E+02
     15.177  0.2087E+01  0.1138E+02
     15.381  0.1549E+01  0.1170E+02
     15.585  0.1397E+01  0.1199E+02
     15.790  0.9859E+00  0.1219E+02
     15.994  0.9337E+00  0.1238E+02
     16.199  0.9229E+00  0.1257E+02
     16.403  0.7126E+00  0.1271E+02
     16.608  0.5226E+00  0.1282E+02
     16.812  0.3713E+00  0.1290E+02
     17.017  0.7514E+00  0.1305E+02
     17.221  0.3955E+00  0.1313E+02
     17.426  0.2847E+00  0.1319E+02
     17.630  0.2519E+00  0.1324E+02
     17.835  0.5533E+00  0.1335E+02
     18.039  0.4724E+00  0.1345E+02
     18.244  0.1673E+00  0.1349E+02
     18.448  0.2263E+00  0.1353E+02
     18.653  0.4008E+00  0.1361E+02
     18.857  0.4515E+00  0.1371E+02
     19.062  0.4274E+00  0.1379E+02
     19.266  0.5404E+00  0.1390E+02
     19.471  0.9861E+00  0.1411E+02
     19.675  0.1069E+01  0.1432E+02
     19.880  0.1619E+01  0.1465E+02
     20.084  0.1379E+01  0.1494E+02
     20.289  0.1543E+01  0.1525E+02
     20.493  0.1666E+01  0.1559E+02
     20.698  0.1062E+01  0.1581E+02
     20.902  0.3880E+00  0.1589E+02
     21.106  0.5847E+00  0.1601E+02
     21.311  0.6336E+00  0.1614E+02
     21.515  0.8899E+00  0.1632E+02
     21.720  0.4251E+00  0.1641E+02
     21.924  0.1123E+01  0.1664E+02
     22.129  0.8253E+00  0.1681E+02
     22.333  0.5053E+00  0.1691E+02
     22.538  0.8757E+00  0.1709E+02
     22.742  0.5727E+00  0.1721E+02
     22.947  0.1838E+00  0.1724E+02
     23.151  0.8377E+00  0.1741E+02
     23.356  0.7245E+00  0.1756E+02
     23.560  0.6733E+00  0.1770E+02
     23.765  0.4840E+00  0.1780E+02
     23.969  0.5169E+00  0.1790E+02
     24.174  0.7291E+00  0.1805E+02
     24.378  0.8865E+00  0.1824E+02
     24.583  0.6715E+00  0.1837E+02
     24.787  0.7384E+00  0.1852E+02
     24.992  0.7163E+00  0.1867E+02
     25.196  0.1066E+01  0.1889E+02
     25.401  0.1168E+01  0.1913E+02
     25.605  0.9237E+00  0.1932E+02
     25.810  0.3004E+00  0.1938E+02
     26.014  0.7786E+00  0.1954E+02
     26.219  0.4221E+00  0.1962E+02
     26.423  0.5523E+00  0.1974E+02
     26.627  0.5872E+00  0.1986E+02
     26.832  0.1016E+01  0.2006E+02
     27.036  0.2702E+00  0.2012E+02
     27.241  0.3992E+00  0.2020E+02
     27.445  0.4153E+00  0.2029E+02
     27.650  0.8142E+00  0.2045E+02
     27.854  0.4739E+00  0.2055E+02
     28.059  0.3915E+00  0.2063E+02
     28.263  0.7061E+00  0.2077E+02
     28.468  0.2702E+00  0.2083E+02
     28.672  0.4045E+00  0.2091E+02
     28.877  0.9906E+00  0.2111E+02
     29.081  0.7140E+00  0.2126E+02
     29.286  0.6039E+00  0.2138E+02
     29.490  0.7103E+00  0.2153E+02
     29.695  0.5477E+00  0.2164E+02
     29.899  0.1016E+01  0.2185E+02
     30.104  0.1128E+01  0.2208E+02
     30.308  0.1174E+01  0.2232E+02
     30.513  0.5910E+00  0.2244E+02
     30.717  0.1036E+01  0.2265E+02
     30.922  0.1019E+01  0.2286E+02
     31.126  0.1306E+01  0.2313E+02
     31.331  0.1507E+01  0.2343E+02
     31.535  0.1792E+01  0.2380E+02
     31.739  0.1424E+01  0.2409E+02
     31.944  0.1625E+01  0.2442E+02
     32.148  0.2026E+01  0.2484E+02
     32.353  0.2076E+01  0.2526E+02
     32.557  0.1567E+01  0.2558E+02
     32.762  0.1000E+01  0.2579E+02
     32.966  0.1021E+01  0.2600E+02
     33.171  0.8028E+00  0.2616E+02
     33.375  0.8171E+00  0.2633E+02
     33.580  0.4101E+00  0.2641E+02
     33.784  0.7210E+00  0.2656E+02
     33.989  0.6815E+00  0.2670E+02
     34.193  0.6221E+00  0.2683E+02
     34.398  0.5150E+00  0.2693E+02
     34.602  0.3178E+00  0.2700E+02
     34.807  0.4674E+00  0.2709E+02
     35.011  0.5927E+00  0.2721E+02
     35.216  0.7348E+00  0.2736E+02
     35.420  0.8416E+00  0.2754E+02
     35.625  0.1039E+01  0.2775E+02
     35.829  0.7578E+00  0.2790E+02
     36.034  0.9108E+00  0.2809E+02
     36.238  0.5807E+00  0.2821E+02
     36.443  0.6753E+00  0.2835E+02
     36.647  0.1411E+01  0.2863E+02
     36.852  0.8766E+00  0.2881E+02
     37.056  0.8072E+00  0.2898E+02
     37.260  0.8082E+00  0.2914E+02
     37.465  0.5603E+00  0.2926E+02
     37.669  0.7377E+00  0.2941E+02
     37.874  0.6746E+00  0.2955E+02
     38.078  0.8921E+00  0.2973E+02
     38.283  0.8944E+00  0.2991E+02
     38.487  0.3880E+00  0.2999E+02
     38.692  0.8151E+00  0.3016E+02
     38.896  0.1194E+01  0.3040E+02
     39.101  0.5006E+00  0.3051E+02
     39.305  0.1325E+00  0.3053E+02
     39.510  0.8034E+00  0.3070E+02
     39.714  0.1050E+01  0.3091E+02
     39.919  0.6956E+00  0.3105E+02
     40.123  0.3685E+00  0.3113E+02
     40.328  0.3115E+00  0.3119E+02
     40.532  0.5773E+00  0.3131E+02
     40.737  0.7193E+00  0.3146E+02
     40.941  0.4324E+00  0.3155E+02
     41.146  0.6638E+00  0.3168E+02
     41.350  0.5002E+00  0.3178E+02
     41.555  0.4038E+00  0.3187E+02
     41.759  0.3425E+00  0.3194E+02
     41.964  0.1472E+00  0.3197E+02
     42.168  0.1605E+00  0.3200E+02
     42.373  0.1368E-04  0.3200E+02
     42.577  0.0000E+00  0.3200E+02
     42.781  0.0000E+00  0.3200E+02
     42.986  0.0000E+00  0.3200E+02
     43.190  0.0000E+00  0.3200E+02
     43.395  0.0000E+00  0.3200E+02
     43.599  0.0000E+00  0.3200E+02
     43.804  0.0000E+00  0.3200E+02
     44.008  0.0000E+00  0.3200E+02
     44.213  0.0000E+00  0.3200E+02
     44.417  0.0000E+00  0.3200E+02
     44.622  0.0000E+00  0.3200E+02
     44.826  0.0000E+00  0.3200E+02
