    2    2    1    1
  0.9639684E+01  0.3009788E-09  0.3009788E-09  0.3009788E-09  0.5000000E-15
  1.000000000000000E-004
  CAR 
 automatically generated by pyflamestk   
      8    110     16
 
  0.5000000E-01  0.5000000E-01  0.5000000E-01  0.2000000E-02
    1      -13.729651   1.000000
    2        3.175515   1.000000
    3        3.339150   1.000000
    4        3.339150   1.000000
    5        7.956925   0.000000
    6       18.566087   0.000000
    7       19.039013   0.000000
    8       19.039016   0.000000
    9       23.343807   0.000000
   10       24.285225   0.000000
   11       24.285225   0.000000
   12       26.982603   0.000000
   13       27.368275   0.000000
   14       27.368276   0.000000
   15       40.278703   0.000000
   16       40.936293   0.000000
 
  0.1500000E+00  0.5000000E-01  0.5000000E-01  0.6000000E-02
    1      -13.598873   1.000000
    2        2.432732   1.000000
    3        3.190139   1.000000
    4        3.285265   1.000000
    5        8.717882   0.000000
    6       17.285653   0.000000
    7       19.273657   0.000000
    8       19.357815   0.000000
    9       23.053340   0.000000
   10       23.952813   0.000000
   11       25.023766   0.000000
   12       27.442442   0.000000
   13       28.128866   0.000000
   14       29.003352   0.000000
   15       38.892848   0.000000
   16       40.547284   0.000000
 
  0.2500000E+00  0.5000000E-01  0.5000000E-01  0.6000000E-02
    1      -13.305053   1.000000
    2        1.171370   1.000000
    3        2.982187   1.000000
    4        3.127717   1.000000
    5        9.904171   0.000000
    6       15.952388   0.000000
    7       19.520202   0.000000
    8       19.855023   0.000000
    9       22.395816   0.000000
   10       23.599718   0.000000
   11       25.388193   0.000000
   12       29.709895   0.000000
   13       30.410545   0.000000
   14       30.917138   0.000000
   15       37.095803   0.000000
   16       39.672921   0.000000
 
  0.3500000E+00  0.5000000E-01  0.5000000E-01  0.6000000E-02
    1      -12.936828   1.000000
    2       -0.032584   1.000000
    3        2.783218   1.000000
    4        2.934990   1.000000
    5       10.793844   0.000000
    6       15.384788   0.000000
    7       19.379649   0.000000
    8       19.787252   0.000000
    9       23.150177   0.000000
   10       24.188078   0.000000
   11       24.792096   0.000000
   12       32.032487   0.000000
   13       32.454091   0.000000
   14       32.473176   0.000000
   15       36.875079   0.000000
   16       38.003994   0.000000
 
  0.4500000E+00  0.5000000E-01  0.5000000E-01  0.6000000E-02
    1      -12.634751   1.000000
    2       -0.857602   1.000000
    3        2.659050   1.000000
    4        2.780753   1.000000
    5       11.129982   0.000000
    6       15.478635   0.000000
    7       19.107219   0.000000
    8       19.496819   0.000000
    9       24.304349   0.000000
   10       24.636278   0.000000
   11       25.116077   0.000000
   12       31.836711   0.000000
   13       33.202905   0.000000
   14       33.879709   0.000000
   15       35.187788   0.000000
   16       37.023359   0.000000
 
 -0.4500000E+00  0.5000000E-01  0.5000000E-01  0.6000000E-02
    1      -12.545267   1.000000
    2       -1.082089   1.000000
    3        2.647920   1.000000
    4        2.716998   1.000000
    5       11.174121   0.000000
    6       15.577932   0.000000
    7       19.021251   0.000000
    8       19.408320   0.000000
    9       24.174533   0.000000
   10       25.154436   0.000000
   11       25.538419   0.000000
   12       31.608840   0.000000
   13       33.405618   0.000000
   14       33.624380   0.000000
   15       35.469325   0.000000
   16       35.860764   0.000000
 
 -0.3500000E+00  0.5000000E-01  0.5000000E-01  0.6000000E-02
    1      -12.718163   1.000000
    2       -0.641640   1.000000
    3        2.752838   1.000000
    4        2.763352   1.000000
    5       11.065311   0.000000
    6       15.405622   0.000000
    7       19.209812   0.000000
    8       19.551384   0.000000
    9       23.964415   0.000000
   10       24.475675   0.000000
   11       25.027593   0.000000
   12       31.990339   0.000000
   13       32.967661   0.000000
   14       33.612829   0.000000
   15       35.699507   0.000000
   16       37.718457   0.000000
 
 -0.2500000E+00  0.5000000E-01  0.5000000E-01  0.6000000E-02
    1      -13.060010   1.000000
    2        0.339797   1.000000
    3        2.906107   1.000000
    4        2.939549   1.000000
    5       10.558586   0.000000
    6       15.466394   0.000000
    7       19.577057   0.000000
    8       19.739373   0.000000
    9       22.682193   0.000000
   10       24.052308   0.000000
   11       24.974008   0.000000
   12       31.657524   0.000000
   13       31.786265   0.000000
   14       31.972506   0.000000
   15       36.867873   0.000000
   16       38.153443   0.000000
 
 -0.1500000E+00  0.5000000E-01  0.5000000E-01  0.6000000E-02
    1      -13.416825   1.000000
    2        1.608210   1.000000
    3        3.096123   1.000000
    4        3.142612   1.000000
    5        9.515414   0.000000
    6       16.310370   0.000000
    7       19.594119   0.000000
    8       19.606278   0.000000
    9       22.318825   0.000000
   10       23.829781   0.000000
   11       25.499727   0.000000
   12       28.767014   0.000000
   13       29.575267   0.000000
   14       30.238235   0.000000
   15       37.714785   0.000000
   16       40.017021   0.000000
 
 -0.5000000E-01  0.5000000E-01  0.5000000E-01  0.6000000E-02
    1      -13.663339   1.000000
    2        2.797971   1.000000
    3        3.265124   1.000000
    4        3.281675   1.000000
    5        8.374007   0.000000
    6       17.790829   0.000000
    7       19.188816   0.000000
    8       19.190980   0.000000
    9       23.225124   0.000000
   10       24.410434   0.000000
   11       24.458616   0.000000
   12       27.200096   0.000000
   13       27.596680   0.000000
   14       28.344249   0.000000
   15       39.559523   0.000000
   16       40.706234   0.000000
 
  0.1500000E+00  0.1500000E+00  0.5000000E-01  0.6000000E-02
    1      -13.536262   1.000000
    2        2.234041   1.000000
    3        3.127909   1.000000
    4        3.141343   1.000000
    5        9.059219   0.000000
    6       16.773683   0.000000
    7       19.459155   0.000000
    8       19.465999   0.000000
    9       21.880944   0.000000
   10       24.799675   0.000000
   11       25.973136   0.000000
   12       27.800682   0.000000
   13       28.060337   0.000000
   14       29.388121   0.000000
   15       38.767769   0.000000
   16       40.245827   0.000000
 
  0.2500000E+00  0.1500000E+00  0.5000000E-01  0.1200000E-01
    1      -13.304186   1.000000
    2        1.366412   1.000000
    3        2.842425   1.000000
    4        3.021114   1.000000
    5       10.059571   0.000000
    6       15.703145   0.000000
    7       19.410505   0.000000
    8       20.004395   0.000000
    9       21.005364   0.000000
   10       24.788915   0.000000
   11       27.049967   0.000000
   12       29.035278   0.000000
   13       30.000196   0.000000
   14       30.719105   0.000000
   15       37.297771   0.000000
   16       39.523264   0.000000
 
  0.3500000E+00  0.1500000E+00  0.5000000E-01  0.1200000E-01
    1      -12.970337   1.000000
    2        0.328817   1.000000
    3        2.551541   1.000000
    4        2.830667   1.000000
    5       11.103119   0.000000
    6       15.078849   0.000000
    7       18.674623   0.000000
    8       20.093301   0.000000
    9       21.740300   0.000000
   10       25.038341   0.000000
   11       26.720671   0.000000
   12       31.319315   0.000000
   13       31.828821   0.000000
   14       32.836589   0.000000
   15       36.272922   0.000000
   16       37.923169   0.000000
 
  0.4500000E+00  0.1500000E+00  0.5000000E-01  0.1200000E-01
    1      -12.653196   1.000000
    2       -0.506344   1.000000
    3        2.309960   1.000000
    4        2.668578   1.000000
    5       11.673354   0.000000
    6       15.173585   0.000000
    7       18.030570   0.000000
    8       19.867876   0.000000
    9       22.993410   0.000000
   10       25.549636   0.000000
   11       26.446033   0.000000
   12       32.042014   0.000000
   13       32.896654   0.000000
   14       34.174740   0.000000
   15       34.629841   0.000000
   16       39.431261   0.000000
 
 -0.4500000E+00  0.1500000E+00  0.5000000E-01  0.1200000E-01
    1      -12.494047   1.000000
    2       -0.883758   1.000000
    3        2.166455   1.000000
    4        2.619733   1.000000
    5       11.816427   0.000000
    6       15.450594   0.000000
    7       17.769221   0.000000
    8       19.715401   0.000000
    9       24.014935   0.000000
   10       25.320769   0.000000
   11       26.464462   0.000000
   12       32.569734   0.000000
   13       32.796354   0.000000
   14       32.996806   0.000000
   15       36.373694   0.000000
   16       37.026841   0.000000
 
 -0.3500000E+00  0.1500000E+00  0.5000000E-01  0.1200000E-01
    1      -12.576460   1.000000
    2       -0.684371   1.000000
    3        2.166597   1.000000
    4        2.699631   1.000000
    5       11.770270   0.000000
    6       15.331731   0.000000
    7       17.894671   0.000000
    8       19.803010   0.000000
    9       23.920658   0.000000
   10       24.860269   0.000000
   11       26.321809   0.000000
   12       32.470326   0.000000
   13       32.728064   0.000000
   14       34.161549   0.000000
   15       34.709719   0.000000
   16       38.773063   0.000000
 
 -0.2500000E+00  0.1500000E+00  0.5000000E-01  0.1200000E-01
    1      -12.855931   1.000000
    2        0.021573   1.000000
    3        2.332203   1.000000
    4        2.872242   1.000000
    5       11.371146   0.000000
    6       15.137026   0.000000
    7       18.392126   0.000000
    8       20.145171   0.000000
    9       22.363656   0.000000
   10       24.681666   0.000000
   11       26.522881   0.000000
   12       31.686898   0.000000
   13       32.323927   0.000000
   14       33.456856   0.000000
   15       35.708422   0.000000
   16       38.666089   0.000000
 
 -0.1500000E+00  0.1500000E+00  0.5000000E-01  0.1200000E-01
    1      -13.199455   1.000000
    2        0.999060   1.000000
    3        2.647869   1.000000
    4        3.065497   1.000000
    5       10.416873   0.000000
    6       15.550827   0.000000
    7       19.054331   0.000000
    8       20.360059   0.000000
    9       21.316232   0.000000
   10       24.259420   0.000000
   11       26.832010   0.000000
   12       29.418243   0.000000
   13       31.387779   0.000000
   14       31.444601   0.000000
   15       36.267987   0.000000
   16       39.516897   0.000000
 
 -0.5000000E-01  0.1500000E+00  0.5000000E-01  0.1200000E-01
    1      -13.475522   1.000000
    2        1.918833   1.000000
    3        3.040814   1.000000
    4        3.192833   1.000000
    5        9.314948   0.000000
    6       16.523292   0.000000
    7       19.400919   0.000000
    8       19.649460   0.000000
    9       22.051436   0.000000
   10       24.188377   0.000000
   11       25.966717   0.000000
   12       28.192564   0.000000
   13       28.764081   0.000000
   14       29.945223   0.000000
   15       38.065329   0.000000
   16       40.149062   0.000000
 
  0.2500000E+00  0.2500000E+00  0.5000000E-01  0.6000000E-02
    1      -13.148441   1.000000
    2        1.017653   1.000000
    3        2.732109   1.000000
    4        2.746209   1.000000
    5       10.723506   0.000000
    6       14.871757   0.000000
    7       19.028399   0.000000
    8       20.247575   0.000000
    9       20.396514   0.000000
   10       25.930294   0.000000
   11       28.976110   0.000000
   12       29.711003   0.000000
   13       30.535511   0.000000
   14       30.805536   0.000000
   15       37.696979   0.000000
   16       38.781467   0.000000
 
  0.3500000E+00  0.2500000E+00  0.5000000E-01  0.1200000E-01
    1      -12.884367   1.000000
    2        0.386022   1.000000
    3        2.384897   1.000000
    4        2.583628   1.000000
    5       11.670486   0.000000
    6       14.248889   0.000000
    7       17.838211   0.000000
    8       20.578544   0.000000
    9       20.990689   0.000000
   10       26.398025   0.000000
   11       29.622042   0.000000
   12       30.613054   0.000000
   13       31.166313   0.000000
   14       33.763860   0.000000
   15       36.535429   0.000000
   16       38.125605   0.000000
 
  0.4500000E+00  0.2500000E+00  0.5000000E-01  0.1200000E-01
    1      -12.602773   1.000000
    2       -0.169319   1.000000
    3        1.923863   1.000000
    4        2.436689   1.000000
    5       12.470940   0.000000
    6       14.354252   0.000000
    7       16.927807   0.000000
    8       20.458664   0.000000
    9       21.777696   0.000000
   10       26.789850   0.000000
   11       29.403913   0.000000
   12       30.786183   0.000000
   13       32.765035   0.000000
   14       34.858618   0.000000
   15       35.428014   0.000000
   16       39.813622   0.000000
 
 -0.4500000E+00  0.2500000E+00  0.5000000E-01  0.1200000E-01
    1      -12.419372   1.000000
    2       -0.449919   1.000000
    3        1.482504   1.000000
    4        2.408696   1.000000
    5       12.798327   0.000000
    6       15.023896   0.000000
    7       16.426823   0.000000
    8       20.229496   0.000000
    9       22.369682   0.000000
   10       26.501735   0.000000
   11       29.120037   0.000000
   12       31.266898   0.000000
   13       32.234310   0.000000
   14       34.495682   0.000000
   15       37.186481   0.000000
   16       39.658624   0.000000
 
 -0.3500000E+00  0.2500000E+00  0.5000000E-01  0.1200000E-01
    1      -12.421357   1.000000
    2       -0.388382   1.000000
    3        1.278407   1.000000
    4        2.507990   1.000000
    5       12.900300   0.000000
    6       15.221241   0.000000
    7       16.397604   0.000000
    8       20.171868   0.000000
    9       23.139421   0.000000
   10       25.010788   0.000000
   11       28.784792   0.000000
   12       31.791012   0.000000
   13       32.213615   0.000000
   14       34.964803   0.000000
   15       36.714153   0.000000
   16       39.944312   0.000000
 
 -0.2500000E+00  0.2500000E+00  0.5000000E-01  0.1200000E-01
    1      -12.607211   1.000000
    2       -0.092680   1.000000
    3        1.489537   1.000000
    4        2.694602   1.000000
    5       12.551609   0.000000
    6       14.915253   0.000000
    7       17.011236   0.000000
    8       20.363606   0.000000
    9       23.034007   0.000000
   10       24.200919   0.000000
   11       28.577762   0.000000
   12       31.571538   0.000000
   13       32.341385   0.000000
   14       34.178720   0.000000
   15       36.522348   0.000000
   16       40.995518   0.000000
 
 -0.1500000E+00  0.2500000E+00  0.5000000E-01  0.1200000E-01
    1      -12.888620   1.000000
    2        0.283567   1.000000
    3        2.110064   1.000000
    4        2.895169   1.000000
    5       11.528571   0.000000
    6       15.028018   0.000000
    7       18.106804   0.000000
    8       20.579399   0.000000
    9       21.697787   0.000000
   10       24.579930   0.000000
   11       27.635574   0.000000
   12       30.632950   0.000000
   13       32.230558   0.000000
   14       34.201559   0.000000
   15       35.020592   0.000000
   16       39.367227   0.000000
 
 -0.5000000E-01  0.2500000E+00  0.5000000E-01  0.1200000E-01
    1      -13.151103   1.000000
    2        0.723527   1.000000
    3        2.793705   1.000000
    4        3.017336   1.000000
    5       10.449406   0.000000
    6       15.522116   0.000000
    7       19.298709   0.000000
    8       19.995576   0.000000
    9       21.945913   0.000000
   10       24.180435   0.000000
   11       25.818915   0.000000
   12       30.559016   0.000000
   13       31.480170   0.000000
   14       31.639368   0.000000
   15       36.516178   0.000000
   16       38.811016   0.000000
 
  0.3500000E+00  0.3500000E+00  0.5000000E-01  0.6000000E-02
    1      -12.706301   1.000000
    2        0.064411   1.000000
    3        2.317173   1.000000
    4        2.366054   1.000000
    5       12.248720   0.000000
    6       13.480527   0.000000
    7       17.003822   0.000000
    8       21.067371   0.000000
    9       21.132207   0.000000
   10       27.513856   0.000000
   11       29.842709   0.000000
   12       31.645165   0.000000
   13       32.033974   0.000000
   14       35.402632   0.000000
   15       37.380131   0.000000
   16       37.615839   0.000000
 
  0.4500000E+00  0.3500000E+00  0.5000000E-01  0.1200000E-01
    1      -12.499348   1.000000
    2       -0.234537   1.000000
    3        1.980013   1.000000
    4        2.207689   1.000000
    5       12.906790   0.000000
    6       13.300875   0.000000
    7       16.339673   0.000000
    8       21.026740   0.000000
    9       21.642885   0.000000
   10       28.169917   0.000000
   11       29.503361   0.000000
   12       32.074138   0.000000
   13       32.752012   0.000000
   14       36.559191   0.000000
   15       36.673163   0.000000
   16       39.907147   0.000000
 
 -0.4500000E+00  0.3500000E+00  0.5000000E-01  0.1200000E-01
    1      -12.345478   1.000000
    2       -0.247346   1.000000
    3        1.297307   1.000000
    4        2.182371   1.000000
    5       13.170323   0.000000
    6       14.232610   0.000000
    7       15.864751   0.000000
    8       20.613233   0.000000
    9       21.856687   0.000000
   10       28.232041   0.000000
   11       29.838260   0.000000
   12       31.159938   0.000000
   13       32.128460   0.000000
   14       36.533847   0.000000
   15       38.182940   0.000000
   16       42.037906   0.000000
 
 -0.3500000E+00  0.3500000E+00  0.5000000E-01  0.1200000E-01
    1      -12.310611   1.000000
    2        0.105214   1.000000
    3        0.560464   1.000000
    4        2.288125   1.000000
    5       13.494857   0.000000
    6       15.165906   0.000000
    7       15.468200   0.000000
    8       20.316531   0.000000
    9       22.047428   0.000000
   10       26.700000   0.000000
   11       30.416296   0.000000
   12       31.011342   0.000000
   13       31.539582   0.000000
   14       37.090185   0.000000
   15       38.469150   0.000000
   16       40.644777   0.000000
 
 -0.2500000E+00  0.3500000E+00  0.5000000E-01  0.1200000E-01
    1      -12.408657   1.000000
    2       -0.075020   1.000000
    3        0.878154   1.000000
    4        2.484319   1.000000
    5       13.304332   0.000000
    6       15.079474   0.000000
    7       16.042869   0.000000
    8       20.300425   0.000000
    9       22.983121   0.000000
   10       24.743561   0.000000
   11       29.678442   0.000000
   12       31.373060   0.000000
   13       32.075833   0.000000
   14       35.594057   0.000000
   15       37.146122   0.000000
   16       41.531726   0.000000
 
 -0.1500000E+00  0.3500000E+00  0.5000000E-01  0.1200000E-01
    1      -12.595516   1.000000
    2       -0.361217   1.000000
    3        1.789660   1.000000
    4        2.696488   1.000000
    5       12.215846   0.000000
    6       15.111323   0.000000
    7       17.331195   0.000000
    8       20.117520   0.000000
    9       23.383622   0.000000
   10       24.468153   0.000000
   11       27.538826   0.000000
   12       32.282365   0.000000
   13       32.405475   0.000000
   14       34.273490   0.000000
   15       35.389496   0.000000
   16       40.702581   0.000000
 
 -0.5000000E-01  0.3500000E+00  0.5000000E-01  0.1200000E-01
    1      -12.795887   1.000000
    2       -0.327690   1.000000
    3        2.591375   1.000000
    4        2.827227   1.000000
    5       11.173160   0.000000
    6       15.282837   0.000000
    7       18.850095   0.000000
    8       19.772845   0.000000
    9       23.169363   0.000000
   10       24.833132   0.000000
   11       25.346184   0.000000
   12       32.332796   0.000000
   13       32.563546   0.000000
   14       33.200751   0.000000
   15       35.876847   0.000000
   16       38.660912   0.000000
 
  0.4500000E+00  0.4500000E+00  0.5000000E-01  0.6000000E-02
    1      -12.382815   1.000000
    2       -0.462350   1.000000
    3        2.039598   1.000000
    4        2.116728   1.000000
    5       12.684926   0.000000
    6       13.005732   0.000000
    7       16.145915   0.000000
    8       21.655046   0.000000
    9       21.656593   0.000000
   10       28.553223   0.000000
   11       29.207251   0.000000
   12       33.185266   0.000000
   13       33.309300   0.000000
   14       37.830221   0.000000
   15       38.260183   0.000000
   16       39.231209   0.000000
 
 -0.4500000E+00  0.4500000E+00  0.5000000E-01  0.1200000E-01
    1      -12.301890   1.000000
    2       -0.473495   1.000000
    3        1.766891   1.000000
    4        2.027153   1.000000
    5       12.785936   0.000000
    6       13.370315   0.000000
    7       16.002829   0.000000
    8       21.189286   0.000000
    9       21.989857   0.000000
   10       28.546444   0.000000
   11       29.963350   0.000000
   12       31.414140   0.000000
   13       33.489801   0.000000
   14       38.583639   0.000000
   15       38.968287   0.000000
   16       40.453464   0.000000
 
 -0.3500000E+00  0.4500000E+00  0.5000000E-01  0.1200000E-01
    1      -12.289594   1.000000
    2       -0.212390   1.000000
    3        1.117779   1.000000
    4        2.128744   1.000000
    5       13.192535   0.000000
    6       14.288790   0.000000
    7       15.744886   0.000000
    8       20.567488   0.000000
    9       21.907343   0.000000
   10       28.800166   0.000000
   11       29.489455   0.000000
   12       30.812188   0.000000
   13       32.361568   0.000000
   14       38.019793   0.000000
   15       39.645270   0.000000
   16       40.752322   0.000000
 
 -0.2500000E+00  0.4500000E+00  0.5000000E-01  0.1200000E-01
    1      -12.347196   1.000000
    2       -0.221830   1.000000
    3        1.011700   1.000000
    4        2.329008   1.000000
    5       13.248185   0.000000
    6       15.046480   0.000000
    7       15.853328   0.000000
    8       20.320892   0.000000
    9       22.134413   0.000000
   10       26.665993   0.000000
   11       30.090334   0.000000
   12       30.962045   0.000000
   13       31.792269   0.000000
   14       35.614854   0.000000
   15       38.839665   0.000000
   16       39.484979   0.000000
 
 -0.1500000E+00  0.4500000E+00  0.5000000E-01  0.1200000E-01
    1      -12.448928   1.000000
    2       -0.688984   1.000000
    3        1.744796   1.000000
    4        2.553724   1.000000
    5       12.350322   0.000000
    6       15.356394   0.000000
    7       17.012424   0.000000
    8       19.949884   0.000000
    9       23.507496   0.000000
   10       25.298982   0.000000
   11       27.622332   0.000000
   12       32.191508   0.000000
   13       32.498206   0.000000
   14       33.797953   0.000000
   15       36.837228   0.000000
   16       38.042132   0.000000
 
 -0.5000000E-01  0.4500000E+00  0.5000000E-01  0.1200000E-01
    1      -12.557237   1.000000
    2       -0.942227   1.000000
    3        2.480281   1.000000
    4        2.704726   1.000000
    5       11.389551   0.000000
    6       15.493737   0.000000
    7       18.542658   0.000000
    8       19.547713   0.000000
    9       24.464708   0.000000
   10       24.890833   0.000000
   11       25.602090   0.000000
   12       32.081127   0.000000
   13       33.000245   0.000000
   14       33.737726   0.000000
   15       35.141246   0.000000
   16       37.052116   0.000000
 
 -0.4500000E+00 -0.4500000E+00  0.5000000E-01  0.6000000E-02
    1      -12.310600   1.000000
    2       -0.564340   1.000000
    3        1.979997   1.000000
    4        2.064720   1.000000
    5       12.529576   0.000000
    6       13.062306   0.000000
    7       16.100482   0.000000
    8       21.765277   0.000000
    9       21.790877   0.000000
   10       28.211900   0.000000
   11       29.764588   0.000000
   12       33.074089   0.000000
   13       33.467272   0.000000
   14       37.754400   0.000000
   15       39.493221   0.000000
   16       39.793289   0.000000
 
 -0.3500000E+00 -0.4500000E+00  0.5000000E-01  0.1200000E-01
    1      -12.369971   1.000000
    2       -0.396810   1.000000
    3        1.841519   1.000000
    4        2.088822   1.000000
    5       12.911668   0.000000
    6       13.303150   0.000000
    7       16.057230   0.000000
    8       21.144542   0.000000
    9       21.868469   0.000000
   10       28.703492   0.000000
   11       29.338186   0.000000
   12       31.957257   0.000000
   13       33.296177   0.000000
   14       37.600918   0.000000
   15       37.746849   0.000000
   16       40.300240   0.000000
 
 -0.2500000E+00 -0.4500000E+00  0.5000000E-01  0.1200000E-01
    1      -12.452918   1.000000
    2       -0.251478   1.000000
    3        1.588034   1.000000
    4        2.286546   1.000000
    5       12.969215   0.000000
    6       14.197838   0.000000
    7       16.254975   0.000000
    8       20.595199   0.000000
    9       21.807058   0.000000
   10       27.556330   0.000000
   11       30.212513   0.000000
   12       30.761897   0.000000
   13       32.361714   0.000000
   14       35.450932   0.000000
   15       36.551954   0.000000
   16       41.717429   0.000000
 
 -0.1500000E+00 -0.4500000E+00  0.5000000E-01  0.1200000E-01
    1      -12.523789   1.000000
    2       -0.548324   1.000000
    3        1.929061   1.000000
    4        2.523551   1.000000
    5       12.240701   0.000000
    6       15.078069   0.000000
    7       17.173423   0.000000
    8       20.047943   0.000000
    9       22.697608   0.000000
   10       26.131367   0.000000
   11       27.800348   0.000000
   12       31.637838   0.000000
   13       32.910434   0.000000
   14       33.903340   0.000000
   15       35.577239   0.000000
   16       39.709145   0.000000
 
 -0.3500000E+00 -0.3500000E+00  0.5000000E-01  0.6000000E-02
    1      -12.519558   1.000000
    2       -0.253363   1.000000
    3        2.154831   1.000000
    4        2.220083   1.000000
    5       12.747439   0.000000
    6       13.015853   0.000000
    7       16.405106   0.000000
    8       21.406782   0.000000
    9       21.438839   0.000000
   10       28.388294   0.000000
   11       29.151169   0.000000
   12       32.735450   0.000000
   13       32.928879   0.000000
   14       37.166904   0.000000
   15       37.314215   0.000000
   16       38.748045   0.000000
 
 -0.2500000E+00 -0.3500000E+00  0.5000000E-01  0.1200000E-01
    1      -12.676882   1.000000
    2        0.024350   1.000000
    3        2.166977   1.000000
    4        2.377103   1.000000
    5       12.390638   0.000000
    6       13.693370   0.000000
    7       16.953937   0.000000
    8       20.828183   0.000000
    9       21.338618   0.000000
   10       27.288734   0.000000
   11       30.107769   0.000000
   12       31.071955   0.000000
   13       32.061926   0.000000
   14       35.527637   0.000000
   15       36.381708   0.000000
   16       38.270844   0.000000
 
 -0.1500000E+00 -0.3500000E+00  0.5000000E-01  0.1200000E-01
    1      -12.781141   1.000000
    2        0.024372   1.000000
    3        2.256470   1.000000
    4        2.623529   1.000000
    5       11.804164   0.000000
    6       14.672269   0.000000
    7       17.787868   0.000000
    8       20.263119   0.000000
    9       21.743952   0.000000
   10       25.937404   0.000000
   11       27.975785   0.000000
   12       31.331885   0.000000
   13       32.318295   0.000000
   14       33.970646   0.000000
   15       35.773178   0.000000
   16       38.255483   0.000000
 
 -0.2500000E+00 -0.2500000E+00  0.5000000E-01  0.6000000E-02
    1      -12.923359   1.000000
    2        0.492966   1.000000
    3        2.515115   1.000000
    4        2.546617   1.000000
    5       11.541518   0.000000
    6       14.103090   0.000000
    7       17.916220   0.000000
    8       20.670532   0.000000
    9       20.764956   0.000000
   10       26.679067   0.000000
   11       30.212175   0.000000
   12       30.517392   0.000000
   13       30.847208   0.000000
   14       33.001057   0.000000
   15       37.599053   0.000000
   16       37.980611   0.000000
 
 -0.1500000E+00 -0.2500000E+00  0.5000000E-01  0.1200000E-01
    1      -13.100632   1.000000
    2        0.840758   1.000000
    3        2.616600   1.000000
    4        2.807132   1.000000
    5       10.867369   0.000000
    6       14.928176   0.000000
    7       18.818881   0.000000
    8       20.320405   0.000000
    9       20.706413   0.000000
   10       25.548903   0.000000
   11       28.267447   0.000000
   12       29.922409   0.000000
   13       31.026449   0.000000
   14       31.795788   0.000000
   15       36.783231   0.000000
   16       38.758379   0.000000
 
 -0.1500000E+00 -0.1500000E+00  0.5000000E-01  0.6000000E-02
    1      -13.359357   1.000000
    2        1.614319   1.000000
    3        2.947163   1.000000
    4        2.948970   1.000000
    5        9.873171   0.000000
    6       15.772461   0.000000
    7       19.722342   0.000000
    8       19.833021   0.000000
    9       20.600876   0.000000
   10       25.296293   0.000000
   11       27.598201   0.000000
   12       28.766938   0.000000
   13       28.910611   0.000000
   14       30.216799   0.000000
   15       38.085645   0.000000
   16       39.579603   0.000000
 
  0.1500000E+00  0.1500000E+00  0.1500000E+00  0.2000000E-02
    1      -13.536322   1.000000
    2        2.089583   1.000000
    3        3.218803   1.000000
    4        3.218803   1.000000
    5        9.001036   0.000000