# ['Ni']

28 atoms
1 atom types

    0.0000     2.6161 xlo xhi
    0.0000     4.5312 ylo yhi
    0.0000    29.9045 zlo zhi

    0.0000     0.0000     0.0000 xy xz yz

Atoms

1 1     0.0000     0.0000     0.0000
2 1     1.3080     2.2656     0.0000
3 1     1.3080     0.7552     2.1360
4 1     0.0000     3.0208     2.1360
5 1     0.0000     1.5104     4.2721
6 1     1.3080     3.7760     4.2721
7 1     0.0000     0.0000     6.4081
8 1     1.3080     2.2656     6.4081
9 1     1.3080     0.7552     8.5441
10 1     0.0000     3.0208     8.5441
11 1     0.0000     1.5104    10.6802
12 1     1.3080     3.7760    10.6802
13 1     0.0000     0.0000    12.8162
14 1     1.3080     2.2656    12.8162
15 1     0.0000     1.5104    14.9522
16 1     1.3080     3.7760    14.9522
17 1     0.0000     0.0000    17.0883
18 1     1.3080     2.2656    17.0883
19 1     1.3080     0.7552    19.2243
20 1     0.0000     3.0208    19.2243
21 1     0.0000     1.5104    21.3604
22 1     1.3080     3.7760    21.3604
23 1     0.0000     0.0000    23.4964
24 1     1.3080     2.2656    23.4964
25 1     1.3080     0.7552    25.6324
26 1     0.0000     3.0208    25.6324
27 1     0.0000     1.5104    27.7684
28 1     1.3080     3.7760    27.7684
