LAMMPS (11 Aug 2017)
# ---- initialize simulations
clear
units metal
dimension 3
boundary p p p
atom_style atomic
atom_modify map array
# ---- create atoms
read_data /home/sullberg/repos/pypospack/dev/cluster_sampling/dev__cluster_sampling/rank_7/Ni_fcc_110_unit.lmps_min_all/lammps.structure
  triclinic box = (0 0 0) to (3.4851 2.4947 2.4947) with tilt (0 0 0)
  1 by 1 by 1 MPI processor grid
  reading atoms ...
  2 atoms
# ---- define interatomic potential
include potential.mod
mass 1 58.6934

group Ni type 1
2 atoms in group Ni

pair_style eam/alloy
pair_coeff * * /home/sullberg/repos/pypospack/dev/cluster_sampling/dev__cluster_sampling/rank_7/Ni_fcc_110_unit.lmps_min_all/Ni.eam.alloy Ni

neighbor 1.0 bin
neigh_modify every 1 delay 0 check yes
# ---- define settings
compute eng all pe/atom
compute eatoms all reduce sum c_eng
# ---- run minimization
reset_timestep 0
fix 1 all box/relax aniso 0.0 vmax 0.001
thermo 10
thermo_style custom step pe xhi xlo yhi ylo zhi xy xz yz press pxx pyy pzz pxy pxz pyz c_eatoms
min_style cg
minimize 1e-25 1e-25 5000 10000
Neighbor list info ...
  update every 1 steps, delay 0 steps, check yes
  max neighbors/atom: 2000, page size: 100000
  master list distance cutoff = 5.64464
  ghost atom cutoff = 5.64464
  binsize = 2.82232, bins = 2 1 1
  1 neighbor lists, perpetual/occasional/extra = 1 0 0
  (1) pair eam/alloy, perpetual
      attributes: half, newton on
      pair build: half/bin/newton/tri
      stencil: half/bin/3d/newton/tri
      bin: standard
Per MPI rank memory allocation (min/avg/max) = 4.229 | 4.229 | 4.229 Mbytes
Step PotEng Xhi Xlo Yhi Ylo Zhi Xy Xz Yz Press Pxx Pyy Pzz Pxy Pxz Pyz c_eatoms 
       0    -12.55149       3.4851            0       2.4947            0       2.4947            0            0            0   -235324.11   -232491.73    -236740.3    -236740.3 -0.0033625201 -0.0033625202 0.0014633354    -12.55149 
      10   -12.638056    3.4680343  0.017065719    2.4822265    0.0124735    2.4822265            0            0            0   -196846.99    -193632.7   -198454.14   -198454.14 -0.003453926 -0.003453926 0.0015331745   -12.638056 
      20    -12.70621    3.4511139  0.033986064     2.469753     0.024947     2.469753            0            0            0   -150779.34   -147190.81   -152573.61   -152573.61 -0.0034349798 -0.0034349798 0.0015751432    -12.70621 
      30   -12.753562     3.434473  0.050627005    2.4572795    0.0374205    2.4572795            0            0            0   -96298.336   -92381.426   -98256.791   -98256.791   -0.0031906   -0.0031906 0.0015511237   -12.753562 
      40   -12.777699    3.4186694  0.066430577     2.444806     0.049894     2.444806            0            0            0   -33145.879    -29100.61   -35168.514   -35168.514 -0.0023929148 -0.0023929146 0.0013430914   -12.777699 
      50     -12.7808    3.4216326  0.063467421    2.4354821  0.059217853    2.4354821            0            0            0   -831.62732   -524.44668   -985.21764   -985.21764 1.6834599e-08 1.6954201e-08 1.8116218e-09     -12.7808 
      60   -12.780803    3.4222329  0.062867065    2.4350652  0.059634807    2.4350652            0            0            0 -9.0337377e-06 -3.9810594e-06 -1.155972e-05 -1.1560434e-05 -9.8529883e-11 -4.6918992e-11 -1.4779482e-10   -12.780803 
      66   -12.780803    3.4222329  0.062867065    2.4350652  0.059634807    2.4350652            0            0            0 -2.8833675e-09 3.2374104e-10 -4.5306151e-09 -4.4432285e-09 -7.9175799e-11 1.630435e-10 9.1492034e-11   -12.780803 
Loop time of 0.000988007 on 1 procs for 66 steps with 2 atoms

100.0% CPU use with 1 MPI tasks x no OpenMP threads

Minimization stats:
  Stopping criterion = energy tolerance
  Energy initial, next-to-last, final = 
        -12.5514895912     -12.7808028094     -12.7808028094
  Force two-norm initial, final = 5.51803 8.5241e-14
  Force max component initial, final = 3.20489 5.62943e-14
  Final line search alpha, max atom move = 1 5.62943e-14
  Iterations, force evaluations = 66 83

MPI task timing breakdown:
Section |  min time  |  avg time  |  max time  |%varavg| %total
---------------------------------------------------------------
Pair    | 0.000453   | 0.000453   | 0.000453   |   0.0 | 45.85
Neigh   | 0          | 0          | 0          |   0.0 |  0.00
Comm    | 0.000108   | 0.000108   | 0.000108   |   0.0 | 10.93
Output  | 5.9128e-05 | 5.9128e-05 | 5.9128e-05 |   0.0 |  5.98
Modify  | 0          | 0          | 0          |   0.0 |  0.00
Other   |            | 0.0003679  |            |       | 37.23

Nlocal:    2 ave 2 max 2 min
Histogram: 1 0 0 0 0 0 0 0 0 0
Nghost:    267 ave 267 max 267 min
Histogram: 1 0 0 0 0 0 0 0 0 0
Neighs:    78 ave 78 max 78 min
Histogram: 1 0 0 0 0 0 0 0 0 0

Total # of neighbors = 78
Ave neighs/atom = 39
Neighbor list builds = 0
Dangerous builds = 0
# ---- define output variables ----
variable natoms equal "count(all)"
variable tot_energy equal "c_eatoms"
variable a11 equal "xhi-xlo"
variable a22 equal "yhi-ylo"
variable a33 equal "zhi-zlo"
variable tilt_xy equal "xy"
variable tilt_xz equal "xz"
variable tilt_yz equal "yz"
variable tot_press equal "press"
variable press_xx equal "pxx"
variable press_yy equal "pyy"
variable press_zz equal "pzz"
variable press_xy equal "pxy"
variable press_xz equal "pxz"
variable press_yz equal "pyz"

# ---- output ----
print "pypospack:output_section:begin"
pypospack:output_section:begin
print "tot_energy = ${tot_energy}"
tot_energy = -12.7808028094079
print "num_atoms = ${natoms}"
num_atoms = 2
print "a11 = ${a11}"
a11 = 3.35936586922018
print "a22 = ${a22}"
a22 = 2.37543038661225
print "a33 = ${a33}"
a33 = 2.37543038661225
print "a12 = ${tilt_xy}"
a12 = 0
print "a13 = ${tilt_xz}"
a13 = 0
print "a23 = ${tilt_yz}"
a23 = 0
print "tot_press = ${tot_press}"
tot_press = -2.8833675371764e-09
print "pxx = ${press_xx}"
pxx = 3.23741042888611e-10
print "pyy = ${press_yy}"
pyy = -4.53061513825094e-09
print "pzz = ${press_zz}"
pzz = -4.44322851616688e-09
print "pxy = ${press_xy}"
pxy = -7.91757985325407e-11
print "pxz = ${press_xz}"
pxz = 1.6304349623738e-10
print "pyz = ${press_yz}"
pyz = 9.14920338598248e-11
print "pypospack:output_section:done"
pypospack:output_section:done
print "pypospack:lammps_sim:done"
pypospack:lammps_sim:done
Total wall time: 0:00:00
