# ['Si']

215 atoms
1 atom types

    0.0000    86.7878 xlo xhi
    0.0000    86.7878 ylo yhi
    0.0000    86.7878 zlo zhi

    0.0000     0.0000     0.0000 xy xz yz

Atoms

1 1     7.2323     7.2323     7.2323
2 1     0.0000    14.4647    14.4647
3 1     7.2323    21.6970    21.6970
4 1    14.4647     0.0000    14.4647
5 1    21.6970     7.2323    21.6970
6 1    14.4647    14.4647     0.0000
7 1    21.6970    21.6970     7.2323
8 1     0.0000     0.0000    28.9293
9 1     7.2323     7.2323    36.1616
10 1     0.0000    14.4647    43.3939
11 1     7.2323    21.6970    50.6262
12 1    14.4647     0.0000    43.3939
13 1    21.6970     7.2323    50.6262
14 1    14.4647    14.4647    28.9293
15 1    21.6970    21.6970    36.1616
16 1     0.0000     0.0000    57.8586
17 1     7.2323     7.2323    65.0909
18 1     0.0000    14.4647    72.3232
19 1     7.2323    21.6970    79.5555
20 1    14.4647     0.0000    72.3232
21 1    21.6970     7.2323    79.5555
22 1    14.4647    14.4647    57.8586
23 1    21.6970    21.6970    65.0909
24 1     0.0000    28.9293     0.0000
25 1     7.2323    36.1616     7.2323
26 1     0.0000    43.3939    14.4647
27 1     7.2323    50.6262    21.6970
28 1    14.4647    28.9293    14.4647
29 1    21.6970    36.1616    21.6970
30 1    14.4647    43.3939     0.0000
31 1    21.6970    50.6262     7.2323
32 1     0.0000    28.9293    28.9293
33 1     7.2323    36.1616    36.1616
34 1     0.0000    43.3939    43.3939
35 1     7.2323    50.6262    50.6262
36 1    14.4647    28.9293    43.3939
37 1    21.6970    36.1616    50.6262
38 1    14.4647    43.3939    28.9293
39 1    21.6970    50.6262    36.1616
40 1     0.0000    28.9293    57.8586
41 1     7.2323    36.1616    65.0909
42 1     0.0000    43.3939    72.3232
43 1     7.2323    50.6262    79.5555
44 1    14.4647    28.9293    72.3232
45 1    21.6970    36.1616    79.5555
46 1    14.4647    43.3939    57.8586
47 1    21.6970    50.6262    65.0909
48 1     0.0000    57.8586     0.0000
49 1     7.2323    65.0909     7.2323
50 1     0.0000    72.3232    14.4647
51 1     7.2323    79.5555    21.6970
52 1    14.4647    57.8586    14.4647
53 1    21.6970    65.0909    21.6970
54 1    14.4647    72.3232     0.0000
55 1    21.6970    79.5555     7.2323
56 1     0.0000    57.8586    28.9293
57 1     7.2323    65.0909    36.1616
58 1     0.0000    72.3232    43.3939
59 1     7.2323    79.5555    50.6262
60 1    14.4647    57.8586    43.3939
61 1    21.6970    65.0909    50.6262
62 1    14.4647    72.3232    28.9293
63 1    21.6970    79.5555    36.1616
64 1     0.0000    57.8586    57.8586
65 1     7.2323    65.0909    65.0909
66 1     0.0000    72.3232    72.3232
67 1     7.2323    79.5555    79.5555
68 1    14.4647    57.8586    72.3232
69 1    21.6970    65.0909    79.5555
70 1    14.4647    72.3232    57.8586
71 1    21.6970    79.5555    65.0909
72 1    28.9293     0.0000     0.0000
73 1    36.1616     7.2323     7.2323
74 1    28.9293    14.4647    14.4647
75 1    36.1616    21.6970    21.6970
76 1    43.3939     0.0000    14.4647
77 1    50.6262     7.2323    21.6970
78 1    43.3939    14.4647     0.0000
79 1    50.6262    21.6970     7.2323
80 1    28.9293     0.0000    28.9293
81 1    36.1616     7.2323    36.1616
82 1    28.9293    14.4647    43.3939
83 1    36.1616    21.6970    50.6262
84 1    43.3939     0.0000    43.3939
85 1    50.6262     7.2323    50.6262
86 1    43.3939    14.4647    28.9293
87 1    50.6262    21.6970    36.1616
88 1    28.9293     0.0000    57.8586
89 1    36.1616     7.2323    65.0909
90 1    28.9293    14.4647    72.3232
91 1    36.1616    21.6970    79.5555
92 1    43.3939     0.0000    72.3232
93 1    50.6262     7.2323    79.5555
94 1    43.3939    14.4647    57.8586
95 1    50.6262    21.6970    65.0909
96 1    28.9293    28.9293     0.0000
97 1    36.1616    36.1616     7.2323
98 1    28.9293    43.3939    14.4647
99 1    36.1616    50.6262    21.6970
100 1    43.3939    28.9293    14.4647
101 1    50.6262    36.1616    21.6970
102 1    43.3939    43.3939     0.0000
103 1    50.6262    50.6262     7.2323
104 1    28.9293    28.9293    28.9293
105 1    36.1616    36.1616    36.1616
106 1    28.9293    43.3939    43.3939
107 1    36.1616    50.6262    50.6262
108 1    43.3939    28.9293    43.3939
109 1    50.6262    36.1616    50.6262
110 1    43.3939    43.3939    28.9293
111 1    50.6262    50.6262    36.1616
112 1    28.9293    28.9293    57.8586
113 1    36.1616    36.1616    65.0909
114 1    28.9293    43.3939    72.3232
115 1    36.1616    50.6262    79.5555
116 1    43.3939    28.9293    72.3232
117 1    50.6262    36.1616    79.5555
118 1    43.3939    43.3939    57.8586
119 1    50.6262    50.6262    65.0909
120 1    28.9293    57.8586     0.0000
121 1    36.1616    65.0909     7.2323
122 1    28.9293    72.3232    14.4647
123 1    36.1616    79.5555    21.6970
124 1    43.3939    57.8586    14.4647
125 1    50.6262    65.0909    21.6970
126 1    43.3939    72.3232     0.0000
127 1    50.6262    79.5555     7.2323
128 1    28.9293    57.8586    28.9293
129 1    36.1616    65.0909    36.1616
130 1    28.9293    72.3232    43.3939
131 1    36.1616    79.5555    50.6262
132 1    43.3939    57.8586    43.3939
133 1    50.6262    65.0909    50.6262
134 1    43.3939    72.3232    28.9293
135 1    50.6262    79.5555    36.1616
136 1    28.9293    57.8586    57.8586
137 1    36.1616    65.0909    65.0909
138 1    28.9293    72.3232    72.3232
139 1    36.1616    79.5555    79.5555
140 1    43.3939    57.8586    72.3232
141 1    50.6262    65.0909    79.5555
142 1    43.3939    72.3232    57.8586
143 1    50.6262    79.5555    65.0909
144 1    57.8586     0.0000     0.0000
145 1    65.0909     7.2323     7.2323
146 1    57.8586    14.4647    14.4647
147 1    65.0909    21.6970    21.6970
148 1    72.3232     0.0000    14.4647
149 1    79.5555     7.2323    21.6970
150 1    72.3232    14.4647     0.0000
151 1    79.5555    21.6970     7.2323
152 1    57.8586     0.0000    28.9293
153 1    65.0909     7.2323    36.1616
154 1    57.8586    14.4647    43.3939
155 1    65.0909    21.6970    50.6262
156 1    72.3232     0.0000    43.3939
157 1    79.5555     7.2323    50.6262
158 1    72.3232    14.4647    28.9293
159 1    79.5555    21.6970    36.1616
160 1    57.8586     0.0000    57.8586
161 1    65.0909     7.2323    65.0909
162 1    57.8586    14.4647    72.3232
163 1    65.0909    21.6970    79.5555
164 1    72.3232     0.0000    72.3232
165 1    79.5555     7.2323    79.5555
166 1    72.3232    14.4647    57.8586
167 1    79.5555    21.6970    65.0909
168 1    57.8586    28.9293     0.0000
169 1    65.0909    36.1616     7.2323
170 1    57.8586    43.3939    14.4647
171 1    65.0909    50.6262    21.6970
172 1    72.3232    28.9293    14.4647
173 1    79.5555    36.1616    21.6970
174 1    72.3232    43.3939     0.0000
175 1    79.5555    50.6262     7.2323
176 1    57.8586    28.9293    28.9293
177 1    65.0909    36.1616    36.1616
178 1    57.8586    43.3939    43.3939
179 1    65.0909    50.6262    50.6262
180 1    72.3232    28.9293    43.3939
181 1    79.5555    36.1616    50.6262
182 1    72.3232    43.3939    28.9293
183 1    79.5555    50.6262    36.1616
184 1    57.8586    28.9293    57.8586
185 1    65.0909    36.1616    65.0909
186 1    57.8586    43.3939    72.3232
187 1    65.0909    50.6262    79.5555
188 1    72.3232    28.9293    72.3232
189 1    79.5555    36.1616    79.5555
190 1    72.3232    43.3939    57.8586
191 1    79.5555    50.6262    65.0909
192 1    57.8586    57.8586     0.0000
193 1    65.0909    65.0909     7.2323
194 1    57.8586    72.3232    14.4647
195 1    65.0909    79.5555    21.6970
196 1    72.3232    57.8586    14.4647
197 1    79.5555    65.0909    21.6970
198 1    72.3232    72.3232     0.0000
199 1    79.5555    79.5555     7.2323
200 1    57.8586    57.8586    28.9293
201 1    65.0909    65.0909    36.1616
202 1    57.8586    72.3232    43.3939
203 1    65.0909    79.5555    50.6262
204 1    72.3232    57.8586    43.3939
205 1    79.5555    65.0909    50.6262
206 1    72.3232    72.3232    28.9293
207 1    79.5555    79.5555    36.1616
208 1    57.8586    57.8586    57.8586
209 1    65.0909    65.0909    65.0909
210 1    57.8586    72.3232    72.3232
211 1    65.0909    79.5555    79.5555
212 1    72.3232    57.8586    72.3232
213 1    79.5555    65.0909    79.5555
214 1    72.3232    72.3232    57.8586
215 1    79.5555    79.5555    65.0909
