# ['Ni']

107 atoms
1 atom types

    0.0000    10.1623 xlo xhi
    0.0000    10.1623 ylo yhi
    0.0000    10.1623 zlo zhi

    0.0000    -0.0000    -0.0000 xy xz yz

Atoms

1 1     1.6937     1.6937     0.0000
2 1     1.6937     0.0000     1.6937
3 1     0.0000     1.6937     1.6937
4 1     0.0000     0.0000     3.3874
5 1     1.6937     1.6937     3.3874
6 1     1.6937     0.0000     5.0811
7 1     0.0000     1.6937     5.0811
8 1     0.0000     0.0000     6.7749
9 1     1.6937     1.6937     6.7749
10 1     1.6937     0.0000     8.4686
11 1     0.0000     1.6937     8.4686
12 1     0.0000     3.3874     0.0000
13 1     1.6937     5.0811     0.0000
14 1     1.6937     3.3874     1.6937
15 1     0.0000     5.0811     1.6937
16 1     0.0000     3.3874     3.3874
17 1     1.6937     5.0811     3.3874
18 1     1.6937     3.3874     5.0811
19 1     0.0000     5.0811     5.0811
20 1     0.0000     3.3874     6.7749
21 1     1.6937     5.0811     6.7749
22 1     1.6937     3.3874     8.4686
23 1     0.0000     5.0811     8.4686
24 1     0.0000     6.7749     0.0000
25 1     1.6937     8.4686     0.0000
26 1     1.6937     6.7749     1.6937
27 1     0.0000     8.4686     1.6937
28 1     0.0000     6.7749     3.3874
29 1     1.6937     8.4686     3.3874
30 1     1.6937     6.7749     5.0811
31 1     0.0000     8.4686     5.0811
32 1     0.0000     6.7749     6.7749
33 1     1.6937     8.4686     6.7749
34 1     1.6937     6.7749     8.4686
35 1     0.0000     8.4686     8.4686
36 1     3.3874     0.0000     0.0000
37 1     5.0811     1.6937     0.0000
38 1     5.0811     0.0000     1.6937
39 1     3.3874     1.6937     1.6937
40 1     3.3874     0.0000     3.3874
41 1     5.0811     1.6937     3.3874
42 1     5.0811     0.0000     5.0811
43 1     3.3874     1.6937     5.0811
44 1     3.3874     0.0000     6.7749
45 1     5.0811     1.6937     6.7749
46 1     5.0811     0.0000     8.4686
47 1     3.3874     1.6937     8.4686
48 1     3.3874     3.3874     0.0000
49 1     5.0811     5.0811     0.0000
50 1     5.0811     3.3874     1.6937
51 1     3.3874     5.0811     1.6937
52 1     3.3874     3.3874     3.3874
53 1     5.0811     5.0811     3.3874
54 1     5.0811     3.3874     5.0811
55 1     3.3874     5.0811     5.0811
56 1     3.3874     3.3874     6.7749
57 1     5.0811     5.0811     6.7749
58 1     5.0811     3.3874     8.4686
59 1     3.3874     5.0811     8.4686
60 1     3.3874     6.7749     0.0000
61 1     5.0811     8.4686     0.0000
62 1     5.0811     6.7749     1.6937
63 1     3.3874     8.4686     1.6937
64 1     3.3874     6.7749     3.3874
65 1     5.0811     8.4686     3.3874
66 1     5.0811     6.7749     5.0811
67 1     3.3874     8.4686     5.0811
68 1     3.3874     6.7749     6.7749
69 1     5.0811     8.4686     6.7749
70 1     5.0811     6.7749     8.4686
71 1     3.3874     8.4686     8.4686
72 1     6.7749     0.0000     0.0000
73 1     8.4686     1.6937     0.0000
74 1     8.4686     0.0000     1.6937
75 1     6.7749     1.6937     1.6937
76 1     6.7749     0.0000     3.3874
77 1     8.4686     1.6937     3.3874
78 1     8.4686     0.0000     5.0811
79 1     6.7749     1.6937     5.0811
80 1     6.7749     0.0000     6.7749
81 1     8.4686     1.6937     6.7749
82 1     8.4686     0.0000     8.4686
83 1     6.7749     1.6937     8.4686
84 1     6.7749     3.3874     0.0000
85 1     8.4686     5.0811     0.0000
86 1     8.4686     3.3874     1.6937
87 1     6.7749     5.0811     1.6937
88 1     6.7749     3.3874     3.3874
89 1     8.4686     5.0811     3.3874
90 1     8.4686     3.3874     5.0811
91 1     6.7749     5.0811     5.0811
92 1     6.7749     3.3874     6.7749
93 1     8.4686     5.0811     6.7749
94 1     8.4686     3.3874     8.4686
95 1     6.7749     5.0811     8.4686
96 1     6.7749     6.7749     0.0000
97 1     8.4686     8.4686     0.0000
98 1     8.4686     6.7749     1.6937
99 1     6.7749     8.4686     1.6937
100 1     6.7749     6.7749     3.3874
101 1     8.4686     8.4686     3.3874
102 1     8.4686     6.7749     5.0811
103 1     6.7749     8.4686     5.0811
104 1     6.7749     6.7749     6.7749
105 1     8.4686     8.4686     6.7749
106 1     8.4686     6.7749     8.4686
107 1     6.7749     8.4686     8.4686
