# ['Ni']

107 atoms
1 atom types

    0.0000    10.1081 xlo xhi
    0.0000    10.1081 ylo yhi
    0.0000    10.1081 zlo zhi

    0.0000    -0.0000    -0.0000 xy xz yz

Atoms

1 1     1.6847     1.6847     0.0000
2 1     1.6847     0.0000     1.6847
3 1     0.0000     1.6847     1.6847
4 1     0.0000     0.0000     3.3694
5 1     1.6847     1.6847     3.3694
6 1     1.6847     0.0000     5.0541
7 1     0.0000     1.6847     5.0541
8 1     0.0000     0.0000     6.7388
9 1     1.6847     1.6847     6.7388
10 1     1.6847     0.0000     8.4235
11 1     0.0000     1.6847     8.4235
12 1     0.0000     3.3694     0.0000
13 1     1.6847     5.0541     0.0000
14 1     1.6847     3.3694     1.6847
15 1     0.0000     5.0541     1.6847
16 1     0.0000     3.3694     3.3694
17 1     1.6847     5.0541     3.3694
18 1     1.6847     3.3694     5.0541
19 1     0.0000     5.0541     5.0541
20 1     0.0000     3.3694     6.7388
21 1     1.6847     5.0541     6.7388
22 1     1.6847     3.3694     8.4235
23 1     0.0000     5.0541     8.4235
24 1     0.0000     6.7388     0.0000
25 1     1.6847     8.4235     0.0000
26 1     1.6847     6.7388     1.6847
27 1     0.0000     8.4235     1.6847
28 1     0.0000     6.7388     3.3694
29 1     1.6847     8.4235     3.3694
30 1     1.6847     6.7388     5.0541
31 1     0.0000     8.4235     5.0541
32 1     0.0000     6.7388     6.7388
33 1     1.6847     8.4235     6.7388
34 1     1.6847     6.7388     8.4235
35 1     0.0000     8.4235     8.4235
36 1     3.3694     0.0000     0.0000
37 1     5.0541     1.6847     0.0000
38 1     5.0541     0.0000     1.6847
39 1     3.3694     1.6847     1.6847
40 1     3.3694     0.0000     3.3694
41 1     5.0541     1.6847     3.3694
42 1     5.0541     0.0000     5.0541
43 1     3.3694     1.6847     5.0541
44 1     3.3694     0.0000     6.7388
45 1     5.0541     1.6847     6.7388
46 1     5.0541     0.0000     8.4235
47 1     3.3694     1.6847     8.4235
48 1     3.3694     3.3694     0.0000
49 1     5.0541     5.0541     0.0000
50 1     5.0541     3.3694     1.6847
51 1     3.3694     5.0541     1.6847
52 1     3.3694     3.3694     3.3694
53 1     5.0541     5.0541     3.3694
54 1     5.0541     3.3694     5.0541
55 1     3.3694     5.0541     5.0541
56 1     3.3694     3.3694     6.7388
57 1     5.0541     5.0541     6.7388
58 1     5.0541     3.3694     8.4235
59 1     3.3694     5.0541     8.4235
60 1     3.3694     6.7388     0.0000
61 1     5.0541     8.4235     0.0000
62 1     5.0541     6.7388     1.6847
63 1     3.3694     8.4235     1.6847
64 1     3.3694     6.7388     3.3694
65 1     5.0541     8.4235     3.3694
66 1     5.0541     6.7388     5.0541
67 1     3.3694     8.4235     5.0541
68 1     3.3694     6.7388     6.7388
69 1     5.0541     8.4235     6.7388
70 1     5.0541     6.7388     8.4235
71 1     3.3694     8.4235     8.4235
72 1     6.7388     0.0000     0.0000
73 1     8.4235     1.6847     0.0000
74 1     8.4235     0.0000     1.6847
75 1     6.7388     1.6847     1.6847
76 1     6.7388     0.0000     3.3694
77 1     8.4235     1.6847     3.3694
78 1     8.4235     0.0000     5.0541
79 1     6.7388     1.6847     5.0541
80 1     6.7388     0.0000     6.7388
81 1     8.4235     1.6847     6.7388
82 1     8.4235     0.0000     8.4235
83 1     6.7388     1.6847     8.4235
84 1     6.7388     3.3694     0.0000
85 1     8.4235     5.0541     0.0000
86 1     8.4235     3.3694     1.6847
87 1     6.7388     5.0541     1.6847
88 1     6.7388     3.3694     3.3694
89 1     8.4235     5.0541     3.3694
90 1     8.4235     3.3694     5.0541
91 1     6.7388     5.0541     5.0541
92 1     6.7388     3.3694     6.7388
93 1     8.4235     5.0541     6.7388
94 1     8.4235     3.3694     8.4235
95 1     6.7388     5.0541     8.4235
96 1     6.7388     6.7388     0.0000
97 1     8.4235     8.4235     0.0000
98 1     8.4235     6.7388     1.6847
99 1     6.7388     8.4235     1.6847
100 1     6.7388     6.7388     3.3694
101 1     8.4235     8.4235     3.3694
102 1     8.4235     6.7388     5.0541
103 1     6.7388     8.4235     5.0541
104 1     6.7388     6.7388     6.7388
105 1     8.4235     8.4235     6.7388
106 1     8.4235     6.7388     8.4235
107 1     6.7388     8.4235     8.4235
