LAMMPS (10 Feb 2015)
# ---- initialize simulations
clear
units metal
dimension 3
boundary p p p
atom_style charge
atom_modify map array
# ---- create atoms
read_data /Users/eugeneragasa/pyflamestk_git/pypospack/tests/tests_integration/workflow/WorkflowLammpsThermalExpansion/param_9215/MgO_NaCl_unit.npt.T500/lammps.structure
  triclinic box = (0 0 0) to (4.2565 4.2565 4.2565) with tilt (0 0 0)
  1 by 1 by 1 MPI processor grid
  reading atoms ...
  8 atoms
# ---- define interatomic potential
include potential.mod
mass 1 24.305
mass 2 15.999

group Mg type 1
4 atoms in group Mg
group O type 2
4 atoms in group O

set group Mg charge 1.57990545172
  4 settings made for charge
set group O charge -1.57990545172
  4 settings made for charge

variable R_cut equal 10.0

pair_style buck/coul/long ${R_cut}
pair_style buck/coul/long 10
pair_coeff 1 1 0.0 0.5 0.0 ${R_cut}
pair_coeff 1 1 0.0 0.5 0.0 10
pair_coeff 1 2 1322.20855758 0.285006791586 0.0 ${R_cut}
pair_coeff 1 2 1322.20855758 0.285006791586 0.0 10
pair_coeff 2 2 14469.0891926 0.219096223147 48.5612274161 ${R_cut}
pair_coeff 2 2 14469.0891926 0.219096223147 48.5612274161 10

kspace_style pppm 1.0e-5

neighbor 1.0 bin
neigh_modify every 1 delay 0 check yes
# ---- define settings
compute eng all pe/atom
compute eatoms all reduce sum c_eng
# ---- run minimization
reset_timestep 0
fix 1 all box/relax iso 0.0 vmax 0.001
thermo 10
thermo_style custom step pe lx ly lz xy xz yz press pxx pyy pzz pxy pxz pyz c_eatoms
min_style cg
minimize 1e-25 1e-25 5000 10000
PPPM initialization ...
  G vector (1/distance) = 0.352172
  grid = 8 8 8
  stencil order = 5
  estimated absolute RMS force accuracy = 3.68665e-05
  estimated relative force accuracy = 2.56024e-06
  using double precision FFTs
  3d grid and FFT values/proc = 3375 512
Neighbor list info ...
  1 neighbor list requests
  update every 1 steps, delay 0 steps, check yes
  master list distance cutoff = 11
Memory usage per processor = 4.06549 Mbytes
Step PotEng Lx Ly Lz Xy Xz Yz Press Pxx Pyy Pzz Pxy Pxz Pyz eatoms 
       0   -101.30442       4.2565       4.2565       4.2565            0            0            0    88329.967    88329.967    88329.967    88329.967 -1.1961844e-11 -2.4099438e-10 5.9240466e-12   -101.30442 
      10    -101.3918     4.299065     4.299065     4.299065            0            0            0    35693.934    35693.934    35693.934    35693.934 1.4632835e-11 -2.3788485e-11 -3.8066587e-11    -101.3918 
      20   -101.41159    4.3315082    4.3315082    4.3315082            0            0            0   -5.9294003   -5.9294003   -5.9294003   -5.9294003 1.7198652e-10 1.1926792e-10 -5.3176444e-11   -101.41159 
Loop time of 0.0118172 on 1 procs for 20 steps with 8 atoms

Minimization stats:
  Stopping criterion = linesearch alpha is zero
  Energy initial, next-to-last, final = 
        -101.304424021     -101.411593199     -101.411593199
  Force two-norm initial, final = 12.7549 0.00088671
  Force max component initial, final = 12.7549 0.000886651
  Final line search alpha, max atom move = 0.015625 1.38539e-05
  Iterations, force evaluations = 20 34

Pair  time (%) = 0.00315833 (26.7265)
Kspce time (%) = 0.00200486 (16.9656)
Neigh time (%) = 0 (0)
Comm  time (%) = 0.000344992 (2.9194)
Outpt time (%) = 1.19209e-05 (0.100878)
Other time (%) = 0.00629711 (53.2876)

Nlocal:    8 ave 8 max 8 min
Histogram: 1 0 0 0 0 0 0 0 0 0
Nghost:    2189 ave 2189 max 2189 min
Histogram: 1 0 0 0 0 0 0 0 0 0
Neighs:    2344 ave 2344 max 2344 min
Histogram: 1 0 0 0 0 0 0 0 0 0

Total # of neighbors = 2344
Ave neighs/atom = 293
Neighbor list builds = 0
Dangerous builds = 0
unfix 1
# ---- define output variables ----
variable natoms equal "count(all)"
variable tot_energy equal "c_eatoms"
variable length_x equal "lx"
variable length_y equal "ly"
variable length_z equal "lz"
variable tilt_xy equal "xy"
variable tilt_xz equal "xz"
variable tilt_yz equal "yz"
variable tot_press equal "press"
variable press_xx equal "pxx"
variable press_yy equal "pyy"
variable press_zz equal "pzz"
variable press_xy equal "pxy"
variable press_xz equal "pxz"
variable press_yz equal "pyz"

# ---- output ----
print "pypospack:output_section:begin"
pypospack:output_section:begin
print "tot_energy = ${tot_energy}"
tot_energy = -101.411593198701
print "num_atoms = ${natoms}"
num_atoms = 8
print "xx = ${length_x}"
xx = 4.33150823558717
print "yy = ${length_y}"
yy = 4.33150823558717
print "zz = ${length_z}"
zz = 4.33150823558717
print "xy = ${tilt_xy}"
xy = 0
print "xz = ${tilt_xz}"
xz = 0
print "yz = ${tilt_yz}"
yz = 0
print "tot_press = ${tot_press}"
tot_press = -5.92940031006952
print "pxx = ${press_xx}"
pxx = -5.92940030994687
print "pyy = ${press_yy}"
pyy = -5.92940031012476
print "pzz = ${press_zz}"
pzz = -5.92940031013695
print "pxy = ${press_xy}"
pxy = 1.71986520125442e-10
print "pxz = ${press_xz}"
pxz = 1.19267916823708e-10
print "pyz = ${press_yz}"
pyz = -5.31764436793611e-11
print "pypospack:output_section:done"
pypospack:output_section:done
print "pypospack:lammps_sim:done"
pypospack:lammps_sim:done
#------------------------------------------------------------------------------
# RUN THERMOSTAT
# running using an NPT Nose-Hoover style thermostat
#------------------------------------------------------------------------------
variable tempdamp equal 0.1
variable pressdamp equal 1.0
# set initial velocities
velocity all create 500 4966199 mom yes dist gaussian loop all
# fix for Nose-Hoover style thermostat
fix 20 all npt temp 500 500 0.1 aniso 0.0 0.0 1.0 drag 1.0 couple xyz
variable boxx equal lx
variable boxy equal ly
variable boxz equal lz
variable boxp equal press
variable boxt equal temp
# calculate averages every 10000 steps
reset_timestep 0
fix 21 all ave/time 10 10 100 v_boxx v_boxy v_boxz v_boxp v_boxt file lattice.out
thermo_style custom step temp pe ke etotal press lx ly lz press pxx pyy pzz pxy pxz pyz vol
thermo_modify flush yes
thermo 100
run 100000
PPPM initialization ...
  G vector (1/distance) = 0.351443
  grid = 8 8 8
  stencil order = 5
  estimated absolute RMS force accuracy = 3.81088e-05
  estimated relative force accuracy = 2.64651e-06
  using double precision FFTs
  3d grid and FFT values/proc = 3375 512
Memory usage per processor = 3.06549 Mbytes
Step Temp PotEng KinEng TotEng Press Lx Ly Lz Press Pxx Pyy Pzz Pxy Pxz Pyz Volume 
       0          500    -101.4116   0.45241051   -100.95919    5938.4332    4.3315082    4.3315082    4.3315082    5938.4332    5976.2671    6335.2949    5503.7374   -3553.7429     3067.181   -3835.2838      81.2676 
     100    119.07496   -101.00199   0.10774152   -100.89425   -4423.3595    4.3553295    4.3553295    4.3553295   -4423.3595   -9738.3626   -1683.9083   -1847.8075    1309.3638   -2082.3344    8396.8687    82.615788 
     200    437.53556   -101.16888   0.39589137   -100.77299    -2671.829    4.3455443    4.3455443    4.3455443    -2671.829   -20.402981   -5562.0645   -2433.0194    734.18353    2680.5614   -2391.5786    82.060196 
     300    324.08184   -100.96471   0.29323606   -100.67148    5255.3542    4.3548919    4.3548919    4.3548919    5255.3542    6460.6014     6676.328    2629.1332    955.42895    3215.6747    4279.2582     82.59089 
     400    419.39904   -100.96382   0.37948107   -100.58433   -6757.9793    4.3575496    4.3575496    4.3575496   -6757.9793    4516.7774   -14773.821   -10016.895    5578.3567    2824.8451    6169.3917     82.74219 
     500     378.9512   -100.87178   0.34288301    -100.5289   -525.85448    4.3558127    4.3558127    4.3558127   -525.85448    2224.7652    2410.5333    -6212.862   -487.80028    -493.2552   -275.37417     82.64329 
     600    518.97346   -100.97302   0.46957809   -100.50344   -5461.4692    4.3609777    4.3609777    4.3609777   -5461.4692    8057.0706   -13781.583   -10659.896    921.26671   -1235.8188    13226.339    82.937623 
     700    598.54807   -101.03497   0.54157887   -100.49339   -434.64756    4.3549786    4.3549786    4.3549786   -434.64756   -4845.0425    2447.8912    1093.2087   -1099.4746   -6365.6425   -4681.9796    82.595821 
     800    366.64566   -100.82931   0.33174869   -100.49756   -8213.3131    4.3642724    4.3642724    4.3642724   -8213.3131   -15228.382   -878.78976    -8532.767   -853.04277    463.20875    8501.5216    83.125742 
     900    637.04785   -101.07251   0.57641428   -100.49609    8070.2306    4.3516621    4.3516621    4.3516621    8070.2306    710.07147    8396.5791    15104.041    3643.5189   -2486.3782    385.02819    82.407263 
    1000    561.83453   -101.00919   0.50835969   -100.50083   -10207.393    4.3659081    4.3659081    4.3659081   -10207.393   -19980.402   -2507.6199   -8134.1566    3193.7137   -2335.4351    3050.9303    83.219244 
    1100    440.44752   -100.89877   0.39852617   -100.50025    360.86282    4.3542812    4.3542812    4.3542812    360.86282   -2580.5281   -4384.2513    8047.3678    3724.0435    2384.8991    5123.4872    82.556146 
    1200    525.30797   -100.97899   0.47530969   -100.50368    4867.5792    4.3560559    4.3560559    4.3560559    4867.5792    6297.0689    12151.458   -3845.7892    11.442759   -4703.8545   -2698.4272    82.657131 
    1300    542.84829   -100.99422   0.49118054   -100.50304   -12576.557    4.3640982    4.3640982    4.3640982   -12576.557   -529.94321   -23943.855   -13255.873   -5134.9609   -831.78709    4342.1121    83.115788 
    1400     237.2806   -100.71491   0.21469648   -100.50021    14245.008    4.3507618    4.3507618    4.3507618    14245.008    14616.649    21166.144    6952.2315    2226.8252   -871.60731   -8057.6457    82.356128 
    1500    627.70292   -101.07043   0.56795879   -100.50247   -15026.462    4.3649033    4.3649033    4.3649033   -15026.462   -3404.9615   -19294.534   -22379.891   -5367.5753   -4845.8298    4320.0988    83.161798 
    1600    423.69101   -100.88532   0.38336453   -100.50196    5202.5827    4.3548234    4.3548234    4.3548234    5202.5827    2215.9331    12413.698    978.11688   -2507.3142   -3381.7698   -6480.9354    82.586992 
    1700    530.79272   -100.98514   0.48027241   -100.50487   -5627.7272    4.3578635    4.3578635    4.3578635   -5627.7272   -11149.001   -7242.4402    1508.2598    1664.7761    98.892611    1560.7806    82.760073 
    1800    551.07016   -101.00206   0.49861986   -100.50344   -5059.2887    4.3638065    4.3638065    4.3638065   -5059.2887   -10161.075    4115.9227   -9132.7143    2842.7953   -2818.8032    2697.1038    83.099128 
    1900    652.89017   -101.08895   0.59074875    -100.4982     7574.891    4.3511279    4.3511279    4.3511279     7574.891    2794.6317    4728.2875    15201.754    1865.9052    3576.1484    261.62598     82.37692 
    2000    361.90172   -100.82808   0.32745628   -100.50063    -1014.756    4.3640121    4.3640121    4.3640121    -1014.756   -10516.175    9971.5671   -2499.6601   -2325.6722   -598.42823    6143.2937    83.110873 
    2100    595.21137   -101.03707   0.53855976   -100.49851    1683.1154    4.3575389    4.3575389    4.3575389    1683.1154      7716.28     3294.076   -5961.0097   -1529.2362   -385.05254   -4167.9359    82.741581 
    2200    493.27917   -100.94779   0.44632936   -100.50146    11417.636    4.3527007    4.3527007    4.3527007    11417.636    14805.751    2158.4306    17288.725   -1208.2424    -3865.481    5310.4601    82.466284 
    2300    330.41133   -100.80067   0.29896311   -100.50171   -6982.3479    4.3680619    4.3680619    4.3680619   -6982.3479   -9799.6487   -94.790956   -11052.604    2533.2517   -1148.3588   -1125.4043    83.342467 
    2400    587.23407   -101.02838   0.53134173   -100.49704    7708.5707    4.3466714    4.3466714    4.3466714    7708.5707    16480.358    -2847.111    9492.4648    4934.0911   -5920.1478    2578.6478    82.124063 
    2500    420.42826   -100.88395   0.38041232   -100.50353   -1671.4788    4.3664505    4.3664505    4.3664505   -1671.4788   -16949.333    14123.838   -2188.9418   -325.36737   -592.95312    6957.8512    83.250267 
    2600    603.50201   -101.04608    0.5460613   -100.50002   -12893.513    4.3563896    4.3563896    4.3563896   -12893.513   -15356.931   -7745.9563   -15577.651    4588.6637   -1321.4958   -5104.7072     82.67613 
    2700    353.20509   -100.82521   0.31958739   -100.50562    15529.411    4.3489294    4.3489294    4.3489294    15529.411    290.33159    46312.862   -14.960205   -3688.9078    380.14421     9286.768    82.252117 
    2800    734.24091   -101.16888    0.6643566   -100.50452   -22408.588    4.3730798    4.3730798    4.3730798   -22408.588   -30603.503   -18715.535   -17906.727   -2139.2941    2431.7603   -8802.5979    83.630021 
    2900    422.12838   -100.88225   0.38195063    -100.5003    20319.972    4.3384365    4.3384365    4.3384365    20319.972      23355.6    38305.056   -700.73924   -3961.9173    258.75833     5469.266     81.65819 
    3000    468.91775   -100.92888   0.42428664    -100.5046   -13339.501    4.3741816    4.3741816    4.3741816   -13339.501   -10450.409    -18109.66   -11458.434    3569.8283   -1869.1594   -3671.6359    83.693251 
    3100    550.69323   -100.99713   0.49827881   -100.49885    14187.275    4.3508534    4.3508534    4.3508534    14187.275    21258.615     23451.56   -2148.3502   -179.64069    -2255.247   -1722.9273    82.361331 
    3200    354.64993   -100.82113   0.32089471   -100.50023    4248.2713    4.3536847    4.3536847    4.3536847    4248.2713    12418.301   -2694.9314    3021.4441    6572.5619   -2109.1847    7406.3347    82.522226 
    3300    453.44482   -100.90775    0.4102864   -100.49747   -4162.5726    4.3698454    4.3698454    4.3698454   -4162.5726    -8049.092   -3484.6422   -953.98374    530.18631   -5859.7039   -4898.1167    83.444596 
    3400     597.2546   -101.03608   0.54040851   -100.49567    12582.915    4.3426619    4.3426619    4.3426619    12582.915    16684.258    13708.581    7355.9045    641.69793    -510.6275    7223.1014     81.89701 
    3500      438.445   -100.89716   0.39671425   -100.50045   -15962.878    4.3715342    4.3715342    4.3715342   -15962.878    -31527.69    -12303.68   -4057.2641    2562.4744   -828.84487   -4848.6293    83.541382 
    3600    480.36552   -100.93207   0.43464481   -100.49743    5636.2504     4.353544     4.353544     4.353544    5636.2504   -6943.8574    29212.262   -5359.6535   -2318.5293   -205.98868    -953.5216    82.514224 
    3700    673.39534   -101.10749   0.60930226   -100.49819   -4811.6469    4.3539728    4.3539728    4.3539728   -4811.6469   -11522.115   -1814.6761   -1098.1496    10680.006    4799.4342     2907.141    82.538606 
    3800    412.22346   -100.87126   0.37298845   -100.49827   -8893.5351    4.3670227    4.3670227    4.3670227   -8893.5351   -20002.822    16304.669   -22982.452    3249.7036    702.85406   -1877.9116    83.282999 
    3900    468.26841   -100.92785    0.4236991   -100.50415    4282.3406    4.3460331    4.3460331    4.3460331    4282.3406    16891.686    5230.8404   -9275.5048    7867.7272    1697.1848    9700.2522    82.087887 
    4000    691.01368     -101.134    0.6252437   -100.50876    -9392.859    4.3633543    4.3633543    4.3633543    -9392.859   -4225.1275   -6258.4785   -17694.971   -5725.3486    1871.4133    -6593.629    83.073294 
    4100    303.72868   -100.78342   0.27482009    -100.5086   -7823.4292    4.3623457    4.3623457    4.3623457   -7823.4292     3732.388   -3392.0404   -23810.635    1110.1196   -4211.6317    6054.1714    83.015701 
    4200    428.57385   -100.88959   0.38778262    -100.5018    16419.652    4.3416119    4.3416119    4.3416119    16419.652    18149.971    28107.562    3001.4237   -1454.2739   -566.26699   -4591.7378    81.837623 
    4300    641.66672   -101.07848   0.58059353   -100.49789    -22854.57    4.3780785    4.3780785    4.3780785    -22854.57   -18356.104   -20351.663   -29855.945   -4350.4557   -313.82767   -1736.4102    83.917134 
    4400    383.70909   -100.84447   0.34718805   -100.49728    10806.725    4.3401984    4.3401984    4.3401984    10806.725    15697.306    13170.809    3552.0605    7939.9706   -2916.0031    1677.5049    81.757713 
    4500    536.31129   -100.99271   0.48526573   -100.50745   -5432.6242    4.3606683    4.3606683    4.3606683   -5432.6242   -14765.766    10180.457   -11712.564    1089.3244    2282.4337    2298.0786    82.919976 
    4600    631.24285   -101.07636    0.5711618    -100.5052   -15442.325    4.3655987    4.3655987    4.3655987   -15442.325   -14152.916   -11215.966   -20958.092    3554.0403    2541.3133    5965.4021    83.201555 
    4700    369.80511   -100.83181   0.33460744   -100.49721    22968.538    4.3357856    4.3357856    4.3357856    22968.538    13981.239    43596.408    11327.965   -2651.5576    396.67178     474.3061    81.508594 
    4800    479.02756   -100.92999    0.4334342   -100.49655   -23796.917    4.3807684    4.3807684    4.3807684   -23796.917    -19271.64   -18088.505   -34030.605   -5095.3834    1834.2525    862.52972    84.071905 
    4900    654.33916   -101.08616   0.59205983    -100.4941    14336.849    4.3375655    4.3375655    4.3375655    14336.849    25005.378    12955.735    5049.4352    4333.5054    65.197655   -1461.3891    81.609018 
    5000    360.20169   -100.83094   0.32591806   -100.50502   -6330.5947    4.3645638    4.3645638    4.3645638   -6330.5947   -7374.9928   -76.555838   -11540.236    2091.8889   -3618.8488    633.96727    83.142398 
    5100    573.13559   -101.02119   0.51858513   -100.50261   -10113.919    4.3593962    4.3593962    4.3593962   -10113.919   -10982.905   -1661.0553   -17697.798    8168.9095    997.45492    3098.0655    82.847425 
    5200    496.44155   -100.94801   0.44919075   -100.49882    21978.527    4.3412816    4.3412816    4.3412816    21978.527    12630.624    38925.754    14379.203    295.09368    -5349.986    1634.3278    81.818942 
    5300    527.29056    -100.9743   0.47710358    -100.4972   -27343.194    4.3752738    4.3752738    4.3752738   -27343.194   -25886.564   -26941.394   -29201.624    -484.5877    2734.3211    3255.0158    83.755957 
    5400    432.74762   -100.88758   0.39155914   -100.49602    22633.599     4.338724     4.338724     4.338724    22633.599     16805.18    41007.868    10087.749    1363.0158   -2051.7492    905.01349    81.674423 
    5500     685.1662   -101.12293   0.61995278   -100.50297   -9939.3375    4.3651063    4.3651063    4.3651063   -9939.3375   -6374.0643   -7198.9034   -16245.045    -3047.619    3591.8634   -1935.0395    83.173406 
    5600    305.28544   -100.78317   0.27622868   -100.50694     4695.604    4.3553897    4.3553897    4.3553897     4695.604    4737.7943     23244.18   -13895.163    13235.461    1556.8475   -5388.5937    82.619215 
    5700    406.63502   -100.87436   0.36793191   -100.50642    13453.227    4.3460952    4.3460952    4.3460952    13453.227    8926.3847    33245.192   -1811.8948   -16.649614    1890.2799   -974.66507    82.091406 
    5800    589.63183   -101.03757   0.53351127   -100.50406   -14538.706    4.3700479    4.3700479    4.3700479   -14538.706   -8370.3811   -10280.821   -24964.917    9012.1488    1914.0081    1451.3491    83.456197 
    5900    459.15817   -100.91533   0.41545597   -100.49987    4789.9308    4.3429118    4.3429118    4.3429118    4789.9308    8614.8599    12859.295   -7104.3629    881.67921   -1057.4562    1734.6094     81.91115 
    6000    541.50286   -100.99641   0.48996317   -100.50645   -9541.8066    4.3634555    4.3634555    4.3634555   -9541.8066   -17672.276     9073.274   -20026.417   -3042.1129    921.62337    3308.6654    83.079075 
    6100    499.63296   -100.95946    0.4520784   -100.50738   -1353.0573    4.3568457    4.3568457    4.3568457   -1353.0573   -16788.695    25739.962   -13010.439    7433.3257   -3367.7125    2578.1249    82.702101 
    6200    542.86924   -100.99515    0.4911995   -100.50395    3332.2727    4.3473899    4.3473899    4.3473899    3332.2727   -810.30844    21777.991   -10970.864   -1502.8126    509.80663   -2452.4845    82.164794 
    6300    542.72843   -100.99277   0.49107208    -100.5017   -13992.004     4.366066     4.366066     4.366066   -13992.004   -24956.669   -7741.3765   -9277.9665    12621.361   -3697.0995   -1267.0248    83.228277 
    6400    592.31854   -101.03505   0.53594226   -100.49911    9270.9315    4.3435228    4.3435228    4.3435228    9270.9315    14375.029    15897.179   -2459.4143   -4026.7584    3055.5671   -2218.0994    81.945728 
    6500    421.86891   -100.88601   0.38171585   -100.50429   -3556.5256    4.3618348    4.3618348    4.3618348   -3556.5256   -10516.401    9934.8005   -10087.976    126.66409    -2695.366    4152.8778    82.986534 
    6600    372.39706   -100.84214   0.33695268   -100.50518    6069.3396    4.3539299    4.3539299    4.3539299    6069.3396    8662.2059    14009.097   -4463.2842   -5303.4594       4741.8    1850.9839    82.536168 
    6700    559.10961   -101.01031   0.50589413   -100.50441    7205.3601    4.3509927    4.3509927    4.3509927    7205.3601    11359.706    10059.311    197.06368    103.60896    558.79588    6384.9752    82.369238 
    6800    415.33746   -100.87853   0.37580606   -100.50272    -7371.038    4.3620075    4.3620075    4.3620075    -7371.038   -8111.6518   -7133.4154   -6868.0467    8312.4353    1997.7779   -632.73343    82.996396 
    6900     550.3552   -100.99762   0.49797295   -100.49964    2677.6415    4.3521007    4.3521007    4.3521007    2677.6415   -1159.9079    12260.266   -3067.4334    1412.9915    3558.1756   -976.14967    82.432185 
    7000     420.0893   -100.88204   0.38010563   -100.50193    6709.3274    4.3558136    4.3558136    4.3558136    6709.3274   -11612.768    31574.041    166.70882     10715.87   -3943.9427   -3325.3082     82.64334 
    7100    464.68082   -100.92133   0.42045297   -100.50088   -5342.3989    4.3567089    4.3567089    4.3567089   -5342.3989    -18577.45    17325.217   -14774.964   -2641.8866    1722.0432   -1589.2003    82.694313 
    7200    592.72776    -101.0381   0.53631253   -100.50178   -6347.6346    4.3552135    4.3552135    4.3552135   -6347.6346    -11559.24   -2070.0821   -5413.5821    3796.6009   -3898.5645    312.10626    82.609185 
    7300    520.23376   -100.97706   0.47071844   -100.50634   -5155.2555    4.3539096    4.3539096    4.3539096   -5155.2555   -11934.453    3709.7858   -7241.0995    195.76306    -1423.774     3265.919    82.535015 
    7400     489.7883   -100.94895   0.44317074   -100.50578   -8430.8212    4.3552331    4.3552331    4.3552331   -8430.8212   -9905.8698    6841.9055   -22228.499    1853.3872   -2984.9011    3183.1858    82.610305 
    7500    395.65816   -100.86411   0.35799982   -100.50611    1849.2355    4.3549101    4.3549101    4.3549101    1849.2355   -11569.971    24780.847   -7663.1697    9972.6189    583.78271   -1272.0277    82.591927 
    7600    625.86574   -101.06817   0.56629647   -100.50187   -3507.1589    4.3548868    4.3548868    4.3548868   -3507.1589    1209.1009    4996.1985   -16726.776   -2997.4211   -2223.8059   -1276.9236    82.590598 
    7700    435.09163   -100.89576   0.39368005   -100.50208    -5976.919    4.3569114    4.3569114    4.3569114    -5976.919   -16763.539    7273.1672   -8440.3853    4769.7274    3100.3991   -5387.6094    82.705843 
    7800    613.09744   -101.05557   0.55474345   -100.50083    2194.8771    4.3533113    4.3533113    4.3533113    2194.8771    1003.4051    3947.1741    1634.0523   -6304.4574   -473.77294   -84.509296    82.500991 
    7900    515.17237   -100.96853   0.46613878   -100.50239    25.020367     4.357866     4.357866     4.357866    25.020367   -11737.473     19843.42   -8030.8866    664.26357   -2441.1724    1702.0141    82.760214 
    8000    305.61628   -100.78072   0.27652803   -100.50419     9440.255    4.3528309    4.3528309    4.3528309     9440.255   -8605.7743    24559.605    12366.935    6674.1531     2802.081    5236.9077    82.473681 
    8100    654.40261    -101.0931   0.59211723   -100.50099   -183.06269    4.3540428    4.3540428    4.3540428   -183.06269   -5881.3214    11469.884    -6137.751    1352.5189   -8400.0858    4824.2267     82.54259 
    8200    375.66541   -100.84316   0.33990996   -100.50325   -6491.2572    4.3618362    4.3618362    4.3618362   -6491.2572   -5599.0603   -19981.949    6107.2375    9887.3248    -180.5184    197.73094    82.986615 
    8300    588.58964   -101.03259   0.53256828   -100.50002    8730.8622    4.3438612    4.3438612    4.3438612    8730.8622    1729.5479    25806.195   -1343.1566    -3750.391   -6556.9214   -24.036568    81.964882 
    8400    401.55621   -100.87118    0.3633365   -100.50784    -13525.46    4.3683527    4.3683527    4.3683527    -13525.46   -16802.622   -8257.2661   -15516.491    6802.9961   -3535.6607   -2629.7722    83.359111 
    8500     472.2464   -100.93012   0.42729847   -100.50282    17541.998    4.3431808    4.3431808    4.3431808    17541.998    5736.9677    42057.783    4831.2432   -1789.7296   -1753.5558    2380.3127    81.926372 
    8600    510.56119   -100.96565   0.46196649   -100.50368    -15702.97    4.3627224    4.3627224    4.3627224    -15702.97   -23964.698   -1354.6858   -21789.527    4999.0209   -2204.2085   -964.65967    83.037208 
    8700    596.05064   -101.03951   0.53931915   -100.50019   -5939.4773    4.3543572    4.3543572    4.3543572   -5939.4773   -15527.625    4357.9127   -6648.7198    10924.688    291.00638     7315.565    82.560467 
    8800    593.92444   -101.03527   0.53739531   -100.49788    6943.5469    4.3460966    4.3460966    4.3460966    6943.5469    615.10797    24754.807   -4539.2748    -2547.644   -87.641958    1034.3514     82.09149 
    8900     313.7141   -100.78669   0.28385511   -100.50284   -18273.669    4.3704402    4.3704402    4.3704402   -18273.669   -35455.755    8759.0777   -28124.329    9624.7126    1703.1344    1905.3838    83.478677 
    9000    620.04576   -101.05967   0.56103044   -100.49864    20716.212    4.3354489    4.3354489    4.3354489    20716.212    20507.901    29352.556    12288.178   -12494.771   -3710.5895   -3096.9798    81.489603 
    9100    450.42689   -100.91122   0.40755572   -100.50367   -25122.263    4.3727469    4.3727469    4.3727469   -25122.263   -24144.051   -26551.712   -24671.026    9029.6685    2747.9604   -2535.6648    83.610926 
    9200     511.6906   -100.96037   0.46298841   -100.49738    10498.565    4.3436627    4.3436627    4.3436627    10498.565    13860.638    10329.612    7305.4443   -147.10513   -6755.6419    2044.4721    81.953646 
    9300    553.60867   -101.00022   0.50091676    -100.4993   -2487.8003     4.357024     4.357024     4.357024   -2487.8003    -13754.01    12580.103    -6289.493    3721.5312    50.354184   -1826.3828    82.712252 
    9400    399.19331     -100.861   0.36119849    -100.4998   -2760.3866    4.3599695    4.3599695    4.3599695   -2760.3866   -11704.827     9488.724   -6065.0573    11414.979   -249.85222    6777.0857    82.880114 
    9500    440.85177   -100.89796   0.39889194   -100.49907    16439.816    4.3423083    4.3423083    4.3423083    16439.816   -2762.2277    38975.349    13106.328   -6498.1581   -3569.9838    476.25976    81.877009 
    9600    544.87402   -100.99741   0.49301347   -100.50439   -19309.861    4.3699157    4.3699157    4.3699157   -19309.861   -27480.323   -14563.495   -15885.766    9021.2607    5088.2445    2690.2916    83.448625 
    9700    638.29469   -101.07759   0.57754245   -100.50004    8787.9233    4.3410389    4.3410389    4.3410389    8787.9233    4170.1842     12774.54    9419.0461   -5360.6662   -2079.3478   -2806.1988    81.805223 
    9800    313.10394   -100.78694   0.28330303   -100.50363   -14128.998     4.365607     4.365607     4.365607   -14128.998   -25198.248   -2111.0124   -15077.734    10645.125    3215.3596   -4356.5331    83.202025 
    9900    528.47556   -100.97795   0.47817579   -100.49977    1430.5507    4.3503451    4.3503451    4.3503451    1430.5507   -11161.599    27117.772   -11664.521    6282.8196   -4.6189283   -136.20058    82.332468 
   10000    549.95067   -100.99926   0.49760692   -100.50166    2934.5466    4.3496177    4.3496177    4.3496177    2934.5466    2604.0157    12741.426    -6541.802    5312.7005    926.84119   -1677.7612    82.291175 
   10100    374.55869   -100.84183   0.33890858   -100.50292   -16936.558    4.3667143    4.3667143    4.3667143   -16936.558   -30874.545    835.58698   -20770.716    5873.2534   -2206.5061    5948.6923    83.265356 
   10200    719.13813   -101.14822   0.65069129   -100.49753    12714.951    4.3376859    4.3376859    4.3376859    12714.951    20286.548    16702.747    1155.5576   -4795.9096   -267.69291   -2595.2414    81.615809 
   10300    484.44334   -100.94076   0.43833451   -100.50243   -12347.852    4.3693311    4.3693311    4.3693311   -12347.852   -29647.486    8068.3952   -15464.466    6238.7864   -352.87861    635.32714    83.415137 
   10400    310.47042   -100.78171   0.28092016   -100.50079    16240.313    4.3456468    4.3456468    4.3456468    16240.313    7585.9912    39367.352    1767.5956   -3940.7701   -4090.2724    -275.2699    82.066002 
   10500    579.31031   -101.02483   0.52417214   -100.50066    3042.9541    4.3528967    4.3528967    4.3528967    3042.9541   -6873.1197    21354.036   -5352.0539    8552.8486    4023.1899   -4775.9657    82.477423 
   10600    538.23961   -100.98732   0.48701051   -100.50031   -10954.561    4.3612135    4.3612135    4.3612135   -10954.561   -8544.5249   -9258.7276   -15060.429    3188.3154   -2389.9149   -444.95843    82.951081 
   10700    429.79501   -100.88902   0.38888756   -100.50013    10998.197    4.3433868    4.3433868    4.3433868    10998.197     13866.12    11293.391    7835.0792   -2297.6705    3069.9434   -287.44372     81.93803 
   10800    572.10424   -101.02016   0.51765194    -100.5025   -14881.022    4.3656518    4.3656518    4.3656518   -14881.022   -18957.481   -3482.9937   -22202.592    1611.2385   -1254.0055    3670.2525    83.204591 
   10900    452.73202   -100.90988   0.40964144   -100.50024    15903.884    4.3443107    4.3443107    4.3443107    15903.884    10267.448    35097.775    2346.4303   -9222.6634    181.33957   -657.73236    81.990327 
   11000    384.71065   -100.85195   0.34809428   -100.50385   -6150.7563    4.3591593    4.3591593    4.3591593   -6150.7563   -23834.059    16292.834   -10911.044    6133.5997   -2102.4708    -882.5028     82.83392 
   11100    653.89729   -101.09354   0.59166001   -100.50188   -7506.0284    4.3558581    4.3558581    4.3558581   -7506.0284   -13094.877    11705.388   -21128.596   -69.526217   -2426.4846   -3638.3975    82.645872 
   11200    593.24596   -101.03906   0.53678142   -100.50228    7612.3522     4.345541     4.345541     4.345541    7612.3522    -5328.174    20025.557    8139.6738    3444.1155   -616.78451    -3273.661    82.060006 
   11300    374.75906   -100.84329   0.33908987    -100.5042   -18223.399    4.3638035    4.3638035    4.3638035   -18223.399   -32842.697    7615.8252   -29443.324    3642.4152   -4476.0651    369.71216    83.098953 
   11400    527.04787   -100.97681   0.47688399   -100.49993    15032.912    4.3446716    4.3446716    4.3446716    15032.912    6649.5318    38977.822     -528.618   -7462.4093    3924.8019    554.55691    82.010767 
   11500    474.51925    -100.9324   0.42935499   -100.50304   -11087.847    4.3591763    4.3591763    4.3591763   -11087.847   -22643.692    726.71165   -11346.561    5420.3749   -4926.7071    3318.4919    82.834888 
   11600     472.5644   -100.92759    0.4275862       -100.5   -4263.8022     4.351637     4.351637     4.351637   -4263.8022   -891.42501   -876.03212   -11023.949   -4926.7149    2472.9689    1997.4692    82.405839 
   11700    550.24949   -101.00126    0.4978773   -100.50339    4709.8506     4.350223     4.350223     4.350223    4709.8506    3236.2956    10641.004    252.25266    10050.352   -783.68828   -1460.1934    82.325537 
   11800    528.44866   -100.98341   0.47815145   -100.50526    -10237.92    4.3610869    4.3610869    4.3610869    -10237.92   -22108.504    6455.4726   -15060.728    3807.6864   -4212.7145   -339.77157    82.943853 
   11900    373.18363   -100.83945   0.33766439   -100.50178    17110.446     4.346825     4.346825     4.346825    17110.446    10295.037    43177.045   -2140.7449    918.40121     680.5822   -3302.0994    82.132769 
   12000    532.18252   -100.98456   0.48152992   -100.50303   -9553.5761    4.3596091    4.3596091    4.3596091   -9553.5761    -21527.45    9367.1564   -16500.435    2973.9463   -7820.1644    1817.1769    82.859565 
   12100    647.44899   -101.08421   0.58582545   -100.49839    2969.6033    4.3532484    4.3532484    4.3532484    2969.6033    6500.0351    11225.705   -8816.9302   -3923.9619    -963.4909    2662.1492    82.497417 
   12200    483.38656   -100.93929   0.43737831   -100.50192   -8490.5363    4.3523812    4.3523812    4.3523812   -8490.5363   -17108.477    5223.3545   -13586.487    4377.0789   -6426.5448    3212.3884    82.448123 
   12300    452.75937   -100.91541   0.40966619   -100.50575   -1476.9948    4.3583265    4.3583265    4.3583265   -1476.9948   -1911.8752    12583.218   -15102.327   -248.44124    547.57521    76.388717    82.786457 
   12400    538.09212   -100.99143   0.48687705   -100.50455    2535.2539    4.3489383    4.3489383    4.3489383    2535.2539   -13575.024    29246.815   -8066.0297    4527.9595   -4097.4372   -3209.7236    82.252622 
   12500    420.08096   -100.88531   0.38009808   -100.50521   -9851.6593    4.3578689    4.3578689    4.3578689   -9851.6593    -20314.72    4324.2926   -13564.551    905.97856   -28.792083   -5349.2044    82.760382 
   12600    593.87781   -101.03869   0.53735313   -100.50134    2490.9623    4.3518911    4.3518911    4.3518911    2490.9623   -5429.5305     14836.02    -1933.603   -3824.2838    505.61423   -2835.6053    82.420274 
   12700    495.28311   -100.95143   0.44814257   -100.50329   -9286.3778    4.3552448    4.3552448    4.3552448   -9286.3778   -26011.431    6928.2151   -8775.9177    3327.4135   -5950.5799    2243.1505    82.610968 
   12800    509.34404   -100.96272   0.46086519   -100.50185    6059.9311    4.3510241    4.3510241    4.3510241    6059.9311    -13181.63    33062.752   -1701.3281   -5030.2358    1726.1518    3946.5808    82.371023 
   12900      367.103   -100.83804   0.33216251   -100.50588   -1780.8503    4.3573291    4.3573291    4.3573291   -1780.8503   -12415.443    18470.836   -11397.944    6096.4272   -8106.4892    4892.0817    82.729632 
   13000    543.30676   -100.99283   0.49159538   -100.50123    252.25328    4.3534609    4.3534609    4.3534609    252.25328   -10639.391    15267.959   -3871.8074    2553.6889   -1836.6154    4627.4701    82.509498 
   13100    471.49704   -100.92848   0.42662043   -100.50186   -433.18633     4.352942     4.352942     4.352942   -433.18633    9537.5702   -1942.4126   -8894.7166    2614.1811   -6970.8252      546.072        82.48 
   13200    511.67821   -100.96506   0.46297719   -100.50208   -7777.6838    4.3580341    4.3580341    4.3580341   -7777.6838   -4824.7508   -1870.3913   -16637.909    2553.9467   -5067.0558   -574.57486    82.769796 
   13300     485.1569   -100.94034   0.43898016   -100.50136    13236.395     4.349026     4.349026     4.349026    13236.395    15794.261     22159.71    1755.2153   -4704.0114    157.32753   -2066.1736    82.257596 
   13400    505.56995   -100.96392   0.45745032   -100.50647   -12712.856    4.3596929    4.3596929    4.3596929   -12712.856   -22804.121    6663.8047    -21998.25    6107.2774   -3913.7776    2251.7509    82.864344 
   13500    558.27805   -101.00956   0.50514171   -100.50442    17976.527    4.3472253    4.3472253    4.3472253    17976.527    16068.035    37198.129    663.41641   -24.144717    3153.7361    1402.0462    82.155464 
   13600    531.32099   -100.98529    0.4807504   -100.50454   -15234.021    4.3597863    4.3597863    4.3597863   -15234.021   -25132.091   -4650.4447   -15919.526    4743.2779   -4468.2843    4833.0853    82.869667 
   13700    555.24933   -101.00377   0.50240126   -100.50137    1062.3202    4.3515843    4.3515843    4.3515843    1062.3202   -2083.3136     10448.03    -5177.756    3670.1473    712.24645    529.36841    82.402846 
   13800    553.39235   -101.00243   0.50072103    -100.5017    455.62763    4.3545212    4.3545212    4.3545212    455.62763   -5520.5393    17542.105   -10654.683   -7578.9131   -3749.8611   -1438.0798    82.569799 
   13900    337.55871   -100.80843   0.30543021     -100.503   -4525.8353    4.3567327    4.3567327    4.3567327   -4525.8353   -19053.017    10388.497   -4912.9859    991.62042   -4019.8114   -3777.8614    82.695667 
   14000    540.21803   -100.98958   0.48880063   -100.50078    9170.2592    4.3491488    4.3491488    4.3491488    9170.2592   -6015.3205    34691.904    -1165.806   -10233.658   -1657.3083   -8112.8915    82.264566 
   14100    459.56261   -100.91988   0.41582191   -100.50406   -9254.5543    4.3613743    4.3613743    4.3613743   -9254.5543   -12598.143   -11430.926   -3734.5937     6100.975   -6364.4619   -3806.0529    82.960255 
   14200    538.29796   -100.98563   0.48706331   -100.49857    7684.9574    4.3467777    4.3467777    4.3467777    7684.9574    -9644.301    25223.501    7475.6718   -1992.8279    976.28647   -3226.5395    82.130091 
   14300    445.95525   -100.90558   0.40350969   -100.50207   -3308.2915    4.3588908    4.3588908    4.3588908   -3308.2915   -12204.537    5293.6328     -3013.97    5961.2444   -4409.9081    3253.2323    82.818617 
   14400    523.19516   -100.97579   0.47339798   -100.50239    9406.7701    4.3511849    4.3511849    4.3511849    9406.7701   -7664.8943    39920.576   -4035.3714    1764.5405    3305.3306    4427.0838    82.380157 
   14500     351.0906   -100.82472   0.31767415   -100.50705     3499.312      4.35126      4.35126      4.35126     3499.312      2163.09    10533.406   -2198.5594   -2332.6943   -144.62488    2732.2401    82.384421 
   14600    464.27695   -100.92689   0.42008754    -100.5068   -3691.9616    4.3561046    4.3561046    4.3561046   -3691.9616   -8686.3322    4947.9224    -7337.475    7754.7562    2667.4077   -18.048423    82.659904 
   14700    691.54027   -101.12746   0.62572017   -100.50174   -2627.6079    4.3539455    4.3539455    4.3539455   -2627.6079    8964.1125   -4013.6077   -12833.328    1923.6249   -171.07678   -1957.9743    82.537057 
   14800    273.39256   -100.75044   0.24737133   -100.50307   -3466.2735    4.3528325    4.3528325    4.3528325   -3466.2735   -18450.932     10570.96   -2518.8483    14041.379    -2070.394   -1679.3435    82.473771 
   14900    576.99846   -101.02268   0.52208033    -100.5006   -380.52357    4.3536005    4.3536005    4.3536005   -380.52357   -13831.778    28418.846   -15728.639    3820.4804     370.1126   -3117.3154    82.517435 
   15000    531.93277   -100.98574   0.48130395   -100.50444   -6247.5212    4.3555849    4.3555849    4.3555849   -6247.5212   -17796.989    16619.139   -17564.714    6013.2137   -7029.7039    3093.5218    82.630326 
   15100     467.5168   -100.92594   0.42301903   -100.50292   -635.97343    4.3503881    4.3503881    4.3503881   -635.97343   -22774.682    27187.916   -6321.1549    2395.6227    1296.7029    1542.3392     82.33491 
   15200    638.19139    -101.0809   0.57744898   -100.50345   -14519.806    4.3569397    4.3569397    4.3569397   -14519.806   -22343.794   -2623.9712   -18591.654   -2811.5745    -6120.231    1870.9957    82.707455 
   15300    511.16651   -100.96675    0.4625142   -100.50424    5281.2193    4.3484831    4.3484831    4.3484831    5281.2193    -13058.39    34464.056   -5562.0074    9103.4086    828.49983    -662.8609    82.226796 
   15400    390.58059   -100.85655   0.35340553   -100.50314   -10441.391    4.3615848    4.3615848    4.3615848   -10441.391    -31806.03    18710.716    -18228.86    -81.07978    -3482.399   -3949.6544     82.97227 
   15500    507.22974   -100.96184   0.45895213   -100.50289    3686.3096    4.3455823    4.3455823    4.3455823    3686.3096   -4142.0204    13166.359    2034.5902    10417.775    477.22113    -4268.376    82.062347 
   15600    649.14002   -101.08919   0.58735553   -100.50183   -8899.7927    4.3606268    4.3606268    4.3606268   -8899.7927   -13339.731    1224.0071   -14583.655   -21.929297    1759.2828    -18.17967    82.917609 
   15700    350.82557   -100.82103   0.31743434    -100.5036    1254.2928    4.3498712    4.3498712    4.3498712    1254.2928   -13057.871    16808.137    12.612289    4009.9026   -2366.5361    904.98014    82.305566 
   15800    427.05552   -100.89068   0.38640881   -100.50427    13255.209     4.352337     4.352337     4.352337    13255.209   -349.38224     41743.44   -1628.4326    2082.8127     4009.261    5570.4772    82.445609 
   15900    640.85311   -101.08249   0.57985736   -100.50264   -8025.2343    4.3585402    4.3585402    4.3585402   -8025.2343   -18728.857    9888.5959   -15235.442    5961.8248   -4988.6986    3938.0666    82.798632 
   16000    360.26565   -100.82954   0.32597593   -100.50356    13345.085    4.3446358    4.3446358    4.3446358    13345.085    4162.2208     23822.85    12050.185    10248.053    786.43211    2102.5606    82.008738 
   16100    651.22973   -101.09331   0.58924635   -100.50406   -13878.942    4.3638193    4.3638193    4.3638193   -13878.942   -20747.339   -68.014973   -20821.472    1461.9478   -4740.5215   -1799.5546    83.099858 
   16200    471.00135   -100.93236   0.42617192   -100.50618    7305.0142     4.346429     4.346429     4.346429    7305.0142     3620.485    15285.931    3008.6269    6305.4288   -3019.9644    -1555.561    82.110327 
   16300    353.48951   -100.82455   0.31984473   -100.50471      813.008      4.35513      4.35513      4.35513      813.008   -21715.907    32405.988   -8251.0569   -5746.1104   -4153.9849   -1202.3893    82.604438 
   16400    562.84478   -101.01283   0.50927379   -100.50356   -9894.9986    4.3587796    4.3587796    4.3587796   -9894.9986    -11924.51   -5037.1223   -12723.363    3956.0941   -1306.0473   -118.17102    82.812277 
   16500    545.44346   -100.99543    0.4935287    -100.5019    4496.4408     4.345917     4.345917     4.345917    4496.4408   -7673.5509    17497.695    3665.1782    2966.9097   -2430.5633    3361.7536    82.081312 
   16600    508.93895   -100.96383   0.46049866   -100.50334   -12552.793    4.3606682    4.3606682    4.3606682   -12552.793   -34246.653    15964.986   -19376.712    2708.3489   -2552.8819    4552.9345    82.919969 
   16700    395.86566   -100.86307   0.35818757   -100.50488     6797.782     4.350268     4.350268     4.350268     6797.782   -13348.904    36740.251   -2998.0002    9119.8883    3096.4256    1168.5445    82.328091 
   16800    571.78494   -101.02025   0.51736303   -100.50289   -1872.9252    4.3519638    4.3519638    4.3519638   -1872.9252   -15894.759    22607.192   -12331.209   -4876.0887   -4197.1799    1767.8572    82.424403 
   16900    514.97693   -100.96929   0.46596195   -100.50332   -15548.364     4.358347     4.358347     4.358347   -15548.364   -29120.394   -8076.9171   -9447.7822    5825.5217    2980.2422   -5709.6348    82.787621 
   17000    573.30682   -101.02161   0.51874006   -100.50287    4577.4206    4.3450816    4.3450816    4.3450816    4577.4206    10101.425    8348.6585   -4717.8222   -185.96347    -2483.296   -141.91275    82.033986 
   17100    473.19066   -100.93379   0.42815285   -100.50564   -5972.4175    4.3604174    4.3604174    4.3604174   -5972.4175   -21146.799    19042.811   -15813.264    6610.2405   -391.12887    -5383.761    82.905662 
   17200    352.33438   -100.82337   0.31879955   -100.50457    11312.323    4.3478457    4.3478457    4.3478457    11312.323    5037.0005    36897.459   -7997.4911    8150.8389   -2571.1203    2753.5683     82.19064 
   17300    654.53276   -101.09651   0.59223499   -100.50428    -3624.367     4.356378     4.356378     4.356378    -3624.367   -9416.6469    14646.678   -16103.132   -888.11764   -303.32277   -2321.7034    82.675469 
   17400    499.41529   -100.95626   0.45188145   -100.50438    1312.5087      4.35246      4.35246      4.35246    1312.5087    1146.9973    7627.1581   -4836.6294    5622.1379    -2316.775    3436.4986    82.452603 
   17500    407.50116   -100.87391   0.36871562   -100.50519    4884.6674    4.3528305    4.3528305    4.3528305    4884.6674   -17175.186    46297.459   -14468.271   -6026.7315   -3273.0006   -840.84807    82.473658 
   17600    611.42128   -101.05719   0.55322682   -100.50396   -1336.4378    4.3538304    4.3538304    4.3538304   -1336.4378   -7397.9255    12718.382   -9329.7695    8067.8629    2306.2238   -1178.1486    82.530511 
   17700    380.31141   -100.84864   0.34411375   -100.50453    3103.5747    4.3507428    4.3507428    4.3507428    3103.5747    -11670.51    23247.776   -2266.5418    182.78835   -5668.2394    359.20626    82.355048 
   17800    643.30184    -101.0853   0.58207302   -100.50323   -13768.901    4.3565947    4.3565947    4.3565947   -13768.901   -27724.592   -4360.2803   -9221.8301    4687.3821    3145.3819      1988.59    82.687806 
   17900    568.78281    -101.0207   0.51464664   -100.50605   -1075.9485    4.3511911    4.3511911    4.3511911   -1075.9485   -6930.0307    9774.2863   -6072.1013    5610.1389   -363.79047    2367.8769    82.380507 
   18000    365.95919   -100.83565   0.33112756   -100.50452    5100.2233    4.3530846    4.3530846    4.3530846    5100.2233   -20519.702    33662.857    2157.5145    -7214.889    706.75484    2806.6123    82.488103 
   18100    452.53046   -100.91401   0.40945907   -100.50455   -338.16484    4.3528185    4.3528185    4.3528185   -338.16484   -24814.713    34918.996   -11118.778    5230.7385   -814.38084   -1924.9315    82.472976 
   18200    608.37947   -101.05371   0.55047453   -100.50323   -2468.2022    4.3540451    4.3540451    4.3540451   -2468.2022   -5378.9392    8261.5974   -10287.265   -4480.0882    809.02472    710.51743    82.542718 
   18300    557.93008   -101.00591   0.50482687   -100.50108   -3629.8699    4.3506758    4.3506758    4.3506758   -3629.8699   -20489.194    10773.044   -1173.4596    5624.7317    -2135.607   -7364.4554    82.351244 
   18400    386.43545   -100.85647   0.34965491   -100.50682   -3587.7912    4.3568911    4.3568911    4.3568911   -3587.7912   -18190.012    25534.603   -18107.964    2008.5084   -2518.2011   -355.35657    82.704684 
   18500    615.90317   -101.06156   0.55728213   -100.50428    6764.4445    4.3485168    4.3485168    4.3485168    6764.4445   -2373.7037     26296.59   -3629.5526   -5510.5604    2411.9226   -4744.3144    82.228706 
   18600    407.16849   -100.87456    0.3684146   -100.50614   -10074.051    4.3578966    4.3578966    4.3578966   -10074.051    -20538.74    2460.5332   -12143.947    1293.5935    -5630.755    4154.8809     82.76196 
   18700    524.73847   -100.97966    0.4747944   -100.50486    6066.6187     4.346883     4.346883     4.346883    6066.6187    7657.1274    13657.517   -3114.7883   -11990.992    3713.3427   -2835.6465    82.136059 
   18800    676.86081    -101.1173   0.61243788   -100.50486   -3505.6208     4.356153     4.356153     4.356153   -3505.6208   -5258.6763    4825.4366   -10083.623    6515.5277   -1515.9056    3892.8147    82.662659 
   18900    215.34967   -100.70158   0.19485291   -100.50673    11048.802    4.3515462    4.3515462    4.3515462    11048.802    -382.1912    37148.629   -3620.0326   -2222.8492   -178.89429   -2237.8257    82.400682 
   19000    551.92879   -101.00367   0.49939676   -100.50428    2117.5453    4.3494689    4.3494689    4.3494689    2117.5453   -10797.814    25300.317   -8149.8672    1799.3486    2454.5035   -79.158633    82.282728 
   19100    535.81919   -100.99182   0.48482046     -100.507   -2647.2359    4.3563615    4.3563615    4.3563615   -2647.2359   -6976.5501     3075.883   -4041.0408    1025.3958   -1422.9355   -5.9989504     82.67453 
   19200    560.64776   -101.01122   0.50728588   -100.50394   -6942.1637    4.3485183    4.3485183    4.3485183   -6942.1637   -18613.354    378.50118   -2591.6385   -9496.7557   -132.73332     738.2428    82.228793 
   19300    434.67463    -100.8982   0.39330274    -100.5049   -6815.5575    4.3572131    4.3572131    4.3572131   -6815.5575   -24862.307    13289.317   -8873.6823    3930.9015   -1687.4233    2500.8065    82.723022 
   19400    506.94058     -100.962   0.45869049   -100.50331    3989.3535    4.3499941    4.3499941    4.3499941    3989.3535   -12541.539    22110.698    2398.9016   -6617.3626    970.87055    2552.9725     82.31254 
   19500    526.83951   -100.97868   0.47669546   -100.50199   -5696.7022    4.3536067    4.3536067    4.3536067   -5696.7022   -20368.754    14532.254   -11253.607    6021.5119   -4846.5363   -475.92989    82.517789 
   19600    426.98969   -100.89078   0.38634924   -100.50444   -1068.8622    4.3544106    4.3544106    4.3544106   -1068.8622   -13609.112    14583.715   -4181.1896   -5640.7919    2149.6876   -1529.1272    82.563508 
   19700    688.17108   -101.12443   0.62267165   -100.50176    -2675.142    4.3515355    4.3515355    4.3515355    -2675.142    2391.1814   -1019.7191   -9396.8884    -7226.377   -2099.5428   -5479.8896    82.400074 
   19800    375.42208   -100.84413   0.33968978   -100.50445    6209.4444     4.350497     4.350497     4.350497    6209.4444   -17980.169    44552.074   -7943.5712   -5918.4653   -1358.1349    1881.1874    82.341092 
   19900    406.31829   -100.87293   0.36764533   -100.50528    157.45758    4.3571307    4.3571307    4.3571307    157.45758   -5574.3006    16621.023    -10574.35   -13049.344    2925.9135   -4071.4423    82.718331 
   20000    675.44935   -101.11193   0.61116077   -100.50077    1500.1448    4.3481294    4.3481294    4.3481294    1500.1448   -5529.7222    22653.809   -12623.652    489.20646   -3386.8005    4655.9435    82.206732 
   20100    391.26435    -100.8601   0.35402421   -100.50607   -1320.4333    4.3516707    4.3516707    4.3516707   -1320.4333   -6048.5007    3747.3005   -1660.0998   -9454.5809    2001.0339   -648.64079    82.407755 
   20200    632.92826   -101.07643   0.57268679   -100.50375   -8516.6474    4.3583428    4.3583428    4.3583428   -8516.6474     -17010.5    12645.882   -21185.324   -99.076111   -1142.3434    2227.4086    82.787382 
   20300     369.4016   -100.84002   0.33424233   -100.50578    19285.065    4.3426212    4.3426212    4.3426212    19285.065    8590.8087    46377.922    2886.4632   -9430.6306   -785.42982   -1558.5949    81.894709 
   20400    528.00739   -100.98236   0.47775218    -100.5046   -11834.262    4.3608954    4.3608954    4.3608954   -11834.262   -23404.588    6792.6212    -18890.82   -6441.7528   -1603.2474    861.07744    82.932931 
   20500    499.39493    -100.9548   0.45186303   -100.50294    6173.5758    4.3480086    4.3480086    4.3480086    6173.5758    -2409.936    24574.397   -3643.7339   -975.39459   -152.22127   -98.952753     82.19988 
   20600    534.83449   -100.99126   0.48392949   -100.50733   -1436.4673    4.3487148    4.3487148    4.3487148   -1436.4673    -8437.765    8375.3782    -4247.015   -4633.6208   -1492.3056    2956.9845     82.23994 
   20700    458.30528   -100.91899   0.41468425    -100.5043   -13123.533      4.36435      4.36435      4.36435   -13123.533   -36454.079     19715.39    -22631.91    5411.1686   -1335.6566    3893.0542    83.130182 
   20800    391.31768   -100.85755   0.35407246   -100.50347    8305.9259    4.3382728    4.3382728    4.3382728    8305.9259   -9877.4109     22334.64    12460.548    -13074.22    1250.2506    1182.6087    81.648944 
   20900     705.8796    -101.1419    0.6386947   -100.50321   -14528.254    4.3604186    4.3604186    4.3604186   -14528.254   -17014.446   -6931.9953    -19638.32   -940.90539   -1558.6054    -180.0436    82.905729 
   21000    420.53283   -100.88429   0.38050694   -100.50378    -9972.971    4.3544483    4.3544483    4.3544483    -9972.971   -26878.316    5378.3343   -8418.9315     -8706.98     2422.191    1262.2421     82.56565 
   21100    491.05521   -100.94716   0.44431708   -100.50284    14404.226    4.3395196    4.3395196    4.3395196    14404.226    14977.112    21486.409    6749.1562   -1993.2799   -278.98271   -4834.0873    81.719359 
   21200    495.38472   -100.94995   0.44823451   -100.50172   -8862.0954    4.3679715    4.3679715    4.3679715   -8862.0954   -17811.549      20203.5   -28978.238    2254.0853    1409.2371    315.27439    83.337292 
   21300    375.40692   -100.84042   0.33967607   -100.50075    14747.756    4.3371334    4.3371334    4.3371334    14747.756    11207.785    24247.321    8788.1618   -8309.2197   -1500.3567   -2092.2765    81.584629 
   21400    614.97685   -101.05951   0.55644398   -100.50306   -5621.9737    4.3589777    4.3589777    4.3589777   -5621.9737   -10489.381    9914.6756   -16291.216    124.77286    735.86269     2675.723    82.823569 
   21500    590.39381   -101.03764   0.53420073   -100.50344   -4875.3626    4.3523321    4.3523321    4.3523321   -4875.3626   -3576.8052    -1469.356   -9579.9265   -11767.266     -554.487   -965.24548    82.445334 
   21600    426.06003   -100.88973   0.38550807   -100.50422    9771.8484    4.3410366    4.3410366    4.3410366    9771.8484   -5832.1856    35134.116    13.614206    1711.6251   -2414.7894    467.76499    81.805094 
   21700    467.95903   -100.92737   0.42341917   -100.50395   -12855.356    4.3673211    4.3673211    4.3673211   -12855.356   -16782.403    1821.7065   -23605.371   -290.07793    3067.3162   -1917.9845     83.30007 
   21800    601.11711   -101.04464    0.5439034   -100.50073    7854.5292    4.3388635    4.3388635    4.3388635    7854.5292    11138.424    12018.796    406.36735   -487.46274   -2985.0967   -1138.0947    81.682299 
   21900    417.23722   -100.88058     0.377525   -100.50306   -9531.7971    4.3590131    4.3590131    4.3590131   -9531.7971   -22617.506    10056.785    -16034.67   -1468.5688    1766.6313   -669.04385    82.825587 
   22000    557.14153   -101.00648   0.50411337   -100.50237   -1552.5662    4.3511561    4.3511561    4.3511561   -1552.5662   -8866.0865    11522.318   -7313.9303   -11522.375    1819.8069    3346.7369    82.378521 
   22100    433.38765   -100.89515   0.39213826   -100.50301    10020.604    4.3479781    4.3479781    4.3479781    10020.604   -6724.2404    44285.596   -7499.5434    4206.5921   -944.73027    396.00625    82.198152 
   22200    539.68926   -100.99039   0.48832219   -100.50207    -12363.13    4.3576972    4.3576972    4.3576972    -12363.13   -25374.344    1694.0087   -13409.055   -8334.8041   -100.14254    6683.1199    82.750602 
   22300    491.45153   -100.94732   0.44467567   -100.50264     8480.923    4.3458197    4.3458197    4.3458197     8480.923     8772.102     21775.89   -5105.2226    7426.6864    331.04233   -1175.8622    82.075797 
   22400     639.9011   -101.08213   0.57899597   -100.50313    -9975.053    4.3573421    4.3573421    4.3573421    -9975.053   -8204.2375   -5352.3547   -16368.567   -4192.6049   -1064.8487    2186.0952    82.730369 
   22500    339.61944   -100.81316    0.3072948   -100.50586    5697.9801    4.3495525    4.3495525    4.3495525    5697.9801    4013.0082    20786.672     -7705.74   -6267.0258    -2790.086    -3656.952    82.287474 
   22600    461.48746   -100.92323   0.41756356   -100.50566    6705.8562    4.3490313    4.3490313    4.3490313    6705.8562   -2117.9801    32872.112   -10636.564    3469.7892    2444.4366    158.00562    82.257896 
   22700    593.52918   -101.04306   0.53703767   -100.50602     -6253.94    4.3586467    4.3586467    4.3586467     -6253.94    3283.1247   -3789.2529   -18255.692   -5020.4967   -4003.8666   -3837.8323    82.804704 
   22800    442.67266   -100.90675   0.40053952   -100.50621    1285.0269    4.3458884    4.3458884    4.3458884    1285.0269   -15677.037    22823.592   -3291.4745    11924.782    1374.4878    368.61403    82.079688 
   22900    618.04585   -101.06548   0.55922088   -100.50626   -1962.7532    4.3534433    4.3534433    4.3534433   -1962.7532   -6411.0854    16500.189   -15977.363   -36.244031   -78.271522   -1920.9657    82.508496 
   23000    399.77344   -100.86804   0.36172341   -100.50632    1492.7765    4.3550239    4.3550239    4.3550239    1492.7765    -17895.32    37148.224   -14774.575    772.70161   -581.35594    294.84562    82.598396 
   23100    451.96559   -100.91368   0.40894796   -100.50474    272.77242    4.3450991    4.3450991    4.3450991    272.77242   -11856.442    17143.848   -4469.0885    2608.6397    2363.7947    -2390.675    82.034976 
   23200    618.41091   -101.06594   0.55955119   -100.50638   -7725.8891    4.3567966    4.3567966    4.3567966   -7725.8891    -3547.996   -985.07313   -18644.598   -6832.8334   -2280.6994    1463.7942    82.699302 
   23300    446.92733   -100.91349   0.40438924    -100.5091   -1591.4894    4.3488897    4.3488897    4.3488897   -1591.4894   -5824.1604    5130.4315   -4080.7394    11336.261    3037.7262   -3081.8698    82.249861 
   23400    522.37033   -100.98016   0.47265165   -100.50751    267.32855    4.3516506    4.3516506    4.3516506    267.32855   -5396.0416    21171.388   -14973.361   -1384.2244   -3424.6555    4451.5615    82.406613 
   23500    370.00833   -100.84172   0.33479131   -100.50693    3666.8547    4.3555281    4.3555281    4.3555281    3666.8547   -4841.2567    28223.252   -12381.431    3309.3685    2839.6681   -1210.3675    82.627088 
   23600    692.51487   -101.12871   0.62660201   -100.50211     297.4492     4.349081     4.349081     4.349081     297.4492   -25.400665      8843.87   -7926.1217   -497.47125    -1424.398    6387.4045    82.260715 
   23700    439.39229   -100.90058   0.39757138   -100.50301    1999.2208    4.3520283    4.3520283    4.3520283    1999.2208      -407.32    14856.058   -8451.0754   -1927.8493    223.62511   -1567.8674    82.428069 
   23800    533.33082   -100.98748   0.48256893   -100.50491   -2718.9298    4.3532018    4.3532018    4.3532018   -2718.9298   -7801.7081    11790.746   -12145.827    7922.3612    3049.2758    4043.5029    82.494766 
   23900    500.50299   -100.95567   0.45286563    -100.5028        10364    4.3518052    4.3518052    4.3518052        10364    10088.473    33777.198   -12773.671    2591.8017   -1126.4776   -328.70164    82.415393 
   24000    315.81689   -100.79056   0.28575776    -100.5048   -3294.8421    4.3497933    4.3497933    4.3497933   -3294.8421   -22187.871    17098.631   -4795.2863    12677.707    2658.3592   -1754.5907    82.301143 
   24100    688.10293   -101.12591   0.62260999    -100.5033   -8899.5319    4.3551454    4.3551454    4.3551454   -8899.5319   -3437.2505    -2091.221   -21170.124    826.71231    1013.5469   -1597.8006    82.605311 
   24200    465.94347   -100.92898   0.42159544   -100.50738    668.16508    4.3497516    4.3497516    4.3497516    668.16508    -10659.96    19752.293    -7087.838    1772.6691    4046.1461   -1093.3822    82.298774 
   24300    513.85034   -100.97127   0.46494259   -100.50633   -9777.8159    4.3532226    4.3532226    4.3532226   -9777.8159   -26796.437    9647.3386    -12184.35    4913.4996   -1969.9106   -1399.4357    82.495948 
   24400    459.57191   -100.92088   0.41583032   -100.50505    8381.9755    4.3511779    4.3511779    4.3511779    8381.9755   -5068.0979    49427.632   -19213.608   -75.730738    4770.4276    1283.7355     82.37976 
   24500     546.5439    -101.0004    0.4945244   -100.50588   -7279.7579    4.3514512    4.3514512    4.3514512   -7279.7579   -12917.713   -712.18524    -8209.376    12550.329    -1426.639    -3497.162    82.395283 
   24600    519.31548   -100.97306   0.46988756   -100.50317    1470.5973      4.35332      4.35332      4.35332    1470.5973   -724.51575    22138.844   -17002.537   -4838.6574   -569.28725    3324.8986    82.501489 
   24700     409.6225   -100.87725   0.37063505   -100.50662    2992.7134    4.3503442    4.3503442    4.3503442    2992.7134    6003.4763     16585.81   -13611.146    4757.0883    3721.3874   -4134.3485    82.332414 
   24800    556.04197   -101.00936   0.50311846   -100.50624    4227.4219    4.3533543    4.3533543    4.3533543    4227.4219   -628.63848    27215.226   -13904.321    -6235.772   -3083.3306    3594.4577    82.503438 
   24900    359.48975   -100.83028   0.32527388   -100.50501     4317.086    4.3516378    4.3516378    4.3516378     4317.086   -2668.6386    25798.259   -10178.362    4642.6972    2947.8412    -1864.647    82.405884 
   25000    641.15892   -101.08494   0.58013406    -100.5048   -10022.294    4.3493648    4.3493648    4.3493648   -10022.294   -13886.668   -4841.8826   -11338.332    8530.7245   -727.26984    4049.5886    82.276823 
   25100    578.29284   -101.02746   0.52325151   -100.50421    2433.0094    4.3554818    4.3554818    4.3554818    2433.0094   -1853.8072     23843.14   -14690.305    1805.1692    3477.4084    2140.4565    82.624457 
   25200    378.60866   -100.84853   0.34257307   -100.50596   -2299.7337    4.3474133    4.3474133    4.3474133   -2299.7337   -26987.996    25857.145   -5768.3499    10876.538   -947.37492    1954.5846    82.166123 
   25300    548.20558   -101.00427   0.49602793   -100.50825   -1024.9766    4.3539555    4.3539555    4.3539555   -1024.9766   -2048.9742    20201.511   -21227.467   -3243.6713    1710.8837    2172.6782    82.537621 
   25400    514.49281   -100.97443    0.4655239   -100.50891    344.50529     4.350927     4.350927     4.350927    344.50529   -7499.0939    14683.846   -6151.2367    7246.6624    340.21526   -2339.8431    82.365508 
   25500    477.05614   -100.93926   0.43165042   -100.50761   -10001.024    4.3506693    4.3506693    4.3506693   -10001.024   -18639.927   -142.84496   -11220.301    6595.5196   -1450.3868    2818.2877    82.350876 
   25600    485.93083   -100.94461   0.43968042   -100.50493    2023.7199    4.3566925    4.3566925    4.3566925    2023.7199   -3290.7344    27796.787   -18434.892    7240.3802    1614.5263    317.40804    82.693379 
   25700    535.76789   -100.98883   0.48477404   -100.50406    -732.7322    4.3452555    4.3452555    4.3452555    -732.7322   -11887.103    13531.329   -3842.4226    6109.3452   -2551.9214   -517.49592    82.043835 
   25800    408.26626   -100.87428   0.36940789   -100.50487   -5473.1027    4.3580758    4.3580758    4.3580758   -5473.1027   -15046.443    16787.624   -18160.489   -3203.0565    2783.2818    5292.1273    82.772171 
   25900    648.58759   -101.09186   0.58685568   -100.50501   -2629.9119    4.3486306    4.3486306    4.3486306   -2629.9119    1294.0049   -1225.7684   -7957.9721    4003.2525   -1406.2178   -3891.3327    82.235163 
   26000    514.64514   -100.97334   0.46566174   -100.50768   -2894.7399    4.3528646    4.3528646    4.3528646   -2894.7399   -4000.9364    12430.383   -17113.666   -774.50321      2466.67    1256.1272    82.475598 
   26100    350.49093   -100.82232   0.31713156   -100.50519    11478.374    4.3508128    4.3508128    4.3508128    11478.374    4212.2526    36365.789    -6142.918    7008.6509    1550.5028   -6403.8989    82.359022 
   26200     459.4447   -100.92136   0.41571522   -100.50565   -3438.9674    4.3526694    4.3526694    4.3526694   -3438.9674   -8628.6757    18332.544   -20020.771    3846.2097    799.98519    831.91042    82.464502 
   26300    612.41192   -101.05771   0.55412317   -100.50359    2024.9135    4.3514036    4.3514036    4.3514036    2024.9135     8448.901    7551.8911   -9926.0516    326.91708    5428.9495   -2028.5083    82.392578 
   26400    438.91811   -100.90157   0.39714233   -100.50442   -7407.1578     4.352436     4.352436     4.352436   -7407.1578   -21503.867    11575.225   -12292.832    660.44861   -2247.8741    1417.5441    82.451237 
   26500    514.89659   -100.97025   0.46588926   -100.50436   -7984.6543    4.3536548    4.3536548    4.3536548   -7984.6543   -11119.905    6600.1316   -19434.189   -2277.4879    5742.2476    5129.7814    82.520523 
   26600    579.36977   -101.02776   0.52422594   -100.50353     6035.258    4.3479786    4.3479786    4.3479786     6035.258   -11526.095    34582.614   -4950.7447     4598.607   -2916.0448   -114.66128    82.198179 
   26700    357.48089   -100.82851   0.32345622   -100.50506   -15886.854    4.3606378    4.3606378    4.3606378   -15886.854   -28222.852    2775.6047   -22213.315    3086.8299     663.4704    3101.5111    82.918234 
   26800     598.9806    -101.0437   0.54197024   -100.50173     9527.266    4.3433807    4.3433807    4.3433807     9527.266    7806.1455    25319.058   -4543.4056   -119.49162    890.96889    -1038.088    81.937684 
   26900    582.39611   -101.03131   0.52696424   -100.50435   -6158.3212    4.3569407    4.3569407    4.3569407   -6158.3212   -8712.6384    5612.6301   -15374.955    1933.9582   -2706.1105   -2467.6058    82.707511 
   27000     355.9074   -100.82599    0.3220325   -100.50396    8570.6238    4.3519472    4.3519472    4.3519472    8570.6238   -2513.4809    43211.596   -14986.244   -8680.1535    3630.6068    2771.5354    82.423464 
   27100    535.00862   -100.98886   0.48408704   -100.50477    5961.7654    4.3470047    4.3470047    4.3470047    5961.7654    2818.9065    18046.917   -2980.5277    5225.9326   -4108.0604   -368.97139    82.142957 
   27200    576.10219   -101.02719   0.52126937   -100.50592   -5498.4121    4.3584486    4.3584486    4.3584486   -5498.4121    -10430.08    10926.569   -16991.726   -4380.4907    5129.2097    4228.5864    82.793413 
   27300    529.98902   -100.98207    0.4795452   -100.50253    3109.8083     4.347133     4.347133     4.347133    3109.8083    144.62879    9713.2962   -528.49995    5736.2532   -5597.2396   -2633.8378     82.15023 
   27400    473.33077   -100.93205   0.42827963   -100.50377   -4907.9602    4.3548405    4.3548405    4.3548405   -4907.9602   -16456.897    11981.374   -10248.358    688.22714     2612.642    3021.7996    82.587966 
   27500    515.36932   -100.97041   0.46631699   -100.50409    4463.7269    4.3526862    4.3526862    4.3526862    4463.7269    757.08527    22762.697   -10128.602   -7466.3895    -4283.966     -4650.03    82.465458 
   27600    443.71325   -100.90504   0.40148108   -100.50356    4505.7606    4.3463994    4.3463994    4.3463994    4505.7606   -9551.2258    23094.358    -25.85052    3867.4264   -4354.6562   -2284.0483    82.108646 
   27700    414.97183   -100.88122   0.37547524   -100.50575   -9928.4395    4.3621167    4.3621167    4.3621167   -9928.4395   -13735.735    3698.9471    -19748.53   -6896.2502   -1469.5861    1931.0547    83.002626 
   27800    683.18918   -101.12108   0.61816393   -100.50292    4794.8927    4.3435682    4.3435682    4.3435682    4794.8927    3911.5333    13303.285   -2830.1401    9779.2732   -8896.8958   -1493.4877    81.948298 
   27900    353.70251   -100.82644   0.32003747    -100.5064   -4443.5468    4.3572861    4.3572861    4.3572861   -4443.5468   -22145.004    23118.436   -14304.072   -1710.6367    1560.5119    6793.6746    82.727182 
   28000    463.12518   -100.92278   0.41904539   -100.50373   -6240.2294    4.3532159    4.3532159    4.3532159   -6240.2294   -14571.086     13315.63   -17465.233   -677.70354   -7198.2222    998.92714    82.495568 
   28100     587.1784    -101.0322   0.53129136   -100.50091    11222.375    4.3410482    4.3410482    4.3410482    11222.375    7753.4716    23848.833     2064.821   -472.64898    932.16583    1566.9158    81.805747 
   28200    519.86772   -100.97151   0.47038724   -100.50113   -28286.963    4.3685338    4.3685338    4.3685338   -28286.963   -26207.758   -24978.943   -33674.189   -8310.0765   -4538.3107    2185.2356    83.369483 
   28300    412.81549   -100.87378   0.37352413   -100.50025    22243.851    4.3317661    4.3317661    4.3317661    22243.851    34169.448    27884.069    4678.0372    5469.7878    188.32412    -4680.674    81.282117 
   28400    572.95235   -101.02476   0.51841933   -100.50635   -14816.267    4.3649061    4.3649061    4.3649061   -14816.267   -11089.403   -6037.0073   -27322.391   -1829.9865   -3988.9193    7239.8932     83.16196 
   28500    310.27318     -100.786   0.28074169   -100.50525    7807.1248    4.3490618    4.3490618    4.3490618    7807.1248    12588.656    31686.638    -20853.92    6407.9511   -3674.5396    -5843.227    82.259628 
   28600    511.76934   -100.96545   0.46305965   -100.50239    4897.0223    4.3423304    4.3423304    4.3423304    4897.0223   -4390.2096    20226.037   -1144.7603   -1198.0379   -361.80198    8802.7746     81.87826 
   28700    546.38949   -100.99537   0.49438469   -100.50099   -20523.477    4.3652375    4.3652375    4.3652375   -20523.477   -17823.519   -13740.021   -30006.891   -5479.6751   -7181.5366    516.94108    83.180901 
   28800    615.20244   -101.05282    0.5566481   -100.49617    7727.0198    4.3372676    4.3372676    4.3372676    7727.0198   -1456.2363    20525.058    4112.2378    2797.9297    1031.7276   -1816.6987    81.592202 
   28900     337.9291   -100.80822   0.30576535   -100.50246   -14510.466    4.3617665    4.3617665    4.3617665   -14510.466   -25511.367    5349.4881    -23369.52   -5260.0586   -4420.3576    2307.2764    82.982637 
   29000    553.46323   -101.00196   0.50078516   -100.50118    2541.1022    4.3462885    4.3462885    4.3462885    2541.1022   -812.92779    14268.221   -5831.9864    6063.6139   -1076.4754   -8827.6731    82.102364 
   29100    525.90796   -100.97848   0.47585257   -100.50263   -3230.1737    4.3501994    4.3501994    4.3501994   -3230.1737   -661.58289    1375.9071   -10404.845    3356.1121    635.80698    2031.8803    82.324198 
   29200     386.2859   -100.85479    0.3495196   -100.50527   -7195.0762    4.3549382    4.3549382    4.3549382   -7195.0762   -2496.5073   -2495.4589   -16593.262   -4292.6084   -1220.3228    -5473.371    82.593523 
   29300    631.74081   -101.07358   0.57161236   -100.50197    6040.2458    4.3476901    4.3476901    4.3476901    6040.2458    18137.097     5902.993   -5919.3523   -2153.4787    1104.0531    275.89675    82.181819 
   29400    379.32673   -100.84966    0.3432228   -100.50644    3859.6176    4.3507779    4.3507779    4.3507779    3859.6176    -5419.375    33498.086   -16499.858   -8925.5829   -3417.8467    104.26331    82.357045 
   29500    474.27032   -100.93384   0.42912975   -100.50471    5358.4686    4.3544292    4.3544292    4.3544292    5358.4686    6931.1537    23939.476   -14795.224   -236.67904    54.060496   -6510.7777    82.564564 
   29600    619.24934   -101.06382   0.56030982   -100.50351   -930.61763    4.3483113    4.3483113    4.3483113   -930.61763   -9287.9166    17851.076   -11355.012    2225.6114   -3825.6778    2624.9217    82.217051 
   29700    458.86013   -100.92253   0.41518629   -100.50735   -1266.5261    4.3529122    4.3529122    4.3529122   -1266.5261    6620.0698    4676.7447   -15096.393     -1430.78   -2932.1536    -10908.31    82.478305 
   29800    667.48231   -101.10748   0.60395202   -100.50353   -2738.6392    4.3515347    4.3515347    4.3515347   -2738.6392   -15483.034    21666.267    -14399.15    6457.6686    478.28609    4399.2082    82.400024 
   29900     277.2288   -100.75758   0.25084244   -100.50673    6267.2987    4.3462155    4.3462155    4.3462155    6267.2987    6627.0505    21887.133    -9712.287   -8827.9541   -5304.8363   -6408.5893    82.098226 
   30000    650.35214   -101.09054   0.58845228   -100.50208   -8379.1518    4.3580628    4.3580628    4.3580628   -8379.1518   -8474.5052    878.05202   -17541.002    4891.6631    3385.7243    1869.6593    82.771427 
   30100    413.78133   -100.87868   0.37439805   -100.50428    7220.5586    4.3422229    4.3422229    4.3422229    7220.5586    4121.2315    24102.893    -6562.449   -3484.9347   -4381.2333   -1063.8742    81.872175 
   30200     554.6214    -101.0099    0.5018331   -100.50806   -6955.3169    4.3565854    4.3565854    4.3565854   -6955.3169   -3441.7257   -2341.3203   -15082.905    7475.6167      2316.98    -6439.297     82.68728 
   30300    449.87926   -100.91162    0.4070602   -100.50456    5068.6872    4.3532508    4.3532508    4.3532508    5068.6872   -3535.1988    32771.328   -14030.067    3767.2597   -3267.8912   -729.53851    82.497552 
   30400    433.85514    -100.8974   0.39256125   -100.50484     738.3043    4.3468756    4.3468756    4.3468756     738.3043   -6293.5769    22285.276   -13776.787   -1085.3474   -77.170751   -13925.969    82.135638 
   30500     599.1622   -101.04204   0.54213455    -100.4999    2538.2295    4.3536032    4.3536032    4.3536032    2538.2295   -1223.5115     19690.59    -10852.39   -711.25338    -2223.668   -848.86778    82.517592 
   30600    452.10475   -100.91275   0.40907388   -100.50368   -19094.753     4.355794     4.355794     4.355794   -19094.753   -11756.964   -25653.235    -19874.06   -9397.8809   -4286.7211   -9592.3325    82.642223 
   30700    600.68997   -101.04642   0.54351691    -100.5029    12958.625    4.3415855    4.3415855    4.3415855    12958.625    14453.556    26125.511   -1703.1922    1027.1436   -40.191007   -2500.2313    81.836127 
   30800    460.04386   -100.92219   0.41625735   -100.50593   -13705.702     4.361511     4.361511     4.361511   -13705.702   -14911.973   -960.32268   -25244.811   -1611.3206    -6624.536   -3681.8412    82.968058 
   30900    291.51606   -100.76968   0.26376986   -100.50591    11584.037    4.3418735    4.3418735    4.3418735    11584.037    18333.408    20595.964   -4177.2597    288.61544    1346.7752   -9182.0661    81.852413 
   31000    732.35069   -101.16556   0.66264629   -100.50292   -3170.3181    4.3527927    4.3527927    4.3527927   -3170.3181   -4364.1364    12011.231   -17158.049    109.86511   -5694.7762   -504.12819    82.471513 
   31100    356.12941   -100.82811   0.32223337   -100.50587   -9206.8701    4.3569324    4.3569324    4.3569324   -9206.8701   -4667.3343   -4128.5144   -18824.762   -9363.6116    1837.9224   -13372.257    82.707036 
   31200    603.84396   -101.04613   0.54637071   -100.49976    14184.174    4.3367223    4.3367223    4.3367223    14184.174     7954.634    33951.876    646.01293   -5232.4158   -2341.5639    3317.2134    81.561429 
   31300    357.71896   -100.82994   0.32367163   -100.50626   -13674.919    4.3665121    4.3665121    4.3665121   -13674.919   -22506.046    12803.561   -31322.271   -4588.2724   -109.18147   -7560.7856    83.253786 
   31400    637.43599   -101.07721   0.57676548   -100.50045    7546.8848    4.3386149    4.3386149    4.3386149    7546.8848   -5506.3227    27936.677     210.2996    -3595.648     51.96768     2201.157     81.66826 
   31500     499.6512   -100.95479   0.45209491    -100.5027    -16176.47    4.3596366    4.3596366    4.3596366    -16176.47    -8938.398   -18321.257   -21269.755    694.37202   -2157.6698   -3436.2764    82.861134 
   31600    523.97268   -100.97728    0.4741015   -100.50318    151.02747    4.3474346    4.3474346    4.3474346    151.02747   -9277.3823    20584.007   -10853.542   -3923.9302   -128.47063   -3835.0778     82.16733 
   31700    539.53671    -100.9905   0.48818415   -100.50231    8544.0466    4.3507411    4.3507411    4.3507411    8544.0466   -2238.1095      36714.6   -8844.3503   -4495.5714   -1958.4933    -955.4039     82.35495 
   31800    353.37445   -100.82456   0.31974063   -100.50482   -1354.1831    4.3535163    4.3535163    4.3535163   -1354.1831   -1006.0182    17819.609    -20876.14   -5094.3022    101.00107   -10040.735    82.512651 
   31900    580.61227   -101.02907   0.52535018   -100.50372    6048.1307    4.3453227    4.3453227    4.3453227    6048.1307     6822.956    11321.819  -0.38262004   -8320.1953   -3783.1581    1387.6126    82.047644 
   32000    566.07615   -101.01834    0.5121976   -100.50614    -4524.545    4.3577733    4.3577733    4.3577733    -4524.545   -3797.6184     13404.49   -23180.507     6638.094    848.77519   -6987.0493    82.754937 
   32100    419.04864   -100.88458   0.37916402   -100.50541    1048.2097    4.3464044    4.3464044    4.3464044    1048.2097    1559.0625    4499.0126   -2913.4461   -3512.8139   -2895.9594   -327.00331    82.108933 
   32200    481.54621   -100.94122   0.43571313   -100.50551     4.459299    4.3512052    4.3512052    4.3512052     4.459299   -4939.4834    17429.213   -12476.352     4782.486   -70.979841   -3239.8807    82.381312 
   32300    523.81724   -100.97981   0.47396085   -100.50585   -8742.3224    4.3531984    4.3531984    4.3531984   -8742.3224   -15374.346    7165.7667   -18018.388    -2637.265    1178.6966   -7499.4082    82.494572 
   32400    587.17984   -101.03442   0.53129266   -100.50312   -88.046805    4.3454776    4.3454776    4.3454776   -88.046805   -2910.4128    1920.2361    726.03622   -3748.6563   -540.60525    460.30375    82.056417 
   32500    424.44016   -100.88901   0.38404238   -100.50497   -10983.669    4.3593375    4.3593375    4.3593375   -10983.669   -13818.621    8612.9241   -27745.311    340.59546    1344.1268    -9659.161    82.844081 
   32600    528.95163   -100.98302   0.47860655   -100.50441    6522.9968    4.3450949    4.3450949    4.3450949    6522.9968   -10620.607    34599.191   -4409.5931   -3134.4714    2169.8192   -175.49921    82.034736 
   32700    470.49134   -100.93356   0.42571045   -100.50785    3596.6393    4.3518126    4.3518126    4.3518126    3596.6393    4667.3131    21561.568   -15438.963    7523.1739   -286.78313   -5538.3063    82.415817 
   32800    465.41443   -100.92648   0.42111675   -100.50536   -17848.524    4.3585931    4.3585931    4.3585931   -17848.524   -10264.486   -20559.459   -22721.627   -2662.3469    1930.9268   -568.68404     82.80165 
   32900    659.49278   -101.09765   0.59672292   -100.50093    15044.515    4.3363392    4.3363392    4.3363392    15044.515    14553.108    23862.138     6718.301     1628.755    1350.6655    -1187.072    81.539819 
   33000    350.29755   -100.82035   0.31695658   -100.50339    -16460.41    4.3664435    4.3664435    4.3664435    -16460.41   -11436.126   -6679.8685   -31265.234   -3701.6577    455.57001   -5071.5997    83.249866 
   33100     469.6956    -100.9238   0.42499045   -100.49881     14253.52    4.3362165    4.3362165    4.3362165     14253.52    7965.9979    29176.606    5617.9568   -3752.7371    828.19706    3459.4983    81.532899 
   33200    465.86285   -100.92707   0.42152249   -100.50555   -1793.8229    4.3556626    4.3556626    4.3556626   -1793.8229    403.06768    8665.3819   -14449.918    4927.9487    1168.5325   -8569.2471    82.634745 
   33300    726.80817   -101.16069   0.65763131   -100.50306   -11231.991    4.3526857    4.3526857    4.3526857   -11231.991   -12111.649   -7114.9785   -14469.345   -3306.2064    1037.8507     3598.515    82.465428 
   33400    340.63747   -100.81268   0.30821594   -100.50446    20168.247    4.3383025    4.3383025    4.3383025    20168.247    17073.754    34730.767     8700.219    5788.0044   -150.15604   -5721.9396    81.650621 
   33500    473.14181   -100.93208   0.42810865   -100.50397   -15099.862    4.3658472    4.3658472    4.3658472   -15099.862   -21866.118    5919.4119    -29352.88   -3469.7585    2994.2152   -1439.7858    83.215761 
   33600    615.95521   -101.05543   0.55732922    -100.4981    19094.058    4.3343101    4.3343101    4.3343101    19094.058    9213.3245    44431.748    3637.1019   -4757.4841    -1778.816   -1312.6035    81.425406 
[...]
   91300    506.09843    -100.9635   0.45792849   -100.50557     5583.597    4.3467031    4.3467031    4.3467031     5583.597   -16067.392    36840.713   -4022.5299   -2651.0915   -9479.3177   -3981.2272    82.125858 
   91400    452.71358   -100.91502   0.40962477    -100.5054    4792.2314    4.3523562    4.3523562    4.3523562    4792.2314   -9378.2075    27680.845   -3925.9435    1982.0523    4790.1839     9666.082    82.446701 
   91500    484.75667    -100.9431   0.43861802   -100.50448   -169.76829    4.3440987    4.3440987    4.3440987   -169.76829    -14818.65    14053.023    256.32242    -3608.151   -3196.9438   -956.32764    81.978326 
   91600    600.95352   -101.04792   0.54375537   -100.50417   -2803.5854    4.3525055    4.3525055    4.3525055   -2803.5854   -11561.639    2813.1192    337.76329    508.79471   -3030.1136    6415.2318    82.455189 
   91700    542.19227   -100.99454   0.49058696   -100.50395   -4791.3203    4.3482591    4.3482591    4.3482591   -4791.3203   -10958.654    5501.7674   -8917.0746   -6329.8783    3511.4819   -1604.5077    82.214085 
   91800    314.64696    -100.7899   0.28469918    -100.5052    4460.4346    4.3478265    4.3478265    4.3478265    4460.4346   -16880.703    26435.282    3826.7246   -1100.9739   -8541.7316   -6587.5869    82.189554 
   91900    564.21071   -101.01467   0.51050971   -100.50416    3409.9041    4.3477864    4.3477864    4.3477864    3409.9041     -6949.42    23449.578   -6270.4462   -6579.7757     7224.875   -532.87916    82.187279 
   92000    407.84608    -100.8742    0.3690277   -100.50517   -3947.9007     4.352586     4.352586     4.352586   -3947.9007   -12641.083    8030.1161   -7232.7356   -577.78586   -11403.598   -5326.2695    82.459762 
   92100    646.10831    -101.0848   0.58461238   -100.50019    2017.6656     4.344461     4.344461     4.344461    2017.6656    -6792.147    12710.725     134.4186   -1730.0278    8070.4935    2272.9044    81.998837 
   92200    425.97926   -100.89114   0.38543498   -100.50571   -3281.9598    4.3502986    4.3502986    4.3502986   -3281.9598   -9841.4755    7240.3255   -7244.7294    1726.1475   -9360.5129    2148.5074    82.329827 
   92300    593.39182   -101.04016   0.53691339   -100.50325    4942.3954    4.3502095    4.3502095    4.3502095    4942.3954   -8901.3887    35976.159   -12247.584    3049.4526    3227.7743   -3008.2191     82.32477 
   92400    339.56138   -100.81352   0.30724227   -100.50628    6136.7296    4.3427078    4.3427078    4.3427078    6136.7296   -13217.368     24359.81    7267.7475    618.06303   -3357.9884    2460.4899    81.899608 
   92500    483.68839   -100.94581   0.43765142   -100.50816   -8431.2711    4.3548436    4.3548436    4.3548436   -8431.2711   -15746.092    3266.5964   -12814.317    -507.7305   -4880.2698   -6454.9357     82.58814 
   92600    722.32515   -101.15659   0.65357498   -100.50302    2449.8887    4.3450256    4.3450256    4.3450256    2449.8887   -8346.2824    2519.9121    13176.036    -188.9499    2789.5458    4129.6671    82.030815 
   92700    311.14914   -100.78887   0.28153428   -100.50733   -8601.5256    4.3492895    4.3492895    4.3492895   -8601.5256   -20829.543    212.49519   -5187.5289   -3696.2354   -10963.564    1265.1071    82.272548 
   92800    600.88153   -101.04602   0.54369024   -100.50233    3872.4406    4.3524565    4.3524565    4.3524565    3872.4406   -12104.077    23160.611    560.78823    1907.8609    4056.1919    4204.7963    82.452402 
   92900    432.45441   -100.89743   0.39129384   -100.50613    6536.7562     4.342073     4.342073     4.342073    6536.7562   -13909.744    38148.311   -4628.2977   -4059.9347   -12521.812    4467.6649    81.863696 
   93000    409.43735   -100.87646   0.37046752   -100.50599   -3318.5404    4.3552055    4.3552055    4.3552055   -3318.5404   -17856.278    16795.125   -8894.4687    2830.3589    2713.2058   -6873.4255    82.608733 
   93100    679.35474   -101.11822   0.61469444   -100.50353    -4508.721    4.3454646    4.3454646    4.3454646    -4508.721   -10443.343    2084.0774    -5166.897     -3980.88   -10562.179   -681.82126     82.05568 
   93200    450.63115   -100.91503   0.40774054   -100.50729      140.223    4.3463872    4.3463872    4.3463872      140.223   -5679.8938    7217.6517   -1117.0888   -2302.6667   -1302.3207    -4651.028    82.107957 
   93300    544.30749    -100.9949   0.49250086    -100.5024   -9139.3209    4.3550725    4.3550725    4.3550725   -9139.3209   -23559.127    10291.436   -14150.272   -4575.5876   -4990.5456   -3132.9783    82.601162 
   93400    315.30139   -100.79073   0.28529132   -100.50543    11373.191    4.3394177    4.3394177    4.3394177    11373.191   -1160.6429    29044.279     6235.936   -5912.3627   -6109.2665    1417.5226    81.713607 
   93500      592.078   -101.03986   0.53572461   -100.50414   -4523.5718      4.35469      4.35469      4.35469   -4523.5718   -11777.464    11776.909    -13570.16   -2690.7611   -248.78575   -8620.2277    82.579404 
   93600     494.5228   -100.95091   0.44745463   -100.50345   -2815.0073     4.346715     4.346715     4.346715   -2815.0073   -13605.715    5687.3665   -526.67311   -2478.6625   -10551.495    1410.8307    82.126534 
   93700    543.33199   -100.99571    0.4916182   -100.50409    1846.8447     4.346146     4.346146     4.346146    1846.8447   -1500.9713    9730.9086   -2689.4032    728.02417    3316.1337   -10851.375    82.094287 
   93800    584.93453   -101.03262   0.52926105   -100.50335   -6087.0524    4.3543059    4.3543059    4.3543059   -6087.0524   -17466.362    13812.642   -14607.437    2320.0125   -13347.453     434.5787    82.557555 
   93900    343.31305   -100.81352   0.31063686   -100.50288        13298    4.3425566    4.3425566    4.3425566        13298   -9455.8949    43294.658    6055.2364   -1261.7034    3808.8677    967.51195    81.891052 
   94000    477.41405   -100.93646   0.43197427   -100.50448   -9107.1656    4.3533302    4.3533302    4.3533302   -9107.1656   -19605.104    6974.6179   -14691.011    2018.2964   -10157.093   -136.29264    82.502065 
   94100    629.92447   -101.07184   0.56996889   -100.50187   -1629.4766    4.3471286    4.3471286    4.3471286   -1629.4766     -8279.77   -718.56762    4109.9077   -1712.1896   -485.09805    4602.2906    82.149978 
   94200    449.33995   -100.91105   0.40657223   -100.50448   -9589.5689    4.3482094    4.3482094    4.3482094   -9589.5689   -19026.416   -966.38519   -8775.9059    569.46969   -4091.8636   -8181.7827    82.211269 
   94300    548.72066   -101.00149   0.49649399   -100.50499   -3785.0978    4.3494673    4.3494673    4.3494673   -3785.0978   -16310.918    14573.838   -9618.2129     2106.766   -5702.3808    1148.2524    82.282636 
   94400    412.59769   -100.87812   0.37332707   -100.50479    8575.8188    4.3472026    4.3472026    4.3472026    8575.8188   -5508.3705    37103.462   -5867.6348    1413.8238    1085.8914   -6105.4563    82.154175 
   94500    434.80269   -100.90063   0.39341861   -100.50721   -7015.6064    4.3493243    4.3493243    4.3493243   -7015.6064   -26397.357    22239.266   -16888.727    4243.6064   -10856.638    684.49013    82.274524 
   94600    673.96487   -101.11272   0.60981757    -100.5029    5373.7543     4.347792     4.347792     4.347792    5373.7543     773.4174    13917.702    1430.1437   -1868.7156    4212.4452    178.33879    82.187597 
   94700    411.11377   -100.87982   0.37198438   -100.50784   -13264.394    4.3511998    4.3511998    4.3511998   -13264.394    -16578.56   -10387.696   -12826.927    -27.24903   -13995.641   -5659.6228    82.381005 
   94800    619.29647   -101.06435   0.56035246   -100.50399    7197.1048    4.3469925    4.3469925    4.3469925    7197.1048   -7546.8817    24268.382    4869.8141   -3530.5417    4529.1955   -2648.0836    82.142264 
   94900    289.38108   -100.76971   0.26183808   -100.50787    2827.3251    4.3508152    4.3508152    4.3508152    2827.3251   -12320.289    27878.786   -7076.5217   -3752.7164   -11661.088   -11135.765    82.359159 
   95000    552.13751   -101.00485   0.49958562   -100.50526    47.633385    4.3471438    4.3471438    4.3471438    47.633385   -11410.543    14930.912   -3377.4694   -405.23449    -233.0327   -5071.6572    82.150842 
   95100    484.61932   -100.94304   0.43849375   -100.50454    6515.5304    4.3495227    4.3495227    4.3495227    6515.5304   -6457.4809    20207.633    5796.4392   -2086.5474   -5575.6038   -2876.0444    82.285785 
   95200    551.20506   -101.00454   0.49874192    -100.5058   -15030.364    4.3520422    4.3520422    4.3520422   -15030.364   -19551.153   -5419.3043   -20120.635    296.69059   -7171.3037   -1532.3368    82.428859 
   95300    603.40813   -101.04825   0.54597636   -100.50227    14456.121    4.3425342    4.3425342    4.3425342    14456.121    1907.5768    35036.184     6424.601    167.25517    1291.8646     5726.679     81.88979 
   95400    311.82269   -100.78983   0.28214372   -100.50769   -11623.382    4.3550326    4.3550326    4.3550326   -11623.382    -25474.44    16477.312   -25873.018   -2397.0486   -12724.559   -2668.7786    82.598893 
   95500    565.40478   -101.01392   0.51159013   -100.50233    4781.6866    4.3443302    4.3443302    4.3443302    4781.6866   -6214.5297    29423.922   -8864.3321    2493.5468     5959.231    2682.3782    81.991436 
   95600    506.02393   -100.96313   0.45786109   -100.50527   -6740.5094    4.3488846    4.3488846    4.3488846   -6740.5094   -15387.171    3511.5536   -8345.9107   -4494.7862   -14469.584   -4062.8563    82.249575 
   95700    526.92181   -100.98117   0.47676992    -100.5044   -13493.748    4.3524515    4.3524515    4.3524515   -13493.748   -16793.877   -12979.837   -10707.529    5622.9847    3913.4695    -170.4717    82.452121 
   95800    535.90408    -100.9887   0.48489727    -100.5038    8415.8423    4.3424639    4.3424639    4.3424639    8415.8423   -8105.8813    32226.161     1127.247   -2505.3756   -9602.5772    4230.2875     81.88581 
   95900    391.11459   -100.86127    0.3538887   -100.50738   -2580.2173     4.354978     4.354978     4.354978   -2580.2173   -17958.308    21448.681   -11231.024    5804.2286   -1299.7932   -1277.8634    82.595788 
   96000    469.38516   -100.92818   0.42470955   -100.50347    10509.371    4.3443873    4.3443873    4.3443873    10509.371   -9795.9188    42745.448   -1421.4167    1323.3617   -2166.6292    3982.8848    81.994665 
   96100    493.08482    -100.9514   0.44615351   -100.50525   -2657.7811    4.3509921    4.3509921    4.3509921   -2657.7811   -10435.226    5479.0274   -3017.1451    1043.6654    -6409.723   -5992.5924    82.369205 
   96200    657.14566   -101.09714    0.5945992   -100.50254   -8780.0992    4.3501248    4.3501248    4.3501248   -8780.0992    -9392.285   -4643.8545   -12304.158   -700.30657    3761.9893   -4414.9792    82.319961 
   96300    483.68273   -100.93992    0.4376463   -100.50227     2291.423    4.3478081    4.3478081    4.3478081     2291.423   -9162.2525     11534.72    4501.8018   -2607.6076    -8799.568   -1611.5368    82.188508 
   96400    413.62177   -100.87848   0.37425367   -100.50422   -2597.0984    4.3495631    4.3495631    4.3495631   -2597.0984   -7090.1882    19739.956   -20441.063   -3082.1351    7718.3627   -8403.5486    82.288074 
   96500    481.22077   -100.93858   0.43541867   -100.50316    5901.4635    4.3490257    4.3490257    4.3490257    5901.4635   -12003.857    31153.277   -1445.0298    -2218.448   -7241.3438    9123.5739     82.25758 
   96600    534.59433   -100.98786   0.48371219   -100.50414   -3119.0754    4.3471049    4.3471049    4.3471049   -3119.0754   -6588.6279    2994.0944   -5762.6926   -2726.5438    6987.8258   -9333.7359    82.148636 
   96700    457.80771   -100.91986   0.41423403   -100.50563   -4147.6941    4.3491084    4.3491084    4.3491084   -4147.6941   -8221.2157    7220.1072   -11441.974    1628.0639   -1881.9623    4444.5387    82.262272 
   96800    657.95986   -101.09926   0.59533591   -100.50393   -250.66126    4.3502286    4.3502286    4.3502286   -250.66126   -13657.441    21195.123   -8289.6657   -2258.6558    1304.5199   -7191.2491    82.325855 
   96900    312.44218   -100.79054   0.28270425   -100.50784    3275.8654    4.3444761    4.3444761    4.3444761    3275.8654    -6509.392    24637.731   -8300.7429    1179.7477    4492.0827   -1874.7118    81.999692 
   97000    513.39324   -100.96854     0.464529   -100.50401   -6763.9097    4.3551165    4.3551165    4.3551165   -6763.9097    -17946.93     13141.47   -15486.269    -769.3473   -2981.5461    4628.6552    82.603669 
   97100    542.63609   -100.99686   0.49098854   -100.50587    2438.2975    4.3422634    4.3422634    4.3422634    2438.2975   -4577.8091     4739.522    7153.1796   -105.43587    8510.8758    -2184.552     81.87447 
   97200    618.56913   -101.06386   0.55969435   -100.50416    -13151.45     4.355255     4.355255     4.355255    -13151.45   -17697.133   -15711.633   -6045.5827    1962.0584   -3823.7149    4023.1791    82.611549 
   97300    382.39698   -100.84959   0.34600082   -100.50359    7827.2096     4.346202     4.346202     4.346202    7827.2096   -8712.3849    23106.126    9087.8877    977.66973    8868.3476   -8714.3988    82.097461 
   97400    472.99067   -100.93369    0.4279719   -100.50572    4601.0357    4.3469145    4.3469145    4.3469145    4601.0357   -9827.7215    31111.834   -7481.0054    4746.9157   -3278.5341   -3074.6071    82.137843 
   97500    510.49258   -100.96558   0.46190442   -100.50368    5586.5024    4.3535467    4.3535467    4.3535467    5586.5024   -17461.539     30724.18    3496.8662    2644.5031    6664.2912   -2862.0391    82.514375 
   97600    446.38865   -100.90807   0.40390183   -100.50417    -3209.899    4.3431997    4.3431997    4.3431997    -3209.899   -98.875796   -2475.1818   -7055.6394    3151.3136    461.48335   -4571.7528    81.927442 
   97700     619.8492   -101.06479   0.56085258   -100.50394   -8117.8941    4.3547052    4.3547052    4.3547052   -8117.8941    -14522.89   -3225.7259   -6605.0669    1119.3038    1976.8132    5875.9009    82.580268 
   97800    550.93394   -101.00259    0.4984966   -100.50409    152.18558    4.3449692    4.3449692    4.3449692    152.18558   -6340.6409    17206.015   -10408.817   -1369.8353    4521.9809   -8180.7436    82.027621 
   97900    318.39238   -100.79323   0.28808812   -100.50515    -1284.218    4.3502904    4.3502904    4.3502904    -1284.218   -7596.9486    17139.193   -13394.898   -1319.5873     -2620.24    2437.2845     82.32936 
   98000    491.65221   -100.94883   0.44485725   -100.50397    3331.4639    4.3488144    4.3488144    4.3488144    3331.4639    -11099.31    30559.054    -9465.352   -1931.5361    7481.5942   -8660.3421    82.245592 
   98100    610.23223   -101.05567   0.55215095   -100.50352   -4130.9888    4.3481077    4.3481077    4.3481077   -4130.9888   -4611.1797   -8234.7696    452.98304   -1106.2564    -4369.051   -1330.3948    82.205501 
   98200    484.33365   -100.94208   0.43823526   -100.50384   -788.42329    4.3505945    4.3505945    4.3505945   -788.42329   -11830.326     20716.68   -11251.623    2867.9902    7725.2382    4986.6565    82.346628 
   98300     475.4043   -100.93499    0.4301558   -100.50484    2350.4302    4.3475613    4.3475613    4.3475613    2350.4302   -4207.5785    8407.2017    2851.6675   -1460.8607   -2626.3029   -2253.4346    82.174512 
   98400     491.5108   -100.94922    0.4447293   -100.50449    2433.3642    4.3504571    4.3504571    4.3504571    2433.3642   -16865.102    36763.746   -12598.552    5086.1043    6723.0554     6049.361    82.338826 
   98500    469.38848   -100.92829   0.42471256   -100.50358    306.62832    4.3474351    4.3474351    4.3474351    306.62832    -6507.246    10297.361   -2870.2299   -2472.4975    2457.9721   -7778.9539    82.167355 
   98600    534.00685   -100.98713   0.48318062   -100.50395   -8804.7285    4.3493989    4.3493989    4.3493989   -8804.7285   -9915.6241   -13340.152   -3158.4098    4897.6104    2675.0059   -4619.5112    82.278754 
   98700    587.87403   -101.03627   0.53192078   -100.50435    1883.5547    4.3486346    4.3486346    4.3486346    1883.5547   -14792.109    17528.068    2914.7046    -1585.107    9178.2929    2650.2804    82.235388 
   98800    457.82162    -100.9193   0.41424663   -100.50506    466.14292    4.3478683    4.3478683    4.3478683    466.14292    -5147.668    10291.872   -3745.7755    4631.8004   -2267.1825   -7810.5558    82.191922 
   98900    328.61584   -100.80357   0.29733852   -100.50623     7382.765    4.3498905    4.3498905    4.3498905     7382.765   -18487.603     47673.96   -7038.0621    2831.2126    11536.797    7783.5164    82.306659 
   99000    651.70252   -101.09337   0.58967413    -100.5037   -497.58173    4.3478289    4.3478289    4.3478289   -497.58173   -4920.7504       7810.9   -4382.8949    2904.1317   -2118.9579   -12636.305    82.189688 
   99100    454.02009   -100.91635   0.41080692   -100.50554     -8120.65    4.3492089    4.3492089    4.3492089     -8120.65   -13245.524    11306.149   -22422.575    3416.8479    10707.711    751.23875    82.267977 
   99200    671.66283   -101.11035   0.60773464   -100.50261   -8503.7454    4.3507834    4.3507834    4.3507834   -8503.7454   -9670.4991   -6657.6531    -9183.084    886.06823    1384.0888   -9924.6221    82.357357 
   99300    411.77242   -100.87797   0.37258034   -100.50539    892.04359    4.3460255    4.3460255    4.3460255    892.04359   -7853.3141    20394.291   -9864.8465    645.44654    6800.3025    -2926.037    82.087459 
   99400    445.83488   -100.90676   0.40340077   -100.50336   -2153.2679    4.3544987    4.3544987    4.3544987   -2153.2679   -17752.519    31142.299   -19849.584    1756.5303    6058.0835     3735.747    82.568521 
   99500    493.95311   -100.94996   0.44693916   -100.50302     6604.121    4.3428385    4.3428385    4.3428385     6604.121    338.08054    11511.552    7962.7307   -4213.0855    1723.7529   -2659.5261    81.907004 
   99600    454.64184   -100.91746   0.41136949   -100.50609   -3090.1133     4.352205     4.352205     4.352205   -3090.1133   -18065.102    14849.129   -6054.3659    4708.9281    12336.709    2571.1017    82.438113 
   99700    677.17555   -101.11471   0.61272267   -100.50198   -1655.0105    4.3495371    4.3495371    4.3495371   -1655.0105   -3149.5033   -1967.8142     152.2861   -4636.0433   -1695.3836    -4442.193    82.286602 
   99800    303.24403   -100.78228   0.27438157    -100.5079    8176.4089     4.343504     4.343504     4.343504    8176.4089   -14320.964    40607.052   -1756.8611    6082.9786    12076.931   -3814.2136    81.944665 
   99900    586.87847   -101.03462   0.53101997    -100.5036   -3519.7207    4.3557342    4.3557342    4.3557342   -3519.7207   -16158.735    14563.871   -8964.2983   -1541.0416   -700.50669    3795.4547     82.63882 
  100000    431.27674   -100.89623   0.39022826     -100.506    3575.7136    4.3426962    4.3426962    4.3426962    3575.7136   -7482.7723    24629.825   -6419.9117    4526.5963    8544.6017   -4300.0046    81.898953 
Loop time of 22.4723 on 1 procs for 100000 steps with 8 atoms

Pair  time (%) = 6.98506 (31.0829)
Kspce time (%) = 5.5235 (24.5791)
Neigh time (%) = 0 (0)
Comm  time (%) = 1.11756 (4.97306)
Outpt time (%) = 0.02721 (0.121082)
Other time (%) = 8.81899 (39.2438)

Nlocal:    8 ave 8 max 8 min
Histogram: 1 0 0 0 0 0 0 0 0 0
Nghost:    2189 ave 2189 max 2189 min
Histogram: 1 0 0 0 0 0 0 0 0 0
Neighs:    2056 ave 2056 max 2056 min
Histogram: 1 0 0 0 0 0 0 0 0 0

Total # of neighbors = 2056
Ave neighs/atom = 257
Neighbor list builds = 0
Dangerous builds = 0
unfix 20
unfix 21
print "seeds:4966199"
seeds:4966199
