LAMMPS (10 Feb 2015)
# ---- initialize simulations
clear
units metal
dimension 3
boundary p p p
atom_style charge
atom_modify map array
# ---- create atoms
read_data /Users/eugeneragasa/pyflamestk_git/pypospack/tests/tests_integration/workflow/WorkflowLammpsThermalExpansion/param_3867/MgO_NaCl_unit.npt.T1900/lammps.structure
  triclinic box = (0 0 0) to (4.2565 4.2565 4.2565) with tilt (0 0 0)
  1 by 1 by 1 MPI processor grid
  reading atoms ...
  8 atoms
# ---- define interatomic potential
include potential.mod
mass 1 24.305
mass 2 15.999

group Mg type 1
4 atoms in group Mg
group O type 2
4 atoms in group O

set group Mg charge 1.73479148785
  4 settings made for charge
set group O charge -1.73479148785
  4 settings made for charge

variable R_cut equal 10.0

pair_style buck/coul/long ${R_cut}
pair_style buck/coul/long 10
pair_coeff 1 1 0.0 0.5 0.0 ${R_cut}
pair_coeff 1 1 0.0 0.5 0.0 10
pair_coeff 1 2 1225.32983502 0.291530354982 0.0 ${R_cut}
pair_coeff 1 2 1225.32983502 0.291530354982 0.0 10
pair_coeff 2 2 16858.6500597 0.120403294253 7.45918898041 ${R_cut}
pair_coeff 2 2 16858.6500597 0.120403294253 7.45918898041 10

kspace_style pppm 1.0e-5

neighbor 1.0 bin
neigh_modify every 1 delay 0 check yes
# ---- define settings
compute eng all pe/atom
compute eatoms all reduce sum c_eng
# ---- run minimization
reset_timestep 0
fix 1 all box/relax iso 0.0 vmax 0.001
thermo 10
thermo_style custom step pe lx ly lz xy xz yz press pxx pyy pzz pxy pxz pyz c_eatoms
min_style cg
minimize 1e-25 1e-25 5000 10000
PPPM initialization ...
  G vector (1/distance) = 0.3534
  grid = 8 8 8
  stencil order = 5
  estimated absolute RMS force accuracy = 4.23269e-05
  estimated relative force accuracy = 2.93944e-06
  using double precision FFTs
  3d grid and FFT values/proc = 3375 512
Neighbor list info ...
  1 neighbor list requests
  update every 1 steps, delay 0 steps, check yes
  master list distance cutoff = 11
Memory usage per processor = 4.06549 Mbytes
Step PotEng Lx Ly Lz Xy Xz Yz Press Pxx Pyy Pzz Pxy Pxz Pyz eatoms 
       0   -122.62677       4.2565       4.2565       4.2565            0            0            0    18600.794    18600.794    18600.794    18600.794 4.9707872e-11 4.7042733e-11 1.8950886e-10   -122.62677 
       5   -122.63132    4.2712858    4.2712858    4.2712858            0            0            0   -6.7076035   -6.7076035   -6.7076035   -6.7076035 9.5134085e-11 4.9732958e-12 8.6603347e-11   -122.63132 
Loop time of 0.00739098 on 1 procs for 5 steps with 8 atoms

Minimization stats:
  Stopping criterion = linesearch alpha is zero
  Energy initial, next-to-last, final = 
        -122.626768711     -122.631316441     -122.631316441
  Force two-norm initial, final = 2.68597 0.0019334
  Force max component initial, final = 2.68596 0.000975322
  Final line search alpha, max atom move = 0.00390625 3.80985e-06
  Iterations, force evaluations = 5 22

Pair  time (%) = 0.00198007 (26.7903)
Kspce time (%) = 0.00118876 (16.0839)
Neigh time (%) = 0 (0)
Comm  time (%) = 0.000221729 (3)
Outpt time (%) = 0 (0)
Other time (%) = 0.00400043 (54.1258)

Nlocal:    8 ave 8 max 8 min
Histogram: 1 0 0 0 0 0 0 0 0 0
Nghost:    2189 ave 2189 max 2189 min
Histogram: 1 0 0 0 0 0 0 0 0 0
Neighs:    2344 ave 2344 max 2344 min
Histogram: 1 0 0 0 0 0 0 0 0 0

Total # of neighbors = 2344
Ave neighs/atom = 293
Neighbor list builds = 0
Dangerous builds = 0
unfix 1
# ---- define output variables ----
variable natoms equal "count(all)"
variable tot_energy equal "c_eatoms"
variable length_x equal "lx"
variable length_y equal "ly"
variable length_z equal "lz"
variable tilt_xy equal "xy"
variable tilt_xz equal "xz"
variable tilt_yz equal "yz"
variable tot_press equal "press"
variable press_xx equal "pxx"
variable press_yy equal "pyy"
variable press_zz equal "pzz"
variable press_xy equal "pxy"
variable press_xz equal "pxz"
variable press_yz equal "pyz"

# ---- output ----
print "pypospack:output_section:begin"
pypospack:output_section:begin
print "tot_energy = ${tot_energy}"
tot_energy = -122.631316441343
print "num_atoms = ${natoms}"
num_atoms = 8
print "xx = ${length_x}"
xx = 4.27128583299446
print "yy = ${length_y}"
yy = 4.27128583299446
print "zz = ${length_z}"
zz = 4.27128583299446
print "xy = ${tilt_xy}"
xy = 0
print "xz = ${tilt_xz}"
xz = 0
print "yz = ${tilt_yz}"
yz = 0
print "tot_press = ${tot_press}"
tot_press = -6.70760353710228
print "pxx = ${press_xx}"
pxx = -6.70760353705429
print "pyy = ${press_yy}"
pyy = -6.70760353725253
print "pzz = ${press_zz}"
pzz = -6.70760353700002
print "pxy = ${press_xy}"
pxy = 9.51340852761742e-11
print "pxz = ${press_xz}"
pxz = 4.97329584958765e-12
print "pyz = ${press_yz}"
pyz = 8.66033470907354e-11
print "pypospack:output_section:done"
pypospack:output_section:done
print "pypospack:lammps_sim:done"
pypospack:lammps_sim:done
#------------------------------------------------------------------------------
# RUN THERMOSTAT
# running using an NPT Nose-Hoover style thermostat
#------------------------------------------------------------------------------
variable tempdamp equal 0.1
variable pressdamp equal 1.0
# set initial velocities
velocity all create 1900 9745635 mom yes dist gaussian loop all
# fix for Nose-Hoover style thermostat
fix 20 all npt temp 1900 1900 0.1 aniso 0.0 0.0 1.0 drag 1.0 couple xyz
variable boxx equal lx
variable boxy equal ly
variable boxz equal lz
variable boxp equal press
variable boxt equal temp
# calculate averages every 10000 steps
reset_timestep 0
fix 21 all ave/time 10 10 100 v_boxx v_boxy v_boxz v_boxp v_boxt file lattice.out
thermo_style custom step temp pe ke etotal press lx ly lz press pxx pyy pzz pxy pxz pyz vol
thermo_modify flush yes
thermo 100
run 100000
PPPM initialization ...
  G vector (1/distance) = 0.353246
  grid = 8 8 8
  stencil order = 5
  estimated absolute RMS force accuracy = 4.26311e-05
  estimated relative force accuracy = 2.96057e-06
  using double precision FFTs
  3d grid and FFT values/proc = 3375 512
Memory usage per processor = 3.06549 Mbytes
Step Temp PotEng KinEng TotEng Press Lx Ly Lz Press Pxx Pyy Pzz Pxy Pxz Pyz Volume 
       0         1900   -122.63132    1.7191599   -120.91216    23557.267    4.2712858    4.2712858    4.2712858    23557.267    27679.432    25124.237    17868.131    260.25278    -16074.62   -986.39511    77.924838 
     100    749.02331   -121.37739   0.67773203   -120.69966    41996.187    4.3007602    4.3007602    4.3007602    41996.187     59231.57    30821.198    35935.794    5937.2734    20334.349    15220.042    79.549175 
     200    1270.4378   -121.38067    1.1495188   -120.23115   -53546.855    4.3476965    4.3476965    4.3476965   -53546.855   -30131.846   -63922.232   -66586.488   -4219.9435    3072.4666    27578.177    82.182183 
     300    1856.7453   -121.47042    1.6800222    -119.7904   -21320.511    4.3558014    4.3558014    4.3558014   -21320.511    4890.2507    -20668.44   -48183.344    -3226.392    8600.0767   -2321.0113    82.642647 
     400    1768.7818   -121.06931    1.6004309   -119.46887    38678.669    4.3403876    4.3403876    4.3403876    38678.669    59768.159    34095.825    22172.022    -6250.821    6958.0497   -21932.522     81.76841 
     500    1783.9048   -120.86923    1.6141146   -119.25512    19289.682    4.3315892    4.3315892    4.3315892    19289.682    46664.396    4033.8939    7170.7551   -6579.7319   -13484.902    26963.629    81.272157 
     600     1260.245   -120.32816    1.1402962   -119.18786    22145.128    4.3578373    4.3578373    4.3578373    22145.128   -6524.7688    84647.682   -11687.528   -22041.671   -10.979661   -979.44756    82.758581 
     700    1912.5461   -120.84365    1.7305119   -119.11313   -19906.286    4.3958779    4.3958779    4.3958779   -19906.286   -61307.712   -23446.221    25035.077    357.80942   -1698.0408    -14153.87    84.944811 
     800    2528.2517   -121.32635    2.2876153   -119.03874   -53968.337     4.393137     4.393137     4.393137   -53968.337   -60073.612   -27723.593   -74107.806    9666.6905     5238.917    5039.9274    84.786016 
     900    1565.8954   -120.45314     1.416855   -119.03628    3628.1834     4.350887     4.350887     4.350887    3628.1834   -28273.338    20324.828    18833.061   -21868.653   -22673.008    50149.867    82.363239 
    1000    1480.6436   -120.42071    1.3397174     -119.081    41589.131    4.3178541    4.3178541    4.3178541    41589.131    8579.8385   -15111.622    131299.17   -16797.914   -3073.8924   -15736.048    80.501484 
    1100    2746.8233   -121.64533    2.4853834   -119.15995    8953.3798     4.326548     4.326548     4.326548    8953.3798   -15808.666    14952.242    27716.564    10343.998   -5330.1678    -38086.16    80.988729 
    1200    2018.7375   -121.04807    1.8265961   -119.22147   -14856.121    4.3563507    4.3563507    4.3563507   -14856.121    7512.1412   -34227.481   -17853.024   -210.20277    -5067.591    19763.175    82.673913 
    1300    1499.6184   -120.55283    1.3568862   -119.19594   -8800.9591    4.3702693    4.3702693    4.3702693   -8800.9591   -4145.4845    -3026.616   -19230.777   -17311.263   -3524.7177   -4467.5682    83.468884 
    1400    1460.5346   -120.46615    1.3215224   -119.14463    22141.236    4.3774344    4.3774344    4.3774344    22141.236   -23135.692   -1010.1814    90569.582    5373.1196    16530.878    11141.475    83.880102 
    1500    2143.6265   -121.05497    1.9395983   -119.11538   -25621.544    4.3843421    4.3843421    4.3843421   -25621.544   -76010.969   -9678.1059    8824.4441    3021.4098     9275.194   -15246.672    84.277823 
    1600    2012.0653   -120.93816     1.820559    -119.1176   -14209.667    4.3473353    4.3473353    4.3473353   -14209.667   -39770.649    8061.2496   -10919.601   -10404.809   -17356.445    18922.399      82.1617 
    1700    1397.1779   -120.36334     1.264196   -119.09914    50879.077    4.3096082    4.3096082    4.3096082    50879.077    27064.051    15608.231    109964.95    19862.991   -14216.215      15928.7    80.041159 
    1800    1811.5046   -120.85584    1.6390874   -119.21675    6459.9693    4.3431089    4.3431089    4.3431089    6459.9693   -34525.528    5715.5385    48189.898    22051.788   -7966.4043     6690.294    81.922307 
    1900    2014.5973   -120.98574    1.8228499   -119.16289   -30127.326    4.3871119    4.3871119    4.3871119   -30127.326    -100005.5   -33534.929    43158.452   -11185.375    6237.9389   -25464.609    84.437651 
    2000    2213.2107   -121.10299    2.0025595   -119.10043   -4302.6167    4.3725138    4.3725138    4.3725138   -4302.6167   -26895.445    9979.9587     4007.636   -1610.6648   -8505.3028    25167.355    83.597552 
    2100    1498.4467   -120.46436    1.3558261   -119.10853   -1945.6821    4.3473683    4.3473683    4.3473683   -1945.6821   -62252.672    19169.954    37245.671    12433.616   -17654.966    3771.4169     82.16357 
    2200    2038.5678   -120.98311     1.844539   -119.13857    7871.9514    4.3260867    4.3260867    4.3260867    7871.9514   -29207.148    46743.064     6079.939   -8476.4597   -5969.4333   -4594.2048    80.962828 
    2300    2216.3197   -121.20057    2.0053727   -119.19519    5837.3161    4.3397003    4.3397003    4.3397003    5837.3161   -60247.915    51885.613    25874.251   -22623.733    18615.624   -12952.748    81.729568 
    2400    1806.1565    -120.8147    1.6342484   -119.18045   -33384.242    4.3718644    4.3718644    4.3718644   -33384.242   -40632.409    -42714.41   -16805.909   -23974.214    9372.8586    7183.7161     83.56031 
    2500    1884.5145   -120.81997    1.7051483   -119.11482   -7045.2295    4.3630759    4.3630759    4.3630759   -7045.2295   -13122.193    18685.399   -26698.895    7160.3422    861.39086    5108.4135    83.057395 
    2600    1960.3116    -120.8579    1.7737311   -119.08417    5069.0094    4.3485215    4.3485215    4.3485215    5069.0094   -19513.606    31794.184    2926.4499    3758.5861   -7986.6557    -14272.49    82.228975 
    2700    2359.4177   -121.24302    2.1348507   -119.10816   -36807.739    4.3567253    4.3567253    4.3567253   -36807.739   -59984.587   -46649.963   -3788.6674   -19125.082    6931.7741    6296.9021    82.695243 
    2800    2022.9321   -120.95775    1.8303915   -119.12736    4209.4797    4.3708689    4.3708689    4.3708689    4209.4797   -35078.158   -32865.885    80572.482   -2471.6372   -1843.7089    21214.617    83.503244 
    2900      2293.99   -121.17935    2.0756504    -119.1037    -590.3791    4.3611393    4.3611393    4.3611393    -590.3791   -57657.001   -8004.5164    63890.381    8762.9197    7513.7722   -10055.827    82.946846 
    3000    1721.9323   -120.67347    1.5580405   -119.11543   -6369.3948     4.360283     4.360283     4.360283   -6369.3948   -52824.757    -13954.37    47670.942   -7736.2895    487.26399    -6263.697    82.897994 
    3100    2602.9954   -121.46615    2.3552449    -119.1109   -15008.738    4.3587747    4.3587747    4.3587747   -15008.738   -5582.5868   -37250.119   -2193.5085   -15216.916   -7965.1505    15332.679    82.812001 
    3200    2490.7802   -121.36934    2.2537102   -119.11563    42253.429    4.3334361    4.3334361    4.3334361    42253.429    10274.945      13803.7    102681.64    8118.5497   -4632.7057   -6547.5059    81.376158 
    3300    2026.6437   -120.97637    1.8337498   -119.14262    983.83836    4.3210785    4.3210785    4.3210785    983.83836   -11343.298     24710.54   -10415.727    3665.7697    18465.899   -8734.7211    80.681964 
    3400    1704.1138   -120.71166     1.541918   -119.16974    16701.537    4.3339747    4.3339747    4.3339747    16701.537    -34231.72    52575.765    31760.568   -17582.902    7827.7325    20210.837    81.406508 
    3500    2073.9834   -121.04937    1.8765838   -119.17279    5819.4421    4.3649923    4.3649923    4.3649923    5819.4421   -55545.148     -41359.5    114362.97    30071.186   -7744.1304   -20777.966    83.166888 
    3600    2221.4736   -121.14151     2.010036   -119.13148    -30204.98    4.3739789    4.3739789    4.3739789    -30204.98    -10900.07   -57197.432   -22517.437    28000.266    213.93424   -307.45016    83.681613 
    3700    2196.0137   -121.08294    1.9869993   -119.09594    25684.199    4.3334291    4.3334291    4.3334291    25684.199   -37055.914     52778.76     61329.75   -8451.8497    22765.319   -25355.086    81.375767 
    3800    1439.7787   -120.41838     1.302742   -119.11564    53368.909     4.320439     4.320439     4.320439    53368.909    16251.411     7969.609    135885.71    8487.9826    2737.5893    17118.611    80.646149 
    3900    2231.3523   -121.18469    2.0189744   -119.16572   -21751.953    4.3470644    4.3470644    4.3470644   -21751.953   -58646.995   -72013.242    65404.376    24313.434    6595.6129    -7190.141     82.14634 
    4000    2506.6648   -121.42243     2.268083   -119.15434   -25914.637    4.3716053    4.3716053    4.3716053   -25914.637   -2729.6881   -50286.037   -24728.186   -16057.105    6677.9078    11138.659    83.545456 
    4100    1947.3872   -120.88346    1.7620368   -119.12142   -18505.235    4.3693415    4.3693415    4.3693415   -18505.235   -26607.898     199.4896   -29107.298     10932.82    17310.769   -15655.387    83.415734 
    4200    1537.4334   -120.48231    1.3911021    -119.0912    8956.3093    4.3411665    4.3411665    4.3411665    8956.3093   -29177.683    46681.466    9365.1446    28099.548   -22149.938   -6055.6828    81.812437 
    4300    2353.5773   -121.21741    2.1295662   -119.08785    2084.7118    4.3262902    4.3262902    4.3262902    2084.7118    -4908.118   -17493.334    28655.587   -12804.056   -10289.028    14777.566     80.97425 
    4400    2302.7443   -121.21491    2.0835715   -119.13134     19138.06    4.3433417    4.3433417    4.3433417     19138.06    43165.359   -30701.902    44950.723   -1645.0657    7519.3284   -24589.622    81.935479 
    4500    2224.6727   -121.15267    2.0129306   -119.13974   -32136.895    4.3709122    4.3709122    4.3709122   -32136.895   -68191.196    23629.907   -51849.395    18325.737   -33847.903   -7088.6157    83.505723 
    4600    1833.7584   -120.76657    1.6592232   -119.10735   -52350.107    4.3628076    4.3628076    4.3628076   -52350.107   -55530.671    -49501.45   -52018.199   -15102.091   -52676.289      12040.3    83.042074 
    4700    2571.9479   -121.40864    2.3271525   -119.08149    11802.969    4.3286427    4.3286427    4.3286427    11802.969   -11134.811     10139.43    36404.289   -19101.405   -2336.4646    13887.563    81.106419 
    4800    2070.3713   -120.99804    1.8733154   -119.12472     31046.67    4.3385895    4.3385895    4.3385895     31046.67    20126.102    16706.285    56307.625   -5215.4528   -23312.923   -13220.971    81.666828 
    4900    2323.9676   -121.24036    2.1027748   -119.13759   -63414.948    4.3736379    4.3736379    4.3736379   -63414.948   -90017.714   -62428.637   -37798.493    30073.972   -26442.701    22139.763    83.662044 
    5000    2302.7736   -121.17912    2.0835979   -119.09552    -40995.62    4.3822562    4.3822562    4.3822562    -40995.62   -77986.585   -75084.101    30083.827   -7552.1386   -4535.9917    17986.329    84.157592 
    5100    2688.8069   -121.49729     2.432889   -119.06441   -29093.145    4.3708755    4.3708755    4.3708755   -29093.145   -45326.093   -9331.1093   -32622.234    5495.2307    9640.0282   -6895.6091     83.50362 
    5200    2548.9958   -121.37646    2.3063849   -119.07007     8703.666     4.343492     4.343492     4.343492     8703.666   -22013.162   -14233.913    62358.074     7495.489   -6682.6854    19779.538    81.943982 
    5300    2463.4392   -121.33344    2.2289716   -119.10447    9842.0704    4.3288408    4.3288408    4.3288408    9842.0704    25326.878    4228.4187   -29.085019   -17628.544   -20268.608    5328.1051    81.117554 
    5400     1681.714   -120.70049    1.5216502   -119.17884   -17873.019    4.3617485    4.3617485    4.3617485   -17873.019   -51479.251   -21426.082    19286.276   -19472.606    11101.556   -945.65541    82.981608 
    5500      1833.52    -120.7979    1.6590074    -119.1389    -23910.73    4.3822078    4.3822078    4.3822078    -23910.73   -48920.987    22129.198   -44940.402   -5512.1588    29969.679    18287.058    84.154802 
    5600    3073.6129   -121.88652    2.7810695   -119.10545    -15822.26    4.3489274    4.3489274    4.3489274    -15822.26    -32703.34   -5252.9379   -9510.5023    12295.241   -10928.224    -12431.14    82.252004 
    5700     1823.444   -120.75126    1.6498904   -119.10137    73474.578    4.3167153    4.3167153    4.3167153    73474.578    83689.439    91332.327    45401.968    15705.884   -32157.782   -3382.2939    80.437807 
    5800    1678.3376   -120.68047    1.5185951   -119.16187   -3067.5761    4.3308168    4.3308168    4.3308168   -3067.5761   -15636.029    29341.808   -22908.507   -22337.178    6561.6546    13310.205    81.228685 
    5900    2221.6661   -121.16781    2.0102102    -119.1576   -31295.962    4.3583359    4.3583359    4.3583359   -31295.962    2340.7777   -50218.672   -46009.993   -22329.075    4424.6913    14792.216    82.786992 
    6000    2496.0794   -121.38963    2.2585051   -119.13112   -10450.861    4.3682504    4.3682504    4.3682504   -10450.861    9110.5142   -1147.4411   -39315.655   -6096.2745   -13982.873     3866.227    83.353255 
    6100    2086.6306   -121.00768    1.8880272   -119.11965   -43071.406    4.3726121    4.3726121    4.3726121   -43071.406   -47663.386    703.88288   -82254.716   -1327.1548   -16892.124     -19536.7    83.603192 
    6200    1987.5424   -120.89725    1.7983701   -119.09888   -45321.227    4.3555446    4.3555446    4.3555446   -45321.227   -51698.345   -67985.169   -16280.168     -58800.5    14866.524    5605.6599    82.628029 
    6300    2467.3122   -121.31298    2.2324759    -119.0805   -5078.4119    4.3265668    4.3265668    4.3265668   -5078.4119     -9702.38   -31327.535     25794.68    14673.712     8121.389    15235.833    80.989786 
    6400    2119.1341   -121.04273    1.9174371    -119.1253    139.09468    4.3270557    4.3270557    4.3270557    139.09468    6172.5981   -31241.287    25485.973    37726.764   -17882.464   -14083.702    81.017244 
    6500    1927.1604   -120.90329    1.7437353   -119.15955    14780.406    4.3446549    4.3446549    4.3446549    14780.406    12096.074    61335.852   -29090.707    2529.9444   -7425.6377    8051.4283    82.009821 
    6600     2463.151   -121.37576    2.2287108   -119.14705   -38983.454    4.3754669    4.3754669    4.3754669   -38983.454    11527.046   -84164.779    -44312.63   -4878.7272   -18699.251   -7999.7333    83.767046 
    6700    2128.7057   -121.02225    1.9260977   -119.09616   -55852.295     4.375412     4.375412     4.375412   -55852.295    -50267.86   -60347.148   -56941.876    22653.017    -3218.856   -5372.2968    83.763897 
    6800    2276.9555   -121.13654    2.0602372   -119.07631   -20240.263    4.3375291    4.3375291    4.3375291   -20240.263    2759.9735    3357.6929   -66838.457    8577.1452   -17962.347   -14129.346    81.606961 
    6900    2666.4257   -121.51201     2.412638   -119.09937    5073.5003    4.3250201    4.3250201    4.3250201    5073.5003    10257.387    25961.603    -20998.49   -8226.1548   -33494.017   -13513.654    80.902954 
    7000    2130.4929   -121.07418    1.9277148   -119.14646   -5351.1375    4.3519381    4.3519381    4.3519381   -5351.1375    6796.5519   -43569.109    20719.145    21865.739        20145    5923.3856    82.422947 
    7100    1916.9425   -120.86083    1.7344898   -119.12634   -35565.746    4.3618363    4.3618363    4.3618363   -35565.746   -63806.318     3222.651   -46113.571     34305.66   -4812.1313    1347.6852     82.98662 
    7200    1561.8982   -120.52003    1.4132383   -119.10679    15566.948    4.3598072    4.3598072    4.3598072    15566.948    51156.989    49890.645   -54346.789    21540.989   -39809.197     10524.28    82.870863 
    7300    2179.7163   -121.05766    1.9722531    -119.0854   -14231.848    4.3685904    4.3685904    4.3685904   -14231.848    13439.355   -35920.005   -20214.895    8801.4479    10708.828   -14012.571    83.372724 
    7400    1981.7377   -120.86012    1.7931179   -119.06701   -55841.142    4.3584375    4.3584375    4.3584375   -55841.142   -47682.668   -95426.068   -24414.691    30491.878    11314.196   -12154.846    82.792778 
    7500    1872.5284   -120.75413    1.6943031   -119.05983    44468.715    4.3212732    4.3212732    4.3212732    44468.715    34754.541    25836.102    72815.503    4796.7357   -8928.9992   -1050.9138    80.692873 
    7600    2499.5815   -121.37523    2.2616739   -119.11356    9079.0823    4.3327263    4.3327263    4.3327263    9079.0823    56037.372   -2699.2033   -26100.921   -3718.7998    2090.9573   -9650.4009     81.33618 
    7700    2139.6175   -121.06682    1.9359709   -119.13085   -18114.355    4.3594123    4.3594123    4.3594123   -18114.355    32152.478   -68756.053   -17739.491    3555.0915   -11888.175   -14248.624    82.848342 
    7800    1939.4677   -120.86994    1.7548711   -119.11507   -1766.1931    4.3710992    4.3710992    4.3710992   -1766.1931    52743.938   -23438.833   -34603.684    25250.591    -7364.989    6180.2211    83.516443 
    7900    2097.4618     -120.983    1.8978275   -119.08517   -5195.2435    4.3647013    4.3647013    4.3647013   -5195.2435   -4409.1328   -13760.498    2583.9005    3467.5508    8081.8005    36965.934    83.150255 
    8000    1874.9053   -120.76298    1.6964537   -119.06653    52735.538    4.3260442    4.3260442    4.3260442    52735.538    117712.97   -17737.836    58231.479   -13553.972    13708.413    15228.818    80.960441 
    8100    1771.5382   -120.72326     1.602925   -119.12034    19210.007    4.3275124    4.3275124    4.3275124    19210.007   -2802.5907    13501.354    46931.258    18201.652   -4603.1247   -7079.6607    81.042898 
    8200    1680.8227   -120.66136    1.5208437   -119.14052   -14173.688    4.3555436    4.3555436    4.3555436   -14173.688   -53183.182    41192.548   -30530.431    2610.3399   -40761.384    19764.989    82.627972 
    8300    2111.4162   -121.01307    1.9104538   -119.10262    21061.608     4.355807     4.355807     4.355807    21061.608    61292.435     47833.65   -45941.261   -26254.662   -6013.2048    5578.4748    82.642965 
    8400    2423.0323   -121.27269    2.1924106   -119.08028   -23044.047     4.354806     4.354806     4.354806   -23044.047   -29213.659   -9085.4975   -30832.986    49.393967    9808.9771   -19576.663    82.585999 
    8500     1436.134   -120.37978    1.2994442   -119.08034   -33946.379    4.3577603    4.3577603    4.3577603   -33946.379   -64629.751    28401.316   -65610.703    21832.005   -36820.681   -22122.248    82.754196 
    8600    2291.2798   -121.13369    2.0731982    -119.0605   -18793.615    4.3537281    4.3537281    4.3537281   -18793.615   -17399.024   -20378.642   -18603.179    569.81972   -30770.175   -8328.1835     82.52469 
    8700     1746.551   -120.66073    1.5803161   -119.08042    46642.211    4.3544131    4.3544131    4.3544131    46642.211    170814.27   -20430.511   -10457.124    32790.861   -4185.9747   -2350.6853    82.563652 
    8800    1300.0681   -120.28415    1.1763289   -119.10782    24201.868    4.3675039    4.3675039    4.3675039    24201.868    48354.193    63749.068   -39497.657    48940.501    -19059.83   -267.67183    83.310533 
    8900     1445.838   -120.40549    1.3082246   -119.09727    6650.3288    4.3893395    4.3893395    4.3893395    6650.3288   -480.11995    78183.377   -57752.271    32561.259   -10665.276    5640.1985    84.566335 
    9000    2149.4911    -120.9919    1.9449047   -119.04699   -29019.565    4.3835159    4.3835159    4.3835159   -29019.565   -24214.087   -50638.056   -12206.552    7840.9281    9319.7103   -15859.929    84.230187 
    9100     1669.759   -120.55573    1.5108331    -119.0449    3187.2409    4.3324824    4.3324824    4.3324824    3187.2409   -19807.326    28025.605    1343.4435    33850.571   -18889.972   -13725.672    81.322442 
    9200    1571.2337   -120.50097    1.4216853   -119.07928    34450.421    4.3112609    4.3112609    4.3112609    34450.421    50688.986      76170.4   -23508.123    26189.244   -22941.112   -31158.743     80.13328 
    9300    2122.2119   -121.06724    1.9202219   -119.14702   -12273.815    4.3542422    4.3542422    4.3542422   -12273.815   -24001.438    -9007.781   -3812.2251    5028.8588   -11676.663   -20158.517    82.553932 
    9400    2130.0588     -121.036    1.9273219   -119.10868   -29691.724    4.3801159    4.3801159    4.3801159   -29691.724   -3860.2926   -32075.988   -53138.892    25206.882    7769.7325    9767.9097    84.034345 
    9500    1262.1406    -120.2265    1.1420113   -119.08449    -18292.01    4.3673575    4.3673575    4.3673575    -18292.01   -34894.951    14825.427   -34806.506    5743.9977   -28905.985   -21644.387    83.302157 
    9600    1944.0848   -120.81995    1.7590488    -119.0609   -6250.9927    4.3441777    4.3441777    4.3441777   -6250.9927   -72646.069    33602.788    20290.303    5583.7888   -23645.014   -6999.5478    81.982802 
    9700    1851.3991   -120.75245    1.6751848   -119.07727    12928.497    4.3343954    4.3343954    4.3343954    12928.497    20989.013    4658.6416    13137.838   -4642.5931    17862.548    3181.2522    81.430215 
    9800    1636.6397   -120.58969     1.480866   -119.10883   -5101.4325    4.3301551    4.3301551    4.3301551   -5101.4325   -30861.805    34298.575   -18741.068     26665.52    6655.5659   -27891.967    81.191463 
    9900    1529.7116   -120.53926    1.3841152   -119.15514     36307.07    4.3535699    4.3535699    4.3535699     36307.07    30677.066    5453.3414    72790.803   -5040.1084    622.94333   -24283.145    82.515697 
   10000    1736.7582   -120.68146    1.5714554      -119.11   -7395.2905    4.3848322    4.3848322    4.3848322   -7395.2905    7052.4063   -38848.421    9610.1436   -1113.8423    9307.8707    6342.8181    84.306087 
   10100    1466.0843   -120.38829    1.3265439   -119.06175   -20895.836    4.3620558    4.3620558    4.3620558   -20895.836     1042.409   -30836.311   -32893.607    1903.2383    17341.648     -31116.8    82.999153 
   10200    1901.9828   -120.75979     1.720954   -119.03884     36113.72    4.3291008    4.3291008    4.3291008     36113.72    28767.745    38436.384    41137.032   -17167.085   -12887.543   -28747.159    81.132169 
   10300    2806.8189   -121.61231    2.5396687   -119.07264   -7165.6713     4.339922     4.339922     4.339922   -7165.6713   -17743.317   -8539.3638    4785.6667    473.60463      680.423    38857.021    81.742094 
   10400    1697.0073    -120.6328    1.5354878   -119.09731     2386.447    4.3460641    4.3460641    4.3460641     2386.447   -50125.805    48690.519     8594.627   -1341.9537    17415.507    643.81065    82.089649 
   10500    1712.4264   -120.65388    1.5494394   -119.10445    19722.487    4.3484453    4.3484453    4.3484453    19722.487   -21122.648    29432.788    50857.321   -9161.2378   -2098.2604   -33694.146    82.224648 
   10600    2004.8378   -120.91555    1.8140194   -119.10153    25314.012    4.3681188    4.3681188    4.3681188    25314.012   -50021.642    132556.52   -6592.8399   -7757.4649    -108.2988   -11765.059    83.345721 
   10700    1775.8859   -120.71096    1.6068589    -119.1041   -62803.343    4.3792059    4.3792059    4.3792059   -62803.343   -52559.671   -58399.426   -77450.932    7358.2567   -2938.6569   -3874.9908    83.981979 
   10800    1462.5529   -120.44417    1.3233486   -119.12082   -42628.045    4.3357996    4.3357996    4.3357996   -42628.045   -11201.433   -57854.773   -58827.928   -4838.0951   -11408.164   -32170.643    81.509381 
   10900     2447.184   -121.26682    2.2142635   -119.05256     73359.39    4.2849927    4.2849927    4.2849927     73359.39    83550.068    101707.69    34820.413    12034.154   -2811.1718     -7534.38     78.67745 
   11000    1847.8038   -120.85276    1.6719317   -119.18083   -15725.339    4.3321885    4.3321885    4.3321885   -15725.339   -22449.927   -8392.6812    -16333.41    23029.965   -4919.9346    11700.061    81.305894 
   11100    1184.6546   -120.17484    1.0719004   -119.10294   -73832.456    4.3875624    4.3875624    4.3875624   -73832.456   -28616.612   -101635.94   -91244.821    28227.768    10559.536     4052.271    84.463664 
   11200    2377.2718   -121.20288    2.1510055   -119.05187    -12440.25     4.350254     4.350254     4.350254    -12440.25   -12659.876    2574.5522   -27235.427   -22569.341   -9224.3902   -933.33687    82.327297 
   11300    1906.7331   -120.76156    1.7252522   -119.03631    20157.305    4.3148974    4.3148974    4.3148974    20157.305    6310.0584    28789.714    25372.142   -102.83183   -9849.6442   -738.01676    80.336227 
   11400    1439.1526   -120.41519    1.3021755   -119.11302   -30383.753    4.3360769    4.3360769    4.3360769   -30383.753    20153.903    -84313.32   -26991.841    29737.103    10274.523     10076.64    81.525024 
   11500    2361.4475   -121.24406    2.1366873   -119.10738    2803.1932    4.3296705    4.3296705    4.3296705    2803.1932    24033.558    20024.972    -35648.95    3311.9197    8394.5027     6386.992    81.164207 
   11600    1966.9312   -120.90834    1.7797207   -119.12862    17676.681    4.3238249    4.3238249    4.3238249    17676.681   -16410.964    31283.753    38157.254    9092.1871   -35684.729   -14078.978    80.835904 
   11700    1464.1613   -120.46821     1.324804   -119.14341    5727.7686    4.3442556    4.3442556    4.3442556    5727.7686   -5826.4758    12372.231    10637.551   -3172.5272   -11924.983    486.74046    81.987208 
   11800    2551.8655   -121.39789    2.3089815   -119.08891    17521.373    4.3447846    4.3447846    4.3447846    17521.373    65538.499    24870.981   -37845.361   -3824.3453   -3260.9258    10194.376    82.017165 
   11900    1774.4463    -120.7113    1.6055563   -119.10574   -24150.299    4.3415344    4.3415344    4.3415344   -24150.299   -47686.348    75506.613   -100271.16    16723.992   -21279.302   -11295.541    81.833241 
   12000    1558.4182   -120.51592    1.4100895   -119.10583   -8636.1446    4.3261701    4.3261701    4.3261701   -8636.1446    12556.341    9454.5859   -47919.361    3581.7124   -12025.226    -19571.63    80.967509 
   12100    2177.4504   -121.08119    1.9702029   -119.11098    23230.368    4.3162282    4.3162282    4.3162282    23230.368    113621.69   -44204.972     274.3824   -20665.177    5497.0864    14783.447     80.41058 
   12200    1650.0123    -120.6411    1.4929658   -119.14813   -16071.274    4.3347613    4.3347613    4.3347613   -16071.274    65878.994   -22276.853   -91815.965   -6062.8014    803.74556    9928.1674    81.450839 
   12300    1787.4283    -120.7548    1.6173027    -119.1375   -22546.998    4.3383826    4.3383826    4.3383826   -22546.998    9487.8669   -10751.451    -66377.41   -4517.2618   -2413.2897   -14521.126    81.655146 
   12400     2454.841   -121.34109    2.2211917    -119.1199   -915.32716    4.3388886    4.3388886    4.3388886   -915.32716      44969.8   -23712.232   -24003.549    5860.5297    8450.1946    11337.607    81.683718 
   12500    1707.8266   -120.67028    1.5452774   -119.12501    -11128.65    4.3524008    4.3524008    4.3524008    -11128.65   -1315.8088     29321.47    -61391.61   -27360.563   -3284.0173    14441.985    82.449236 
   12600     1253.414   -120.24135    1.1341154   -119.10724   -11824.564     4.344343     4.344343     4.344343   -11824.564    -21990.21    73249.028    -86732.51    514.68427   -52927.837    17571.763    81.992157 
   12700    2188.4121   -121.06402    1.9801213    -119.0839    15378.038    4.3285669    4.3285669    4.3285669    15378.038    50000.127    10978.721   -14844.735     5171.192   -7669.3596   -6807.4599    81.102158 
   12800     2323.192   -121.20501     2.102073   -119.10294   -10095.852    4.3257715    4.3257715    4.3257715   -10095.852    30536.535   -29350.447   -31473.644     9635.868    3879.6956    21785.361    80.945132 
   12900     1773.321   -120.72532    1.6045381   -119.12078    4590.1117    4.3199118    4.3199118    4.3199118    4590.1117    82324.303    11366.351   -79920.319    16157.501   -44373.652     43071.56    80.616629 
   13000    2111.7205     -121.053    1.9107291   -119.14227   -11588.909    4.3261676    4.3261676    4.3261676   -11588.909    244.54423    28335.552   -63346.824    -12771.86   -18368.061   -2245.4573     80.96737 
   13100    2158.6804   -121.09649    1.9532194   -119.14327   -18258.361    4.3417649    4.3417649    4.3417649   -18258.361    29220.992   -52962.528   -31033.546    31057.878    31231.741    -5902.386    81.846271 
   13200    1881.4994   -120.83421    1.7024202   -119.13179   -10818.456    4.3391037    4.3391037    4.3391037   -10818.456    44015.034   -24905.678   -51564.724    16200.653   -19254.722    15819.868    81.695865 
   13300    2027.3311    -120.9527    1.8343718   -119.11833    8.2662254    4.3355047    4.3355047    4.3355047    8.2662254    7203.5895    14428.639    -21607.43   -525.80706   -49402.268     16484.62    81.492752 
   13400    2520.7365   -121.39349    2.2808154   -119.11268   -11962.657    4.3422286    4.3422286    4.3422286   -11962.657    -27552.35   -8914.5273    578.90639       5639.2    18684.743   -11184.674    81.872498 
   13500    2339.8762   -121.22859    2.1171691   -119.11142   -20465.031    4.3346572    4.3346572    4.3346572   -20465.031   -19763.694   -6369.1071   -35262.292    31613.942   -8259.1925   -11995.344    81.444972 
   13600    1786.5969   -120.73415    1.6165504    -119.1176     1302.849    4.3211839    4.3211839    4.3211839     1302.849   -8441.6847   -11550.077    23900.309    21260.821   -55320.784    11306.327     80.68787 
   13700    2211.0943   -121.14133    2.0006446   -119.14068   -3334.1411    4.3395869    4.3395869    4.3395869   -3334.1411   -12395.866   -16591.424    18984.867     2751.127   -19542.024      6736.31    81.723162 
   13800    2876.1923   -121.70729    2.6024392   -119.10485   -7758.0284    4.3523284    4.3523284    4.3523284   -7758.0284    8357.7504    -41466.69    9834.8543    8320.6586    2100.7975    1829.2193    82.445122 
   13900    1838.4607   -120.76557    1.6634779   -119.10209    40858.102    4.3466831    4.3466831    4.3466831    40858.102    9807.8073    31084.421    81682.079    10209.182   -38602.683    39.012454    82.124727 
   14000    2501.1439   -121.34567    2.2630876   -119.08258   -21124.958    4.3540259    4.3540259    4.3540259   -21124.958   -17160.759    -20090.56   -26123.554   -14019.759    -31648.17    18590.011    82.541629 
   14100    2760.5315   -121.56052    2.4977869   -119.06273    144.94156    4.3442232    4.3442232    4.3442232    144.94156    34922.251   -81486.822    46999.395    -15903.45    7611.6027    5638.2566    81.985375 
   14200    1914.7786   -120.81872    1.7325319   -119.08619   -3971.5917    4.3421133    4.3421133    4.3421133   -3971.5917   -19278.035    10625.682   -3262.4226   -2628.0893   -39690.955   -7560.9906    81.865977 
   14300      1871.02    -120.7865    1.6929382   -119.09356   -20160.928    4.3533154    4.3533154    4.3533154   -20160.928   -60661.963    26910.717   -26731.537    13496.986   -58895.143    3142.8938    82.501224 
   14400    2609.2979   -121.43641    2.3609475   -119.07547   -9578.5742    4.3453612    4.3453612    4.3453612   -9578.5742    23194.385   -17006.863   -34923.245   -6766.0227    28127.853    -22473.44    82.049825 
   14500    1914.7323   -120.82449      1.73249     -119.092    9001.7842    4.3357672    4.3357672    4.3357672    9001.7842    29052.935   -20950.029    18902.446    2613.7459   -21457.249   -6048.8546    81.507556 
   14600    2400.2534    -121.2646    2.1717997    -119.0928   -34356.538    4.3423861    4.3423861    4.3423861   -34356.538   -50459.658    -29354.03   -23255.925     27534.26   -58324.724    2354.9975     81.88141 
   14700    2262.0384   -121.13936    2.0467399   -119.09262   -13211.285    4.3435537    4.3435537    4.3435537   -13211.285   -10330.312   -60340.263    31036.719    17814.401    223.24872   -10649.414    81.947475 
   14800    2062.1713   -120.96597    1.8658959   -119.10007    3375.1368    4.3416016    4.3416016    4.3416016    3375.1368    22124.508   -10090.494   -1908.6035    2813.3791   -5840.1305   -22367.124    81.837041 
   14900    2230.4342   -121.11903    2.0181438   -119.10089   -19758.346     4.353683     4.353683     4.353683   -19758.346   -54312.867    41665.739   -46627.911    2182.0492   -26068.616   -24839.114    82.522126 
   15000    2543.6484   -121.38022    2.3015465   -119.07868   -30591.212    4.3636304    4.3636304    4.3636304   -30591.212   -46758.069   -10907.835   -34107.732   -2805.7869   -16034.847     4138.892    83.089067 
   15100     1147.113   -120.11028    1.0379319   -119.07235    6825.0217    4.3606065    4.3606065    4.3606065    6825.0217   -21320.467    49435.161   -7639.6292   -18977.703    12729.412    23562.215    82.916449 
   15200    1422.6251   -120.36628    1.2872211   -119.07906    23867.353    4.3465498    4.3465498    4.3465498    23867.353   -34578.408    87181.937    18998.529    -24482.02   -11251.659   -8783.6776     82.11717 
   15300    2025.5008   -120.93036    1.8327157   -119.09764    2318.3776    4.3432483    4.3432483    4.3432483    2318.3776   -44422.062    34860.249    16516.946    1259.0181   -21029.801   -1297.8592    81.930191 
   15400    1837.7174   -120.77769    1.6628053   -119.11488   -11877.084    4.3575087    4.3575087    4.3575087   -11877.084   -27952.587   -13527.783    5849.1188   -2525.5693    30185.976    6981.0428    82.739863 
   15500    1435.7092   -120.40721    1.2990598   -119.10815    -39191.06    4.3605087    4.3605087    4.3605087    -39191.06   -11224.111   -46769.201   -59579.869   -4885.4854    6455.4249   -20081.616    82.910872 
   15600    1986.6657   -120.88809    1.7975768   -119.09051    3251.3429    4.3194705    4.3194705    4.3194705    3251.3429   -4285.7621   -4499.5699    18539.361   -15046.275   -21959.198   -15428.273    80.591925 
   15700    2202.1572   -121.08092    1.9925581   -119.08837    28996.746    4.2942274    4.2942274    4.2942274    28996.746    8311.1619    93023.953   -14344.877    3736.2817    31045.015    8373.7602    79.187221 
   15800    1355.2008   -120.39659    1.2262142   -119.17038   -9399.7502    4.3351267    4.3351267    4.3351267   -9399.7502   -38649.245    17573.015   -7123.0212    6068.6168     27689.29    7403.8902    81.471441 
   15900     2108.998     -121.043    1.9082657   -119.13473   -40352.431    4.3528149    4.3528149    4.3528149   -40352.431   -18324.788   -45935.814   -56796.692   -11863.797   -11566.552   -26905.531    82.472773 
   16000    1286.4891   -120.28296    1.1640424   -119.11891    48554.942     4.338008     4.338008     4.338008    48554.942    1238.2759    53047.414    91379.135   -9650.8756    20602.593   -14803.773    81.633995 
   16100     1908.897   -120.84159    1.7272101   -119.11438   -2876.5515    4.3407156    4.3407156    4.3407156   -2876.5515   -1625.8014    25441.524   -32445.377   -13680.274    23696.811    21548.795    81.786944 
   16200    1692.8329   -120.63999    1.5317108   -119.10828    37838.073    4.3300943    4.3300943    4.3300943    37838.073    54568.333   -2841.5023    61787.389   -9997.5465   -20689.763   -1812.2966    81.188042 
   16300    1578.1587   -120.55076    1.4279512   -119.12281    24240.583    4.3284428    4.3284428    4.3284428    24240.583    97414.405   -9945.6166   -14747.039   -19259.998   -13716.326    -30873.44    81.095183 
   16400    1832.0101   -120.78085    1.6576412   -119.12321   -11044.172    4.3461762    4.3461762    4.3461762   -11044.172    9813.4999    7735.5341    -50681.55   -10816.102     20097.58   -6444.7729    82.096001 
   16500    2070.8446   -120.97731    1.8737437   -119.10356    2843.2356    4.3421626    4.3421626    4.3421626    2843.2356   -2142.8106   -14488.184    25160.701     9870.432    22486.556    6588.8155    81.868769 
   16600    1936.6703   -120.86292      1.75234   -119.11058   -713.80212    4.3191548    4.3191548    4.3191548   -713.80212    26330.949   -36821.856    8349.5003    18635.553   -22665.521   -2070.7991    80.574256 
   16700    2155.7087   -121.07794    1.9505305    -119.1274    9471.8988    4.3083237    4.3083237    4.3083237    9471.8988    50557.056   -9975.9092   -12165.451   -7321.3124     3851.953    -23268.48    79.969612 
   16800    1864.6292   -120.84171    1.6871557   -119.15455     43751.31    4.3245074    4.3245074    4.3245074     43751.31    5396.1422    6722.5313    119135.26    8219.6526    13996.549   -6102.3805    80.874187 
   16900    2040.0106   -120.98673    1.8458444   -119.14089    -24243.86    4.3474058    4.3474058    4.3474058    -24243.86   -16412.393    -81709.95    25390.763     47676.21    1138.2921    2438.8799    82.165698 
   17000    1788.0317   -120.73801    1.6178487   -119.12016   -3602.0703    4.3373618    4.3373618    4.3373618   -3602.0703    26440.379   -57908.599    20662.009   -2644.6796   -15732.788   -22680.101    81.597516 
   17100    2018.6646   -120.93646    1.8265302   -119.10993    5137.0862    4.3179152    4.3179152    4.3179152    5137.0862    26584.874   -44977.425    33803.809   -11456.042   -23475.312   -189.52429    80.504902 
   17200     2250.697   -121.15758    2.0364779   -119.12111   -4251.4416    4.3127092    4.3127092    4.3127092   -4251.4416    -21822.53   -46180.562    55248.767    44243.473    14273.188    2918.0103    80.214066 
   17300    1898.3767   -120.85898    1.7176912   -119.14129    8607.2354    4.3205035    4.3205035    4.3205035    8607.2354   -32484.523    -9424.763    67730.992    3092.6166    11140.642   -33428.141     80.64976 
   17400    1504.3653   -120.51891    1.3611813   -119.15773   -32860.388    4.3322944    4.3322944    4.3322944   -32860.388    13793.182    -99711.52   -12662.827   -26029.008   -5150.8114     1460.719    81.311859 
   17500    1760.5723   -120.74322    1.5930028   -119.15022   -4509.5314    4.3265024    4.3265024    4.3265024   -4509.5314    51298.172   -76964.869    12138.103    10348.324   -8051.8934    41901.018    80.986166 
   17600    2762.0754   -121.63985    2.4991839   -119.14066    5085.3974    4.3283749    4.3283749    4.3283749    5085.3974   -16126.586   -51281.372    82664.151    7788.4407    6249.6215    12242.967    81.091364 
   17700     2408.045   -121.31847    2.1788498   -119.13962   -13220.351    4.3252746    4.3252746    4.3252746   -13220.351   -16131.555    -48575.24    25045.742   -16726.948    6767.6075   -6081.7032    80.917238 
   17800    1462.2433   -120.45785    1.3230685   -119.13478    20915.997    4.3149867    4.3149867    4.3149867    20915.997    57264.096   -59757.044    65240.939    1022.4662    6880.0142    33393.073    80.341216 
   17900    2033.2358   -120.99403    1.8397144   -119.15431   -3435.1303    4.3352408    4.3352408    4.3352408   -3435.1303    51470.722   -82772.278    20996.165    1766.6331   -15260.763    14049.931    81.477874 
   18000    2725.0307   -121.58954    2.4656651   -119.12387   -5712.1903    4.3333943    4.3333943    4.3333943   -5712.1903   -31458.126   -43730.207    58051.762    3785.4051    6735.3537    5620.8301    81.373802 
   18100    2365.0704   -121.25457    2.1399654   -119.11461    19150.437    4.3044626    4.3044626    4.3044626    19150.437    24383.049   -21626.462    54694.723   -4500.7378    9363.5609    18291.078    79.754799 
   18200     1463.035   -120.47399    1.3237848   -119.15021   -9926.7804    4.3129732    4.3129732    4.3129732   -9926.7804    77123.853   -91579.179   -15325.015   -3701.2223   -12630.312    20745.859    80.228796 
   18300    2218.9232   -121.14604    2.0077283   -119.13831   -27205.914     4.326155     4.326155     4.326155   -27205.914    20754.822   -83999.757   -18372.806    18073.167    4749.7882   -3908.8105    80.966659 
   18400    2159.7882   -121.08816    1.9542218   -119.13394    23461.482    4.3274549    4.3274549    4.3274549    23461.482   -18695.198   -9410.8944     98490.54    10552.748   -23165.882    -13204.13    81.039667 
   18500    2182.0587   -121.11033    1.9743725   -119.13596   -24887.364    4.3289523    4.3289523    4.3289523   -24887.364   -17471.884   -26240.022   -30950.186   -12374.497   -33612.453   -7684.5818    81.123822 
   18600    1679.9466   -120.66017     1.520051   -119.14012   -11462.395    4.3127799    4.3127799    4.3127799   -11462.395    52016.369   -63041.365   -23362.188    8114.1791     10229.34   -3774.9731    80.218008 
   18700    2494.0578   -121.39181    2.2566759   -119.13513    22403.584    4.3041483    4.3041483    4.3041483    22403.584    41371.332   -32639.632    58479.051    16109.492    13773.232   -2138.5594    79.737328 
   18800    2298.6233   -121.23191    2.0798427   -119.15207   -1319.5317    4.3303859    4.3303859    4.3303859   -1319.5317   -24278.247    -19767.79    40087.442   -18498.411    10872.157   -3491.6082    81.204444 
   18900    1869.2121   -120.83023    1.6913024   -119.13893   -33335.827     4.340607     4.340607     4.340607   -33335.827    -51669.82   -55704.796    7367.1356   -24783.356    2478.3692    9398.7107    81.780808 
   19000    1854.9605   -120.80748    1.6784072   -119.12907    184.41617    4.3193808    4.3193808    4.3193808    184.41617    29940.643   -62403.493    33016.098    701.43876   -12509.104   -6871.9025    80.586907 
   19100    2442.7624   -121.33834    2.2102627   -119.12807    -16380.93    4.3080655    4.3080655    4.3080655    -16380.93   -12324.988   -53852.771    17034.969    22827.754    13711.705   -23636.785    79.955233 
   19200    2403.8287    -121.3288    2.1750347   -119.15377   -8457.4585    4.3167251    4.3167251    4.3167251   -8457.4585   -27291.429   -13400.256    15319.309   -168.82431    16050.223   -1315.3197    80.438352 
   19300    2362.1221   -121.28581    2.1372977   -119.14851       -17428    4.3318855    4.3318855    4.3318855       -17428   -7053.1846   -45719.961    489.14578   -18341.014   -7386.5888    14895.756    81.288835 
   19400    2087.3812   -121.01919    1.8887064   -119.13049   -3065.4543    4.3311991    4.3311991    4.3311991   -3065.4543    -4157.272   -47281.275    42242.184    7045.3324    1960.8202   -6811.4341    81.250199 
   19500    1451.0131   -120.45173    1.3129072   -119.13882    6145.4035    4.3277226    4.3277226    4.3277226    6145.4035    27846.386    -13065.87     3655.695    20586.416    32650.889   -30295.986    81.054709 
   19600    2168.4929   -121.08764     1.962098   -119.12554   -17730.535     4.328129     4.328129     4.328129   -17730.535   -29529.592   -13924.009   -9738.0049   -946.22589    32624.201    -2195.986    81.077546 
   19700    2431.5176   -121.30595    2.2000882   -119.10587    21708.819    4.3222921    4.3222921    4.3222921    21708.819    9985.3084   -22965.066    78106.213   -21636.542   -32936.089    10084.204    80.749962 
   19800    1877.5323   -120.81691    1.6988307   -119.11808   -17587.127     4.339439     4.339439     4.339439   -17587.127    -15362.61   -28551.196   -8847.5758    6465.4359    5804.0711   -7748.7735    81.714811 
   19900    2048.7217   -120.95014    1.8537264   -119.09641   -42101.695    4.3500296    4.3500296    4.3500296   -42101.695   -89932.069   -20377.109   -15995.908   -5354.1257    25582.989     1144.861    82.314557 
   20000    2469.0141   -121.31837    2.2340158   -119.08436    11730.154    4.3252655    4.3252655    4.3252655    11730.154   -16612.112   -1929.1719    53731.747   -19689.963   -1235.6507   -8169.2481    80.916727 
   20100    2690.7868   -121.52789    2.4346804   -119.09321    27202.897    4.3157172    4.3157172    4.3157172    27202.897    45739.505   -14664.095    50533.281    17297.469   -8738.6861   -16062.502    80.382023 
   20200    1449.4935   -120.45421    1.3115322   -119.14268    2453.6921    4.3322112    4.3322112    4.3322112    2453.6921     57098.57   -23279.571   -26457.923    34888.721    11414.271    -6115.103    81.307176 
   20300    1717.5515    -120.7046    1.5540767   -119.15052   -34896.248     4.337197     4.337197     4.337197   -34896.248   -58151.298   -46478.625   -58.820693    -20744.19    5428.8744    12696.353     81.58822 
   20400    2391.0471   -121.29946    2.1634696   -119.13599    15691.527    4.3178562    4.3178562    4.3178562    15691.527    28700.054   -41027.691    59402.217   -21618.002   -27037.573    10228.873      80.5016 
   20500    2634.9105   -121.51666    2.3841224   -119.13254    29574.601    4.3078849    4.3078849    4.3078849    29574.601    3924.0211    12629.747    72170.036    30678.269    14528.204   -695.31425    79.945179 
   20600    2476.9286   -121.39864     2.241177   -119.15747   -14590.597    4.3208239    4.3208239    4.3208239   -14590.597   -30116.176   -39054.345     25398.73    10869.607    23159.145    13598.086    80.667707 
   20700     1692.099   -120.69443    1.5310467   -119.16338   -14770.938    4.3245664    4.3245664    4.3245664   -14770.938   -4059.3647   -70864.969     30611.52   -44498.815   -560.32059    8920.1494    80.877501 
   20800    1952.7203   -120.92674    1.7668624   -119.15988   -10003.265    4.3289556    4.3289556    4.3289556   -10003.265    78454.875   -83439.203   -25025.468   -13484.697    10036.939    4804.4618    81.124006 
   20900    2733.9465   -121.59982    2.4737323   -119.12609    3864.9068    4.3382709    4.3382709    4.3382709    3864.9068    31546.749   -20319.451    367.42267    19518.975   -5035.4719   -17385.204    81.648837 
   21000    2061.8783   -120.97982    1.8656309   -119.11419   -15630.522    4.3482363    4.3482363    4.3482363   -15630.522   -13712.562   -47231.038    14052.033   -27133.166     17061.24    2170.0213    82.212795 
   21100    1526.8891   -120.48416    1.3815613    -119.1026   -27789.968    4.3422561    4.3422561    4.3422561   -27789.968   -16072.249   -49006.015   -18291.639    -27596.42    17020.993     11611.76    81.874054 
   21200    1855.2433   -120.79191    1.6786632   -119.11325      3652.71    4.3093203    4.3093203    4.3093203      3652.71    62286.999   -33308.232   -18020.637    25945.803   -14392.038   -14266.223    80.025121 
   21300    2373.6674   -121.26586    2.1477441   -119.11812    20936.387    4.2835464    4.2835464    4.2835464    20936.387    10710.852   -17230.593    69328.902   -6198.3757    5979.8378   -4924.5992    78.597807 
   21400    2135.1966   -121.10137    1.9319708    -119.1694    25913.905    4.3103067    4.3103067    4.3103067    25913.905    15954.476   -5883.0021    67670.241   -30282.189   -6030.3723   -4630.8481    80.080084 
   21500    1841.4982     -120.826    1.6662263   -119.15977   -38362.059    4.3446149    4.3446149    4.3446149   -38362.059   -8689.1466   -101629.95   -4767.0824   -2992.7288    -12897.78    14182.345    82.007557 
   21600    1147.7908    -120.1768    1.0385452   -119.13825    -26775.38    4.3364361    4.3364361    4.3364361    -26775.38    7905.5685   -114822.48    26590.774    36312.936    6625.4953    9626.1082    81.545286 
   21700     2177.854   -121.08395     1.970568   -119.11338    6297.3453     4.306803     4.306803     4.306803    6297.3453   -3632.8921   -31364.084    53889.012    36731.371   -17977.212   -5927.0389    79.884959 
   21800    2607.3819   -121.48035     2.359214   -119.12114    40827.134    4.2995979    4.2995979    4.2995979    40827.134    75931.155    8547.0157    38003.232   -10388.864   -7073.3476    5696.5222    79.484695 
   21900    1592.8194   -120.60581    1.4412164   -119.16459   -8233.2533    4.3218557    4.3218557    4.3218557   -8233.2533     53355.02   -76523.681   -1531.0988   -4608.0346    9038.0045    17524.129    80.725508 
   22000    1848.3201   -120.81829    1.6723989   -119.14589   -18165.118    4.3440081    4.3440081    4.3440081   -18165.118    7391.5507    -64048.24    2161.3345    31317.486   -16405.082    4815.2572      81.9732 
   22100    2292.7082   -121.18308    2.0744905   -119.10859   -41360.786    4.3493315    4.3493315    4.3493315   -41360.786   -68291.316   -64253.199    8462.1569   -32493.271   -12581.678   -9268.5618    82.274931 
   22200    1387.9369   -120.35458    1.2558344   -119.09874   -36522.657    4.3251847    4.3251847    4.3251847   -36522.657    -43648.72   -106625.62     40706.37    -64667.95    14590.359    1905.4592    80.912194 
   22300    2182.1358   -121.06512    1.9744423   -119.09068    16510.105    4.2935911    4.2935911    4.2935911    16510.105    58722.432   -14268.251    5076.1351    29531.596    18601.567    21804.253    79.152028 
   22400     2308.269   -121.20961    2.0885703   -119.12104    8662.6281    4.2980839    4.2980839    4.2980839    8662.6281   -932.42027   -29461.807    56382.112   -37014.403   -15631.477     2867.837    79.400764 
   22500    1397.8267   -120.41329     1.264783   -119.14851   -20043.431    4.3240854    4.3240854    4.3240854   -20043.431   -34079.619   -95959.802    69909.127   -86167.543   -8592.9299   -1324.9083    80.850512 
   22600      2258.68   -121.16954    2.0437012   -119.12584    -4430.973    4.3364887    4.3364887    4.3364887    -4430.973   -15442.938   -12281.487    14431.505    -547.1951    2790.7548   -8900.0334    81.548251 
   22700    1959.2741   -120.88592    1.7727924   -119.11313   -11303.533    4.3413867    4.3413867    4.3413867   -11303.533   -13923.244   -26917.728    6930.3731   -14892.436   -8423.3642   -11299.336    81.824886 
   22800    1829.8852   -120.75563    1.6557186   -119.09991   -10059.467    4.3256567    4.3256567    4.3256567   -10059.467   -60611.748   -17910.645     48343.99   -76566.922    8387.1659    12342.113    80.938684 
   22900    2306.8317   -121.17971    2.0872698   -119.09244     17412.15    4.3194836    4.3194836    4.3194836     17412.15     324.0174    36414.424    15498.007    -9148.739   -13278.319    16077.187    80.592658 
   23000    2059.1312   -120.97234    1.8631451   -119.10919   -18472.654    4.3411658    4.3411658    4.3411658   -18472.654    8360.9814   -53598.016   -10180.928   -7380.1308   -3254.1939   -2147.5667    81.812398 
   23100    1667.7264   -120.61814    1.5089939   -119.10915   -32860.189    4.3321855    4.3321855    4.3321855   -32860.189    -59538.79   -69573.755    30531.978   -82925.718   -7301.8325   -493.35583    81.305729 
   23200    2247.2089    -121.1158    2.0333218   -119.08247     28975.99    4.3047627    4.3047627    4.3047627     28975.99    63129.742    -5114.241    28912.468   -35366.548   -15458.529   -13233.358     79.77148 
   23300    1682.7544   -120.65221    1.5225915   -119.12962   -696.13716    4.3232721    4.3232721    4.3232721   -696.13716     48627.52   -25784.547   -24931.384    19018.003     3378.496   -3398.4707    80.804905 
   23400    1368.1604   -120.36163    1.2379403   -119.12369   -30181.336    4.3362079    4.3362079    4.3362079   -30181.336   -21039.589   -61705.886   -7798.5329    -12548.74    2398.9934    1049.8084     81.53241 
   23500    2708.0128   -121.53878    2.4502669   -119.08851    9766.6214    4.3197441    4.3197441    4.3197441    9766.6214   -3412.2275     4470.545    28241.547   -17783.397     3147.468   -2095.6327     80.60724 
   23600    1319.9009   -120.30889    1.1942741   -119.11461    3137.8603    4.3310534    4.3310534    4.3310534    3137.8603    40096.476    -48029.81    17346.915    13309.536    24356.807    4591.4927    81.242002 
   23700     1258.754    -120.2434     1.138947   -119.10445   -30723.438    4.3386046    4.3386046    4.3386046   -30723.438    59831.871   -99141.529   -52860.656    26679.227    5802.3356    21322.047    81.667679 
   23800     2641.694   -121.46508    2.3902602   -119.07482    21651.561    4.3150034    4.3150034    4.3150034    21651.561    36792.805    -4006.703    32168.579    1537.3296    10025.236    4326.2919    80.342144 
   23900    2000.6554   -120.92168    1.8102351   -119.11145    28753.749    4.3139456    4.3139456    4.3139456    28753.749     35040.48   -26996.758    78217.524   -9882.6558    26831.291   -17875.598    80.283071 
   24000    896.44898    -119.9597   0.81112588   -119.14857    844.71348    4.3386002    4.3386002    4.3386002    844.71348    109606.99   -112340.14    5267.2902    20567.962    22680.448    4843.4521     81.66743 
   24100    1707.0193   -120.64912     1.544547   -119.10458    9779.5694    4.3509408    4.3509408    4.3509408    9779.5694    31136.737   -73703.722    71905.693    3215.2501    14698.661    1675.7644    82.366292 
   24200    2249.2887   -121.10983    2.0352037   -119.07462   -22518.266    4.3510362    4.3510362    4.3510362   -22518.266   -50957.593   -47771.506    31174.301   -29441.059    1681.7769   -3607.7137    82.371713 
   24300    1662.4255   -120.58399    1.5041975    -119.0798   -12051.053    4.3340096    4.3340096    4.3340096   -12051.053     25578.69   -65381.532    3649.6813    2077.1598    4763.1979    18692.669    81.408472 
   24400    2013.8576   -120.90862    1.8221806   -119.08644    23379.303    4.3099703    4.3099703    4.3099703    23379.303    102650.61   -21687.821   -10824.874    1283.2545    24310.576    9258.4161    80.061336 
   24500    2490.5031   -121.36783    2.2534595   -119.11437     9473.928    4.3122797    4.3122797    4.3122797     9473.928     3035.835    122.98081    25262.968   -41396.506   -10205.426   -6672.7897    80.190103 
   24600    1166.9334   -120.20772    1.0558659   -119.15185    9405.2482    4.3332951    4.3332951    4.3332951    9405.2482    98676.585   -30459.254   -40001.587   -19263.576   -2180.4125    21260.929    81.368218 
   24700    1962.0662    -120.9144    1.7753188   -119.13908   -23464.447    4.3348027    4.3348027    4.3348027   -23464.447   -5640.7625   -24955.402   -39797.175    12581.126   -21738.263    17699.926     81.45317 
   24800    1852.9263   -120.79859    1.6765667   -119.12203    38608.715    4.3215269    4.3215269    4.3215269    38608.715    37056.867    6535.7976    72233.481    746.71039    7576.3597   -18781.724    80.707082 
   24900    1838.1123   -120.79191    1.6631626   -119.12874   -19446.074    4.3241969    4.3241969    4.3241969   -19446.074    6346.9881   -39778.774   -24906.436   -18679.463     31575.03     31952.94    80.856769 
   25000    1536.9627   -120.53178    1.3906762    -119.1411   -28583.967    4.3230475    4.3230475    4.3230475   -28583.967    21410.628   -45235.098   -61927.432   -7964.7971    22039.017    52408.357    80.792309 
   25100    2373.4726   -121.28548    2.1475679   -119.13791     3221.873    4.3362511    4.3362511    4.3362511     3221.873     23712.27   -22519.061    8472.4105    4428.9608    -15066.31   -23953.351     81.53485 
   25200    1143.2885   -120.16069    1.0344715   -119.12622   -70400.171    4.3689049    4.3689049    4.3689049   -70400.171   -13806.095   -117543.13   -79851.285    15308.427   -2044.0601    36068.887     83.39073 
   25300    1158.0173   -120.16523    1.0477984   -119.11743    -41032.42    4.3353982    4.3353982    4.3353982    -41032.42    29060.072   -85196.884   -66960.447   -7475.4487    22696.733    48098.043    81.486749 
   25400    2079.4904   -120.94807    1.8815666   -119.06651     45217.28    4.2997876    4.2997876    4.2997876     45217.28    78890.094    50072.048    6689.6969    -15294.12     9894.448    -13063.91    79.495217 
   25500    1723.8584   -120.67736    1.5597833   -119.11757    10220.499    4.3239651    4.3239651    4.3239651    10220.499    69284.468    12942.966   -51565.937   -5629.0331   -30073.917    22071.489    80.843769 
   25600    1835.4308   -120.78853    1.6607364   -119.12779   -12717.659    4.3397598    4.3397598    4.3397598   -12717.659    8510.7128   -24906.214   -21757.477    13236.793    10150.391    24242.882    81.732933 
   25700     1462.293   -120.45625    1.3231134   -119.13314   -5028.8922    4.3473981    4.3473981    4.3473981   -5028.8922   -64907.671    78224.738   -28403.743   -5426.0675    47514.401   -6088.0494    82.165259 
   25800    1853.9294   -120.78022    1.6774743   -119.10275   -17372.132    4.3442101    4.3442101    4.3442101   -17372.132   -9017.4345    4655.1776   -47754.139   -27774.462    17914.587    979.36215    81.984635 
   25900    2449.6814   -121.30645    2.2165232   -119.08993   -14429.672    4.3112261    4.3112261    4.3112261   -14429.672    7956.2088    -22167.87   -29077.353    13092.177   -6762.2393     15441.37    80.131339 
   26000     1337.578    -120.3319    1.2102687   -119.12163    47571.044    4.2965344    4.2965344    4.2965344    47571.044    65589.097    77420.077   -296.04352    39776.961    30567.437    3104.1354    79.314918 
   26100    1864.3235    -120.8555     1.686879   -119.16862    1491.1533     4.329414     4.329414     4.329414    1491.1533     30256.37     18253.87    -44036.78    9445.8296    35934.122    1930.2747    81.149782 
   26200    2374.4125   -121.27175    2.1484183   -119.12333   -22890.161    4.3556897    4.3556897    4.3556897   -22890.161    40705.356   -32791.678    -76584.16   -19707.498   -142.56654    16993.354     82.63629 
   26300    2040.6771   -120.95913    1.8464475   -119.11268   -14999.652     4.330225     4.330225     4.330225   -14999.652   -3541.2734   -25215.304   -16242.377    49702.265   -8284.3873    13144.946    81.195393 
   26400    1426.2773   -120.40078    1.2905257   -119.11026    21000.567    4.3061714    4.3061714    4.3061714    21000.567     24314.42    32632.625    6054.6568    77307.869    29957.248   -7442.5018    79.849817 
   26500    2158.4236   -121.09497     1.952987   -119.14198    11212.892    4.3178129    4.3178129    4.3178129    11212.892    61259.115    24752.949   -52373.387   -15992.009    9493.5048    11268.328    80.499179 
   26600    2231.5481     -121.161    2.0191516   -119.14185    2188.9073    4.3338968    4.3338968    4.3338968    2188.9073    61659.801   -25205.855   -29887.224    8303.9414   -18305.626    3615.4596    81.402116 
   26700    1775.4737   -120.74619    1.6064859   -119.13971   -21902.278    4.3369292    4.3369292    4.3369292   -21902.278   -42765.064   -44468.414    21526.644    73103.392   -4250.9443   -17777.537    81.573106 
   26800    1812.6074   -120.75917    1.6400853   -119.11908    23888.996    4.3180817    4.3180817    4.3180817    23888.996    695.80615    64183.882    6787.3006    5566.8076     27598.52   -8464.7759    80.514217 
   26900     2518.406   -121.38744    2.2787067   -119.10874    18321.364    4.3113948    4.3113948    4.3113948    18321.364    37850.231    41842.752   -24728.891   -4082.6378    12664.262    4734.2725    80.140748 
   27000     1522.909   -120.52283    1.3779601   -119.14487    -15451.72    4.3270519    4.3270519    4.3270519    -15451.72   -14542.522   -42421.007    10608.368    66256.675   -24101.741    13521.291    81.017029 
   27100    1919.6888    -120.8675    1.7369748   -119.13052   -1499.4651    4.3241788    4.3241788    4.3241788   -1499.4651    18977.951   -41097.532    17621.185    27821.239    8625.7663   -9302.9807    80.855752 
   27200    2025.2245   -120.94707    1.8324657    -119.1146    40147.914    4.3294109    4.3294109    4.3294109    40147.914     62943.45    38011.901     19488.39   -19703.979    16819.807     1800.627    81.149606 
   27300    1617.9918   -120.58601     1.463993   -119.12201   -31985.725     4.341782     4.341782     4.341782   -31985.725   -22914.635   -86462.665    13420.125    39488.509    353.49342    41950.397    81.847239 
   27400    1607.7451   -120.57937    1.4547215   -119.12465   -12261.063    4.3149817    4.3149817    4.3149817   -12261.063     24312.25   -68167.045    7071.6045    36991.695   -14117.163     2270.484    80.340933 
   27500    2363.8521   -121.25266    2.1388631    -119.1138    46177.574    4.2980727    4.2980727    4.2980727    46177.574       121704     -8062.85     24891.57   -7306.4548    6580.6968   -28585.292    79.400138 
   27600    1883.2921   -120.86344    1.7040423    -119.1594   -11752.288    4.3361232    4.3361232    4.3361232   -11752.288    37425.443   -52720.397    -19961.91    11140.146    11140.501    27142.007    81.527631 
   27700    1490.6894   -120.46621    1.3488071    -119.1174    -45550.43    4.3556019    4.3556019    4.3556019    -45550.43   -19821.224   -105177.14   -11652.927    54053.685    5615.3191    25546.437     82.63129 
   27800    2722.5922   -121.53636    2.4634587    -119.0729   -985.51555    4.3289711    4.3289711    4.3289711   -985.51555      12949.4   -36865.486    20959.539    1250.3851   -15023.883   -7887.8247    81.124876 
   27900    2185.9943   -121.06003    1.9779336    -119.0821   -19218.057    4.3217567    4.3217567    4.3217567   -19218.057    19709.794   -38988.005    -38375.96   -9501.4117   -14658.142    49219.797    80.719959 
   28000    1568.2933   -120.53073    1.4190248   -119.11171   -20337.668    4.3278949    4.3278949    4.3278949   -20337.668    15999.572   -70340.511    -6672.065    35890.901   -5996.0388    33333.616     81.06439 
   28100    1936.8099   -120.87537    1.7524663    -119.1229    11315.128    4.3398092    4.3398092    4.3398092    11315.128    19866.904   -29053.875    43132.356     27386.62   -16620.714   -27392.141    81.735725 
   28200    2617.9898   -121.46769    2.3688122   -119.09888   -23689.752    4.3481602    4.3481602    4.3481602   -23689.752    -25349.02   -35127.704   -10592.532   -38265.665   -4488.7706    6454.3302    82.208479 
   28300    1972.9288   -120.89618    1.7851475   -119.11103   -4763.2618    4.3156445    4.3156445    4.3156445   -4763.2618    47046.157   -60954.541   -381.40123    10954.474    1896.1234    27245.716    80.377963 
   28400    1561.0685   -120.52244    1.4124876   -119.10996    29088.472    4.2902124    4.2902124    4.2902124    29088.472    17318.178    -7811.499    77758.736    72601.781    13685.056   -10017.745    78.965316 
   28500    2568.0082   -121.45863    2.3235877   -119.13504    8127.8257    4.3191311    4.3191311    4.3191311    8127.8257   -30562.006   -4864.1103    59809.593   -13324.145    19169.338   -1926.6823    80.572931 
   28600    1968.5877    -120.8974    1.7812195   -119.11618    6076.7169    4.3505401    4.3505401    4.3505401    6076.7169    13018.958    6940.3252   -1729.1321    3626.0435    -3721.435    21746.099    82.343539 
   28700     1384.688   -120.34088    1.2528948   -119.08798   -8644.0044    4.3488852    4.3488852    4.3488852   -8644.0044   -865.97321    -45909.64      20843.6    44449.901   -11337.966    23306.005    82.249606 
   28800    2598.6643   -121.41937    2.3513261   -119.06805    7016.3298    4.3151568    4.3151568    4.3151568    7016.3298   -43915.981    43601.528    21363.442   -8631.0588    30223.072   -1049.9586    80.350714 
   28900    2514.1507   -121.35569    2.2748564   -119.08083     21237.38    4.2937168    4.2937168    4.2937168     21237.38    11074.639     18156.72    34480.783     6315.838    27824.176   -2848.1469     79.15898 
   29000    1417.2013   -120.41996    1.2823135   -119.13765    6393.3171    4.3058859    4.3058859    4.3058859    6393.3171    37565.601   -49307.806    30922.156    52044.456    -12240.68    75764.043    79.833936 
   29100    1920.2765   -120.88216    1.7375066   -119.14465    9162.4848    4.3283784    4.3283784    4.3283784    9162.4848    -8138.666   -1447.3876    37073.508    13718.147    6186.5925    24081.112    81.091562 
   29200    2742.3335   -121.59891     2.481321   -119.11759   -24739.101    4.3410577    4.3410577    4.3410577   -24739.101   -53715.753   -10788.349   -9713.2007   -775.73829    19543.055   -11997.288    81.806285 
   29300    1389.8373   -120.38652     1.257554   -119.12897   -24306.805     4.325321     4.325321     4.325321   -24306.805   -52977.346    -33775.36     13832.29    64131.945    11407.614    19198.719    80.919845 
   29400    1625.0289   -120.58813    1.4703603   -119.11777    10470.857    4.2980016    4.2980016    4.2980016    10470.857    27669.022   -19028.451        22772    40654.839   -257.70299    42494.265      79.3962 
   29500    2453.6798   -121.34305    2.2201411   -119.12291    20386.678    4.3063299    4.3063299    4.3063299    20386.678    20564.306   -7007.8309    47603.558   -21360.385    7791.9214    12738.189    79.858637 
   29600    1415.5115    -120.4223    1.2807846   -119.14151    200.31418    4.3334164    4.3334164    4.3334164    200.31418   -77314.169    2361.9301    75553.181    45553.918     15120.46   -7616.0361    81.375047 
   29700    1016.6482   -120.03135   0.91988463   -119.11146    18655.752    4.3464693    4.3464693    4.3464693    18655.752   -48012.142     564.8862    103414.51    30095.949   -5359.3009    41179.075     82.11261 
   29800    1835.7595   -120.73579    1.6610338   -119.07476    12648.634     4.348389     4.348389     4.348389    12648.634    5869.3673    17059.172    15017.362   -15429.864   -9662.7645    35403.688    82.221457 
   29900     1674.316    -120.5822    1.5149563   -119.06724    9261.5269    4.3302235    4.3302235    4.3302235    9261.5269    -19415.08    19268.772     27930.89    33308.623    6422.2295   -22757.003    81.195307 
   30000     1721.332   -120.63579    1.5574974    -119.0783   -14274.014    4.3098726    4.3098726    4.3098726   -14274.014   -1305.2848    -29807.97   -11708.786    43623.082    23881.221    2744.5408    80.055891 
   30100    1752.1833   -120.70122    1.5854123   -119.11581    2070.8369    4.3037767    4.3037767    4.3037767    2070.8369     36155.75    15945.445   -45888.684   -16086.753    23087.802     44207.63    79.716679 
   30200    1925.4038   -120.88519    1.7421458   -119.14305     7904.025     4.313071     4.313071     4.313071     7904.025    24394.749   -371.23422   -311.44036   -26322.413   -4524.7866    20299.045    80.234252 
   30300    2121.0376   -121.06222    1.9191594   -119.14306    -755.1173    4.3286984    4.3286984    4.3286984    -755.1173    13860.267   -22096.388    5970.7691     29891.05   -501.65061    2772.9149    81.109548 
   30400    1503.4524   -120.49451    1.3603553   -119.13416   -2666.9949    4.3407107    4.3407107    4.3407107   -2666.9949    30885.407    2104.1475   -40990.539    38989.929      8299.01    33969.227    81.786671 
   30500     1957.671   -120.88452    1.7713419   -119.11318    -21647.08    4.3315711    4.3315711    4.3315711    -21647.08    7908.4144   -35658.944    -37190.71   -27434.792    5310.4209    18475.414    81.271136 
   30600    2197.6513   -121.09857     1.988481   -119.11008    2133.5682    4.3034533    4.3034533    4.3034533    2133.5682   -14351.917   -2863.7278    23616.349   -42090.002   -3859.2677   -19132.321     79.69871 
   30700    1520.6052   -120.51703    1.3758755   -119.14115    7663.5378    4.3007799    4.3007799    4.3007799    7663.5378    9219.7349    -32907.42    46678.299    29723.738   -5282.2518    36792.641    79.550272 
   30800    1933.0206   -120.90565    1.7490376   -119.15661   -15716.578    4.3219928    4.3219928    4.3219928   -15716.578    35554.413    -81108.92   -1595.2272    40313.976   -3342.1979    51226.661    80.733191 
   30900    3142.0814   -121.97773    2.8430213   -119.13471   -9205.6125    4.3224276    4.3224276    4.3224276   -9205.6125    11490.012   -28547.373   -10559.476   -20184.729   -2185.6045   -1484.0621    80.757557 
   31000    2438.3143   -121.34983     2.206238   -119.14359    21952.982    4.3110609    4.3110609    4.3110609    21952.982    16012.573   -13585.164    63431.538    1346.4902   -20320.065   -5546.3128    80.122127 
   31100         1783   -120.77575    1.6132958   -119.16245   -23720.341    4.3040284    4.3040284    4.3040284   -23720.341   -30646.623   -69828.734    29314.336    49487.123   -24600.178    42033.335    79.730664 
   31200    1678.3953   -120.68241    1.5186474   -119.16377     15131.16    4.2981799    4.2981799    4.2981799     15131.16    1913.2835   -33208.098    76688.296    23205.759    5856.6121    13523.823    79.406084 
   31300    2152.1893   -121.11307    1.9473461   -119.16572    4179.6653    4.3180322    4.3180322    4.3180322    4179.6653   -7840.6402    -6505.584     26885.22   -26001.099    21001.415   -50732.956    80.511447 
   31400    1485.7671    -120.4927    1.3443533   -119.14835   -30723.131    4.3429857    4.3429857    4.3429857   -30723.131   -52362.774   -16715.508   -23091.111    22944.864    -29894.97   -10374.855    81.915334 
   31500    1414.7274   -120.39878    1.2800751    -119.1187   -11280.677    4.3322371    4.3322371    4.3322371   -11280.677   -84024.846    13088.971    37093.843    64663.074   -21173.279    28309.939    81.308631 
   31600     2519.281   -121.36942    2.2794984   -119.08992    36437.645    4.3000804    4.3000804    4.3000804    36437.645    5378.8734    43514.897    60419.164   -5397.3343     11739.76   -5540.0402    79.511461 
   31700    2388.5038   -121.28232    2.1611685   -119.12115    17667.678    4.2914302    4.2914302    4.2914302    17667.678    12546.372    59267.265   -18810.604   -4806.3188   -21313.134   -26552.436    79.032578 
   31800    1253.0386   -120.30885    1.1337757   -119.17508   -22248.264    4.3090739    4.3090739    4.3090739   -22248.264   -70668.165    19958.264    -16034.89    80706.153   -37712.933   -3367.3893    80.011392 
   31900    1351.5624   -120.40163    1.2229221    -119.1787   -34038.831     4.320681     4.320681     4.320681   -34038.831   -61312.864   -60629.337    19825.708    38163.885   -24753.112   -3119.0372    80.659702 
   32000    2313.5692   -121.24122     2.093366   -119.14785    6068.2162    4.3170738    4.3170738    4.3170738    6068.2162    11605.602   -21220.828    27819.875    -63218.03    7163.5382    7360.3797    80.457846 
   32100    2196.7078   -121.12862    1.9876274   -119.14099   -2576.6431    4.3173558    4.3173558    4.3173558   -2576.6431   -13764.819   -36589.175    42624.064    21758.676    20106.239    12802.321    80.473614 
   32200    1480.2445   -120.48768    1.3393563   -119.14832   -6902.1847    4.3191642    4.3191642    4.3191642   -6902.1847   -12775.798   -27365.235     19434.48    55094.032   -24769.493   -4710.7898    80.574784 
   32300    2146.5624   -121.08125    1.9422548     -119.139    8740.9747    4.3062541    4.3062541    4.3062541    8740.9747    25895.727    4100.7267   -3773.5298   -5385.6133   -59807.642   -18901.424    79.854421 
   32400     2704.729   -121.58081    2.4472957   -119.13352     16745.17    4.3092608    4.3092608    4.3092608     16745.17    16934.337   -31998.749    65299.923     6167.963   -1164.1243    1746.8477    80.021804 
   32500    1896.8863   -120.86525    1.7163426    -119.1489   -31835.165    4.3303381    4.3303381    4.3303381   -31835.165    -59074.99   -72548.549    36118.045    53240.572    5484.8426    2315.1732    81.201755 
   32600    1225.5462   -120.25639       1.1089   -119.14749   -26340.989    4.3164443    4.3164443    4.3164443   -26340.989   -70988.393    13303.799   -21338.372    15499.762   -67678.909   -864.81312    80.422656 
   32700    1619.4011    -120.6006    1.4652681   -119.13534    40153.121    4.3019445    4.3019445    4.3019445    40153.121    30439.485    30575.379    59444.499   -14886.565   -32855.848    -932.6703    79.614913 
   32800    2608.4461   -121.48505    2.3601768   -119.12487    -14724.11    4.3226164    4.3226164    4.3226164    -14724.11    7632.7017   -63255.024    11449.994   -10039.852    26733.546   -3832.3827     80.76814 
   32900    1452.8915   -120.44142    1.3146068   -119.12681    6355.7787    4.3197723    4.3197723    4.3197723    6355.7787   -9919.5198   -5806.8695    34793.725    15691.355   -78664.049     2896.576    80.608818 
   33000    1590.3378   -120.57286    1.4389711   -119.13389    7546.8199    4.3181223    4.3181223    4.3181223    7546.8199    849.47889    546.01225    21244.969    14258.997    -66161.32    4686.6686    80.516486 
   33100    2416.0035   -121.30745    2.1860507    -119.1214   -33459.288     4.332059     4.332059     4.332059   -33459.288   -31035.169   -88728.878    19386.184   -24989.856    22335.117    3856.5795    81.298601 
   33200    1965.5049   -120.90873    1.7784301    -119.1303   -729.66578    4.3119748    4.3119748    4.3119748   -729.66578    -23732.23    9119.3617    12423.871   -26985.499   -19367.359     91.18257    80.173092 
   33300    1403.4974   -120.40346     1.269914   -119.13354    32023.633    4.3046422    4.3046422    4.3046422    32023.633    -606.9624    43723.492    52954.369    15642.787   -59114.625     3079.449    79.764779 
   33400    2321.3321   -121.23177      2.10039   -119.13138   -15398.717    4.3319024    4.3319024    4.3319024   -15398.717   -18373.371   -44697.727    16874.945    27422.139    -7235.397    -4451.861    81.289788 
   33500    2435.6887   -121.30739    2.2038623   -119.10353   -4869.7254    4.3368496    4.3368496    4.3368496   -4869.7254    -12544.27   -12133.288    10068.382    6995.5912    1570.7106    -19132.03    81.568612 
   33600    1351.5001   -120.31848    1.2228657   -119.09561    41173.478    4.3259931    4.3259931    4.3259931    41173.478    12564.322    112043.08   -1086.9675    2347.6459   -51578.193   -299.54551    80.957572 
   33700    2232.5998   -121.09975    2.0201032   -119.07965     23383.97    4.3286272    4.3286272    4.3286272     23383.97    39675.321    32927.396   -2450.8069     41808.05    1333.9775    4669.4935    81.105544 
[...]
   91300    710.23157   -119.74213   0.64263245    -119.0995     10460.08    4.3128022    4.3128022    4.3128022     10460.08    9314.0409   -5132.3384    27198.538   -33533.104    19858.963     43606.31    80.219255 
   91400    1692.2033   -120.63131    1.5311411   -119.10017    4339.1674    4.3104412    4.3104412    4.3104412    4339.1674    40561.508   -18982.006   -8561.9999   -26543.246    7958.4449    40310.688    80.087578 
   91500    3004.9717    -121.8134    2.7189616   -119.09444   -5694.3139    4.3106415    4.3106415    4.3106415   -5694.3139    29004.695   -9561.3977   -36526.239    24433.443   -14597.626   -20886.637    80.098745 
   91600    1538.3963   -120.52367    1.3919733   -119.13169   -8960.3605     4.304361     4.304361     4.304361   -8960.3605    30263.278   -21796.269   -35348.091   -34899.566    20702.845    14845.132    79.749149 
   91700    1082.7864    -120.1245    0.9797279   -119.14478   -4468.1618    4.2989799    4.2989799    4.2989799   -4468.1618    17793.009   -10111.663   -21085.831   -47603.599    19576.659    30987.592    79.450427 
   91800    1683.3227   -120.67591    1.5231057   -119.15281   -12807.911    4.3007289    4.3007289    4.3007289   -12807.911   -20964.464    50441.316   -67900.585    10122.408   -74854.409   -7778.8216     79.54744 
   91900    2530.6721   -121.42983    2.2898053   -119.14003   -16310.486    4.3062548    4.3062548    4.3062548   -16310.486   -22605.274    28303.803   -54629.987    3359.8961   -38875.471   -9267.0448    79.854458 
   92000     2446.763   -121.34521    2.2138826   -119.13133   -8169.7528    4.3107487    4.3107487    4.3107487   -8169.7528    14152.772   -33076.949   -5585.0815   -30126.556    20027.959    20116.686     80.10472 
   92100    961.43773   -120.00981   0.86992906   -119.13988   -20524.178    4.3145585    4.3145585    4.3145585   -20524.178   -52326.067     42895.12   -52141.585   -20840.716   -85549.988    17071.216      80.3173 
   92200    1810.7381   -120.76763    1.6383939   -119.12924   -5318.0694    4.3086575    4.3086575    4.3086575   -5318.0694    -14490.89     47855.29   -49318.609    -1231.534   -36091.757    2447.7573    79.988198 
   92300    2938.7693   -121.76984    2.6590602   -119.11078    13561.921    4.2983603    4.2983603    4.2983603    13561.921    15051.429    2442.1458    23192.188    9728.0489    39928.948    -8794.658    79.416082 
   92400    1204.9068    -120.2351     1.090225   -119.14487   -5370.1268    4.2972828    4.2972828    4.2972828   -5370.1268    -21988.05    27008.189    -21130.52   -19175.136   -83967.294   -10437.356    79.356369 
   92500    1380.5569   -120.39818    1.2491569   -119.14902   -12246.587    4.3053439    4.3053439    4.3053439   -12246.587   -34945.539   -14778.067    12983.846   -33404.827   -48248.971    21461.672    79.803796 
   92600     2423.693   -121.30975    2.1930083   -119.11674   -11815.459    4.3184309    4.3184309    4.3184309   -11815.459    498.87583   -40998.766    5053.5139    -8498.122    18190.883     32802.75    80.533748 
   92700    1411.4708   -120.38288    1.2771284   -119.10575   -15823.328    4.3194116    4.3194116    4.3194116   -15823.328   -31566.937    27538.228   -43441.275    2199.9393   -93093.976   -3926.8812    80.588627 
   92800    2140.7016   -121.01551    1.9369518   -119.07855    7662.4566    4.3144662    4.3144662    4.3144662    7662.4566    4991.2355   -8924.0144    26920.149   -15566.051   -23208.674   -10051.319    80.312141 
   92900    2044.6011   -120.93427     1.849998   -119.08427   -10976.218    4.3163986    4.3163986    4.3163986   -10976.218    28339.211   -31193.435    -30074.43   -17029.825   -1259.4228    29905.094    80.420104 
   93000    839.76615   -119.87392   0.75983806   -119.11409   -12310.867    4.3052795    4.3052795    4.3052795   -12310.867   -12020.471    44215.794   -69127.925   -10233.363   -103336.94    24103.615    79.800215 
   93100    2877.8298   -121.69586    2.6039209   -119.09194     28437.32     4.298548     4.298548     4.298548     28437.32    25302.342    35645.787    24363.831    1415.0778    6428.3115   -5816.9386    79.426485 
   93200    2449.9615   -121.32059    2.2167767   -119.10381   -4428.6117    4.3158609    4.3158609    4.3158609   -4428.6117   -10873.334    8996.1121   -11408.613   -9346.3298   -21977.813   -9507.2428    80.390055 
   93300    863.61743   -119.90687    0.7814192   -119.12545   -31369.118     4.318966     4.318966     4.318966   -31369.118   -86708.909    43048.314   -50446.761   -4061.6394    -112150.2    33735.373    80.563691 
   93400    2448.0782   -121.32219    2.2150726   -119.10712    -2808.492    4.3052886    4.3052886    4.3052886    -2808.492   -19879.746   -5707.7274    17161.998   -5246.4045    6595.9613    34221.666    79.800718 
   93500    2486.3568   -121.35204    2.2497079   -119.10233     384.0122    4.3018139    4.3018139    4.3018139     384.0122    -36180.37    24487.439    12844.968    16787.721   -12749.817    4730.4444    79.607661 
   93600    1390.4143   -120.37611    1.2580761   -119.11803   -19883.472    4.3061442    4.3061442    4.3061442   -19883.472   -102156.76    58057.862   -15551.519    13540.635   -98334.427   -12574.577    79.848306 
   93700    2513.5429   -121.38264    2.2743064   -119.10834    9601.8395    4.2996931    4.2996931    4.2996931    9601.8395     960.5656   -3796.0162    31640.969    -6678.065    2895.4182    27688.369    79.489979 
   93800    2376.2552   -121.26547    2.1500856   -119.11539    22026.508    4.3016612    4.3016612    4.3016612    22026.508   -52.769827    29619.017    36513.275   -3661.4646   -28469.024    25872.495    79.599183 
   93900    1035.0173   -120.06921   0.93650545    -119.1327   -14069.199    4.3168668    4.3168668    4.3168668   -14069.199   -98298.302    77288.849   -21198.145    7104.5803   -79947.165   -87.843585    80.446274 
   94000    2255.9474   -121.13375    2.0412286   -119.09252   -8597.4196    4.3203013    4.3203013    4.3203013   -8597.4196   -10902.385   -18548.703    3658.8293    8984.5856    57474.374   -7844.6325     80.63844 
   94100    1860.3923   -120.77021    1.6833221   -119.08688   -5235.1251    4.3086709    4.3086709    4.3086709   -5235.1251   -16225.381     15601.35   -15081.345   -4911.4291   -35634.798   -12607.567    79.988945 
   94200    1970.8394   -120.87908    1.7832569   -119.09583    6329.8443    4.2968081    4.2968081    4.2968081    6329.8443   -36494.152      67112.3   -11628.615   -1714.6123   -99848.719   -20.524037    79.330078 
   94300    2362.6366   -121.23578    2.1377633   -119.09801    12304.879    4.2956401    4.2956401    4.2956401    12304.879    32362.922   -9946.1036    14497.819   -3806.8016    28117.549    11887.477    79.265402 
   94400    1358.6703   -120.35635    1.2293535   -119.12699    -17529.57    4.3041345    4.3041345    4.3041345    -17529.57   -25952.262    17822.423   -44458.872    9338.7052     24289.05    464.71741    79.736562 
   94500    2249.3122   -121.14741    2.0352249   -119.11219      1641.81     4.311907     4.311907     4.311907      1641.81   -21052.646    60475.442   -34497.366    2800.6499   -26107.265   -7647.6409    80.169315 
   94600     1735.682   -120.67242    1.5704815   -119.10193     888.7467    4.3204456    4.3204456    4.3204456     888.7467    -3154.725    -9123.074    14944.039   -39435.863   -415.92681    32196.672     80.64652 
   94700    1220.8327    -120.1973    1.1046351   -119.09267   -19450.775     4.327487     4.327487     4.327487   -19450.775   -22843.496   -11716.013   -23792.818   -12637.153    18268.387    12976.895    81.041474 
   94800    3023.9431   -121.77391    2.7361273   -119.03778   -22107.425    4.3405319    4.3405319    4.3405319   -22107.425   -27611.707   -28049.396   -10661.171    17163.233   -24283.954   -16091.455    81.776563 
   94900    589.23108   -119.56726   0.53314866   -119.03412   -12173.264    4.3508003    4.3508003    4.3508003   -12173.264    70876.961   -90949.538   -16447.214   -49486.939    25949.237    52767.425    82.358317 
   95000    2326.1062   -121.08829    2.1047098   -118.98358    11952.119    4.3328477    4.3328477    4.3328477    11952.119    30871.688    -15757.43      20742.1    13170.667    10668.206   -24861.004    81.343015 
   95100    2003.8684   -120.81289    1.8131422   -118.99974   -17663.144    4.3092487    4.3092487    4.3092487   -17663.144    4521.1932   -19362.563   -38148.062   -17539.876   -16263.996    25162.323    80.021131 
   95200     443.4523    -119.4736   0.40124496   -119.07236   -12420.171    4.2941289    4.2941289    4.2941289   -12420.171    5904.4111   -39339.763    -3825.162   -67678.948    3560.0805     66742.22    79.181775 
   95300    2259.9974   -121.15866    2.0448932   -119.11376    2088.0608    4.2985088    4.2985088    4.2985088    2088.0608   -4540.0281    7971.2236     2832.987   -9695.6231     3989.567   -5721.5141    79.424311 
   95400    2723.5945   -121.59215    2.4643655   -119.12779    20217.081    4.3027713    4.3027713    4.3027713    20217.081    35886.791    32144.658   -7380.2074    18951.092   -8787.5775   -12117.677    79.660825 
   95500    699.81221   -119.79625    0.6332048   -119.16304   -3570.2883    4.3104706    4.3104706    4.3104706   -3570.2883    34449.273   -43635.917   -1524.2207   -55398.741   -2147.3976    59897.412     80.08922 
   95600    1511.8361    -120.5136    1.3679411   -119.14566   -24126.907    4.3177075    4.3177075    4.3177075   -24126.907   -7399.6565   -53431.785    -11549.28   -39082.054   -7008.2201    43846.809    80.493286 
   95700    3045.4015   -121.86229    2.7555433   -119.10675    11536.134    4.3017962    4.3017962    4.3017962    11536.134   -14524.213    11736.535     37396.08    34594.131    2761.6635   -27483.814    79.606674 
   95800    1516.5924   -120.49825    1.3722447     -119.126    10141.067    4.2920151    4.2920151    4.2920151    10141.067    10872.122   -21742.862     41293.94   -22032.099   -5737.1872    21554.914    79.064897 
   95900    1150.1484   -120.17403    1.0406784   -119.13335   -11880.219    4.3030549    4.3030549    4.3030549   -11880.219    8715.9664   -43005.285   -1351.3401   -61253.735   -5336.7045    60794.315    79.676576 
   96000    2428.1082   -121.31197    2.1970034   -119.11496   -5806.5195    4.3108166    4.3108166    4.3108166   -5806.5195    -40397.85    1258.9616    21719.329    10131.615    2784.0337   -14568.935    80.108507 
   96100    1810.7683   -120.75756    1.6384212   -119.11914   -16844.267    4.3125657    4.3125657    4.3125657   -16844.267   -55700.054   -40505.648    45672.899    38805.335   -4688.9652   -3155.7679    80.206056 
   96200    1092.4597   -120.11336   0.98848047   -119.12488   -13577.242      4.30364      4.30364      4.30364   -13577.242    -32542.48   -41032.151    32842.904   -47330.455    3001.3107    62782.118    79.709084 
   96300    2168.1419   -121.06913    1.9617804   -119.10735    15222.197    4.2947876    4.2947876    4.2947876    15222.197   -5076.5998    14637.689    36105.502   -24936.354    2187.3837   -3016.7007    79.218219 
   96400    1910.7755   -120.84739    1.7289098   -119.11848   -11699.072    4.3023898    4.3023898    4.3023898   -11699.072    -15186.78   -40469.885    20559.449    42010.412   -849.33296   -43132.264    79.639637 
   96500    1135.1978   -120.15815    1.0271509     -119.131   -26116.693    4.3107743    4.3107743    4.3107743   -26116.693    13635.608   -79357.085   -12628.602    7090.4461    312.34202    59690.373    80.106148 
   96600      2684.63   -121.53838    2.4291097   -119.10927    -2721.171    4.3105728    4.3105728    4.3105728    -2721.171     680.7534   -23025.483    14181.217    -15381.05   -3983.6809    36120.984    80.094914 
   96700    2579.5894   -121.44832    2.3340667   -119.11426   -8259.9133    4.3035669    4.3035669    4.3035669   -8259.9133   -24008.984   -33194.286     32423.53     18637.81    8021.9604   -26694.936    79.705022 
   96800    1090.3697   -120.12851   0.98658945   -119.14192   -5038.3075    4.2849656    4.2849656    4.2849656   -5038.3075    57158.054   -75806.021    3533.0447    35538.238    6070.4911    42094.978    78.675956 
   96900    1939.8253   -120.89721    1.7551947   -119.14202    4143.5124    4.2855657    4.2855657    4.2855657    4143.5124    63300.137   -30813.566   -20056.034    14048.369   -11234.978    41956.574    78.709014 
   97000    2013.3375   -120.95904    1.8217101   -119.13733   -24117.452    4.3092623    4.3092623    4.3092623   -24117.452   -72442.965   -13830.366    13920.974   -61713.147    3786.2003   -20942.224    80.021888 
   97100    1271.1118   -120.27739    1.1501287   -119.12726   -30779.213    4.3152295    4.3152295    4.3152295   -30779.213   -46404.813   -30117.872   -15814.954   -38597.738    12427.884    25131.029    80.354773 
   97200    2246.3733    -121.1356    2.0325658   -119.10303   -3692.0468    4.3045855    4.3045855    4.3045855   -3692.0468    41315.818   -3329.8004   -49062.158    32048.396    5719.5864     49022.55    79.761629 
   97300    1717.1836   -120.66265    1.5537438    -119.1089   -22023.446    4.3032882    4.3032882    4.3032882   -22023.446   -43635.394     -22630.1    195.15704   -69968.308   -7161.3805   -6953.1995    79.689538 
   97400    999.81472   -120.02945   0.90465337   -119.12479   -10017.183    4.2946563    4.2946563    4.2946563   -10017.183   -46867.247   -2564.8118    19380.511   -74873.705   -9578.1514   -1790.5983    79.210953 
   97500    2554.4167   -121.42289      2.31129    -119.1116    7721.6065    4.2988684    4.2988684    4.2988684    7721.6065    4154.5979    48505.527   -29495.305    32011.289    6986.3349    33637.817    79.444249 
   97600    1636.6629   -120.59755     1.480887   -119.11666   -30528.838    4.3199302    4.3199302    4.3199302   -30528.838   -76151.534   -52712.915    37277.934    -64034.25   -4373.0049    10525.637     80.61766 
   97700    904.89848   -119.93108   0.81877116   -119.11231     6954.056    4.3128065    4.3128065    4.3128065     6954.056   -45577.676    15110.962    51328.882   -56834.122   -11963.667   -12988.845    80.219495 
   97800    2838.2696   -121.63237     2.568126   -119.06425    10521.926    4.3101572    4.3101572    4.3101572    10521.926    891.99391    23953.721    6720.0642    28464.152    1746.3052   -11814.738    80.071751 
   97900    1357.9895    -120.3072    1.2287374   -119.07846   -18179.305    4.3162017    4.3162017    4.3162017   -18179.305   -84694.913   -31084.908    61241.906   -115694.18    6832.7335    506.73147    80.409099 
   98000    2138.2805   -121.00363    1.9347611   -119.06887     2897.602    4.3148705    4.3148705    4.3148705     2897.602   -26898.448   -6982.0465    42573.301   -13495.683    6032.1517    4677.5967    80.334724 
   98100    2038.6685    -120.9153    1.8446301   -119.07067    3511.2582    4.3147686    4.3147686    4.3147686    3511.2582   -6195.2896   -38453.371    55182.435    9871.7129    3631.8233   -3787.3576    80.329031 
   98200    558.84777   -119.61028   0.50565721   -119.10463   -4521.6703    4.3102455    4.3102455    4.3102455   -4521.6703   -36307.208   -94109.662    116851.86   -119931.52    14145.496   -2079.6585    80.076671 
   98300    2916.1097   -121.69841    2.6385573   -119.05985    1507.0604    4.3120489    4.3120489    4.3120489    1507.0604    13724.742    -116.5987   -9086.9623     33570.16   -3511.4821   -14236.673    80.177227 
   98400    1247.4981   -120.20397    1.1287625   -119.07521   -32361.217    4.3190484    4.3190484    4.3190484   -32361.217   -37450.923   -71585.043    11952.314   -106453.64    10711.867    3513.1129      80.5683 
   98500    1267.7709   -120.22295    1.1471058   -119.07584   -12585.462     4.319604     4.319604     4.319604   -12585.462   -28307.804   -45484.572     36035.99   -52426.446   -13633.403   -3592.6542    80.599402 
   98600    2419.8759   -121.24559    2.1895546   -119.05604   -5523.7313    4.3157678    4.3157678    4.3157678   -5523.7313   -26594.898   -17490.436     27514.14    42308.436    12103.048    1798.0562    80.384848 
   98700    792.60083   -119.80304   0.71716189   -119.08588   -14200.578    4.3096249    4.3096249    4.3096249   -14200.578    -85202.38   -56161.308    98761.954   -131126.64    16981.409   -5091.4422     80.04209 
   98800    2613.7342   -121.42358    2.3649617   -119.05862    6106.3843    4.3190913    4.3190913    4.3190913    6106.3843   -33533.945    13506.617    38346.481    12635.791    3842.7015    11740.573    80.570705 
   98900    1708.5854    -120.6163    1.5459639   -119.07034   -15779.882    4.3294659    4.3294659    4.3294659   -15779.882   -59227.034   -31241.756    43129.145   -36796.603   -2428.3644    -24.03701      81.1527 
   99000     1163.402   -120.12914    1.0526706   -119.07647   -8750.9369     4.320173     4.320173     4.320173   -8750.9369   -84962.882   -1040.7232    59750.795   -81318.948    6281.2308   -10817.184    80.631252 
   99100    3359.4681   -122.09176    3.0397173   -119.05204    21915.425    4.3038475    4.3038475    4.3038475    21915.425    5851.6316    46770.777    13123.866    53493.433    3539.6873     2819.082    79.720612 
   99200    1519.1106   -120.46641    1.3745232   -119.09189    16500.625    4.2983072    4.2983072    4.2983072    16500.625   -23955.487   -13726.477    87183.841   -97953.778   -12914.126   -1057.7565    79.413135 
   99300    1611.6819   -120.56688    1.4582836    -119.1086    3738.1702    4.3121791    4.3121791    4.3121791    3738.1702   -53243.797    14439.605    50018.702   -56678.182   -4528.5641    11271.993    80.184489 
   99400    2689.2106   -121.50716    2.4332542    -119.0739    3959.0325    4.3270064    4.3270064    4.3270064    3959.0325    30003.043   -13162.117   -4963.8279    31167.437   -388.88632    8173.8027    81.014475 
   99500    1094.7961   -120.08273   0.99059447   -119.09214   -10554.747    4.3218077    4.3218077    4.3218077   -10554.747   -42612.588   -29569.938    40518.285   -120874.98    2692.8423    2386.7147    80.722819 
   99600    2245.6967    -121.0943    2.0319536   -119.06235    12733.152    4.3066749    4.3066749    4.3066749    12733.152   -9398.4696    48044.084   -446.15973    5544.4936    -12012.89    4771.2581    79.877834 
   99700    1679.9145   -120.59169    1.5200219   -119.07166    4695.0815    4.3012529    4.3012529    4.3012529    4695.0815   -7371.0548    16983.162    4473.1375    -33964.97   -24793.583   -5348.1537    79.576518 
   99800    917.99166   -119.92917   0.83061815   -119.09856   -10955.474    4.3107718    4.3107718    4.3107718   -10955.474   -58226.384    -24515.57    49875.532   -107973.87     19954.22    5701.4655    80.106009 
   99900    2810.1483   -121.60735    2.5426812   -119.06467   -15317.932    4.3213844    4.3213844    4.3213844   -15317.932   -13502.962    5437.7727   -37888.607    44099.967   -9372.3165   -18912.578    80.699099 
  100000    1041.2398   -120.03358   0.94213561   -119.09145   -13890.434     4.319738     4.319738     4.319738   -13890.434    -54442.59     -7249.43    20020.717   -58042.171   -17227.141     1348.722    80.606902 
Loop time of 22.3739 on 1 procs for 100000 steps with 8 atoms

Pair  time (%) = 6.92415 (30.9474)
Kspce time (%) = 5.33769 (23.8567)
Neigh time (%) = 0.250119 (1.1179)
Comm  time (%) = 1.11475 (4.98236)
Outpt time (%) = 0.0257854 (0.115248)
Other time (%) = 8.72145 (38.9804)

Nlocal:    8 ave 8 max 8 min
Histogram: 1 0 0 0 0 0 0 0 0 0
Nghost:    2105 ave 2105 max 2105 min
Histogram: 1 0 0 0 0 0 0 0 0 0
Neighs:    2190 ave 2190 max 2190 min
Histogram: 1 0 0 0 0 0 0 0 0 0

Total # of neighbors = 2190
Ave neighs/atom = 273.75
Neighbor list builds = 2911
Dangerous builds = 0
unfix 20
unfix 21
print "seeds:9745635"
seeds:9745635
