# ['Ni']

107 atoms
1 atom types

    0.0000     9.2988 xlo xhi
    0.0000     9.2988 ylo yhi
    0.0000     9.2988 zlo zhi

    0.0000    -0.0000    -0.0000 xy xz yz

Atoms

1 1     1.5498     1.5498     0.0000
2 1     1.5498     0.0000     1.5498
3 1     0.0000     1.5498     1.5498
4 1     0.0000     0.0000     3.0996
5 1     1.5498     1.5498     3.0996
6 1     1.5498     0.0000     4.6494
7 1     0.0000     1.5498     4.6494
8 1     0.0000     0.0000     6.1992
9 1     1.5498     1.5498     6.1992
10 1     1.5498     0.0000     7.7490
11 1     0.0000     1.5498     7.7490
12 1     0.0000     3.0996     0.0000
13 1     1.5498     4.6494     0.0000
14 1     1.5498     3.0996     1.5498
15 1     0.0000     4.6494     1.5498
16 1     0.0000     3.0996     3.0996
17 1     1.5498     4.6494     3.0996
18 1     1.5498     3.0996     4.6494
19 1     0.0000     4.6494     4.6494
20 1     0.0000     3.0996     6.1992
21 1     1.5498     4.6494     6.1992
22 1     1.5498     3.0996     7.7490
23 1     0.0000     4.6494     7.7490
24 1     0.0000     6.1992     0.0000
25 1     1.5498     7.7490     0.0000
26 1     1.5498     6.1992     1.5498
27 1     0.0000     7.7490     1.5498
28 1     0.0000     6.1992     3.0996
29 1     1.5498     7.7490     3.0996
30 1     1.5498     6.1992     4.6494
31 1     0.0000     7.7490     4.6494
32 1     0.0000     6.1992     6.1992
33 1     1.5498     7.7490     6.1992
34 1     1.5498     6.1992     7.7490
35 1     0.0000     7.7490     7.7490
36 1     3.0996     0.0000     0.0000
37 1     4.6494     1.5498     0.0000
38 1     4.6494     0.0000     1.5498
39 1     3.0996     1.5498     1.5498
40 1     3.0996     0.0000     3.0996
41 1     4.6494     1.5498     3.0996
42 1     4.6494     0.0000     4.6494
43 1     3.0996     1.5498     4.6494
44 1     3.0996     0.0000     6.1992
45 1     4.6494     1.5498     6.1992
46 1     4.6494     0.0000     7.7490
47 1     3.0996     1.5498     7.7490
48 1     3.0996     3.0996     0.0000
49 1     4.6494     4.6494     0.0000
50 1     4.6494     3.0996     1.5498
51 1     3.0996     4.6494     1.5498
52 1     3.0996     3.0996     3.0996
53 1     4.6494     4.6494     3.0996
54 1     4.6494     3.0996     4.6494
55 1     3.0996     4.6494     4.6494
56 1     3.0996     3.0996     6.1992
57 1     4.6494     4.6494     6.1992
58 1     4.6494     3.0996     7.7490
59 1     3.0996     4.6494     7.7490
60 1     3.0996     6.1992     0.0000
61 1     4.6494     7.7490     0.0000
62 1     4.6494     6.1992     1.5498
63 1     3.0996     7.7490     1.5498
64 1     3.0996     6.1992     3.0996
65 1     4.6494     7.7490     3.0996
66 1     4.6494     6.1992     4.6494
67 1     3.0996     7.7490     4.6494
68 1     3.0996     6.1992     6.1992
69 1     4.6494     7.7490     6.1992
70 1     4.6494     6.1992     7.7490
71 1     3.0996     7.7490     7.7490
72 1     6.1992     0.0000     0.0000
73 1     7.7490     1.5498     0.0000
74 1     7.7490     0.0000     1.5498
75 1     6.1992     1.5498     1.5498
76 1     6.1992     0.0000     3.0996
77 1     7.7490     1.5498     3.0996
78 1     7.7490     0.0000     4.6494
79 1     6.1992     1.5498     4.6494
80 1     6.1992     0.0000     6.1992
81 1     7.7490     1.5498     6.1992
82 1     7.7490     0.0000     7.7490
83 1     6.1992     1.5498     7.7490
84 1     6.1992     3.0996     0.0000
85 1     7.7490     4.6494     0.0000
86 1     7.7490     3.0996     1.5498
87 1     6.1992     4.6494     1.5498
88 1     6.1992     3.0996     3.0996
89 1     7.7490     4.6494     3.0996
90 1     7.7490     3.0996     4.6494
91 1     6.1992     4.6494     4.6494
92 1     6.1992     3.0996     6.1992
93 1     7.7490     4.6494     6.1992
94 1     7.7490     3.0996     7.7490
95 1     6.1992     4.6494     7.7490
96 1     6.1992     6.1992     0.0000
97 1     7.7490     7.7490     0.0000
98 1     7.7490     6.1992     1.5498
99 1     6.1992     7.7490     1.5498
100 1     6.1992     6.1992     3.0996
101 1     7.7490     7.7490     3.0996
102 1     7.7490     6.1992     4.6494
103 1     6.1992     7.7490     4.6494
104 1     6.1992     6.1992     6.1992
105 1     7.7490     7.7490     6.1992
106 1     7.7490     6.1992     7.7490
107 1     6.1992     7.7490     7.7490
