LAMMPS (10 Feb 2015)
# ---- initialize simulations
clear
units metal
dimension 3
boundary p p p
atom_style charge
atom_modify map array
# ---- create atoms
read_data /Users/eugeneragasa/pyflamestk_git/pypospack/tests/tests_integration/workflow/WorkflowLammpsThermalExpansion/param_7521/MgO_NaCl_unit.npt.T300/lammps.structure
  triclinic box = (0 0 0) to (4.2565 4.2565 4.2565) with tilt (0 0 0)
  1 by 1 by 1 MPI processor grid
  reading atoms ...
  8 atoms
# ---- define interatomic potential
include potential.mod
mass 1 24.305
mass 2 15.999

group Mg type 1
4 atoms in group Mg
group O type 2
4 atoms in group O

set group Mg charge 1.63791250839
  4 settings made for charge
set group O charge -1.63791250839
  4 settings made for charge

variable R_cut equal 10.0

pair_style buck/coul/long ${R_cut}
pair_style buck/coul/long 10
pair_coeff 1 1 0.0 0.5 0.0 ${R_cut}
pair_coeff 1 1 0.0 0.5 0.0 10
pair_coeff 1 2 1465.92328509 0.282476486176 0.0 ${R_cut}
pair_coeff 1 2 1465.92328509 0.282476486176 0.0 10
pair_coeff 2 2 5816.20442115 0.096233749689 18.932341092 ${R_cut}
pair_coeff 2 2 5816.20442115 0.096233749689 18.932341092 10

kspace_style pppm 1.0e-5

neighbor 1.0 bin
neigh_modify every 1 delay 0 check yes
# ---- define settings
compute eng all pe/atom
compute eatoms all reduce sum c_eng
# ---- run minimization
reset_timestep 0
fix 1 all box/relax iso 0.0 vmax 0.001
thermo 10
thermo_style custom step pe lx ly lz xy xz yz press pxx pyy pzz pxy pxz pyz c_eatoms
min_style cg
minimize 1e-25 1e-25 5000 10000
PPPM initialization ...
  G vector (1/distance) = 0.35267
  grid = 8 8 8
  stencil order = 5
  estimated absolute RMS force accuracy = 3.88211e-05
  estimated relative force accuracy = 2.69597e-06
  using double precision FFTs
  3d grid and FFT values/proc = 3375 512
Neighbor list info ...
  1 neighbor list requests
  update every 1 steps, delay 0 steps, check yes
  master list distance cutoff = 11
Memory usage per processor = 4.06549 Mbytes
Step PotEng Lx Ly Lz Xy Xz Yz Press Pxx Pyy Pzz Pxy Pxz Pyz eatoms 
       0   -108.70031       4.2565       4.2565       4.2565            0            0            0    82041.316    82041.316    82041.316    82041.316 -4.6499549e-11 -1.1702618e-10 1.7098221e-10   -108.70031 
      10   -108.77917     4.299065     4.299065     4.299065            0            0            0    28384.418    28384.418    28384.418    28384.418 -2.893711e-10 1.1285336e-10 8.1895601e-11   -108.77917 
      19   -108.79132    4.3240425    4.3240425    4.3240425            0            0            0 -0.024351241 -0.024351241 -0.024351241 -0.024351241 1.5580285e-11 -3.1606067e-12 1.2588801e-10   -108.79132 
Loop time of 0.00847793 on 1 procs for 19 steps with 8 atoms

Minimization stats:
  Stopping criterion = linesearch alpha is zero
  Energy initial, next-to-last, final = 
        -108.700309346      -108.79131697      -108.79131697
  Force two-norm initial, final = 11.8468 7.13952e-05
  Force max component initial, final = 11.8468 1.5084e-05
  Final line search alpha, max atom move = 0.5 7.54202e-06
  Iterations, force evaluations = 19 24

Pair  time (%) = 0.00237799 (28.0492)
Kspce time (%) = 0.00142288 (16.7834)
Neigh time (%) = 0 (0)
Comm  time (%) = 0.000264883 (3.12438)
Outpt time (%) = 1.19209e-05 (0.140611)
Other time (%) = 0.00440025 (51.9025)

Nlocal:    8 ave 8 max 8 min
Histogram: 1 0 0 0 0 0 0 0 0 0
Nghost:    2189 ave 2189 max 2189 min
Histogram: 1 0 0 0 0 0 0 0 0 0
Neighs:    2344 ave 2344 max 2344 min
Histogram: 1 0 0 0 0 0 0 0 0 0

Total # of neighbors = 2344
Ave neighs/atom = 293
Neighbor list builds = 0
Dangerous builds = 0
unfix 1
# ---- define output variables ----
variable natoms equal "count(all)"
variable tot_energy equal "c_eatoms"
variable length_x equal "lx"
variable length_y equal "ly"
variable length_z equal "lz"
variable tilt_xy equal "xy"
variable tilt_xz equal "xz"
variable tilt_yz equal "yz"
variable tot_press equal "press"
variable press_xx equal "pxx"
variable press_yy equal "pyy"
variable press_zz equal "pzz"
variable press_xy equal "pxy"
variable press_xz equal "pxz"
variable press_yz equal "pyz"

# ---- output ----
print "pypospack:output_section:begin"
pypospack:output_section:begin
print "tot_energy = ${tot_energy}"
tot_energy = -108.791316969709
print "num_atoms = ${natoms}"
num_atoms = 8
print "xx = ${length_x}"
xx = 4.32404254484564
print "yy = ${length_y}"
yy = 4.32404254484564
print "zz = ${length_z}"
zz = 4.32404254484564
print "xy = ${tilt_xy}"
xy = 0
print "xz = ${tilt_xz}"
xz = 0
print "yz = ${tilt_yz}"
yz = 0
print "tot_press = ${tot_press}"
tot_press = -0.0243512411551094
print "pxx = ${press_xx}"
pxx = -0.0243512413415371
print "pyy = ${press_yy}"
pyy = -0.0243512409516822
print "pzz = ${press_zz}"
pzz = -0.024351241172109
print "pxy = ${press_xy}"
pxy = 1.55802849425254e-11
print "pxz = ${press_xz}"
pxz = -3.16060668162342e-12
print "pyz = ${press_yz}"
pyz = 1.25888006757422e-10
print "pypospack:output_section:done"
pypospack:output_section:done
print "pypospack:lammps_sim:done"
pypospack:lammps_sim:done
#------------------------------------------------------------------------------
# RUN THERMOSTAT
# running using an NPT Nose-Hoover style thermostat
#------------------------------------------------------------------------------
variable tempdamp equal 0.1
variable pressdamp equal 1.0
# set initial velocities
velocity all create 300 2154192 mom yes dist gaussian loop all
# fix for Nose-Hoover style thermostat
fix 20 all npt temp 300 300 0.1 aniso 0.0 0.0 1.0 drag 1.0 couple xyz
variable boxx equal lx
variable boxy equal ly
variable boxz equal lz
variable boxp equal press
variable boxt equal temp
# calculate averages every 10000 steps
reset_timestep 0
fix 21 all ave/time 10 10 100 v_boxx v_boxy v_boxz v_boxp v_boxt file lattice.out
thermo_style custom step temp pe ke etotal press lx ly lz press pxx pyy pzz pxy pxz pyz vol
thermo_modify flush yes
thermo 100
run 100000
PPPM initialization ...
  G vector (1/distance) = 0.351996
  grid = 8 8 8
  stencil order = 5
  estimated absolute RMS force accuracy = 4.00454e-05
  estimated relative force accuracy = 2.781e-06
  using double precision FFTs
  3d grid and FFT values/proc = 3375 512
Memory usage per processor = 3.06549 Mbytes
Step Temp PotEng KinEng TotEng Press Lx Ly Lz Press Pxx Pyy Pzz Pxy Pxz Pyz Volume 
       0          300   -108.79133    0.2714463   -108.51988    3584.3897    4.3240425    4.3240425    4.3240425    3584.3897    1314.9796    3277.1312    6161.0584   -979.22598    904.73966    904.33347    80.848111 
     100    77.978738   -108.55185    0.0705568   -108.48129   -4356.6149    4.3388876    4.3388876    4.3388876   -4356.6149   -12907.952   -783.27441    621.38213    599.83777   -853.25261    176.53063    81.683665 
     200      232.563   -108.61824   0.21042789   -108.40781      1582.48    4.3314528    4.3314528    4.3314528      1582.48   -2906.4149    3538.3813    4115.4736     559.4297    275.76842    79.487271    81.264479 
     300    179.84939   -108.50853   0.16273151    -108.3458    5501.6449    4.3365314    4.3365314    4.3365314    5501.6449   -5713.1995    10266.571    11951.564    1076.3124   -1278.9112    637.78561     81.55066 
     400    290.96781   -108.55766   0.26327379   -108.29438   -8920.5293    4.3412334    4.3412334    4.3412334   -8920.5293   -13202.813   -10221.613   -3337.1618    395.73564   -1133.5054   -691.15625    81.816222 
     500    396.43981   -108.61964   0.35870707   -108.26093    3528.7606     4.335827     4.335827     4.335827    3528.7606   -8632.6144    6384.4116    12834.485   -1221.7035   -1338.8378    232.63758    81.510931 
     600    299.98516   -108.51956   0.27143288   -108.24813   -5318.5194    4.3410387    4.3410387    4.3410387   -5318.5194   -12815.503    217.95619   -3358.0112    967.64681    55.041199    663.78986     81.80521 
     700    164.83708   -108.39497   0.14914805   -108.24582    148.15608    4.3422189    4.3422189    4.3422189    148.15608   -14371.631    2115.9412    12700.158    127.65073   -1606.5489    1036.4948     81.87195 
     800     376.9919   -108.58478   0.34111019   -108.24367    7388.5231    4.3330184    4.3330184    4.3330184    7388.5231    -920.6066    8370.5151    14715.661    1919.7453    2285.4035   -332.03431    81.352628 
     900    255.01907   -108.47784   0.23074661    -108.2471   -6389.9616     4.348646     4.348646     4.348646   -6389.9616   -19692.807   -11808.825    12331.747   -1250.5212   -665.85237    2806.2273    82.236038 
    1000    402.90955   -108.61054   0.36456103   -108.24598    5997.3885    4.3302541    4.3302541    4.3302541    5997.3885   -577.07218    11309.216    7260.0216   -652.79061     165.1588    7.5471046    81.197033 
    1100    227.07897   -108.45289   0.20546582   -108.24743   -5197.1914     4.346484     4.346484     4.346484   -5197.1914   -16996.117    -1418.215    2822.7575   -1639.3157     -654.647   -1292.5267    82.113443 
    1200     238.6074   -108.46527   0.21589699   -108.24937     1281.569    4.3374368    4.3374368    4.3374368     1281.569   -9668.4393    1775.3329    11737.813    144.03368   -672.80008    522.24482    81.601751 
    1300    359.14395   -108.57312     0.324961   -108.24816    2666.2419    4.3372284    4.3372284    4.3372284    2666.2419   -9592.0254      3727.53    13863.221    719.58652   -1609.6352    296.69521    81.589991 
    1400    310.59227   -108.52909   0.28103041   -108.24806   -4926.8917    4.3474733    4.3474733    4.3474733   -4926.8917   -17445.992   -5837.9651    8503.2822   -1442.5609   -1016.3153   -2493.6344    82.169523 
    1500    345.22197   -108.55862    0.3123641   -108.24626    5846.6447    4.3297401    4.3297401    4.3297401    5846.6447   -3637.9698    13572.369    7605.5347   -666.42004     -2120.39    2913.8521    81.168121 
    1600     232.5891   -108.45736    0.2104515   -108.24691    -9367.256    4.3493071    4.3493071    4.3493071    -9367.256   -15535.568   -729.76781   -11836.432   -2308.9736    1386.2079   -139.77818    82.273545 
    1700    241.02082    -108.4664   0.21808071   -108.24832    6931.4967    4.3326795    4.3326795    4.3326795    6931.4967   -6441.7567    2314.6141    24921.633    1573.7419     -1665.62   -922.19561    81.333545 
    1800    369.12736   -108.58378    0.3339942   -108.24979   -7186.9407    4.3435772    4.3435772    4.3435772   -7186.9407   -14969.211    2191.9987   -8783.6094    1384.6063    1327.0811    2920.5606    81.948809 
    1900    347.96754   -108.56523   0.31484835   -108.25038     1188.098    4.3406681    4.3406681    4.3406681     1188.098   -15587.845   -3451.8932    22604.032    1706.2345   -184.32687   -4929.2483    81.784262 
    2000    241.89259   -108.46973    0.2188695   -108.25086     5958.708    4.3346186    4.3346186    4.3346186     5958.708   -6472.1509    21163.719    3184.5564    680.01934   -1287.1168    1857.2188    81.442797 
    2100    355.94801   -108.57181   0.32206924   -108.24974   -16679.507    4.3497858    4.3497858    4.3497858   -16679.507   -20413.891   -19311.037   -10313.592   -425.27286   -1402.1483    620.87534    82.300717 
    2200    184.38234   -108.41528   0.16683301   -108.24844    22603.201    4.3273029    4.3273029    4.3273029    22603.201    8275.4715    16623.912    42910.219    1024.0063   -251.39172    592.68571     81.03113 
    2300    393.55266   -108.60363   0.35609472   -108.24753   -19398.334    4.3532046    4.3532046    4.3532046   -19398.334   -25421.596    -21001.54   -11771.866    674.46673    -3054.655    2073.8481    82.494924 
    2400    309.71241   -108.52714    0.2802343    -108.2469    12860.853    4.3311961    4.3311961    4.3311961    12860.853    1579.7792    13527.123    23475.656    1280.9774    1266.5019    3685.7376    81.250031 
    2500    255.32647   -108.47741   0.23102476   -108.24638   -3756.4097    4.3441928    4.3441928    4.3441928   -3756.4097   -17509.198    1196.9262    5043.0424    312.89417   -362.61713   -570.62627    81.983654 
    2600    323.70682   -108.53882   0.29289673   -108.24592   -11015.238    4.3426739    4.3426739    4.3426739   -11015.238   -12979.181   -9508.1369   -10558.396    -1188.986    1309.1185     419.0653    81.897693 
    2700    292.77868   -108.51108   0.26491231   -108.24617    8865.5175    4.3344841    4.3344841    4.3344841    8865.5175   -5247.2407    1376.8407    30466.952   -316.95424   -1005.4504    824.96171    81.435213 
    2800    252.44763   -108.48056   0.22841992   -108.25214   -6762.4244    4.3465825    4.3465825    4.3465825   -6762.4244   -18699.104   -10986.512    9398.3432    1139.0154     69.33737   -328.41879    82.119027 
    2900    410.70899   -108.62444   0.37161813   -108.25282    1761.0746    4.3330627    4.3330627    4.3330627    1761.0746   -3402.5992    8259.5343    426.28875    1773.1798   -730.27572    2536.2549    81.355127 
    3000    181.65976   -108.41909   0.16436957   -108.25472   -2511.6974    4.3469164    4.3469164    4.3469164   -2511.6974   -16533.343   -2832.6777    11830.929    1392.4835   -519.53012    3490.0372    82.137952 
    3100    275.33632   -108.50155   0.24913009   -108.25242    6122.0896    4.3336167    4.3336167    4.3336167    6122.0896    -3707.935     3556.818    18517.386   -130.80641   -1161.6762   -128.01462    81.386335 
    3200    387.94136   -108.60163   0.35101749   -108.25061   -7458.8962    4.3441031    4.3441031    4.3441031   -7458.8962   -15107.813   -10045.305    2776.4293   -541.28136    1748.8444    3020.6572    81.978577 
    3300    249.06718   -108.47599   0.22536122   -108.25063    4582.8947     4.339824     4.339824     4.339824    4582.8947   -12510.471    9024.9196    17234.235    461.57447   -1337.0332   -4519.8333    81.736557 
    3400    351.58381   -108.56581   0.31812042   -108.24769    886.77193    4.3361535    4.3361535    4.3361535    886.77193   -7005.2762    718.36181    8947.2302    701.89123    1160.2845   -767.72783    81.529345 
    3500      261.978    -108.4833    0.2370432   -108.24625    -7649.314    4.3475193    4.3475193    4.3475193    -7649.314   -15398.404    1170.8328   -8720.3704    997.91898   -1004.6803   -91.801212    82.172133 
    3600    271.22332   -108.49037   0.24540856   -108.24496    11544.818    4.3331038    4.3331038    4.3331038    11544.818   -1899.9157    2384.3378    34150.031    628.21874   -3.0971968    496.72541     81.35744 
    3700    349.00142   -108.56175   0.31578382   -108.24597   -6977.6952    4.3456645    4.3456645    4.3456645   -6977.6952   -14719.535    902.07561   -7115.6262   -2197.7803   -3478.3447    1911.1343    82.067004 
    3800    289.66476   -108.50907   0.26209476   -108.24698    5910.4119    4.3381568    4.3381568    4.3381568    5910.4119   -11272.966    5612.7839    23391.417   -91.147691    1404.4748    328.73113    81.642394 
    3900    279.64722   -108.50187   0.25303068   -108.24884    667.98343    4.3378038    4.3378038    4.3378038    667.98343   -10603.831    8320.8129    4286.9688    54.577269   -1640.1455    2389.6363    81.622466 
    4000    404.47956   -108.61692   0.36598161   -108.25093   -14450.405    4.3441689    4.3441689    4.3441689   -14450.405   -16184.345   -13137.561   -14029.307    1313.9996   -174.98415    1061.4101    81.982301 
    4100    159.72373   -108.39739   0.14452139   -108.25287    13896.242    4.3340674    4.3340674    4.3340674    13896.242   -3398.4829    6649.5303    38437.678    1034.9055    980.95419    -3417.262    81.411731 
    4200     396.4993   -108.61095    0.3587609   -108.25219   -12436.645    4.3464464    4.3464464    4.3464464   -12436.645   -16923.052   -8790.5855   -11596.297     -980.192   -63.500869    1508.4995    82.111313 
    4300    299.79562   -108.52265   0.27126137   -108.25139    7804.9442     4.334886     4.334886     4.334886    7804.9442   -4353.6874    8533.2354    19235.285   -238.19733   -872.03421   -3555.2606    81.457867 
    4400    263.10947   -108.48857   0.23806698   -108.25051   -1353.7729     4.341599     4.341599     4.341599   -1353.7729   -11993.872    479.22003    7453.3334    731.05654   -594.66869    4126.5352    81.836892 
    4500    340.22747   -108.55757   0.30784497   -108.24972   -9036.8829    4.3448147    4.3448147    4.3448147   -9036.8829    -13429.67   -11113.057   -2567.9215    1256.2649   -2493.6476   -1200.6003    82.018867 
    4600    281.08952   -108.50232   0.25433571   -108.24798    12474.209    4.3305054    4.3305054    4.3305054    12474.209   -2031.4583    6708.5601    32745.524    2575.0927    -673.4152    3109.7361    81.211168 
    4700    267.36818   -108.48987   0.24192035   -108.24795    -12383.04    4.3542633    4.3542633    4.3542633    -12383.04   -21888.147   -12085.342   -3175.6317   -21.102113   -2394.7324    1788.6795    82.555127 
    4800    375.72871   -108.58572   0.33996723   -108.24576     8803.092    4.3279623    4.3279623    4.3279623     8803.092    160.20141    14561.751    11687.324   -158.95311    2726.0173    1699.9907    81.068178 
    4900    212.40611   -108.43955   0.19218951   -108.24736   -6672.5523    4.3488466    4.3488466    4.3488466   -6672.5523   -13811.056   -13038.992    6832.3905    300.93924   -760.20605   -1696.6966    82.247416 
    5000    345.54045   -108.55959   0.31265226   -108.24694    -2390.796    4.3396862    4.3396862    4.3396862    -2390.796   -9790.4398   -2989.2746    5607.3263    631.19857    1806.4476    1462.4427    81.728776 
    5100     304.9291   -108.52401   0.27590626    -108.2481    5346.4955    4.3348045    4.3348045    4.3348045    5346.4955   -1976.0252   -2785.5554    20801.067    1367.3337   -380.89232     1963.484    81.453274 
    5200    221.73057   -108.45099   0.20062648   -108.25037   -4708.7483    4.3507008    4.3507008    4.3507008   -4708.7483    -20792.97   -1968.0253    8634.7505    298.48672    755.07898    1351.9822    82.352662 
    5300    406.11536   -108.61501   0.36746171   -108.24754    8336.1422    4.3275803    4.3275803    4.3275803    8336.1422    1461.0172    13005.717    10541.693   -1653.6445   -4060.5547    3147.1061     81.04671 
    5400    240.15629   -108.46611   0.21729846   -108.24881   -10652.267    4.3520681    4.3520681    4.3520681   -10652.267   -20406.441   -12581.606    1031.2454    432.84306   -902.48401   -1393.9127    82.430333 
    5500    296.39754   -108.51534   0.26818672   -108.24715    9201.2735    4.3330244    4.3330244    4.3330244    9201.2735   -1887.1038    4357.8957    25133.029    637.48155   -2837.1981    546.87965    81.352966 
    5600    342.38657   -108.55779   0.30979856   -108.24799   -5328.1822    4.3426188    4.3426188    4.3426188   -5328.1822   -13864.633   -767.01713   -1352.8964    919.41569    1089.2529    374.87568    81.894572 
    5700     213.4689   -108.44296   0.19315115   -108.24981    1387.2826    4.3439033    4.3439033    4.3439033    1387.2826   -11452.019   -1418.7236     17032.59    2374.1282   -356.58047   -2506.6455    81.967265 
    5800    364.67458   -108.57827   0.32996523   -108.24831    6467.1119    4.3331927    4.3331927    4.3331927    6467.1119   -4431.6503    13482.775    10350.211   -1524.2034    1663.0697   -149.11714     81.36245 
    5900    335.55427   -108.55261   0.30361656   -108.24899   -14515.242    4.3496754    4.3496754    4.3496754   -14515.242   -17942.886   -16367.796   -9235.0425    1940.5805   -168.70702    2685.0516     82.29445 
    6000    202.99571   -108.43211   0.18367478   -108.24844    15588.897    4.3327554    4.3327554    4.3327554    15588.897    1606.1308    5416.4845    39744.077    155.56979     -561.163   -255.06171    81.337816 
    6100    396.38704   -108.60655   0.35865932   -108.24789   -9748.4765    4.3445685    4.3445685    4.3445685   -9748.4765   -17318.542   -1193.2177    -10733.67    921.01451   -1535.7283    2463.4404    82.004925 
    6200    184.18511   -108.41686   0.16665456    -108.2502    4783.2618     4.341077     4.341077     4.341077    4783.2618   -3712.2787   -3958.5567    22020.621    2226.1805    311.85523    3346.0237    81.807379 
    6300     379.7331   -108.59134   0.34359049   -108.24774    2364.4263    4.3360891    4.3360891    4.3360891    2364.4263   -9236.2701    9514.8823    6814.6666   -1166.0967    -2522.914   -887.80631    81.525712 
    6400    337.67737   -108.55377   0.30553758   -108.24823   -13701.504    4.3484304    4.3484304    4.3484304   -13701.504   -14222.766   -18693.346   -8188.3998   -79.620381    900.85197    950.63068    82.223802 
    6500    203.89215   -108.43192   0.18448591   -108.24744    16109.404    4.3335507    4.3335507    4.3335507    16109.404   -765.96761    8843.4885    40250.692   -893.40782   -289.14805   -160.05946    81.382617 
    6600    392.27948   -108.60159   0.35494271   -108.24665   -10036.836    4.3454638    4.3454638    4.3454638   -10036.836   -16774.965   -4740.9311   -8594.6112    874.99768    1055.1483   -4137.4988    82.055634 
    6700    188.77058   -108.41969   0.17080359   -108.24888    5011.7052    4.3402777    4.3402777    4.3402777    5011.7052   -6002.3442    5023.2703    16014.189    713.23295   -781.65867    1963.4531      81.7622 
    6800    353.65877    -108.5673   0.31999789   -108.24731   -19.226373    4.3381893    4.3381893    4.3381893   -19.226373   -9917.1183   -2502.5073    12361.946     1141.655    801.82962    2228.3439    81.644232 
    6900    391.95705   -108.60305   0.35465098    -108.2484    -11069.76    4.3438488    4.3438488    4.3438488    -11069.76   -14084.112    -8335.751   -10789.418   -914.36259   -1890.6937   -156.81763    81.964182 
    7000    199.74124   -108.43161   0.18073007   -108.25088    9854.1518    4.3371004    4.3371004    4.3371004    9854.1518   -1738.1716   -3045.3229     34345.95    1389.1468   -22.313559    3670.1071    81.582768 
    7100    303.52365   -108.52708   0.27463458   -108.25245   -649.27946    4.3424022    4.3424022    4.3424022   -649.27946   -15021.073    5793.5613    7279.6734    1112.0717   -894.94864   -546.75661    81.882318 
    7200    356.97344   -108.57585   0.32299707   -108.25285   -1952.8997    4.3397777    4.3397777    4.3397777   -1952.8997   -5519.3102   -2713.1154    2373.7265    651.40446    3.8108798   -1393.0901    81.733942 
    7300    232.71268   -108.46346   0.21056332    -108.2529    4373.6095    4.3396401    4.3396401    4.3396401    4373.6095   -12107.767   -290.67087    25519.266    2486.2755   -590.81633    674.96254    81.726171 
    7400    335.42835   -108.55664   0.30350262   -108.25314   -3556.5426     4.343068     4.343068     4.343068   -3556.5426   -12026.953   -7723.3708    9080.6964   -2499.3002   -48.312387   -688.20769    81.919991 
    7500    355.04477   -108.57383   0.32125197   -108.25257   -191.91311    4.3362019    4.3362019    4.3362019   -191.91311   -6990.5029   -1678.6118    8093.3754    754.64008    1087.6616    1907.2769    81.532074 
    7600    153.37928   -108.39145    0.1387808   -108.25267    222.19274    4.3487503    4.3487503    4.3487503    222.19274   -18901.088    6049.6753    13517.991   -1046.5643   -2513.9638     1736.756    82.241955 
    7700    421.31819    -108.6295   0.38121755   -108.24828    5764.8321    4.3307307    4.3307307    4.3307307    5764.8321   -194.21185    8810.0723    8678.6359    368.96309   -1900.0089   -416.33603    81.223843 
    7800    260.71247   -108.48398   0.23589812   -108.24809   -10940.384    4.3526589    4.3526589    4.3526589   -10940.384   -21761.657   -11538.443    478.94807    1378.2192    362.71896    511.98672    82.463904 
    7900    300.62488   -108.51754   0.27201171   -108.24553    11318.927    4.3314521    4.3314521    4.3314521    11318.927    531.63922    2187.7062    31237.435   -1490.5902   -3404.5811    1095.6088    81.264439 
    8000    314.84139   -108.53032   0.28487511   -108.24545   -8173.7699    4.3481113    4.3481113    4.3481113   -8173.7699   -17368.294   -6675.0116   -478.00412    1098.3616    1132.1928   -15.616585    82.205704 
    8100    201.35697   -108.42839   0.18219201    -108.2462     7237.676    4.3384547    4.3384547    4.3384547     7237.676   -8383.1532    8532.0137    21564.168   -1174.9138   -789.23121    207.58557    81.659216 
    8200    414.74693   -108.62049   0.37527174   -108.24521   -1812.5635    4.3403366    4.3403366    4.3403366   -1812.5635   -12698.623    3347.0913    3913.8416    2233.8139    1424.9492   -683.21576    81.765526 
    8300    294.39742   -108.51375   0.26637697   -108.24737   -6949.4854    4.3452124    4.3452124    4.3452124   -6949.4854   -13400.284   -12450.602    5002.4304    1213.7521   -716.05986    536.49034    82.041394 
    8400    231.91021   -108.45844   0.20983723   -108.24861    8304.1034    4.3359803    4.3359803    4.3359803    8304.1034   -5857.5876    439.02111    30330.877    1604.5305    2106.2783    3415.4052    81.519574 
    8500    387.29046   -108.59987   0.35042855   -108.24944   -9560.5629    4.3456146    4.3456146    4.3456146   -9560.5629   -14267.191   -7230.5016   -7183.9958   -1047.8382   -3089.5549   -1067.3661    82.064179 
    8600    234.49553   -108.46486   0.21217648   -108.25268    5631.8309    4.3366379    4.3366379    4.3366379    5631.8309   -8865.7907    5132.8718    20628.412    641.42324   -1140.8706    2328.9326    81.556672 
    8700    272.88114   -108.50136   0.24690859   -108.25445    863.13469    4.3414137    4.3414137    4.3414137    863.13469   -10657.363   -4533.3977    17780.165    556.51935   -1957.3607     916.5244    81.826416 
    8800    429.11578   -108.64242   0.38827297   -108.25415   -11725.308    4.3428696    4.3428696    4.3428696   -11725.308   -16996.054   -10680.176   -7499.6933    264.43872    1527.5356   -1678.1959    81.908766 
    8900    183.98863    -108.4201   0.16647678   -108.25362    10118.314    4.3351318    4.3351318    4.3351318    10118.314   -3924.5091    1097.1568    33182.296    3053.0547    591.96016    1320.1916    81.471725 
    9000    286.15542   -108.51105   0.25891943   -108.25213   -6909.5925     4.347364     4.347364     4.347364   -6909.5925    -18415.87   -3175.5085    862.60098   -3641.1263   -166.31209   -3858.3477    82.163324 
    9100    381.80456   -108.59593   0.34546479   -108.25047    1861.7944    4.3353521    4.3353521    4.3353521    1861.7944   -6789.3503    6094.9174    6279.8161     1589.002    1186.4207    2011.9337    81.484146 
    9200    248.63758   -108.47484   0.22497251   -108.24987    213.93931    4.3426389    4.3426389    4.3426389    213.93931    -9150.598   -7891.2115    17683.627   -1447.8046   -617.23118    4071.8191    81.895711 
    9300    336.92882   -108.55313   0.30486027   -108.24827   -6582.1223    4.3459838    4.3459838    4.3459838   -6582.1223   -16700.224   -4704.1587    1658.0158    988.53095   -966.61924   -345.94691    82.085097 
    9400    291.37961   -108.50959   0.26364639   -108.24594    10512.098    4.3316997    4.3316997    4.3316997    10512.098   -1567.5406    4557.6224    28546.213    2636.2931   -541.10396   -413.11591    81.278377 
    9500    192.10706   -108.42106   0.17382251   -108.24723   -7700.8219    4.3525157    4.3525157    4.3525157   -7700.8219   -21155.205    501.97996   -2449.2412    -1635.595   -2769.1077    2144.7497    82.455767 
    9600    460.49827   -108.66168   0.41666851   -108.24501    2159.8532    4.3315733    4.3315733    4.3315733    2159.8532   -6461.0048     4756.286    8184.2785    703.17781   -386.63188   -2518.4296     81.27126 
    9700    186.64808   -108.41628   0.16888311    -108.2474   -1332.9211    4.3476192    4.3476192    4.3476192   -1332.9211   -10517.582   -6989.2005    13508.019   -1634.4693    17.746453    1865.3866    82.177799 
    9800    382.51671    -108.5928   0.34610916   -108.24669   -2929.4388    4.3391631    4.3391631    4.3391631   -2929.4388   -11035.781   -2015.6666    4263.1314    987.98061   -669.40643   -254.56603    81.699222 
    9900    256.11372    -108.4797   0.23173708   -108.24796    6023.6201    4.3394766    4.3394766    4.3394766    6023.6201   -6552.5156    8511.0742    16112.302    1808.8422    1155.1985     2183.436    81.716931 
   10000    207.79226   -108.43758    0.1880148   -108.24957   -865.89725     4.344669     4.344669     4.344669   -865.89725   -16305.415    217.23713    13490.486    150.84896    94.751932     942.9537    82.010616 
   10100     449.0587   -108.65554   0.40631775   -108.24922   -2141.6835    4.3363559    4.3363559    4.3363559   -2141.6835   -11286.729    1859.5312    3002.1475   -1709.5379   -217.26295    1170.4996    81.540763 
   10200     276.6338   -108.50209   0.25030408   -108.25179   -4313.3478    4.3453152    4.3453152    4.3453152   -4313.3478   -17124.984   -9647.2873    13832.228   -607.33696   -767.63838   -1534.8258    82.047215 
   10300    221.46956     -108.454   0.20039031   -108.25361     7548.854    4.3368573    4.3368573    4.3368573     7548.854   -5871.8693     -1222.79    29741.221   -324.21501   -2112.4755    3357.7403    81.569048 
   10400    326.65644   -108.54831   0.29556562   -108.25275   -3271.8872     4.342469     4.342469     4.342469   -3271.8872   -13170.769    7912.2711   -4557.1634   -647.98284   -1026.9827   -874.06011    81.886101 
   10500    264.08475   -108.49085   0.23894943    -108.2519   -1350.0594    4.3424901    4.3424901    4.3424901   -1350.0594   -9375.4535    -5165.907    10491.182    2385.5846    1894.4449    2080.7743    81.887295 
   10600    311.79232   -108.53132   0.28211625    -108.2492    3860.8015    4.3371125    4.3371125    4.3371125    3860.8015   -8122.9151    2901.2865    16804.033   -3189.8111   -994.32514   -1485.8317    81.583451 
   10700    394.60725   -108.60535   0.35704893    -108.2483   -13670.257    4.3463636    4.3463636    4.3463636   -13670.257   -18450.542   -17048.297   -5511.9331    745.85577    2327.2663    2356.3364     82.10662 
   10800     179.6162   -108.41209   0.16252051   -108.24957    11286.133    4.3365687    4.3365687    4.3365687    11286.133   -4885.2772    4543.0529    34200.622   -1072.7709   -835.19664    475.95747    81.552768 
   10900    351.19703    -108.5661   0.31777045   -108.24833   -8010.4847    4.3441848    4.3441848    4.3441848   -8010.4847   -18940.193    2830.7819   -7922.0431    1748.9836   -394.86477    2484.0188    81.983203 
   11000    270.64728    -108.4928   0.24488735   -108.24791    316.69359    4.3420367    4.3420367    4.3420367    316.69359   -7560.7232   -1309.4536    9820.2576    2749.9751   -1505.2169    2176.8565    81.861645 
   11100    330.50475   -108.54569   0.29904764   -108.24664   -121.13428    4.3380967    4.3380967    4.3380967   -121.13428     -8588.39   -2320.4087    10545.396   -675.54812   -2145.2022    424.85726    81.639002 
   11200    339.04308   -108.55362    0.3067733   -108.24684   -9697.9269    4.3455403    4.3455403    4.3455403   -9697.9269    -14516.28   -5820.8869   -8756.6139    487.03769    51.466985   -1539.2941     82.05997 
   11300    216.00273   -108.44364   0.19544381    -108.2482    10653.538    4.3365059    4.3365059    4.3365059    10653.538   -7456.2217    3218.9428    36197.893   -1799.0209   -105.17229    2915.6471    81.549223 
   11400     312.6194   -108.53235    0.2828646   -108.24948   -5373.4243    4.3437604    4.3437604    4.3437604   -5373.4243   -15408.782    8467.7373   -9179.2286    429.75751   -475.99502   -3492.6779    81.959174 
   11500    376.42617   -108.58938   0.34059831   -108.24879   -2601.9145    4.3409987    4.3409987    4.3409987   -2601.9145   -13130.195   -8578.0332    13902.484    89.987137    980.72201    1686.7647     81.80295 
   11600    231.65194   -108.45872   0.20960354   -108.24912    6923.0732    4.3383648    4.3383648    4.3383648    6923.0732   -1635.6587    6433.8581     15971.02    393.97359    206.47523   -254.99779    81.654141 
   11700    397.40855   -108.60777   0.35958361   -108.24819   -12268.419     4.345892     4.345892     4.345892   -12268.419   -17555.192   -10674.296   -8575.7701   -2889.2902   -36.874605    1609.2937    82.079894 
   11800    152.96494   -108.38792   0.13840589   -108.24951    18925.757    4.3353131    4.3353131    4.3353131    18925.757    2971.0628    13489.313    40316.896   -278.32847    987.57565   -353.71914    81.481951 
   11900    363.63291   -108.57993    0.3290227   -108.25091   -10348.579    4.3450764    4.3450764    4.3450764   -10348.579   -16722.941   -2839.0588   -11483.737   -2135.9365   -2178.4153    2497.8392    82.033691 
   12000    351.65196   -108.56896   0.31818208   -108.25078   -1079.2216    4.3396056    4.3396056    4.3396056   -1079.2216   -9364.9427    -7252.895    13380.173    1392.8672   -1356.8162   -3591.3056    81.724221 
   12100    271.18314   -108.49437   0.24537221     -108.249     4131.668    4.3405842    4.3405842    4.3405842     4131.668   -7626.9517    5507.5333    14514.422    1557.1632    -917.0987    1999.0156    81.779522 
   12200    360.13934   -108.57325   0.32586164   -108.24739   -9395.5556    4.3437837    4.3437837    4.3437837   -9395.5556   -14844.901   -9844.5087   -3497.2568   -2601.2772   -185.85807    694.69075    81.960492 
   12300    199.31279   -108.42742    0.1803424   -108.24708    14867.238    4.3380477    4.3380477    4.3380477    14867.238    -1983.355    15136.246    31448.824   -1078.3191    715.25887    699.84594    81.636236 
   12400    366.38833   -108.57881   0.33151586   -108.24729   -7253.5196    4.3425307    4.3425307    4.3425307   -7253.5196   -10689.944   -10350.759   -719.85615   -2608.1283    1940.6621   -881.33636    81.889587 
   12500    290.03178   -108.51138   0.26242685   -108.24896   -4066.4177    4.3420507    4.3420507    4.3420507   -4066.4177   -11431.705   -9570.6286    8803.0809    -862.5355   -1486.8488    1142.2251    81.862438 
   12600    282.73351   -108.50383   0.25582322   -108.24801    4769.9359    4.3383542    4.3383542    4.3383542    4769.9359   -7360.6647   -2329.4127    23999.885    723.08638    1303.7964   -32.280698     81.65354 
   12700    342.69917    -108.5601   0.31008142   -108.25002   -11491.565    4.3456082    4.3456082    4.3456082   -11491.565   -18299.731   -4678.8693   -11496.094   -1740.0899   -906.09402    3819.5549    82.063815 
   12800    309.97147   -108.53198    0.2804687   -108.25151    5980.8368    4.3353312    4.3353312    4.3353312    5980.8368   -6665.2246    5003.6925    19604.042   -1769.8662   -2675.2391   -3336.1661    81.482968 
   12900     202.5298   -108.43626   0.18325322   -108.25301   -2817.0539    4.3477471    4.3477471    4.3477471   -2817.0539   -14175.524   -8168.8057    13893.168   -1235.0655    841.16943    1319.8572    82.185048 
   13000    415.84439   -108.62782   0.37626474   -108.25156   -3362.1005    4.3327603    4.3327603    4.3327603   -3362.1005   -3658.3262    -8646.829    2218.8536   -2288.8314   -2064.9027    1042.8301    81.338096 
   13100    228.45723   -108.45894    0.2067129   -108.25223   -2470.5724    4.3494896    4.3494896    4.3494896   -2470.5724   -18121.454   -5331.0562    16040.792    2779.2195    1382.6993     3346.518    82.283903 
   13200    295.57196   -108.51822   0.26743972   -108.25078    10764.119     4.331694     4.331694     4.331694    10764.119   -1800.7948    8707.2826    25385.871   -342.45184    645.22358    -1761.369    81.278055 
   13300    322.20256     -108.542   0.29153565   -108.25046   -10492.992    4.3489159    4.3489159    4.3489159   -10492.992   -22730.367   -4171.3399   -4577.2677     -1317.03     5.788332    1530.3699     82.25135 
   13400    305.32705   -108.52465   0.27626633   -108.24838    5624.6072    4.3357494    4.3357494    4.3357494    5624.6072   -4097.8357    622.30253    20349.355   -126.13262   -1315.7973   -3716.0336    81.506552 
   13500    303.81215   -108.52315   0.27489562   -108.24825   -5393.6193    4.3439734    4.3439734    4.3439734   -5393.6193   -12707.031   -7812.6624     4338.836   -1548.3115   -1118.0714   -54.721887    81.971232 
   13600     345.4801   -108.55959   0.31259766     -108.247   -4448.1823    4.3411058    4.3411058    4.3411058   -4448.1823   -11540.838   -1656.9926   -146.71606    1927.2672   -1771.4998   -192.51098    81.809003 
   13700    191.93493   -108.42084   0.17366676   -108.24718    12916.946     4.338744     4.338744     4.338744    12916.946    -2679.523    12579.843    28850.517    1697.9987   -1464.5142   -467.29181    81.675554 
   13800    369.10599   -108.58143   0.33397485   -108.24745   -11850.278    4.3450712    4.3450712    4.3450712   -11850.278   -18851.723   -6306.1489   -10392.963   -83.149821    151.32532    1684.7225    82.033396 
   13900    255.25132   -108.47929   0.23095676   -108.24833    7128.3547    4.3366117    4.3366117    4.3366117    7128.3547   -6216.5831    3781.5698    23820.077   -1319.2687    -853.3414    2155.3884    81.555194 
   14000    374.21846   -108.58758   0.33860073   -108.24898    -8842.034    4.3451709    4.3451709    4.3451709    -8842.034   -18432.214   -4487.2729    -3606.615   -866.58415    1562.0368    571.06652    82.039043 
   14100    294.55351   -108.51598   0.26651821   -108.24946   -2676.1552    4.3381054    4.3381054    4.3381054   -2676.1552   -11345.331    1050.0067     2266.859   -767.63595   -1703.2487   -80.168314    81.639491 
   14200    212.44625   -108.44133   0.19222583    -108.2491    7881.8363    4.3425619    4.3425619    4.3425619    7881.8363   -8023.1142    7218.7414    24449.882    1146.9125     1995.343   -1707.9494    81.891352 
   14300    367.66712   -108.58065   0.33267293   -108.24797    -7112.068    4.3402841    4.3402841    4.3402841    -7112.068   -9427.7957   -11037.249   -871.15929   -459.76279   -2139.9273   -2350.9046     81.76256 
   14400    231.58518   -108.45779   0.20954314   -108.24824    2160.8435    4.3433434    4.3433434    4.3433434    2160.8435   -10039.075   -334.75306    16856.359   -2295.4491   -1428.7531    1142.4376    81.935573 
   14500    393.60663   -108.60144   0.35614355    -108.2453    1072.7297    4.3374163    4.3374163    4.3374163    1072.7297   -7534.7132   -495.05271    11247.955   -617.06867   -1704.9197   -2118.4778    81.600596 
   14600    264.39475   -108.48576   0.23922993   -108.24653   -9109.6452    4.3466496    4.3466496    4.3466496   -9109.6452   -19700.548   -611.10624   -7017.2809   -2975.7337   -1380.5788    1708.2112    82.122828 
   14700    225.94325   -108.45053    0.2044382   -108.24609    12311.819    4.3360105    4.3360105    4.3360105    12311.819   -5635.1579    3988.2657    38582.348     2265.768   -171.77327    1313.6352    81.521277 
   14800    396.69241   -108.60651   0.35893563   -108.24757   -10959.534    4.3453799    4.3453799    4.3453799   -10959.534   -14374.661   -15710.689   -2793.2511    89.728681    671.86567    209.25749    82.050884 
   14900    285.23967   -108.50846   0.25809085   -108.25037    3270.9255    4.3387475    4.3387475    4.3387475    3270.9255   -8577.9282   -1684.6892    20075.394   -1670.5424    729.35808    1448.3906     81.67575 
   15000    284.49554   -108.50874   0.25741754   -108.25133    3977.3055    4.3405246    4.3405246    4.3405246    3977.3055    -6298.807   -3371.9158    21602.639    265.85469   -1323.9638   -2510.3891    81.776154 
   15100    331.82097   -108.55341   0.30023859   -108.25317   -6921.1344    4.3436145    4.3436145    4.3436145   -6921.1344   -16986.707    1710.0326   -5486.7284   -3685.6081     641.8645    -617.0182    81.950915 
   15200    259.36095   -108.48771   0.23467524   -108.25303    7851.3108    4.3353502    4.3353502    4.3353502    7851.3108   -4585.2539    314.65307    27824.533    1319.8454   -2993.2045    2945.8421     81.48404 
   15300    288.74474   -108.51273   0.26126231   -108.25147   -9935.1539    4.3503843    4.3503843    4.3503843   -9935.1539    -20404.85   -12452.963    3052.3515   -1166.4149    346.42053    -2712.223    82.334695 
   15400     384.4877   -108.59629   0.34789255    -108.2484     3711.908    4.3305272    4.3305272    4.3305272     3711.908    56.063894   -1816.0729    12895.733   -766.38831   -2232.9441   -945.87622    81.212393 
   15500    251.74935   -108.47502   0.22778811   -108.24723   -8022.7344    4.3526766    4.3526766    4.3526766   -8022.7344   -19802.938   -6622.2145    2356.9492   -1911.6179    370.07826    740.60591    82.464914 
   15600    269.35094    -108.4883   0.24371439   -108.24458    10002.719    4.3333009    4.3333009    4.3333009    10002.719    2328.4821    6832.6217    20847.054   -3621.8369    1191.4417   -2612.4189    81.368544 
   15700    289.58737   -108.50641   0.26202474   -108.24438    -4201.377    4.3459778    4.3459778    4.3459778    -4201.377   -17058.823   -1072.0174    5526.7091   -1788.1026   -918.47305    1853.1148    82.084755 
   15800    240.74909   -108.46288   0.21783483   -108.24504    3609.2172    4.3411676    4.3411676    4.3411676    3609.2172   -4736.0134   -5837.8804    21401.545    19.377674    1251.1836   -672.87123      81.8125 
   15900    471.38328   -108.67273    0.4265175   -108.24621   -7476.5127    4.3392657    4.3392657    4.3392657   -7476.5127   -15291.039   -9097.5999    1959.1007    1268.5797   -1228.3082   -315.62534     81.70502 
   16000    201.31865    -108.4317   0.18215735   -108.24954     177.0861    4.3447378    4.3447378    4.3447378     177.0861   -9975.4591   -2282.1321    12788.849   -476.96576   -2706.3173   -748.97479    82.014516 
   16100     286.4309   -108.50833    0.2591687   -108.24916    5438.7105    4.3379992    4.3379992    4.3379992    5438.7105   -8991.6261    978.99888    24328.759    39.617808     1527.131    3242.7258    81.633497 
   16200    312.85532   -108.53424   0.28307807   -108.25117   -4669.6221    4.3417077    4.3417077    4.3417077   -4669.6221   -11051.438    2578.5325   -5535.9603   -3001.6388   -2761.7982   -1982.3733    81.843038 
   16300    273.19256   -108.50004   0.24719037   -108.25285    -427.0546    4.3414681    4.3414681    4.3414681    -427.0546   -10931.394   -7690.4284    17340.659    1749.9213   -855.82992    2165.0856    81.829491 
   16400    344.73522    -108.5634   0.31192367   -108.25148   -882.46444    4.3399152    4.3399152    4.3399152   -882.46444   -10225.921    -3368.699    10947.226    -267.0516    566.88483    158.39434    81.741714 
   16500    341.73051   -108.55933   0.30920495   -108.25013   -10062.864    4.3437204    4.3437204    4.3437204   -10062.864   -15582.396   -9233.4951   -5372.6998   -136.68764    714.19044   -921.45521    81.956913 
   16600    204.53613   -108.43389   0.18506859   -108.24882    9748.0883    4.3398487    4.3398487    4.3398487    9748.0883   -5824.9443     4548.791    30520.418   -517.65265   -320.60214    497.01433    81.737956 
   16700     333.7901   -108.54965   0.30202029   -108.24763   -3708.1667    4.3415147    4.3415147    4.3415147   -3708.1667   -10820.699    281.16166   -584.96295    -4319.158     200.9169   -3824.5776    81.832125 
   16800    280.35963    -108.5016   0.25367529   -108.24793   -1724.7384     4.344022     4.344022     4.344022   -1724.7384   -7330.4702   -9390.9048     11547.16    49.125415   -4299.3696   -1203.9375    81.973982 
   16900    330.17824   -108.54493   0.29875221   -108.24618    5422.8229    4.3370257    4.3370257    4.3370257    5422.8229   -3147.4524    1269.7213      18146.2   -359.88276   -927.39095    1177.5884    81.578552 
   17000     357.3969   -108.56945   0.32338023   -108.24607   -13835.667    4.3475458    4.3475458    4.3475458   -13835.667   -16637.733   -17205.485   -7663.7816    788.59027   -1747.6059     -375.389    82.173634 
   17100    127.54483   -108.36211   0.11540524    -108.2467    16694.357    4.3365221    4.3365221    4.3365221    16694.357   -829.17687    9209.2911    41702.958    1067.2605   -2273.5589   -581.15511    81.550134 
   17200    451.52348   -108.65515   0.40854793    -108.2466   -9925.3893    4.3436827    4.3436827    4.3436827   -9925.3893   -16331.383   -5933.7291   -7511.0561   -1542.4183    497.64152     2577.365    81.954777 
   17300    215.69371   -108.44491    0.1951642   -108.24975    3333.0213    4.3424645    4.3424645    4.3424645    3333.0213   -4450.3495   -4749.6256    19199.039   -780.63865     94.71344   -1045.1767    81.885843 
   17400    371.50493   -108.58505   0.33614547   -108.24891   -275.86491    4.3380057    4.3380057    4.3380057   -275.86491   -8106.4337   -2427.2221     9706.061    1454.2833    1725.2216    573.66263    81.633864 
   17500     321.7492   -108.54023   0.29112544    -108.2491   -7727.3237    4.3457409    4.3457409    4.3457409   -7727.3237   -10446.789   -9440.4777   -3294.7043   -160.42834    1491.6458   -3564.3832    82.071336 
   17600    175.62178    -108.4073   0.15890628    -108.2484    9590.8491    4.3376138    4.3376138    4.3376138    9590.8491    -6804.561    9609.4059    25967.702    1463.9732   -2099.3385   -2082.4033    81.611741 
   17700    410.78775   -108.61789   0.37168939    -108.2462   -7075.1558    4.3439745    4.3439745    4.3439745   -7075.1558    -13609.07   -1275.8543   -6340.5431   -2081.0553   -689.00387    17.665993    81.971298 
   17800    254.59782   -108.47729   0.23036545   -108.24692    1285.4621    4.3415779    4.3415779    4.3415779    1285.4621   -7755.9152   -6319.3327    17931.634   -2026.4972    -1269.813    557.68975    81.835696 
   17900    326.64331   -108.54228   0.29555373   -108.24672   -1120.9482     4.339658     4.339658     4.339658   -1120.9482   -6653.6728    1451.7633     1839.065   -305.99361   -4209.1011   -1700.0244    81.727179 
   18000    337.19113   -108.55126   0.30509762   -108.24616   -5075.4489     4.344055     4.344055     4.344055   -5075.4489   -9349.5029   -4756.1646   -1120.6793    619.34051    555.81409    1482.0809    81.975855 
   18100    152.51984   -108.38533   0.13800316   -108.24733    10437.219    4.3396152    4.3396152    4.3396152    10437.219   -5440.2606    12900.354    23851.562    70.299492   -3968.7709     711.4048    81.724762 
   18200    430.06717   -108.63514   0.38913382     -108.246   -4639.9533    4.3419577    4.3419577    4.3419577   -4639.9533   -12807.436    99.227913    -1211.652    641.53118    315.30448      143.012    81.857177 
   18300    267.99789   -108.49028   0.24249012   -108.24779    2365.6531    4.3418325    4.3418325    4.3418325    2365.6531   -6360.9186   -6576.5953    20034.473   -1632.0257    258.05376   -299.46232    81.850095 
   18400    317.48193   -108.53568   0.28726432   -108.24841   -107.74252    4.3398772    4.3398772    4.3398772   -107.74252   -9093.8643   -2447.8506    11218.487   -175.40739    122.73692    -1718.526    81.739566 
   18500    364.01352   -108.57787   0.32936708    -108.2485   -3819.6756    4.3433596    4.3433596    4.3433596   -3819.6756   -8137.3096    -194.6729   -3127.0441    1327.8664   -761.27005    1718.1841    81.936491 
   18600    153.29193   -108.38981   0.13870176    -108.2511     14302.39    4.3386487    4.3386487    4.3386487     14302.39   -4844.6002    10941.167    36810.604    511.75663   -1661.4185     1267.539    81.670169 
   18700     345.7945   -108.56676   0.31288213   -108.25388   -5447.3673    4.3421058    4.3421058    4.3421058   -5447.3673   -10429.377   -4742.0533   -1170.6714    2044.6912   -1469.4997   -3809.5098    81.865555 
   18800    382.82677   -108.60089   0.34638971    -108.2545   -3041.3367    4.3402355    4.3402355    4.3402355   -3041.3367   -5104.4534   -8757.6395    4738.0828   -2039.2533    478.91621   -101.26301    81.759812 
   18900    242.73753   -108.47332   0.21963402   -108.25369   -4519.1072    4.3426779    4.3426779    4.3426779   -4519.1072   -13583.663   -11256.573    11282.914   -252.51527    -1954.849   -1679.0552    81.897916 
   19000    298.38502   -108.52173   0.26998503   -108.25175    3085.7356    4.3393151    4.3393151    4.3393151    3085.7356   -2833.3624    10682.277    1408.2925    197.36408     455.8496    2042.9931    81.707808 
   19100    312.60015   -108.53239   0.28284718   -108.24954   -772.20144    4.3434279    4.3434279    4.3434279   -772.20144   -14139.754   -1475.3239    13298.474   -448.04454   -901.21768    1125.9027    81.940355 
   19200    202.66603   -108.43278   0.18337649   -108.24941    4950.7115    4.3392782    4.3392782    4.3392782    4950.7115   -1874.0693    4063.8419    12662.362    353.27726    -531.2502   -4567.9052    81.705727 
   19300     438.4613   -108.64244     0.396729   -108.24571   -7872.0049    4.3423149    4.3423149    4.3423149   -7872.0049   -11008.898    -15256.61     2649.494   -1617.9845   -147.56176    1143.3114    81.877383 
   19400    190.07622   -108.41829   0.17198496   -108.24631    1848.4205    4.3428179    4.3428179    4.3428179    1848.4205    -7940.091    626.63171    12858.721   -2059.8952   -385.64595    -656.0971    81.905837 
   19500    377.73515   -108.58723    0.3417827   -108.24545   -2377.2487    4.3392632    4.3392632    4.3392632   -2377.2487   -9215.4757    4635.3473   -2551.6175   -446.67393   -4475.5393   -2026.2218    81.704876 
   19600    228.15578   -108.45288   0.20644015   -108.24644    3976.3799    4.3448515    4.3448515    4.3448515    3976.3799   -10247.411    2346.1002    19830.451    535.65217    1644.2671    -2275.042    82.020951 
   19700    327.26842   -108.54197   0.29611934   -108.24585    2003.6425    4.3374452    4.3374452    4.3374452    2003.6425   -6245.3896    1162.5448    11093.772    17.896177   -2675.8724   -1663.8113    81.602226 
   19800    353.93476   -108.56652   0.32024761   -108.24628    -7303.443    4.3454229    4.3454229    4.3454229    -7303.443   -9946.2885   -9890.4261   -2073.6144    203.45002    320.58375    178.47509    82.053317 
   19900    219.35283   -108.44576   0.19847505   -108.24728    7515.8327    4.3373267    4.3373267    4.3373267    7515.8327   -7227.2153    10277.406    19497.307   -1936.1582   -1041.9137   -338.11455    81.595537 
   20000    341.92949   -108.55795   0.30938498   -108.24857   -9372.1543    4.3452724    4.3452724    4.3452724   -9372.1543   -13403.937   -2532.1894   -12180.336   -22.042594    588.85925   -3934.6356    82.044792 
   20100    249.76486   -108.47417   0.22599249   -108.24818    7612.2307    4.3367338    4.3367338    4.3367338    7612.2307   -6334.2728      5450.14    23720.825    1466.7526   -272.78954    2394.3794    81.562082 
   20200    362.47934    -108.5759   0.32797892   -108.24793   -9071.5251    4.3480117    4.3480117    4.3480117   -9071.5251   -16338.415   -7914.3504   -2961.8101   -224.94928     1145.899    901.22395    82.200058 
   20300    316.70564   -108.53415   0.28656192   -108.24759    5139.3953    4.3338496    4.3338496    4.3338496    5139.3953    -619.2737    6774.8842    9262.5755    830.05977    -3390.518   -1037.7737    81.399455 
   20400    178.78469   -108.41111   0.16176814   -108.24934    -927.2507    4.3489939    4.3489939    4.3489939    -927.2507   -18454.326    1657.1817    14015.392   -3303.1574   -171.46873   -3233.5036    82.255777 
   20500    367.46308   -108.58217   0.33248831   -108.24969    7583.4172    4.3317263    4.3317263    4.3317263    7583.4172    1481.2002    14959.311    6309.7399    67.687185   -4153.2274   -3527.1537    81.279873 
   20600    292.58244   -108.51624   0.26473474   -108.25151   -11088.682    4.3502605    4.3502605    4.3502605   -11088.682   -21037.851   -17897.543    5669.3477   -718.01071    1219.8676    338.94815    82.327663 
   20700    279.21856   -108.50337   0.25264282   -108.25073     14176.75    4.3326429    4.3326429    4.3326429     14176.75    1774.7596    13629.306    27126.183    286.70531   -731.09942   -1801.9926    81.331481 
   20800    378.08515   -108.59084   0.34209939   -108.24874   -11589.738    4.3476825    4.3476825    4.3476825   -11589.738   -19270.865   -9546.6114   -5951.7387   -209.68953    127.63394    532.56369    82.181388 
   20900    123.42341   -108.36015   0.11167609   -108.24847    9402.7292    4.3370051    4.3370051    4.3370051    9402.7292   -3188.1359    15053.729    16342.594   -874.57131   -1380.2242   -5165.6894    81.577391 
   21000    440.17977    -108.6443    0.3982839   -108.24602   -6840.1499     4.342999     4.342999     4.342999   -6840.1499   -13750.431   -3764.0449   -3005.9739   -233.72888    2521.1826     2991.882    81.916083 
   21100    227.11861   -108.45349   0.20550169   -108.24799   -1054.2522    4.3406926    4.3406926    4.3406926   -1054.2522   -8204.4844   -4484.4474    9526.1753    1222.9843   -3715.9307   -2518.4932    81.785646 
   21200    345.78271   -108.55983   0.31287146   -108.24696   -2349.6459    4.3428408    4.3428408    4.3428408   -2349.6459   -14423.823   -5775.3129    13150.199    2129.3207    1976.1759   -2619.3798    81.907133 
   21300    322.41019   -108.53798   0.29172351   -108.24626     1927.856    4.3389483    4.3389483    4.3389483     1927.856   -8742.4724    13506.565    1019.4757   -1632.4116   -4645.1062   -1779.8296     81.68709 
   21400    168.40949       -108.4   0.15238045   -108.24762   -2906.8382    4.3445362    4.3445362    4.3445362   -2906.8382   -14776.767    2406.7513    3649.5014     655.7774   -891.87652   -1513.6472    82.003099 
   21500    441.15045   -108.64464    0.3991622   -108.24547   -3658.3421    4.3392439    4.3392439    4.3392439   -3658.3421   -9520.2372   -2832.1089    1377.3199   -4242.3054    -1015.683     562.4972    81.703787 
   21600    221.74374    -108.4484   0.20063839   -108.24777    434.62428    4.3415607    4.3415607    4.3415607    434.62428   -9799.1187   -5201.5171    16304.509    1718.0275   -979.10592   -2014.9317    81.834723 
   21700    311.10777   -108.53031   0.28149685   -108.24881   -3100.5207    4.3433633    4.3433633    4.3433633   -3100.5207   -14869.866   -3848.4417     9416.746    -1090.409   -578.43209   -395.23609    81.936699 
   21800    338.25536   -108.55411   0.30606056   -108.24805    7831.6389    4.3352862    4.3352862    4.3352862    7831.6389   -7313.0085    17306.392    13501.534   -988.36175    799.09467    1633.0073     81.48043 
   21900    168.74072   -108.40239   0.15268015   -108.24971    -4721.551    4.3493296    4.3493296    4.3493296    -4721.551   -18575.793   -3897.6039    8308.7433   -914.16723  -0.66217262   -799.77351    82.274825 
   22000     451.1678   -108.65413   0.40822611   -108.24591    1254.0696     4.332805     4.332805     4.332805    1254.0696   -5298.6099    2681.4964    6379.3223   -3320.9617    1161.7656   -487.84278    81.340613 
   22100    258.72643   -108.48192   0.23410111   -108.24782   -2262.8245    4.3475204    4.3475204    4.3475204   -2262.8245   -14969.808   -3394.5634    11575.898     2679.158   -58.052943   -1804.0049    82.172194 
   22200    224.89875   -108.45331   0.20349311   -108.24982    5610.7223    4.3368523    4.3368523    4.3368523    5610.7223   -7814.9542    12167.836    12479.285   -40.087063   -3605.6179    910.74485    81.568768 
   22300    387.90689   -108.59997    0.3509863   -108.24899   -3739.4682    4.3423957    4.3423957    4.3423957   -3739.4682   -13644.954     2437.864   -11.314929    1320.6786   -1339.2838    554.60138    81.881953 
   22400    190.16865    -108.4226   0.17206859   -108.25053   -372.73296     4.343281     4.343281     4.343281   -372.73296   -13608.854    1231.3809    11259.274   -90.831065   -2148.8156     31.54807    81.932045 
   22500    414.08764   -108.62362    0.3746752   -108.24895   -3652.1157    4.3372786    4.3372786    4.3372786   -3652.1157   -10134.015   -2566.4562    1744.1237   -1510.7182   -431.44923   -1505.4227     81.59282 
   22600    287.84761    -108.5094   0.26045057   -108.24895   -393.01291    4.3454288    4.3454288    4.3454288   -393.01291   -15188.951    5933.2302    8076.6822    462.70576    1834.2462   -1339.3586    82.053654 
   22700    229.17049    -108.4568   0.20735827   -108.24944    5468.9531    4.3385753    4.3385753    4.3385753    5468.9531    -9167.734    6395.5566    19179.037    1666.1675    -2159.791    1071.5487    81.666023 
   22800    336.57564   -108.55226   0.30454071   -108.24772   -586.03472    4.3402355    4.3402355    4.3402355   -586.03472   -9095.8393    4937.1212    2400.6139    1195.0769    1314.1056   -1797.0265    81.759813 
   22900    293.07454   -108.51251      0.26518   -108.24733   -5454.3644    4.3459608    4.3459608    4.3459608   -5454.3644   -13438.694   -12175.727    9251.3279   -1301.4937   -1731.7455    305.67126    82.083792 
   23000    328.42891   -108.54403   0.29716938   -108.24686    2707.5631    4.3351907    4.3351907    4.3351907    2707.5631   -6143.6651      11860.7    2405.6541    61.753079   -100.61242   -3345.9588    81.475045 
   23100    288.14206   -108.50708   0.26071699   -108.24636   -4525.3216    4.3480205    4.3480205    4.3480205   -4525.3216   -18659.812   -2227.9136    7311.7607   -2233.8375   -817.59838     3808.276    82.200556 
   23200    268.87176   -108.48922   0.24328082   -108.24594    6057.7604    4.3370172    4.3370172    4.3370172    6057.7604   -5653.1003    10026.632    13799.749     3590.186   -3658.8532    1069.8816    81.578069 
   23300     335.5605   -108.54906    0.3036222   -108.24544   -5322.1928    4.3424806    4.3424806    4.3424806   -5322.1928   -12478.944   -7335.9962    3848.3614    50.256748   -226.10117   -1836.3654    81.886757 
   23400    260.03839   -108.48137    0.2352882   -108.24608   -638.21896    4.3436205    4.3436205    4.3436205   -638.21896   -6426.6843   -4572.3725       9084.4   -630.66381   -766.06975    1043.4714    81.951258 
   23500    349.17703   -108.56265   0.31594271   -108.24671    -1958.265    4.3380314    4.3380314    4.3380314    -1958.265   -12253.907    9542.7606   -3163.6486     750.3655    776.32726    1085.4395    81.635316 
   23600    204.85647   -108.43339   0.18535844   -108.24803    1296.5258    4.3438421    4.3438421    4.3438421    1296.5258   -8166.0661    3115.5155    8940.1282   -3132.0837    750.46761   -3412.3165    81.963798 
   23700    392.94948   -108.60151   0.35554895   -108.24596   -5920.1536    4.3420559    4.3420559    4.3420559   -5920.1536   -16218.244    2789.7353   -4331.9524    4320.0446    357.56592    653.33829    81.862733 
   23800    276.21181    -108.4967   0.24992225   -108.24678    3294.8307    4.3374087    4.3374087    4.3374087    3294.8307   -5138.1837   -2333.8394    17356.515   -731.19946   -728.40727   -2432.1294    81.600164 
   23900    248.14604   -108.47262   0.22452775   -108.24809   -3003.5701    4.3474622    4.3474622    4.3474622   -3003.5701   -16628.604    2815.0309    4802.8633    917.98289    2140.9359   -559.51459    82.168892 
   24000    401.33226   -108.61127   0.36313386   -108.24814    3482.3579    4.3337748    4.3337748    4.3337748    3482.3579   -2347.0844    11169.939    1624.2187   -2122.0684   -2344.8308    4524.0304    81.395242 
   24100    194.71957    -108.4276   0.17618636   -108.25142   -1953.9671    4.3473052    4.3473052    4.3473052   -1953.9671   -14288.331   -2583.4098     11009.84   -232.74585   -2099.9723   -4315.2627     82.15999 
   24200    388.82945   -108.60142   0.35182106    -108.2496    1821.9361    4.3369032    4.3369032    4.3369032    1821.9361   -3904.3064    3977.1553    5392.9593   -125.28254   -1436.6219   -1249.9355    81.571641 
   24300    269.61962   -108.49331    0.2439575   -108.24935    1452.1292    4.3423917    4.3423917    4.3423917    1452.1292   -13155.036    2279.3785    15232.046    1718.0944   -2195.6596    1898.3654    81.881729 
   24400    246.42872   -108.47164   0.22297389   -108.24867   -386.07849     4.343013     4.343013     4.343013   -386.07849   -10630.741    4724.7002    4747.8052   -1533.2576    1630.5777    -2643.354    81.916878 
   24500    405.90928   -108.61443   0.36727524   -108.24715    665.07063    4.3379475    4.3379475    4.3379475    665.07063   -8715.2815    11207.998   -497.50492   -2207.0609    948.80396   -177.01271    81.630578 
   24600    242.63698   -108.46964   0.21954304    -108.2501   -4540.0381     4.343853     4.343853     4.343853   -4540.0381   -8799.6779   -11113.498    6293.0618   -46.339733    108.59845   -1348.2511     81.96442 
   24700    299.30716   -108.52117   0.27081941   -108.25035    2225.4167    4.3407642    4.3407642    4.3407642    2225.4167   -6327.1279    10430.151    2573.2266     348.7422    1003.3417   -1762.7739    81.789694 
   24800     307.1696   -108.52669   0.27793351   -108.24875    1119.0961    4.3400356    4.3400356    4.3400356    1119.0961   -9779.9977    2631.5543    10505.732    3066.5209   -1109.9751     2468.755    81.748513 
   24900     201.9885   -108.43061   0.18276344   -108.24784   -704.14385    4.3435781    4.3435781    4.3435781   -704.14385   -8748.1362    4957.5233    1678.1814   -604.56464    2327.2629   -2244.4808    81.948858 
   25000    468.54868   -108.66807   0.42395269   -108.24411   -4718.7783    4.3398381    4.3398381    4.3398381   -4718.7783    -12679.37   -3989.7365    2512.7716    1284.3655    -3307.058   -2106.7519    81.737355 
   25100    184.06539   -108.41315   0.16654623    -108.2466    1028.2398    4.3418406    4.3418406    4.3418406    1028.2398   -6131.6913    5380.1344    3836.2763    209.76014    363.99082    3035.7629    81.850553 
   25200    353.30441   -108.56622   0.31967725   -108.24654   -4546.7262     4.343285     4.343285     4.343285   -4546.7262    -12334.87    3309.2174   -4614.5257    2137.4552   -2998.5548    -656.8942    81.932267 
   25300    239.19197   -108.46367   0.21642593   -108.24724    9256.6027    4.3377077    4.3377077    4.3377077    9256.6027   -1817.7814    13648.945    15938.644    2036.9862    409.30597   -1659.2319    81.617042 
   25400    303.53077   -108.52232   0.27464102   -108.24768   -5691.6337    4.3449361    4.3449361    4.3449361   -5691.6337   -13512.918   -6571.9505    3009.9671    -189.7987   -1931.3695    3044.8174    82.025744 
   25500    398.83876   -108.60676   0.36087769   -108.24589   -842.34734    4.3394975    4.3394975    4.3394975   -842.34734   -7450.0573    420.29337    4502.7219   -1918.1226    2492.2261   -6073.1289    81.718113 
   25600    190.16749   -108.42006   0.17206754   -108.24799    4083.0078    4.3404305    4.3404305    4.3404305    4083.0078   -10664.543    10422.845    12490.721   -1459.5332   -1577.6224    5044.0144    81.770831 
   25700    348.45355   -108.56476   0.31528809   -108.24948   -6175.8007    4.3439695    4.3439695    4.3439695   -6175.8007   -12369.178    6084.3655    -12242.59    1291.5873     1767.914   -2862.4502     81.97101 
   25800    314.08144   -108.53448   0.28418748   -108.25029    6356.0517    4.3356888    4.3356888    4.3356888    6356.0517   -2328.7582    1483.4258    19913.488    525.05486   -1101.6472   -2654.2356    81.503136 
   25900     246.2478   -108.47488   0.22281018   -108.25207   -5482.7178    4.3480576    4.3480576    4.3480576   -5482.7178   -12741.147   -1224.2717   -2482.7348    194.91462    121.32178    2600.6855    82.202659 
   26000    392.96407   -108.60381   0.35556215   -108.24825    1280.0294    4.3346251    4.3346251    4.3346251    1280.0294   -3024.0121    497.79697    6366.3033   -952.56766   -1230.9634   -1172.2142     81.44316 
   26100    167.12753   -108.39919    0.1512205   -108.24797    195.63608    4.3459338    4.3459338    4.3459338    195.63608   -10809.778    12224.648   -827.96165    220.00312   -548.30651    -1602.327    82.082261 
   26200    397.37502   -108.60545   0.35955327   -108.24589   -6058.9263    4.3407062    4.3407062    4.3407062   -6058.9263   -13894.449   -1114.2379   -3168.0923    1680.3265   -663.39704    2842.3268    81.786415 
   26300    274.41103   -108.49383   0.24829287   -108.24553    3817.4524    4.3395957    4.3395957    4.3395957    3817.4524   -5270.0072    3175.2415    13547.123     1367.705    85.848581    -6122.902    81.723658 
   26400    309.44148   -108.52612   0.27998915   -108.24613   -4778.0823    4.3455641    4.3455641    4.3455641   -4778.0823   -13168.157   -517.48261   -648.60698    15.239914     1126.965    2063.8971    82.061319 
   26500    302.97154   -108.52041   0.27413502   -108.24627    4278.8497    4.3368974    4.3368974    4.3368974    4278.8497   -4739.7565    8390.1661    9186.1395   -2051.0145    779.03896   -1734.7047     81.57131 
   26600    202.59549    -108.4304   0.18331265   -108.24708    1129.7247    4.3440275    4.3440275    4.3440275    1129.7247   -4775.8092    3159.6485    5005.3348   -419.16208    1479.7821   -1262.2868    81.974297 
   26700    450.34191   -108.65329   0.40747883   -108.24581   -11140.642    4.3423774    4.3423774    4.3423774   -11140.642   -14204.487   -12048.333   -7169.1066   -314.49718   -2577.3888   -664.93281    81.880917 
   26800    170.98045   -108.40251    0.1547067    -108.2478    11947.932    4.3371938    4.3371938    4.3371938    11947.932   -1492.2875    11568.405    25767.679    1971.8126    470.14321     2172.439    81.588037 
   26900     383.7251   -108.59546   0.34720254   -108.24826   -8584.1321    4.3458113    4.3458113    4.3458113   -8584.1321   -18304.762   -675.01585   -6772.6184    -1706.881   -2519.1618   -888.40824    82.075321 
   27000    268.27268   -108.49255   0.24273876   -108.24981    6442.2713    4.3375013    4.3375013    4.3375013    6442.2713   -4858.1656    9958.1506    14226.829   -530.04002    -1069.791    2396.1852    81.605393 
   27100    277.75076   -108.50102   0.25131472    -108.2497   -1891.0965    4.3427026    4.3427026    4.3427026   -1891.0965   -7682.4779   -768.21197    2777.4004   -1235.6804     -694.838   -1992.5996    81.899312 
   27200    382.52738   -108.59464   0.34611881   -108.24852   -8917.3588    4.3439127    4.3439127    4.3439127   -8917.3588   -9199.9374   -10217.445   -7334.6941    1406.1305   -799.78915   -1142.8564    81.967795 
   27300    190.55158   -108.42065   0.17241508   -108.24823    13706.636    4.3348776    4.3348776    4.3348776    13706.636   -3830.2919    25319.622    19630.578    3022.7581    775.06493    1124.5527    81.457397 
   27400    358.33323   -108.57118   0.32422744   -108.24695   -12308.476    4.3508162    4.3508162    4.3508162   -12308.476   -17172.049   -3967.0565   -15786.323   -855.92214    1248.7282   -4766.1616    82.359219 
   27500    308.45929    -108.5244   0.27910044    -108.2453    8851.8398    4.3318982    4.3318982    4.3318982    8851.8398   -4535.0684    10072.198     21018.39   -592.17125   -120.72734    197.43114    81.289551 
   27600    297.00388    -108.5147   0.26873536   -108.24596   -9004.5412    4.3496305    4.3496305    4.3496305   -9004.5412   -13034.935   -3168.4047   -10810.284   -289.74224    1457.0662   -356.81047    82.291902 
   27700    328.55212   -108.54257   0.29728086   -108.24529   -667.04728    4.3372062    4.3372062    4.3372062   -667.04728   -6104.6924    1876.7721    2226.7785    1737.7355   -2902.7674   -497.90056     81.58874 
   27800    166.12558   -108.39701   0.15031392    -108.2467    8033.3572    4.3417393    4.3417393    4.3417393    8033.3572   -5852.4787    22510.078    7442.4721    424.28677   -1045.8729    3163.1241    81.844824 
   27900    469.74285   -108.66997   0.42503321   -108.24493   -11732.803    4.3444401    4.3444401    4.3444401   -11732.803   -10829.065   -11113.151   -13256.193    843.84067   -1985.8042   -1399.3009    81.997655 
   28000    173.70783   -108.40457   0.15717449   -108.24739    9196.6252    4.3379439    4.3379439    4.3379439    9196.6252    -5982.361    12336.766    21235.471   -3144.6398   -1073.4865   -717.22126    81.630378 
   28100    400.30009   -108.61003   0.36219994   -108.24783   -7675.6933    4.3426008    4.3426008    4.3426008   -7675.6933   -12004.549   -1103.3079   -9919.2226    672.83671   -2627.9742    2440.4174    81.893554 
   28200    216.23804   -108.44543   0.19565672   -108.24977    359.71141    4.3434103    4.3434103    4.3434103    359.71141   -9798.5842    5451.6506    5426.0678     -219.781     1892.691   -3833.4594     81.93936 
   28300    304.12983    -108.5238   0.27518306   -108.24862    3364.7977    4.3370073    4.3370073    4.3370073    3364.7977   -2879.2636    10677.157    2296.4991    836.67951    -1964.171    262.16226    81.577513 
   28400    388.46516   -108.59895   0.35149144   -108.24746   -9927.9465    4.3467933    4.3467933    4.3467933   -9927.9465   -12804.225   -11019.181    -5960.434   -84.099544    4100.3411    -739.1468    82.130976 
   28500    190.18855    -108.4208    0.1720866   -108.24872    10961.678    4.3371074    4.3371074    4.3371074    10961.678   -1076.1305    17893.369    16067.795     -3617.13    186.98044   -497.69315     81.58316 
   28600    349.07557   -108.56384   0.31585091   -108.24799   -6200.0065    4.3434579    4.3434579    4.3434579   -6200.0065   -16883.639    5251.2174   -6967.5974    2035.4924    1668.2978     2893.345    81.942055 
   28700     276.1959   -108.49792   0.24990786   -108.24801    189.05069    4.3429098    4.3429098    4.3429098    189.05069    -5389.078   -3550.6038    9506.8338    1062.2554   -909.67995   -239.64746    81.911036 
   28800    354.54929   -108.56835   0.32080365   -108.24755    66.024014    4.3381375    4.3381375    4.3381375    66.024014   -10489.747     12230.47   -1542.6505    1102.3305   -2218.0022   -1731.4478    81.641307 
   28900    286.43752    -108.5068   0.25917469   -108.24762    -1453.977     4.344462     4.344462     4.344462    -1453.977   -5728.3586     289.4361    1076.9914    24.025353    188.76746    4034.3533    81.998898 
   29000     256.3656   -108.47837   0.23196498   -108.24641    8244.1316    4.3401534    4.3401534    4.3401534    8244.1316   -8883.6391     26992.36    6623.6742   -673.64524   -2693.5792   -285.06063    81.755173 
   29100    339.36044   -108.55276   0.30706045    -108.2457   -2569.7411    4.3409395    4.3409395    4.3409395   -2569.7411    -4772.461   -4954.8056    2018.0433   -600.15638   -139.22387   -1266.4923    81.799603 
   29200    278.85257   -108.49827   0.25231167   -108.24596    441.09571    4.3436648    4.3436648    4.3436648    441.09571   -11798.445    4053.3492    9068.3828    1662.9709   -2121.9511    1897.1561    81.953765 
   29300    375.89242   -108.58605   0.34011536   -108.24594   -984.46788     4.339088     4.339088     4.339088   -984.46788   -6592.9949    8446.6939   -4807.1027   -1290.2807     2397.894   -1978.5756    81.694981 
   29400    195.51968   -108.42529   0.17691031   -108.24838    3009.4662    4.3428899    4.3428899    4.3428899    3009.4662   -10328.198    10467.607    8888.9896   -3064.1843   -1901.5528    715.77032    81.909914 
   29500    348.46783   -108.56293   0.31530102   -108.24763   -2525.1431    4.3421829    4.3421829    4.3421829   -2525.1431   -6918.1794    7131.9523   -7789.2021   -690.70152    3797.2946    2664.8433    81.869912 
   29600    294.12568   -108.51419   0.26613109   -108.24806    1787.0166    4.3377887    4.3377887    4.3377887    1787.0166   -2993.1665   -4654.3251    13008.541   -1572.1143    -1991.725   -1995.9864    81.621612 
   29700    269.15202   -108.49275    0.2435344   -108.24922   -5320.8003    4.3475603    4.3475603    4.3475603   -5320.8003   -13295.406   -210.28335    -2456.711    2854.1934    820.93526     3045.299    82.174457 
   29800    331.45317   -108.54805    0.2999058   -108.24814    5436.4422    4.3341646    4.3341646    4.3341646    5436.4422   -3240.8201    17920.165    1629.9819   -433.51732   -2486.0629    4835.6211    81.417208 
   29900    264.71355   -108.48878   0.23951839   -108.24926   -7789.5694    4.3486453    4.3486453    4.3486453   -7789.5694   -15302.834   -11505.838    3439.9641   -818.10755    125.95354   -1468.1811    82.235995 
   30000    348.76005   -108.56368   0.31556542   -108.24811    2573.7952    4.3355931    4.3355931    4.3355931    2573.7952   -2143.8287    13614.059   -3748.8441    1260.5921   -1576.9718    3079.4301    81.497738 
   30100    268.32893   -108.49094   0.24278965   -108.24815    -1647.708    4.3448414    4.3448414    4.3448414    -1647.708    -11642.85   -3407.9797    10107.705    64.268791   -176.08639   -3126.0215     82.02038 
   30200    268.42177   -108.48971   0.24287366   -108.24684     1061.772     4.341831     4.341831     4.341831     1061.772   -8437.2657    17282.348   -5659.7666    1359.8455   -1801.0658    976.34327    81.850014 
   30300     355.4527   -108.56691   0.32162108   -108.24529    1834.3206    4.3387471    4.3387471    4.3387471    1834.3206   -7480.7068     378.0285     12605.64     402.9305     703.3004    2503.4088    81.675728 
   30400    271.54198   -108.49212   0.24569689   -108.24642   -4351.0934     4.345863     4.345863     4.345863   -4351.0934     -11301.3    3185.6175   -4937.5983   -2669.8338   -924.45922   -1765.2153    82.078251 
   30500    358.02485   -108.56973   0.32394841   -108.24578    1126.2177    4.3379168    4.3379168    4.3379168    1126.2177   -8496.9287    12580.187   -704.60559   -801.01027    2059.2107    507.65517    81.628847 
   30600     226.9915   -108.45315   0.20538668   -108.24776     4391.566     4.343671     4.343671     4.343671     4391.566   -7203.5408    9870.4591     10507.78    1214.1434   -526.26001     5108.806    81.954116 
   30700    364.73553   -108.57738   0.33002037   -108.24736   -4535.8097    4.3408345    4.3408345    4.3408345   -4535.8097   -11969.518    2694.7311   -4332.6419   -1707.6446   -840.64317   -1976.7246    81.793667 
   30800    239.33293   -108.46383   0.21655346   -108.24727    6466.9829    4.3413701    4.3413701    4.3413701    6466.9829   -4332.6015    1980.4558    21753.094   -75.390462   -219.35604    3507.2781    81.823947 
   30900    393.81241     -108.603   0.35632974   -108.24667   -7633.3643    4.3417923    4.3417923    4.3417923   -7633.3643   -13375.434    1785.3869   -11310.046   -1997.1346   -1591.5929   -2313.0891    81.847823 
   31000    154.43571   -108.38809   0.13973667   -108.24835    7453.2648    4.3418241    4.3418241    4.3418241    7453.2648   -7503.9948     18620.45     11243.34   -917.76736    33.257519    1835.0952    81.849621 
   31100    425.67452   -108.63217   0.38515925   -108.24701   -5185.4319    4.3405166    4.3405166    4.3405166   -5185.4319   -11012.304   -4459.1534    -84.83799    2888.5733   -3007.0893    1398.6357    81.775698 
   31200    266.34885   -108.48976   0.24099803   -108.24876   -1715.6274    4.3422759    4.3422759    4.3422759   -1715.6274    -6286.768    541.67286     598.2131   -1390.0596   -203.20785   -612.80506    81.875174 
   31300    289.91264   -108.51015   0.26231905   -108.24783    539.77819    4.3424313    4.3424313    4.3424313    539.77819   -10671.476    1244.9345    11045.876   -373.95062    -1619.522   -2248.3675    81.883964 
   31400    325.84578   -108.54131   0.29483211   -108.24648    -2345.496    4.3402141    4.3402141    4.3402141    -2345.496   -5184.1817    3389.3468   -5241.6531   -980.71443    1904.3624    6808.0095    81.758605 
   31500    198.78265    -108.4272   0.17986272   -108.24734     3084.538    4.3434102    4.3434102    4.3434102     3084.538   -12543.067    2660.9088    19135.772   -990.54936   -924.24891   -2001.1374    81.939355 
   31600    435.89699   -108.63967   0.39440876   -108.24526   -6206.2862    4.3405495    4.3405495    4.3405495   -6206.2862   -9434.2917   -2945.0806   -6239.4864    1423.5011    2938.7447    3943.3599    81.777561 
   31700    234.90573   -108.45956   0.21254764   -108.24702    1061.9309    4.3419961    4.3419961    4.3419961    1061.9309   -9300.1534    3513.4025    8972.5435   -714.22365    -3976.476    97.846949    81.859348 
   31800    290.12788   -108.51013    0.2625138   -108.24762   -333.67021    4.3416238    4.3416238    4.3416238   -333.67021   -10567.983    4542.2948    5024.6776   -1982.7688    2674.3435    1083.0707    81.838294 
   31900    329.73765   -108.54594   0.29835356   -108.24759   -1219.2062    4.3409213    4.3409213    4.3409213   -1219.2062   -6489.2367   -597.53729    3429.1554   -1671.7165   -2252.3506     4412.751    81.798576 
   32000    242.05298   -108.46723   0.21901462   -108.24821    457.74294    4.3428006    4.3428006    4.3428006    457.74294   -8657.4086   -2983.9525     13014.59   -209.62745    800.93354   -2065.7739    81.904856 
   32100    409.72561   -108.61707   0.37072834   -108.24634   -4577.5005    4.3399609    4.3399609    4.3399609   -4577.5005   -8657.4929    2554.7918   -7629.8003   -919.86901   -1302.9139   -2096.2567    81.744295 
   32200     190.3777   -108.41947   0.17225774   -108.24721    2375.1222    4.3442314    4.3442314    4.3442314    2375.1222   -11746.479    7867.0373    11004.808    1947.1096    55.215086    2933.3011    81.985837 
   32300    365.95131   -108.57776   0.33112044   -108.24664    -1427.365    4.3385863    4.3385863    4.3385863    -1427.365   -6493.6521    2014.5034    197.05353   -3984.9349    1357.3963   -329.04734    81.666644 
   32400    267.24766   -108.48894    0.2418113   -108.24713    790.71409    4.3438923    4.3438923    4.3438923    790.71409   -9720.7967   -2538.1374    14631.076    255.52651    2075.4944    766.73114    81.966643 
   32500     325.2145   -108.54176   0.29426092    -108.2475   -69.803871    4.3413162    4.3413162    4.3413162   -69.803871   -1474.3454   -2169.4285    3434.3623    579.27767    736.53472    3062.8354    81.820902 
   32600    326.73046   -108.54299   0.29563258   -108.24735    295.12185     4.340119     4.340119     4.340119    295.12185   -10691.371    5550.2384    6026.4977    885.28234   -1642.9456   -1206.3326     81.75323 
   32700    155.94856   -108.38916   0.14110553   -108.24806    5248.3109    4.3435144    4.3435144    4.3435144    5248.3109   -3767.3169    10966.465    8545.7845    1259.0544    528.35633    6530.7128    81.945251 
   32800    456.62711    -108.6592   0.41316581   -108.24603   -8502.0093    4.3403327    4.3403327    4.3403327   -8502.0093   -13517.868   -5043.4296   -6944.7304   -1853.0159   -2977.5246   -1311.3207    81.765304 
   32900    201.33289   -108.42998   0.18217023   -108.24781    6036.9127    4.3411695    4.3411695    4.3411695    6036.9127   -2290.1252    2937.6072    17463.256   -1768.5743    1254.6923   -2728.1183    81.812607 
   33000    392.29075   -108.60191   0.35495291   -108.24695   -7893.6101    4.3439951    4.3439951    4.3439951   -7893.6101   -12929.307   -2605.8602   -8145.6636    -100.6677   -3817.6163    2129.4656    81.972465 
   33100    211.75046   -108.43959   0.19159627   -108.24799    7443.2782    4.3384857    4.3384857    4.3384857    7443.2782    569.22929    4732.9937    17027.612   -619.99982   -627.26744     2068.105    81.660968 
   33200    304.20947   -108.52296   0.27525512    -108.2477   -4504.0389    4.3432778    4.3432778    4.3432778   -4504.0389   -9132.8554    1469.7727    -5849.034   -1648.9372   -674.05501   -4393.4612    81.931863 
   33300     364.9881    -108.5769    0.3302489   -108.24665   -7198.2485    4.3432199    4.3432199    4.3432199   -7198.2485   -8546.5467   -6486.6916   -6561.5071   -919.61596    1886.8281    6581.9556    81.928587 
   33400    240.51612   -108.46432   0.21762404    -108.2467    6292.1432    4.3379255    4.3379255    4.3379255    6292.1432   -6480.0266    7271.7202    18084.736   -2710.3027    1173.5944    -3620.939    81.629335 
   33500    360.02861   -108.57178   0.32576145   -108.24602   -9750.6703    4.3467711    4.3467711    4.3467711   -9750.6703   -15033.481   -1195.6861   -13022.843     2019.491    647.29912     6237.776    82.129713 
   33600    199.18566   -108.42593   0.18022737    -108.2457    9652.4231    4.3372256    4.3372256    4.3372256    9652.4231    88.875332    4909.9921    23958.402    330.61194    220.69389   -320.90297    81.589829 
[...]
   91300    369.00394   -108.58361   0.33388252   -108.24973   -2239.4581    4.3386407    4.3386407    4.3386407   -2239.4581   -7582.4648     4895.582   -4031.4915   -320.18548     721.0672      2401.88    81.669717 
   91400    245.29365   -108.47403   0.22194685   -108.25208   -1520.7654    4.3416358    4.3416358    4.3416358   -1520.7654    -7886.442   -569.15597    3893.3018     -2392.12    704.92223    3690.8112    81.838971 
   91500     313.0033   -108.53269   0.28321196   -108.24948    4459.2272    4.3394368    4.3394368    4.3394368    4459.2272   -3408.8963    17476.267   -689.68863    3104.0628    1970.8431   -4259.1428    81.714683 
   91600     279.1297   -108.50085   0.25256242   -108.24829   -1855.6101    4.3416974    4.3416974    4.3416974   -1855.6101   -7516.2121    5865.6281   -3916.2465   -1980.1996    1626.9837    5422.8075    81.842456 
   91700     340.0416   -108.55433   0.30767678   -108.24666   -1370.2491     4.339035     4.339035     4.339035   -1370.2491   -3723.9548    8726.8654   -9113.6579    2363.9797   -1138.0481    3459.0937    81.691988 
   91800    317.43056   -108.53327   0.28721784   -108.24606    1022.5558    4.3427884    4.3427884    4.3427884    1022.5558   -10866.609    12215.107    1719.1692   -2253.6728    590.54195   -5058.5706    81.904168 
   91900    225.08682   -108.45235   0.20366328   -108.24869    550.85408    4.3375177    4.3375177    4.3375177    550.85408   -5259.8417    5353.5019     1558.902    3729.1554   -11.253406    7577.4554    81.606316 
   92000     351.6407   -108.56636   0.31817189   -108.24819   -4369.7723    4.3434753    4.3434753    4.3434753   -4369.7723   -9298.0414    490.18277   -4301.4583    -2647.452    2098.5021   -333.17047    81.943037 
   92100    279.23171   -108.50161   0.25265472   -108.24896     2001.943    4.3381415    4.3381415    4.3381415     2001.943   -5165.4327    13813.413   -2642.1511    2263.2676    39.144124    205.24626    81.641533 
   92200    337.97989   -108.55482   0.30581131   -108.24901   -8265.7819    4.3418426    4.3418426    4.3418426   -8265.7819   -5557.9059    -7297.141   -11942.299   -1007.5952   -481.99889    7784.2833    81.850668 
   92300    251.34012   -108.47569   0.22741782   -108.24827    5730.1943      4.34082      4.34082      4.34082    5730.1943   -9452.0737    18937.531    7705.1253   -258.22522   -537.95891   -5217.2419    81.792851 
   92400    340.48801    -108.5565   0.30808071   -108.24842   -3832.6221    4.3385328    4.3385328    4.3385328   -3832.6221   -3603.8427   -5309.2349   -2584.7887    1936.8605    439.28327    4819.9283    81.663627 
   92500    229.67421   -108.45717   0.20781405   -108.24935    160.76487     4.343615     4.343615     4.343615    160.76487   -9140.5786    14243.723   -4620.8501   -1796.2796    1992.9336    4276.2437    81.950945 
   92600    402.96647   -108.61156   0.36461253   -108.24694    2384.5229    4.3365054    4.3365054    4.3365054    2384.5229    374.45929    11489.102   -4709.9923    2019.8219    111.42955    -4080.347    81.549193 
   92700    222.45685   -108.44957   0.20128363   -108.24828   -3103.4993    4.3448673    4.3448673    4.3448673   -3103.4993    -5644.085    4088.2625   -7754.6754   -3600.0517    193.88869    4632.6908    82.021849 
   92800    338.75858   -108.55208   0.30651588   -108.24557    4650.8216    4.3371059    4.3371059    4.3371059    4650.8216   -2941.9129    11741.485    5152.8924    3832.5696   -1884.4322    2515.1051    81.583079 
   92900    230.71075   -108.45546   0.20875194   -108.24671    4205.9512     4.342201     4.342201     4.342201    4205.9512    -5737.735    18351.676    3.9121973   -3089.2635   -593.19344     739.9294    81.870938 
   93000    379.25926   -108.59231   0.34316174   -108.24915   -8583.0943    4.3394631    4.3394631    4.3394631   -8583.0943   -8486.9942   -11413.861   -5848.4275    57.723796    2073.3534    6320.6328    81.716168 
   93100    299.54408    -108.5218   0.27103378   -108.25076    4447.9833    4.3403709    4.3403709    4.3403709    4447.9833   -489.07555    21408.779   -7575.7538   -1010.7356   -41.116595   -2075.2323    81.767466 
   93200    277.34079   -108.50316   0.25094377   -108.25221   -4805.2436    4.3416978    4.3416978    4.3416978   -4805.2436   -6063.2228   -3095.4139   -5257.0941    978.72529    187.55341     2793.694    81.842478 
   93300    268.48584   -108.49386   0.24293163   -108.25093    2076.0066    4.3372193    4.3372193    4.3372193    2076.0066    3463.5409    5059.0953   -2294.6164   -1519.9083   -2050.3563    5813.7031    81.589475 
   93400    316.80982   -108.53426   0.28665618   -108.24761   -3305.5219    4.3454051    4.3454051    4.3454051   -3305.5219   -8709.8756   -347.89924   -858.79093   -391.13444    1596.1248   -4693.8125    82.052308 
   93500    298.30666   -108.51714   0.26991414   -108.24722   -936.18072     4.334927     4.334927     4.334927   -936.18072   -1847.3348    6003.9633   -6965.1707   -1811.5036    497.26348    3702.4367    81.460181 
   93600    319.26593   -108.53517   0.28887852   -108.24629   -5809.0425    4.3473378    4.3473378    4.3473378   -5809.0425   -7760.2485    346.90923   -10013.788    1648.9133    2370.2701    3376.4207    82.161839 
   93700    316.57015   -108.53213   0.28643933   -108.24569    4429.4954    4.3341502    4.3341502    4.3341502    4429.4954   -888.14561    14655.293   -478.66172   -711.18898   -1378.3891   -4121.4865    81.416394 
   93800    246.12369    -108.4707   0.22269789     -108.248   -3915.7563    4.3451045    4.3451045    4.3451045   -3915.7563   -4432.1566    -2791.357   -4523.7554   -416.09887    174.58467    7890.2167    82.035285 
   93900    285.99382   -108.50482   0.25877322   -108.24605    6293.0525    4.3386703    4.3386703    4.3386703    6293.0525   -59.310282    20293.275   -1354.8073    1607.1574   -1121.9577    -5013.717     81.67139 
   94000    354.30062   -108.56708   0.32057865    -108.2465   -2433.7163    4.3388755    4.3388755    4.3388755   -2433.7163   -7492.1375    7090.8909   -6899.9025   -1811.1206    873.09441    2175.2231    81.682978 
   94100    319.35894   -108.53711   0.28896268   -108.24815   -5570.0825    4.3444403    4.3444403    4.3444403   -5570.0825   -5683.4776   -1030.6481   -9996.1216    3498.8538    1841.4412    5805.9333    81.997669 
   94200    278.20948   -108.50094   0.25172978   -108.24921     9318.739     4.334926     4.334926     4.334926     9318.739   -4969.8293    28826.668    4099.3786   -867.35516   -1533.3041   -5038.0604    81.460121 
   94300    274.78998   -108.50025   0.24863575   -108.25161   -8017.1629    4.3457178    4.3457178    4.3457178   -8017.1629   -8569.0631    -9516.396   -5966.0294   -1143.3361    735.65059    3142.8641    82.070026 
   94400    275.38245   -108.49845   0.24917183   -108.24927    4916.8965    4.3360395    4.3360395    4.3360395    4916.8965    2345.4567      14033.1   -1627.8668   -1568.3697   -3150.7973    4391.4582    81.522915 
   94500    369.24923    -108.5807   0.33410447   -108.24659   -5655.7408    4.3438088    4.3438088    4.3438088   -5655.7408   -9498.5454    2002.8213   -9471.4982   -31.808838     3752.363   -2758.8894    81.961915 
   94600    216.78487   -108.44376    0.1961515   -108.24761    1054.6019    4.3385989    4.3385989    4.3385989    1054.6019   -1038.9106    6350.2722    -2147.556   -1351.6972    920.22779    8205.2644    81.667356 
   94700    404.66567   -108.61242   0.36615001   -108.24627   -3566.3735    4.3414946    4.3414946    4.3414946   -3566.3735   -12115.837    1830.5029   -413.78634   -873.73204    2315.8067   -2334.2105    81.830988 
   94800    192.41176   -108.42336    0.1740982   -108.24926    3773.8199    4.3404355    4.3404355    4.3404355    3773.8199    -4382.235     15426.25    277.44505   -1746.7035   -2638.4449    4263.5387    81.771115 
   94900    381.96584   -108.59474   0.34561072   -108.24913   -6627.4167    4.3395634    4.3395634    4.3395634   -6627.4167   -3495.6327   -5789.1835   -10597.434    1612.9128    167.15152    6948.7031    81.721837 
   95000     255.2374   -108.47979   0.23094417   -108.24885    5581.3176    4.3417465    4.3417465    4.3417465    5581.3176   -4377.7422    26089.022   -4967.3276   -500.73249   -187.38869   -2028.4219    81.845235 
   95100    322.62314   -108.54084   0.29191619   -108.24892    232.03119    4.3376243    4.3376243    4.3376243    232.03119    25.808227   -2160.6793    2830.9646    266.79254    946.93695    2331.3285    81.612336 
   95200    250.81352   -108.47581   0.22694135   -108.24887    2776.7419    4.3436924    4.3436924    4.3436924    2776.7419    -9456.076    22947.173   -5160.8708    389.98421    800.29768    5655.5539    81.955328 
   95300    348.35115   -108.56276   0.31519544   -108.24756    6686.9303    4.3359281    4.3359281    4.3359281    6686.9303   -2024.3942    11915.939    10169.246   -636.48914   -2141.3611   -4064.7504    81.516632 
   95400    314.42777   -108.53362   0.28450086   -108.24912   -6328.3483    4.3449305    4.3449305    4.3449305   -6328.3483   -8824.2227    6643.5502   -16804.372    1113.7396    608.15576    7488.6672     82.02543 
   95500    302.81049   -108.52204    0.2739893   -108.24805    7748.1423    4.3358628    4.3358628    4.3358628    7748.1423    2526.1329     11953.42    8764.8736    1426.5591   -1832.3881    -2145.713    81.512946 
   95600     289.6542    -108.5092   0.26208521   -108.24711   -920.86245    4.3448511    4.3448511    4.3448511   -920.86245   -6923.9416    11131.164   -6969.8095   -1450.4241    3379.7503    605.28632    82.020931 
   95700     251.4045   -108.47377   0.22747607   -108.24629    4222.8131    4.3366398    4.3366398    4.3366398    4222.8131    4055.0444    803.90931    7809.4856   -201.81484     1077.281    7131.4295    81.556779 
   95800    349.81551   -108.56192   0.31652043    -108.2454   -999.91284    4.3426637    4.3426637    4.3426637   -999.91284   -9569.8638    13452.326   -6882.2012    277.94413    1110.3685   -3474.2752    81.897116 
   95900    299.65309   -108.51948   0.27113241   -108.24835   -1199.4466    4.3394967    4.3394967    4.3394967   -1199.4466   -2954.9422    3140.6759   -3784.0735   -1045.8084    -1021.719    695.05554    81.718065 
   96000    345.38231   -108.56267   0.31250918   -108.25016   -4115.9101    4.3399222    4.3399222    4.3399222   -4115.9101   -7023.2636   -353.44493   -4971.0218   -939.55126    192.66664     7184.668    81.742109 
   96100    242.52045   -108.47059    0.2194376   -108.25116      4943.66    4.3421583    4.3421583    4.3421583      4943.66   -4465.2651    22875.968   -3579.7226   -2675.9033    1189.1399   -4206.8673    81.868522 
   96200    300.94308   -108.52285   0.27229962   -108.25055    775.87601    4.3362974    4.3362974    4.3362974    775.87601    4091.6885   -7370.4135    5606.3531    1693.4548    1213.5963    5006.1388    81.537459 
   96300    279.30301   -108.50171   0.25271924   -108.24899   -2305.0344    4.3460567    4.3460567    4.3460567   -2305.0344   -10094.794    19550.988   -16371.297   -506.97982   -965.99352    1276.8598    82.089226 
   96400    360.79185   -108.57331   0.32645205   -108.24686     4724.961     4.333705     4.333705     4.333705     4724.961    2583.4181    4645.6976    6945.7674    998.44522   -2511.8888   -3208.6084    81.391311 
   96500    256.63421    -108.4797   0.23220802   -108.24749   -7329.2143    4.3479236    4.3479236    4.3479236   -7329.2143   -17526.866    11828.239   -16289.015   -2822.4596    394.54622    6929.6102    82.195061 
   96600    343.71731   -108.55636   0.31100264   -108.24536    6502.8903    4.3338144    4.3338144    4.3338144    6502.8903    3942.7645    8612.2939    6953.6126    2044.2351   -740.76811   -2961.2917    81.397475 
   96700    254.62359   -108.47729   0.23038877    -108.2469   -2758.3973    4.3456202    4.3456202    4.3456202   -2758.3973   -12314.415    12619.395   -8580.1715   -3206.5737    2772.3624    1491.6605    82.064494 
   96800    300.29838   -108.51783   0.27171628   -108.24611   -1582.0542    4.3380143    4.3380143    4.3380143   -1582.0542    3528.2466   -1669.9558   -6604.4535   -45.047359   -741.85543    6637.9288    81.634352 
   96900    293.61743   -108.51173   0.26567122   -108.24606    1774.0996    4.3403674    4.3403674    4.3403674    1774.0996   -9784.3557    20562.214   -5455.5596   -499.81431    55.783637   -411.71448    81.767268 
   97000    351.43666   -108.56531   0.31798728   -108.24732   -10487.543    4.3430311    4.3430311    4.3430311   -10487.543   -11818.832   -12152.137   -7491.6588   -3290.1899   -417.67896    5422.2225      81.9179 
   97100    214.94238   -108.44316   0.19448438   -108.24868    4750.8833    4.3366184    4.3366184    4.3366184    4750.8833   -4497.9816    19369.311   -618.67932    5606.0635   -913.61431    4464.7857    81.555567 
   97200    368.84432   -108.58293   0.33373809   -108.24919   -8181.1515    4.3451391    4.3451391    4.3451391   -8181.1515   -12165.078   -3414.8711   -8963.5054   -2415.2541    2456.9522   -2000.9835    82.037239 
   97300    244.23975   -108.47196   0.22099325   -108.25097    760.94951     4.335174     4.335174     4.335174    760.94951    5342.9547    2807.2529   -5867.3591    617.30274   -163.21969    10060.523    81.474106 
   97400     344.3839   -108.56023   0.31160579   -108.24863   -5840.2487    4.3459245    4.3459245    4.3459245   -5840.2487   -9497.6729    7595.3544   -15618.428   -1634.9889   -1768.3183    -3694.469    82.081738 
   97500       265.37   -108.48735   0.24011235   -108.24724    4315.2004     4.336625     4.336625     4.336625    4315.2004   -2511.7207    7002.4701    8454.8519    1197.3021   -1751.8297    1833.7827    81.555939 
   97600    319.89888   -108.53594   0.28945123   -108.24649    -5328.455    4.3425227    4.3425227    4.3425227    -5328.455   -8887.3224    2817.5522    -9915.595   -503.40228    -1149.093    6627.2656    81.889139 
   97700    294.12698   -108.51202   0.26613227   -108.24589    5982.3864    4.3402591    4.3402591    4.3402591    5982.3864   -9138.2191    20685.438    6399.9398    68.914481    1505.1044   -112.83573    81.761147 
   97800    292.95115   -108.51405   0.26506836   -108.24898   -778.67083    4.3383039    4.3383039    4.3383039   -778.67083    1663.5957    6824.3469   -10823.955   -4059.7171    1046.0638    1546.2123    81.650701 
   97900    350.72334   -108.56734   0.31734184      -108.25   -4761.5561    4.3438915    4.3438915    4.3438915   -4761.5561   -8167.3586    3357.1956   -9474.5052    4514.4519    -1517.857    5985.3943    81.966599 
   98000    237.76373   -108.46488   0.21513362   -108.24974    10428.902    4.3355978    4.3355978    4.3355978    10428.902    1352.8872    21650.943    8282.8745   -5828.9287   -585.77087   -4321.5076    81.498005 
   98100    351.79956    -108.5678   0.31831563   -108.24949   -10980.357    4.3449189    4.3449189    4.3449189   -10980.357   -15102.285   -6218.9462   -11619.841    755.72748    1362.0887    8994.2434    82.024773 
   98200     259.2714    -108.4828   0.23459421   -108.24821    7422.3665    4.3367496    4.3367496    4.3367496    7422.3665    -2216.182    16193.872      8289.41   -3325.2575    683.95498   -1618.2332    81.562969 
   98300    376.24303   -108.58795    0.3404326   -108.24751    -8336.086    4.3431209    4.3431209    4.3431209    -8336.086   -7570.3706   -3907.1566   -13530.731   -1215.9214    1519.5305    1045.5439    81.922981 
   98400     211.9474   -108.44059   0.19177446   -108.24881    3028.9124    4.3386041    4.3386041    4.3386041    3028.9124   -1306.7334     9850.774    542.69656    243.12686   -1167.1091    7129.1986    81.667651 
   98500    326.70743   -108.54263   0.29561174   -108.24702    -3.408182     4.342166     4.342166     4.342166    -3.408182   -1117.0001    4830.5775    -3723.802   -392.24047   -1735.1291   -2237.2493    81.868959 
   98600    300.49549   -108.51895   0.27189463   -108.24706   -1881.4082    4.3388227    4.3388227    4.3388227   -1881.4082     -9740.93    3314.2273    782.47794   -1456.6471    -289.2079    3934.7453    81.679996 
   98700    274.16071   -108.49504   0.24806637   -108.24697   -776.84561    4.3421562    4.3421562    4.3421562   -776.84561   -24.925904    7660.2449   -9965.8558   -290.93848   -268.10877    1865.3259    81.868407 
   98800    349.55053   -108.56204   0.31628067   -108.24576    185.07433    4.3393105    4.3393105    4.3393105    185.07433    -9676.408     13089.59   -2857.9594    2830.8628    2295.9977    -32.23136    81.707549 
   98900     324.5212   -108.54128    0.2936336   -108.24764   -5359.3407    4.3406756    4.3406756    4.3406756   -5359.3407    1655.4106   -9922.2865   -7811.1462   -1160.0303   -2148.7538    5135.5847    81.784687 
   99000    213.90896   -108.44328   0.19354933   -108.24973    6996.8141    4.3417287    4.3417287    4.3417287    6996.8141   -1156.9713    26770.202   -4622.7888    204.00182   -1184.1842   -368.84834    81.844226 
   99100    327.58501   -108.54709    0.2964058   -108.25069    1989.9246    4.3360436    4.3360436    4.3360436    1989.9246   -5824.1406    4231.8435    7562.0708   -3585.3319   -794.02282   -1521.8059    81.523142 
   99200    290.79177   -108.51462   0.26311451    -108.2515   -6741.8101    4.3463907    4.3463907    4.3463907   -6741.8101    -6435.966    4682.5662    -18472.03    3314.3971    1574.1928    7884.0102    82.108152 
   99300    361.06819   -108.57504   0.32670209   -108.24834    2749.2215     4.334575     4.334575     4.334575    2749.2215   -7394.0462    10285.862    5355.8486    -2273.488    172.80472   -896.52007    81.440337 
   99400    269.64887   -108.49215   0.24398396   -108.24817   -4585.1237    4.3455812    4.3455812    4.3455812   -4585.1237   -3090.6826    2033.2938   -12697.982    1377.7914    46.852777    3951.9419    82.062288 
   99500    264.88554   -108.48694     0.239674   -108.24727    2093.5484    4.3378249    4.3378249    4.3378249    2093.5484   -999.12693     6257.714     1022.058   -3167.7653   -3137.1236    2867.3813    81.623657 
   99600    319.86445   -108.53624   0.28942007   -108.24682   -396.22177    4.3398719    4.3398719    4.3398719   -396.22177   -4464.2344    5624.1368   -2348.5677    4782.6781   -2106.3144    203.33646    81.739267 
   99700     290.8905   -108.51025   0.26320384   -108.24704   -6922.0578    4.3442524    4.3442524    4.3442524   -6922.0578   -7757.5387   -2816.7664   -10191.868   -2026.5921    1829.9652    5031.2199    81.987031 
   99800     290.2533   -108.50878   0.26262728   -108.24615    3787.6607    4.3355633    4.3355633    4.3355633    3787.6607   -3192.6269    18103.981   -3548.3723    2663.0878   -2911.5014    1784.6473    81.496055 
   99900    387.52769   -108.59656    0.3506432   -108.24591   -7772.9693    4.3455704    4.3455704    4.3455704   -7772.9693   -8724.2599   -7339.5108   -7255.1373   -4349.7533    2766.3772   -2242.2345    82.061676 
  100000    168.44654   -108.40004   0.15241397   -108.24763    4833.1313    4.3382531    4.3382531    4.3382531    4833.1313   -983.42992    16670.983   -1188.1591  -0.56528741   -4511.7022    7173.1806    81.647833 
Loop time of 21.8028 on 1 procs for 100000 steps with 8 atoms

Pair  time (%) = 6.95614 (31.9048)
Kspce time (%) = 5.24034 (24.0351)
Neigh time (%) = 0 (0)
Comm  time (%) = 1.04421 (4.78931)
Outpt time (%) = 0.0218863 (0.100383)
Other time (%) = 8.54026 (39.1704)

Nlocal:    8 ave 8 max 8 min
Histogram: 1 0 0 0 0 0 0 0 0 0
Nghost:    2189 ave 2189 max 2189 min
Histogram: 1 0 0 0 0 0 0 0 0 0
Neighs:    2056 ave 2056 max 2056 min
Histogram: 1 0 0 0 0 0 0 0 0 0

Total # of neighbors = 2056
Ave neighs/atom = 257
Neighbor list builds = 0
Dangerous builds = 0
unfix 20
unfix 21
print "seeds:2154192"
seeds:2154192
