LAMMPS (16 Mar 2018)
Reading data file ...
  triclinic box = (0 0 0) to (4.2565 4.2565 4.2565) with tilt (0 0 0)
  1 by 1 by 1 MPI processor grid
  reading atoms ...
  8 atoms
4 atoms in group Mg
4 atoms in group O
Setting atom values ...
  4 settings made for charge
Setting atom values ...
  4 settings made for charge
PPPM initialization ...
  using 12-bit tables for long-range coulomb (../kspace.cpp:321)
  G vector (1/distance) = 0.360912
  grid = 9 9 9
  stencil order = 5
  estimated absolute RMS force accuracy = 4.5763e-05
  estimated relative force accuracy = 3.17807e-06
  using double precision FFTs
  3d grid and FFT values/proc = 4096 729
Neighbor list info ...
  update every 1 steps, delay 0 steps, check yes
  max neighbors/atom: 2000, page size: 100000
  master list distance cutoff = 11
  ghost atom cutoff = 11
  binsize = 5.5, bins = 1 1 1
  1 neighbor lists, perpetual/occasional/extra = 1 0 0
  (1) pair buck/coul/long, perpetual
      attributes: half, newton on
      pair build: half/bin/newton/tri
      stencil: half/bin/3d/newton/tri
      bin: standard
Setting up cg style minimization ...
  Unit style    : metal
  Current step  : 0
WARNING: Energy due to 3 extra global DOFs will be included in minimizer energies
Per MPI rank memory allocation (min/avg/max) = 4.994 | 4.994 | 4.994 Mbytes
Step PotEng Xhi Xlo Yhi Ylo Zhi Xy Xz Yz Press Pxx Pyy Pzz Pxy Pxz Pyz c_eatoms 
       0    -209.3743       4.2565            0       4.2565            0       4.2565            0            0            0    685344.73    685344.73    685344.73    685344.73 -1.8540569e-10 -1.0793651e-10 1.7913562e-10    -209.3743 
      10   -210.24615    4.2777825   -0.0212825    4.2777825   -0.0212825    4.2777825            0            0            0    515857.16    515857.16    515857.16    515857.16 4.4439462e-10 1.8605602e-10 1.4248254e-10   -210.24615 
      20   -210.90002     4.299065    -0.042565     4.299065    -0.042565     4.299065            0            0            0     366980.5     366980.5     366980.5     366980.5 -2.6435631e-10 -4.866991e-10 -4.8409666e-10   -210.90002 
      30   -211.35487    4.3203475   -0.0638475    4.3203475   -0.0638475    4.3203475            0            0            0    236502.15    236502.15    236502.15    236502.15 -4.3548614e-10 -2.0452967e-11 -1.509174e-10   -211.35487 
      40   -211.63007      4.34163     -0.08513      4.34163     -0.08513      4.34163            0            0            0    122214.57    122214.57    122214.57    122214.57 3.6472109e-11 1.1020439e-10 3.0213141e-11   -211.63007 
      50   -211.74199    4.3629125   -0.1064125    4.3629125   -0.1064125    4.3629125            0            0            0    22405.026    22405.026    22405.026    22405.026 3.9357109e-10 -4.2615864e-10 -2.8463731e-10   -211.74199 
      58   -211.74531    4.3681213  -0.11162128    4.3681213  -0.11162128    4.3681213            0            0            0   -0.4508329  -0.45083288  -0.45083291   -0.4508329 -6.8904055e-11 2.6501103e-10 -8.4600812e-11   -211.74531 
Loop time of 0.0462799 on 1 procs for 58 steps with 8 atoms

97.1% CPU use with 1 MPI tasks x no OpenMP threads

Minimization stats:
  Stopping criterion = linesearch alpha is zero
  Energy initial, next-to-last, final = 
        -209.374303118     -211.745312213     -211.745312213
  Force two-norm initial, final = 57.137 0.00012614
  Force max component initial, final = 32.988 2.97171e-05
  Final line search alpha, max atom move = 0.5 1.48585e-05
  Iterations, force evaluations = 58 65

MPI task timing breakdown:
Section |  min time  |  avg time  |  max time  |%varavg| %total
---------------------------------------------------------------
Pair    | 0.0095453  | 0.0095453  | 0.0095453  |   0.0 | 20.63
Kspace  | 0.011339   | 0.011339   | 0.011339   |   0.0 | 24.50
Neigh   | 0          | 0          | 0          |   0.0 |  0.00
Comm    | 0.00074601 | 0.00074601 | 0.00074601 |   0.0 |  1.61
Output  | 9.3937e-05 | 9.3937e-05 | 9.3937e-05 |   0.0 |  0.20
Modify  | 0          | 0          | 0          |   0.0 |  0.00
Other   |            | 0.02456    |            |       | 53.06

Nlocal:    8 ave 8 max 8 min
Histogram: 1 0 0 0 0 0 0 0 0 0
Nghost:    2189 ave 2189 max 2189 min
Histogram: 1 0 0 0 0 0 0 0 0 0
Neighs:    2344 ave 2344 max 2344 min
Histogram: 1 0 0 0 0 0 0 0 0 0

Total # of neighbors = 2344
Ave neighs/atom = 293
Neighbor list builds = 0
Dangerous builds = 0
pypospack:output_section:begin
tot_energy = -211.745312212968
num_atoms = 8
a11 = 4.4797425616035
a22 = 4.47974256160354
a33 = 4.47974256160352
a12 = 0
a13 = 0
a23 = 0
tot_press = -0.450832896778371
pxx = -0.450832884828275
pyy = -0.450832907980303
pzz = -0.450832897526535
pxy = -6.89040550692002e-11
pxz = 2.65011028921361e-10
pyz = -8.4600811545829e-11
pypospack:output_section:done
pypospack:lammps_sim:done
Total wall time: 0:00:00
