# ['Ni']

107 atoms
1 atom types

    0.0000    10.5678 xlo xhi
    0.0000    10.5678 ylo yhi
    0.0000    10.5678 zlo zhi

    0.0000    -0.0000    -0.0000 xy xz yz

Atoms

1 1     1.7613     1.7613     0.0000
2 1     1.7613     0.0000     1.7613
3 1     0.0000     1.7613     1.7613
4 1     0.0000     0.0000     3.5226
5 1     1.7613     1.7613     3.5226
6 1     1.7613     0.0000     5.2839
7 1     0.0000     1.7613     5.2839
8 1     0.0000     0.0000     7.0452
9 1     1.7613     1.7613     7.0452
10 1     1.7613     0.0000     8.8065
11 1     0.0000     1.7613     8.8065
12 1     0.0000     3.5226     0.0000
13 1     1.7613     5.2839     0.0000
14 1     1.7613     3.5226     1.7613
15 1     0.0000     5.2839     1.7613
16 1     0.0000     3.5226     3.5226
17 1     1.7613     5.2839     3.5226
18 1     1.7613     3.5226     5.2839
19 1     0.0000     5.2839     5.2839
20 1     0.0000     3.5226     7.0452
21 1     1.7613     5.2839     7.0452
22 1     1.7613     3.5226     8.8065
23 1     0.0000     5.2839     8.8065
24 1     0.0000     7.0452     0.0000
25 1     1.7613     8.8065     0.0000
26 1     1.7613     7.0452     1.7613
27 1     0.0000     8.8065     1.7613
28 1     0.0000     7.0452     3.5226
29 1     1.7613     8.8065     3.5226
30 1     1.7613     7.0452     5.2839
31 1     0.0000     8.8065     5.2839
32 1     0.0000     7.0452     7.0452
33 1     1.7613     8.8065     7.0452
34 1     1.7613     7.0452     8.8065
35 1     0.0000     8.8065     8.8065
36 1     3.5226     0.0000     0.0000
37 1     5.2839     1.7613     0.0000
38 1     5.2839     0.0000     1.7613
39 1     3.5226     1.7613     1.7613
40 1     3.5226     0.0000     3.5226
41 1     5.2839     1.7613     3.5226
42 1     5.2839     0.0000     5.2839
43 1     3.5226     1.7613     5.2839
44 1     3.5226     0.0000     7.0452
45 1     5.2839     1.7613     7.0452
46 1     5.2839     0.0000     8.8065
47 1     3.5226     1.7613     8.8065
48 1     3.5226     3.5226     0.0000
49 1     5.2839     5.2839     0.0000
50 1     5.2839     3.5226     1.7613
51 1     3.5226     5.2839     1.7613
52 1     3.5226     3.5226     3.5226
53 1     5.2839     5.2839     3.5226
54 1     5.2839     3.5226     5.2839
55 1     3.5226     5.2839     5.2839
56 1     3.5226     3.5226     7.0452
57 1     5.2839     5.2839     7.0452
58 1     5.2839     3.5226     8.8065
59 1     3.5226     5.2839     8.8065
60 1     3.5226     7.0452     0.0000
61 1     5.2839     8.8065     0.0000
62 1     5.2839     7.0452     1.7613
63 1     3.5226     8.8065     1.7613
64 1     3.5226     7.0452     3.5226
65 1     5.2839     8.8065     3.5226
66 1     5.2839     7.0452     5.2839
67 1     3.5226     8.8065     5.2839
68 1     3.5226     7.0452     7.0452
69 1     5.2839     8.8065     7.0452
70 1     5.2839     7.0452     8.8065
71 1     3.5226     8.8065     8.8065
72 1     7.0452     0.0000     0.0000
73 1     8.8065     1.7613     0.0000
74 1     8.8065     0.0000     1.7613
75 1     7.0452     1.7613     1.7613
76 1     7.0452     0.0000     3.5226
77 1     8.8065     1.7613     3.5226
78 1     8.8065     0.0000     5.2839
79 1     7.0452     1.7613     5.2839
80 1     7.0452     0.0000     7.0452
81 1     8.8065     1.7613     7.0452
82 1     8.8065     0.0000     8.8065
83 1     7.0452     1.7613     8.8065
84 1     7.0452     3.5226     0.0000
85 1     8.8065     5.2839     0.0000
86 1     8.8065     3.5226     1.7613
87 1     7.0452     5.2839     1.7613
88 1     7.0452     3.5226     3.5226
89 1     8.8065     5.2839     3.5226
90 1     8.8065     3.5226     5.2839
91 1     7.0452     5.2839     5.2839
92 1     7.0452     3.5226     7.0452
93 1     8.8065     5.2839     7.0452
94 1     8.8065     3.5226     8.8065
95 1     7.0452     5.2839     8.8065
96 1     7.0452     7.0452     0.0000
97 1     8.8065     8.8065     0.0000
98 1     8.8065     7.0452     1.7613
99 1     7.0452     8.8065     1.7613
100 1     7.0452     7.0452     3.5226
101 1     8.8065     8.8065     3.5226
102 1     8.8065     7.0452     5.2839
103 1     7.0452     8.8065     5.2839
104 1     7.0452     7.0452     7.0452
105 1     8.8065     8.8065     7.0452
106 1     8.8065     7.0452     8.8065
107 1     7.0452     8.8065     8.8065
