# ['Ni']

20 atoms
1 atom types

    0.0000     3.3030 xlo xhi
    0.0000     3.3030 ylo yhi
    0.0000    33.0296 zlo zhi

    0.0000    -0.0000     0.0000 xy xz yz

Atoms

1 1     0.0000     0.0000     0.0000
2 1     1.6515     1.6515     0.0000
3 1     1.6515     0.0000     1.6515
4 1     0.0000     1.6515     1.6515
5 1     0.0000     0.0000     3.3030
6 1     1.6515     1.6515     3.3030
7 1     1.6515     0.0000     4.9544
8 1     0.0000     1.6515     4.9544
9 1     0.0000     0.0000     6.6059
10 1     1.6515     1.6515     6.6059
11 1     1.6515     0.0000     8.2574
12 1     0.0000     1.6515     8.2574
13 1     0.0000     0.0000     9.9089
14 1     1.6515     1.6515     9.9089
15 1     1.6515     0.0000    11.5603
16 1     0.0000     1.6515    11.5603
17 1     0.0000     0.0000    13.2118
18 1     1.6515     1.6515    13.2118
19 1     1.6515     0.0000    14.8633
20 1     0.0000     1.6515    14.8633
