LAMMPS (10 Feb 2015)
# ---- initialize simulations
clear
units metal
dimension 3
boundary p p p
atom_style charge
atom_modify map array
# ---- create atoms
read_data /Users/eugeneragasa/pyflamestk_git/pypospack/tests/tests_integration/workflow/WorkflowLammpsThermalExpansion/param_8221/MgO_NaCl_unit.npt.T1400/lammps.structure
  triclinic box = (0 0 0) to (4.2565 4.2565 4.2565) with tilt (0 0 0)
  1 by 1 by 1 MPI processor grid
  reading atoms ...
  8 atoms
# ---- define interatomic potential
include potential.mod
mass 1 24.305
mass 2 15.999

group Mg type 1
4 atoms in group Mg
group O type 2
4 atoms in group O

set group Mg charge 1.65389423724
  4 settings made for charge
set group O charge -1.65389423724
  4 settings made for charge

variable R_cut equal 10.0

pair_style buck/coul/long ${R_cut}
pair_style buck/coul/long 10
pair_coeff 1 1 0.0 0.5 0.0 ${R_cut}
pair_coeff 1 1 0.0 0.5 0.0 10
pair_coeff 1 2 1300.0678519 0.288744572517 0.0 ${R_cut}
pair_coeff 1 2 1300.0678519 0.288744572517 0.0 10
pair_coeff 2 2 40472.9144105 0.202420171096 26.2679081719 ${R_cut}
pair_coeff 2 2 40472.9144105 0.202420171096 26.2679081719 10

kspace_style pppm 1.0e-5

neighbor 1.0 bin
neigh_modify every 1 delay 0 check yes
# ---- define settings
compute eng all pe/atom
compute eatoms all reduce sum c_eng
# ---- run minimization
reset_timestep 0
fix 1 all box/relax iso 0.0 vmax 0.001
thermo 10
thermo_style custom step pe lx ly lz xy xz yz press pxx pyy pzz pxy pxz pyz c_eatoms
min_style cg
minimize 1e-25 1e-25 5000 10000
PPPM initialization ...
  G vector (1/distance) = 0.352799
  grid = 8 8 8
  stencil order = 5
  estimated absolute RMS force accuracy = 3.93787e-05
  estimated relative force accuracy = 2.7347e-06
  using double precision FFTs
  3d grid and FFT values/proc = 3375 512
Neighbor list info ...
  1 neighbor list requests
  update every 1 steps, delay 0 steps, check yes
  master list distance cutoff = 11
Memory usage per processor = 4.06549 Mbytes
Step PotEng Lx Ly Lz Xy Xz Yz Press Pxx Pyy Pzz Pxy Pxz Pyz eatoms 
       0   -110.27609       4.2565       4.2565       4.2565            0            0            0    110960.29    110960.29    110960.29    110960.29 9.3314123e-11 1.6239754e-10 5.8891323e-11   -110.27609 
      10   -110.39349     4.299065     4.299065     4.299065            0            0            0    52923.265    52923.265    52923.265    52923.265 1.8718586e-11 -3.674075e-11 -9.001309e-11   -110.39349 
      20   -110.43343      4.34163      4.34163      4.34163            0            0            0    2089.5567    2089.5567    2089.5567    2089.5567 6.9298069e-11 -1.296578e-10 -9.997383e-11   -110.43343 
      22   -110.43352     4.343513     4.343513     4.343513            0            0            0   -5.7193123   -5.7193123   -5.7193123   -5.7193123 4.586585e-11 9.062077e-11 2.6249224e-10   -110.43352 
Loop time of 0.0136321 on 1 procs for 22 steps with 8 atoms

Minimization stats:
  Stopping criterion = linesearch alpha is zero
  Energy initial, next-to-last, final = 
        -110.276087498     -110.433524975     -110.433524975
  Force two-norm initial, final = 16.0227 0.00180648
  Force max component initial, final = 16.0227 0.000859982
  Final line search alpha, max atom move = 0.00390625 3.35931e-06
  Iterations, force evaluations = 22 39

Pair  time (%) = 0.00374222 (27.4516)
Kspce time (%) = 0.0021832 (16.0152)
Neigh time (%) = 0 (0)
Comm  time (%) = 0.000422716 (3.1009)
Outpt time (%) = 2.88486e-05 (0.211624)
Other time (%) = 0.00725508 (53.2207)

Nlocal:    8 ave 8 max 8 min
Histogram: 1 0 0 0 0 0 0 0 0 0
Nghost:    2189 ave 2189 max 2189 min
Histogram: 1 0 0 0 0 0 0 0 0 0
Neighs:    2344 ave 2344 max 2344 min
Histogram: 1 0 0 0 0 0 0 0 0 0

Total # of neighbors = 2344
Ave neighs/atom = 293
Neighbor list builds = 0
Dangerous builds = 0
unfix 1
# ---- define output variables ----
variable natoms equal "count(all)"
variable tot_energy equal "c_eatoms"
variable length_x equal "lx"
variable length_y equal "ly"
variable length_z equal "lz"
variable tilt_xy equal "xy"
variable tilt_xz equal "xz"
variable tilt_yz equal "yz"
variable tot_press equal "press"
variable press_xx equal "pxx"
variable press_yy equal "pyy"
variable press_zz equal "pzz"
variable press_xy equal "pxy"
variable press_xz equal "pxz"
variable press_yz equal "pyz"

# ---- output ----
print "pypospack:output_section:begin"
pypospack:output_section:begin
print "tot_energy = ${tot_energy}"
tot_energy = -110.433524975286
print "num_atoms = ${natoms}"
num_atoms = 8
print "xx = ${length_x}"
xx = 4.34351296178449
print "yy = ${length_y}"
yy = 4.34351296178449
print "zz = ${length_z}"
zz = 4.34351296178449
print "xy = ${tilt_xy}"
xy = 0
print "xz = ${tilt_xz}"
xz = 0
print "yz = ${tilt_yz}"
yz = 0
print "tot_press = ${tot_press}"
tot_press = -5.71931225965551
print "pxx = ${press_xx}"
pxx = -5.71931225981032
print "pyy = ${press_yy}"
pyy = -5.71931225968463
print "pzz = ${press_zz}"
pzz = -5.71931225947158
print "pxy = ${press_xy}"
pxy = 4.5865850341772e-11
print "pxz = ${press_xz}"
pxz = 9.06207702771322e-11
print "pyz = ${press_yz}"
pyz = 2.62492238241466e-10
print "pypospack:output_section:done"
pypospack:output_section:done
print "pypospack:lammps_sim:done"
pypospack:lammps_sim:done
#------------------------------------------------------------------------------
# RUN THERMOSTAT
# running using an NPT Nose-Hoover style thermostat
#------------------------------------------------------------------------------
variable tempdamp equal 0.1
variable pressdamp equal 1.0
# set initial velocities
velocity all create 1400 6028433 mom yes dist gaussian loop all
# fix for Nose-Hoover style thermostat
fix 20 all npt temp 1400 1400 0.1 aniso 0.0 0.0 1.0 drag 1.0 couple xyz
variable boxx equal lx
variable boxy equal ly
variable boxz equal lz
variable boxp equal press
variable boxt equal temp
# calculate averages every 10000 steps
reset_timestep 0
fix 21 all ave/time 10 10 100 v_boxx v_boxy v_boxz v_boxp v_boxt file lattice.out
thermo_style custom step temp pe ke etotal press lx ly lz press pxx pyy pzz pxy pxz pyz vol
thermo_modify flush yes
thermo 100
run 100000
PPPM initialization ...
  G vector (1/distance) = 0.351923
  grid = 8 8 8
  stencil order = 5
  estimated absolute RMS force accuracy = 4.10067e-05
  estimated relative force accuracy = 2.84776e-06
  using double precision FFTs
  3d grid and FFT values/proc = 3375 512
Memory usage per processor = 3.06549 Mbytes
Step Temp PotEng KinEng TotEng Press Lx Ly Lz Press Pxx Pyy Pzz Pxy Pxz Pyz Volume 
       0         1400   -110.43354    1.2667494   -109.16679    16503.703     4.343513     4.343513     4.343513    16503.703    12344.578    24646.851    12519.679    1585.3345    7239.0772    4667.0208    81.945171 
     100     335.2963   -109.30763   0.30338314   -109.00424    11823.552    4.3664214    4.3664214    4.3664214    11823.552   -26736.842    13111.577    49095.922    -4569.813   -11108.468    1056.2082    83.248602 
     200    1050.7045   -109.59802   0.95069952   -108.64732   -18819.882    4.3941791    4.3941791    4.3941791   -18819.882    -42731.23   -8604.6483   -5123.7688    5190.1732   -6861.4095    -3040.823     84.84637 
     300    1471.4178   -109.69356    1.3313697   -108.36219    -13672.54    4.3915827    4.3915827    4.3915827    -13672.54   -44544.658    39528.206   -36001.167   -7079.8953    4464.9954   -2577.2801    84.696056 
     400    592.43057   -108.65227   0.53604363   -108.11623    25582.554    4.3673081    4.3673081    4.3673081    25582.554   -39045.685    49599.562    66193.784    9184.1406   -17856.463   -1749.3668    83.299328 
     500    1825.5457    -109.6181    1.6517921   -107.96631    7449.5104     4.387447     4.387447     4.387447    7449.5104   -13864.469    28480.993    7732.0074   -5474.7863   -2160.0652   -2334.4049       84.457 
     600    1217.1008   -108.97626    1.1012584     -107.875   -31598.423     4.415526     4.415526     4.415526   -31598.423   -64216.915     25125.33   -55703.684    8146.9908    7946.4096    -5225.988    86.088934 
     700     1384.155   -109.08233    1.2524125   -107.82992     5736.411    4.3870139    4.3870139    4.3870139     5736.411   -25434.875    17891.757    24752.351   -11202.198   -6897.5386   -7151.2099    84.431993 
     800    1449.7484   -109.14101    1.3117628   -107.82925    18799.674    4.3849227    4.3849227    4.3849227    18799.674   -821.63614    54815.265    2405.3929    4113.9261    25859.725   -2757.7544    84.311308 
     900     1011.761   -108.77043   0.91546264   -107.85497   -34227.769    4.4035396    4.4035396    4.4035396   -34227.769     -71182.8    24132.445   -55632.951    4289.6176    9564.2535    6297.7551    85.389746 
    1000    1464.7619   -109.17178    1.3253473   -107.84643    14629.295    4.3986292    4.3986292    4.3986292    14629.295    6849.5199   -9073.4428    46111.807   -12845.364    1276.8187   -6014.5843    85.104408 
    1100    1259.9399   -108.99371    1.1400201   -107.85369    3855.4905    4.4013633    4.4013633    4.4013633    3855.4905    23900.248    23113.912   -35447.689    18189.976    33068.849    11090.795    85.263205 
    1200    1346.1204   -109.07049     1.217998   -107.85249   -7709.5531    4.4028633    4.4028633    4.4028633   -7709.5531   -9209.0281    22217.813   -36137.444   -2811.7273   -17512.036   -3519.8228    85.350409 
    1300    1874.1846   -109.52832    1.6958016   -107.83252    5425.0084    4.4032716    4.4032716    4.4032716    5425.0084    22018.555   -10230.841     4487.311   -6176.8803    18257.486   -9891.5566    85.374156 
    1400    929.36399   -108.68513   0.84090806   -107.84422    -27968.36    4.4162237    4.4162237    4.4162237    -27968.36   -12791.349    3058.1646   -74171.894   -4719.3013      18650.2    5911.4173    86.129753 
    1500    1725.6646   -109.39207    1.5614176   -107.83065   -4685.9445    4.4012909    4.4012909    4.4012909   -4685.9445   -7139.6291    25783.721   -32701.926   -15382.621    -24933.72   -1514.1688    85.258996 
    1600    1714.5728   -109.38315    1.5513815   -107.83177    23581.721    4.3845903    4.3845903    4.3845903    23581.721    33969.414    42557.541   -5781.7933    4062.8041    33533.287   -4743.5387    84.292133 
    1700    807.73787   -108.59061    0.7308582   -107.85975   -20690.862    4.4159218    4.4159218    4.4159218   -20690.862   -20597.775    46513.084   -87987.895   -8560.4324   -24076.971    9300.1918    86.112091 
    1800    1854.5743   -109.51161    1.6780578   -107.83355   -14912.792    4.4056083    4.4056083    4.4056083   -14912.792    9470.5399    -9169.695   -45039.222   -4458.8622    2724.8325    7394.5029    85.510144 
    1900    1145.5366   -108.87541    1.0365056   -107.83891     19273.51    4.3814986    4.3814986    4.3814986     19273.51    8627.8798    59058.446   -9865.7971   -10555.581    5635.1229   -8078.7442     84.11395 
    2000    1018.0321   -108.78701   0.92113682   -107.86588   -14999.638    4.3952467    4.3952467    4.3952467   -14999.638   -4041.7577    23347.942   -64305.098    12839.484   -39881.394    6622.4092    84.908227 
    2100    1804.3257   -109.48809    1.6325918    -107.8555    11536.879    4.3925704    4.3925704    4.3925704    11536.879    37308.188     16571.14   -19268.693   -8262.5281    12913.618    4769.7029    84.753216 
    2200    965.71252   -108.75032   0.87379698   -107.87653   -9329.0588    4.3979507    4.3979507    4.3979507   -9329.0588   -8674.8347    31380.523   -50692.864   -2957.8056   -37309.629   -2882.6598    85.065033 
    2300    1569.9395   -109.28182    1.4205142   -107.86131   -10758.795    4.4026774    4.4026774    4.4026774   -10758.795   -25400.032    29040.465   -35916.819    16488.894   -5908.3851    9346.1953      85.3396 
    2400    1600.0174   -109.29875    1.4477294   -107.85102    23944.527    4.3789414    4.3789414    4.3789414    23944.527    47027.012    4530.5554    20276.012   -23883.093   -21603.666   -5781.7156    83.966759 
    2500     477.6534   -108.31153   0.43219084   -107.87934    15793.762    4.3909649    4.3909649    4.3909649    15793.762   -12737.787    64909.928   -4790.8542    12519.137   -33989.649    7658.0018    84.660317 
    2600    1808.1478   -109.49145    1.6360502    -107.8554   -19234.413    4.4064152    4.4064152    4.4064152   -19234.413   -28212.826   -22440.776   -7049.6376    -7813.574    19430.359    7725.6087    85.557137 
    2700    1113.0677   -108.86746     1.007127   -107.86034    6751.2247    4.3951396    4.3951396    4.3951396    6751.2247    -34063.12     25550.13    28766.664   -13361.175   -48353.438    7734.1498    84.902021 
    2800    1488.2469   -109.20719    1.3465971   -107.86059    10625.741    4.3913202    4.3913202    4.3913202    10625.741   -17445.543     29193.88    20128.885    280.23991   -122.32154   -3031.9615    84.680869 
    2900    1424.4601   -109.15243    1.2888815   -107.86355   -8297.1923    4.3985596    4.3985596    4.3985596   -8297.1923   -7077.7274   -20068.579    2254.7293    2.5756837    -16469.36    12708.682    85.100371 
    3000    940.47231   -108.71849   0.85095911   -107.86753   -7522.0992    4.4023482    4.4023482    4.4023482   -7522.0992   -55168.819    25160.163    7442.3589   -11817.289   -43808.424   -8166.8509    85.320455 
    3100    1535.9995   -109.23782    1.3898047   -107.84801    10807.186    4.3991574    4.3991574    4.3991574    10807.186   -10097.963    27955.976    14563.546   -6768.5736    11070.777   -8068.6924    85.135072 
    3200    953.53633   -108.72005   0.86277971   -107.85727   -15329.015    4.4073134    4.4073134    4.4073134   -15329.015   -53965.423    64442.956   -56464.577    826.63304   -53690.803   -2065.1896    85.609471 
    3300    1750.8248   -109.42244    1.5841831   -107.83826    11216.681    4.3954699    4.3954699    4.3954699    11216.681   -36175.026    57432.553    12392.517      7543.33    12356.706    5431.1124    84.921163 
    3400    1294.5161   -109.01489    1.1713053   -107.84358    14876.718    4.3977776    4.3977776    4.3977776    14876.718   -22185.968    86773.981    -19957.86    14662.398   -19736.688   -8636.2597    85.054987 
    3500    1380.1564   -109.08565    1.2487945   -107.83685   -8471.3071    4.4098864    4.4098864    4.4098864   -8471.3071   -30142.835    46313.999   -41585.086     7238.427    -20382.28    17224.461    85.759491 
    3600    1315.6117   -109.02596    1.1903931   -107.83557    19625.151     4.386159     4.386159     4.386159    19625.151   -6043.6881    31587.582    33331.559    11634.003    2874.2477    1294.3657    84.382644 
    3700    1077.3081   -108.82821   0.97477105   -107.85344    23758.323    4.3754831    4.3754831    4.3754831    23758.323   -41827.094    80518.006    32584.056     5743.983   -32497.159    7316.0541     83.76798 
    3800    1756.0133   -109.44283    1.5888777   -107.85395    6582.1113     4.403126     4.403126     4.403126    6582.1113   -7217.0671    23356.964    3606.4365     7946.208    12842.423    10787.979    85.365686 
    3900    1209.2227   -108.94219    1.0941301   -107.84806    11134.094    4.4036771    4.4036771    4.4036771    11134.094   -3822.0541    9325.2866    27899.049    7762.1405   -29489.907   -13696.063    85.397745 
    4000    1276.9998   -108.99691    1.1554563   -107.84146    20934.004    4.3896427    4.3896427    4.3896427    20934.004   -2778.6787    12476.814    53103.878   -766.16756   -17326.366    15691.156    84.583865 
    4100    1562.7585   -109.25858    1.4140167   -107.84456   -1263.7054    4.3865323    4.3865323    4.3865323   -1263.7054   -17190.085    22504.863    -9105.894    -5224.649   -7596.8614    2334.3283    84.404187 
    4200    1192.6708   -108.93631    1.0791536   -107.85715    18246.333    4.3947647    4.3947647    4.3947647    18246.333   -14971.237    42181.196    27529.041   -6744.0308   -36201.445    2355.5587    84.880294 
    4300    1799.1761   -109.47719    1.6279323   -107.84926   -23982.358    4.4090334    4.4090334    4.4090334   -23982.358   -29819.079   -24053.942   -18074.052   -8222.3947    9150.0754    11100.864    85.709738 
    4400    900.07818   -108.68209   0.81440965   -107.86768   -5194.0014    4.3841559    4.3841559    4.3841559   -5194.0014   -31768.564    51656.034   -35469.474    1348.6732    -42544.31   -4911.2894    84.267083 
    4500    1676.2856   -109.37906    1.5167385   -107.86232    24210.684    4.3689046    4.3689046    4.3689046    24210.684    1744.4747    55642.205    15245.372   -12702.881   -21477.956   -8489.0123    83.390715 
    4600    2164.2952   -109.82744    1.9582998   -107.86914   -3474.5722    4.3939286    4.3939286    4.3939286   -3474.5722   -12693.235    16638.431   -14368.913   -6550.4678    2719.5208    18890.566    84.831858 
    4700    689.73361   -108.50991   0.62408547   -107.88582   -10943.132     4.399049     4.399049     4.399049   -10943.132   -28067.723    40397.828   -45159.502   -4503.0403   -54949.045    265.96044    85.128775 
    4800    1596.9971   -109.30568    1.4449965   -107.86068    7736.6235    4.3874926    4.3874926    4.3874926    7736.6235    4021.3173    6516.5073    12672.046    1388.7813    13840.301   -15716.905    84.459632 
    4900    1641.8038   -109.34339    1.4855386   -107.85785    1110.2894    4.3894515    4.3894515    4.3894515    1110.2894   -10510.718    23269.293   -9427.7068    1404.4406   -15791.008    19987.067    84.572812 
    5000    857.43565   -108.64529   0.77582579   -107.86946   -13837.505    4.3958331    4.3958331    4.3958331   -13837.505    -28935.18    16637.735   -29215.071   -7553.1614   -39343.567   -6409.7414    84.942216 
    5100    1487.7134   -109.20581    1.3461143    -107.8597    118.73173    4.3884098    4.3884098    4.3884098    118.73173   -4966.8707   -22420.515    27743.581    23506.901    18684.042    2065.6425    84.512614 
    5200    1240.7327   -108.98408     1.122641   -107.86144    21802.092    4.3828531    4.3828531    4.3828531    21802.092    2595.9188    57041.983    5768.3725   -8152.0776    -27884.27    597.78459    84.191982 
    5300    1421.1055   -109.15437    1.2858461   -107.86852   -14794.195    4.3984455    4.3984455    4.3984455   -14794.195   -19279.596   -32306.572    7203.5825    4220.6524   -4567.8465   -1951.1586    85.093747 
    5400    1032.5035   -108.79796   0.93423091   -107.86373   -3034.0238    4.3999178    4.3999178    4.3999178   -3034.0238   -35102.239   -24935.679    50935.847    25336.501    7655.2945    6611.1973    85.179223 
    5500     1327.953   -109.05581    1.2015598   -107.85425     10828.22    4.3840903    4.3840903    4.3840903     10828.22   -20486.264    47447.899    5523.0237   -6484.2495   -40040.072   -6088.4397    84.263303 
    5600    1551.6129   -109.25853    1.4039319    -107.8546    8298.9172    4.3870146    4.3870146    4.3870146    8298.9172    -11460.98   -25540.399     61898.13    10410.017    13375.883    2852.0245    84.432029 
    5700    935.13905   -108.71596   0.84613346   -107.86982   -1995.0681    4.3949775    4.3949775    4.3949775   -1995.0681   -3333.5275   -44627.943    41976.266     6633.954   -14001.894   -12340.344    84.892627 
    5800    1432.2593   -109.16334    1.2959383   -107.86741   -13716.331    4.3964315    4.3964315    4.3964315   -13716.331   -44721.573    4343.6312   -771.05043   -7027.1173   -35312.288    10141.407    84.976909 
    5900    1546.6031   -109.26284     1.399399   -107.86344     12276.33    4.3862778    4.3862778    4.3862778     12276.33   -12759.386   -4089.6921    53678.069    15366.591    19717.111    11409.874    84.389497 
    6000    1053.0943   -108.83133   0.95286188   -107.87846   -10015.562     4.384975     4.384975     4.384975   -10015.562   -19290.719   -511.82334   -10244.143    -11636.23   -41963.797   -14829.761    84.314326 
    6100    1605.7492   -109.32351    1.4529157   -107.87059   -25912.528    4.3936912    4.3936912    4.3936912   -25912.528   -50672.171   -4613.4377   -22451.976   -3330.6005   -18627.108    14856.479    84.818109 
    6200     1800.127   -109.48261    1.6287927   -107.85382   -4124.0447    4.3907645    4.3907645    4.3907645   -4124.0447    16938.278   -26853.156    -2457.256    20061.274    13317.613   -2489.6799    84.648729 
    6300     987.7833   -108.76993   0.89376709   -107.87616   -34366.732    4.3870472    4.3870472    4.3870472   -34366.732   -40099.586    -12696.45    -50304.16   -21058.446   -62038.389   -4960.8528    84.433916 
    6400    1711.9099   -109.41926    1.5489721   -107.87029     6471.133    4.3791427    4.3791427    4.3791427     6471.133    2232.2773    -2767.893    19949.015   -4469.1502    7528.5167   -4057.0862    83.978343 
    6500    1614.2435   -109.33908    1.4606014   -107.87847   -24299.152    4.4067841    4.4067841    4.4067841   -24299.152   -17296.603   -9676.1849   -45924.667    1931.8348   -30279.646   -4518.5505    85.578628 
    6600    683.49468   -108.47659   0.61844035   -107.85814   -32662.587    4.4148342    4.4148342    4.4148342   -32662.587   -49620.865    12496.903     -60863.8   -15696.261   -42326.364    14414.513    86.048476 
    6700    2139.9795   -109.75238    1.9362984   -107.81608    14878.008    4.3785591    4.3785591    4.3785591    14878.008     14141.62     13420.32    17072.084   -4835.8617    21665.915   -6170.3857    83.944768 
    6800    562.31843   -108.36409   0.50879753   -107.85529    11111.002    4.3755114    4.3755114    4.3755114    11111.002    13530.179    62378.694   -42575.868     329.9542   -55683.243   -6851.9978    83.769606 
    6900    1546.9115   -109.27256     1.399678   -107.87288    -25967.63    4.3922274    4.3922274    4.3922274    -25967.63   -20005.287   -26170.505   -31727.098   -25909.396   -9173.8389   -3960.5708    84.733364 
    7000    1629.2637   -109.34039    1.4741921    -107.8662    5974.5665    4.4046548    4.4046548    4.4046548    5974.5665    -4303.269    39754.119    -17527.15    16199.488   -8211.2082    380.25164    85.454634 
    7100     1037.208   -108.79353   0.93848762   -107.85505   -25659.145     4.409949     4.409949     4.409949   -25659.145   -10989.925   -6395.1195   -59592.391   -4106.4099   -37141.596    -3891.616    85.763145 
    7200    1940.0736    -109.5947    1.7554194   -107.83928    8855.7632    4.3706708    4.3706708    4.3706708    8855.7632    7214.5242   -10091.235        29444   -23496.446    14171.196   -12.152383    83.491891 
    7300    992.26188   -108.75945    0.8978194   -107.86163    20991.672    4.3612743    4.3612743    4.3612743    20991.672   -18485.349     63590.49    17869.877    16055.364   -23629.391   -3555.6485    82.954551 
    7400    1389.3844   -109.13366    1.2571442   -107.87652   -48306.129    4.4027129    4.4027129    4.4027129   -48306.129   -61445.846   -23322.846   -60149.696    -5003.371   -28230.687   -21693.197     85.34166 
    7500    1856.1262   -109.53342     1.679462   -107.85396   -4815.6136    4.3970398    4.3970398    4.3970398   -4815.6136    -3572.956   -17415.074    6541.1888   -972.05678    8061.1565     22.09941    85.012189 
    7600     870.1226   -108.64556   0.78730522   -107.85826    3906.7892    4.3790666    4.3790666    4.3790666    3906.7892   -6889.3983    31315.587   -12705.821     15183.95   -29161.661   -7795.6454    83.973964 
    7700    1793.8483    -109.4805    1.6231117   -107.85739   -276.63521    4.3882933    4.3882933    4.3882933   -276.63521    -18044.13    5768.9938    11445.231   -3488.8494    3729.2363   -23783.463    84.505883 
    7800    1537.6672    -109.2498    1.3913136   -107.85848    31904.657     4.390077     4.390077     4.390077    31904.657    43193.971    29959.449     22560.55   -581.78737    -11992.45    5823.5841    84.608969 
    7900    988.56431   -108.76768   0.89447376   -107.87321   -14794.038    4.3957285    4.3957285    4.3957285   -14794.038   -39767.717   -1097.2823   -3517.1137    23623.715   -19778.194   -14059.277    84.936149 
    8000     1480.352   -109.20186    1.3394536   -107.86241     18133.21    4.3838614    4.3838614    4.3838614     18133.21    25954.243   -8905.2804    37350.666   -442.18698    16064.666   -21197.826    84.250104 
    8100    1454.4865    -109.1834      1.31605   -107.86735    15410.192    4.3776442    4.3776442    4.3776442    15410.192   -20007.766    39382.105    26856.239   -7583.0249   -26483.351     8589.495    83.892161 
    8200    1086.9065   -108.86112   0.98345583   -107.87767   -3619.6944    4.3984115    4.3984115    4.3984115   -3619.6944   -7906.0419   -6480.0272     3526.986    28668.513   -4696.7859   -18893.799    85.091773 
    8300    1655.8781   -109.35968    1.4982733    -107.8614   -191.87314    4.3942793    4.3942793    4.3942793   -191.87314   -4479.0962   -9910.8444    13814.321   -26460.747   -2136.2979   -4735.7587    84.852175 
    8400    1291.3616   -109.02764    1.1684511   -107.85919    20301.944    4.3830926    4.3830926    4.3830926    20301.944   -7111.7064    28350.142    39667.395   -4919.3801   -24954.526    1948.7085    84.205786 
    8500     1247.986   -108.99188     1.129204   -107.86268   -4579.4049    4.3946297    4.3946297    4.3946297   -4579.4049   -13697.479    -8995.663    8954.9278    10661.966    15102.579   -22388.912    84.872475 
    8600    1365.3897   -109.09237    1.2354333   -107.85694   -5467.0331    4.3960296    4.3960296    4.3960296   -5467.0331   -13679.226   -6359.3389    3637.4651   -33355.354   -12602.204    1948.4385    84.953607 
    8700    1296.2665   -109.02722    1.1728891   -107.85434     21730.16    4.3907235    4.3907235    4.3907235     21730.16    4590.4288    41963.356    18636.694    7844.6678   -21254.367   -1734.8361    84.646357 
    8800    1237.5523   -108.97944    1.1197633   -107.85967   -910.32036    4.3979067    4.3979067    4.3979067   -910.32036    6674.7359    -27841.85    18436.153   -18197.773    10715.828   -948.92189     85.06248 
    8900    1477.2244   -109.19606    1.3366237   -107.85943   -6549.3853    4.4008271    4.4008271    4.4008271   -6549.3853    9521.1322   -19921.717   -9247.5716   -33989.436   -8869.7854    4705.2046    85.232049 
    9000    1464.8116   -109.17793    1.3253924   -107.85254    28629.268    4.3847796    4.3847796    4.3847796    28629.268    37765.654    11452.067    36670.084    8162.5109   -2721.9207   -5143.1242    84.303054 
    9100    830.61993   -108.62002   0.75156237   -107.86846   -7630.9263    4.3992392    4.3992392    4.3992392   -7630.9263   -19079.562   -17417.903    13604.686   -35621.108    12924.329     4095.849    85.139822 
    9200     1764.564   -109.43407    1.5966146   -107.83746   -216.96037    4.4072002    4.4072002    4.4072002   -216.96037   -4491.4746    16559.829   -12719.236    -2594.159   -1485.8101    8022.7506    85.602875 
    9300    1282.8401   -109.00494    1.1607406    -107.8442    5454.8854    4.3882162    4.3882162    4.3882162    5454.8854    7526.4899   -18728.514     27566.68   -21155.157    9119.2204   -8500.5181    84.501426 
    9400    1082.2978   -108.84287   0.97928583   -107.86358    10863.093    4.3859876    4.3859876    4.3859876    10863.093    7007.7654   -9272.1967     34853.71   -22251.271    14080.208   -6793.0665    84.372751 
    9500    1817.3228   -109.49311    1.6443518   -107.84876    25074.288    4.3904204    4.3904204    4.3904204    25074.288    52800.462    1721.8114    20700.589    11966.602    6886.7955    6091.3367    84.628828 
    9600    1031.2255   -108.80045   0.93307451   -107.86737   -28477.412    4.4054422    4.4054422    4.4054422   -28477.412   -32090.407   -58680.433    5338.6054   -45532.865    7775.1543   -10796.031    85.500474 
    9700    1515.8917    -109.2204    1.3716106   -107.84879    12457.135     4.392582     4.392582     4.392582    12457.135    123.25427    5294.1608    31953.991   -934.18217    92.229912   -3374.0403    84.753889 
    9800    1312.8825   -109.03288    1.1879237   -107.84496    21982.901    4.3703048    4.3703048    4.3703048    21982.901    56238.975    1924.8475    7784.8812   -17059.443   -3843.4641    12411.763    83.470915 
    9900    1177.4869   -108.93342    1.0654149   -107.86801   -20571.407    4.3948427    4.3948427    4.3948427   -20571.407    -24050.51   -20744.234   -16919.475   -40232.186    3304.7955   -16958.039    84.884812 
   10000    2154.4286   -109.79099    1.9493723   -107.84162   -2838.0937    4.3977881    4.3977881    4.3977881   -2838.0937   -12394.718   -2218.5758    6099.0132    18212.856     3711.886    5311.0982    85.055597 
   10100    1018.1861   -108.77664   0.92127615   -107.85537    7979.1444     4.385679     4.385679     4.385679    7979.1444    -8840.383    22075.815    10702.002   -39569.101   -7442.5812    345.44477     84.35494 
   10200    1382.2888   -109.10491     1.250724   -107.85419    -5888.984    4.3879791    4.3879791    4.3879791    -5888.984   -4479.4282    4786.9403   -17974.464   -3779.0876   -1642.3291   -17408.858    84.487731 
   10300    1596.7791   -109.29586    1.4447993   -107.85106    5100.7241    4.3819085    4.3819085    4.3819085    5100.7241   -41988.989    9931.0619      47360.1   -4610.1495   -5576.1829    -759.8541    84.137562 
   10400    1185.9332   -108.93689    1.0730573   -107.86383   -18581.741    4.3969762    4.3969762    4.3969762   -18581.741    -42740.74    1264.0907   -14268.574   -38494.199    1790.9612    8209.5886    85.008499 
   10500    2125.5146   -109.76576    1.9232102   -107.84255   -14757.824    4.3984467    4.3984467    4.3984467   -14757.824    16.486489   -9943.0684    -34346.89    18376.413    9323.4832   -5391.2388    85.093819 
   10600    1009.9399   -108.76986    0.9138148   -107.85605    6277.1454    4.3786052    4.3786052    4.3786052    6277.1454    -26486.41   -21439.554    66757.401    -45572.02   -6823.5088   -2074.7215    83.947422 
   10700     1573.636   -109.28616    1.4238589    -107.8623   -13989.784    4.3859184    4.3859184    4.3859184   -13989.784   -19204.799   -12305.149   -10459.403    6437.3341   -9092.2113    20697.424    84.368757 
   10800    1366.3247     -109.102    1.2362793   -107.86572   -4826.4612     4.392195     4.392195     4.392195   -4826.4612    -21194.43    664.73401    6050.3125    -20210.77   -455.54453    -18460.93    84.731488 
   10900    1022.2527   -108.79416   0.92495576    -107.8692    -2146.059    4.3925736    4.3925736    4.3925736    -2146.059   -39291.414    -23527.47    56380.706   -31327.784    13747.499    6409.6398    84.753401 
   11000    1727.7846   -109.41038    1.5633358   -107.84705   -9997.6383    4.4030879    4.4030879    4.4030879   -9997.6383   -16659.549   -7497.1616   -5836.2042    21566.862   -14316.015    10158.675    85.363473 
   11100    1197.2204   -108.93414    1.0832702   -107.85087   -13629.359    4.3928717    4.3928717    4.3928717   -13629.359   -31278.795   -18608.524    8999.2429   -57657.702    10138.998   -8980.1627    84.770658 
   11200    1730.7156   -109.40906    1.5659879   -107.84307   -1132.6289    4.3756356    4.3756356    4.3756356   -1132.6289    9525.5003   -22843.843    9920.4556    14010.858    5129.0277    871.12703    83.776737 
   11300     1385.426   -109.12156    1.2535625   -107.86799   -21755.891    4.3882735    4.3882735    4.3882735   -21755.891   -34550.434   -34558.103    3840.8627    7609.6069    6794.2778    16592.565     84.50474 
   11400    1459.9151   -109.18244    1.3209619   -107.86147   -26158.625     4.399278     4.399278     4.399278   -26158.625   -34608.717   -31307.083   -12560.076   -44129.958    3917.3638   -11.525035    85.142072 
   11500    1506.6748   -109.21505     1.363271   -107.85178   -25999.512     4.401013     4.401013     4.401013   -25999.512    10817.551   -46593.105   -42222.981    26714.851    4511.3101    5702.4404    85.242846 
   11600    1286.0825   -109.01108    1.1636745    -107.8474   -32995.854    4.3920629    4.3920629    4.3920629   -32995.854   -47464.963   -46073.963   -5448.6367   -30378.964    4182.5383     7801.852    84.723843 
   11700    1651.1463   -109.33559    1.4939919    -107.8416   -3910.6376    4.3822943    4.3822943    4.3822943   -3910.6376    12627.271   -8638.5653   -15720.619   -6217.1307    11993.409   -961.20476    84.159786 
   11800    1127.0161   -108.88258    1.0197478   -107.86283   -6313.3527    4.3872568    4.3872568    4.3872568   -6313.3527    29364.679   -27372.363   -20932.375    13972.315    4239.3073    9529.7216    84.446016 
   11900    1823.6507   -109.50884    1.6500775   -107.85877   -22664.055    4.4093102    4.4093102    4.4093102   -22664.055   -37675.344    -3607.133   -26709.689   -29784.779    596.35722    3426.6625    85.725883 
   12000    1560.1983   -109.26546    1.4117002   -107.85376   -12793.419    4.3968857    4.3968857    4.3968857   -12793.419    7485.2884    8458.0981   -54323.644    6698.9752    4176.9396    21442.251    85.003247 
   12100    883.52352   -108.65089   0.79943065   -107.85146    35513.889    4.3677543    4.3677543    4.3677543    35513.889    38180.776    61361.634    6999.2561    7532.3789   -4355.2258    10300.724    83.324864 
   12200    2004.8844   -109.67365    1.8140616   -107.85959   -6886.7268    4.3952713    4.3952713    4.3952713   -6886.7268    -9706.707    19188.453   -30141.926   -14881.127   -731.93188    1404.8426    84.909654 
   12300    836.15428   -108.62235   0.75656997   -107.86578   -19873.959     4.403367     4.403367     4.403367   -19873.959    18888.885     11576.19   -90086.952   -5481.0595    8069.3495    7957.4742    85.379707 
   12400    1755.1225   -109.43243    1.5880717   -107.84435    17082.585    4.3836884    4.3836884    4.3836884    17082.585    57258.177    18658.044   -24668.467    10961.279   -5037.9676   -3911.5941    84.240131 
   12500    1766.7376   -109.45016    1.5985813   -107.85158   -1608.5509    4.3854736    4.3854736    4.3854736   -1608.5509   -2859.5406    23276.188   -25242.299    -31395.54    3343.8075    6738.4307     84.34309 
   12600    884.99043    -108.6707   0.80075794   -107.86994    3988.2348    4.3783119    4.3783119    4.3783119    3988.2348    14453.023    49761.644   -52249.962    8683.2323    14044.905    10618.269    83.930553 
   12700    1821.7538   -109.51204    1.6483612   -107.86367   -165.89744     4.394965     4.394965     4.394965   -165.89744   -10228.981    15655.501   -5924.2125    -2479.724    631.82231   -12898.907    84.891901 
   12800    876.54107   -108.65265   0.79311278   -107.85954   -15577.887    4.4011446    4.4011446    4.4011446   -15577.887   -15032.183   -5469.4511   -26232.028   -44430.043   -6758.8188    10901.662    85.250493 
   12900    1146.4569   -108.88407    1.0373383   -107.84673    23711.659    4.3767377    4.3767377    4.3767377    23711.659    69804.273    47984.099   -46653.394    13262.387   -1958.7958    1350.3516    83.840058 
   13000    1922.4703   -109.58854    1.7394915   -107.84905   -4572.7935    4.3855736    4.3855736    4.3855736   -4572.7935    869.24191    1512.7885   -16100.411   -20716.612   -3.7180712      842.931    84.348856 
   13100    738.37738   -108.53203   0.66809937   -107.86393     7101.368    4.4004987    4.4004987    4.4004987     7101.368    39342.419    8555.1756    -26593.49    -21291.41   -1545.8377    8990.9981    85.212965 
   13200    1874.5574   -109.53259    1.6961389   -107.83645   -4172.7665    4.4033534    4.4033534    4.4033534   -4172.7665    19366.721    19253.757   -51138.777    549.53426   -7587.4394   -11178.882    85.378913 
   13300    1185.6234   -108.91842     1.072777   -107.84564   -23641.635    4.3916015    4.3916015    4.3916015   -23641.635   -33808.151   -3966.0583   -33150.696   -17493.751    -10148.62    9325.6065    84.697143 
   13400    1377.3933   -109.09146    1.2462944   -107.84516    873.79017    4.3693966    4.3693966    4.3693966    873.79017    37354.997   -19421.975   -15311.651   -26410.034    12762.093    15647.712     83.41889 
   13500    1387.9631   -109.12227    1.2558582   -107.86641    6335.4843    4.3809165    4.3809165    4.3809165    6335.4843   -4838.2687    32685.564    -8840.842    14632.539   -1111.3869   -333.36831    84.080429 
   13600     1089.113   -108.85177   0.98545235   -107.86631   -43376.166    4.4088108    4.4088108    4.4088108   -43376.166   -36961.914   -49568.742   -43597.843    11714.703   -11456.483    16455.799    85.696758 
   13700    1735.0809    -109.4121    1.5699376   -107.84216   -16369.883    4.3926168    4.3926168    4.3926168   -16369.883   -7324.3156    -5826.627   -35958.708   -12926.046    8847.9617    5382.6503    84.755903 
   13800    1262.1064   -108.98224    1.1419804   -107.84026     6622.404    4.3660146    4.3660146    4.3660146     6622.404    1154.1643      3909.15    14803.898    24732.351    5406.3144   -2371.1445    83.225333 
   13900    1813.6566   -109.49782    1.6410346   -107.85678   -1120.3138    4.3763192    4.3763192    4.3763192   -1120.3138    20525.105   -25982.148    2096.1018     5780.737    1701.7718    21305.178    83.816009 
   14000    1529.4135   -109.24869    1.3838455   -107.86484    1652.3381    4.3935824    4.3935824    4.3935824    1652.3381     1216.097    7588.5028   -3847.5853    -12046.96   -4853.1821     3116.518     84.81181 
   14100    1000.0996   -108.77147   0.90491109   -107.86656   -1705.5529    4.4036527    4.4036527    4.4036527   -1705.5529   -5197.8455   -34768.385    34849.571    22656.911    5388.8082   -14460.982    85.396322 
   14200    1896.9511   -109.55564    1.7164012   -107.83924     1142.988      4.38969      4.38969      4.38969     1142.988    9234.9653   -4849.8883   -956.11284   -4476.7536    2274.7682    1885.7254    84.586596 
   14300    849.91312   -108.61557   0.76901926   -107.84655    20579.335    4.3639557    4.3639557    4.3639557    20579.335    1928.6771    27962.082    31847.244    -1487.935    5954.9417    3751.1096    83.107652 
   14400    1718.6742   -109.42146    1.5550926   -107.86637    548.76244    4.3850382    4.3850382    4.3850382    548.76244    5622.6467    -25422.38    21446.021    17403.272   -9485.8743   -19786.028    84.317969 
   14500    1624.1447   -109.32686    1.4695602    -107.8573    9185.4428    4.3929752    4.3929752    4.3929752    9185.4428    4440.9194    -22162.66    45278.069   -16885.935   -3932.2746    2441.9647    84.776653 
   14600     1080.527   -108.83831   0.97768357   -107.86062    11812.349    4.3879164    4.3879164    4.3879164    11812.349   -7327.0552   -12632.569     55396.67   -3049.6754    11389.159   -9988.3575     84.48411 
   14700    1976.6889   -109.62777    1.7885497   -107.83922   -9908.9206    4.3931562    4.3931562    4.3931562   -9908.9206   -13724.807   -46225.438    30223.484   -74.512766    -6010.435   -11955.351     84.78713 
   14800    726.68979   -108.51383   0.65752419    -107.8563     13053.03    4.3759855    4.3759855    4.3759855     13053.03   -519.74159   -17609.735    57288.568   -16371.335    14778.208    5980.5235    83.796835 
   14900    1572.9347   -109.29219    1.4232244   -107.86897   -6160.5779    4.3812265    4.3812265    4.3812265   -6160.5779   -14086.619    283.08777   -4678.2024    11351.615   -4727.0672   -11885.565    84.098278 
   15000    1948.6724   -109.63218    1.7631997   -107.86899   -19326.136    4.3895665    4.3895665    4.3895665   -19326.136   -32025.166    -38529.46    12576.217   -29326.736     164.2185   -3808.1023    84.579459 
   15100    1019.3847   -108.80797   0.92236072   -107.88561    5835.1796    4.3786793    4.3786793    4.3786793    5835.1796    12184.636   -10381.069    15701.972   -4046.0288    18276.187    7861.7394    83.951686 
   15200    1518.6788   -109.25987    1.3741325   -107.88573   -3044.4442    4.3885149    4.3885149    4.3885149   -3044.4442   -3700.6393    -24324.17    18891.477      6775.07   -3732.2951    -3554.951    84.518685 
   15300    1747.9218   -109.45523    1.5815564   -107.87368   -12077.706    4.3913158    4.3913158    4.3913158   -12077.706   -16746.612   -38589.472    19102.966   -29192.651   -12279.738     -8546.57    84.680617 
   15400    1521.7349   -109.24441    1.3768977   -107.86752    10124.281     4.376569     4.376569     4.376569    10124.281    22825.677   -13688.078    21235.245    10767.082    7928.3788    1310.9383     83.83036 
   15500    1165.7054   -108.93228    1.0547547   -107.87752   -13447.328    4.3810539    4.3810539    4.3810539   -13447.328    2461.5013   -44404.603    1601.1195   -2248.9405   -9613.1073   -20374.597    84.088341 
   15600    1522.1133   -109.25154    1.3772401    -107.8743    -1230.321     4.382706     4.382706     4.382706    -1230.321    15150.089   -37342.467    18501.415   -22929.699   -11479.795    3746.5864    84.183506 
   15700    1453.3247   -109.18888    1.3149988   -107.87388    1856.0433    4.3888132    4.3888132    4.3888132    1856.0433   -1087.5143   -25876.598    32532.243    24028.364    1089.7316   -5983.1537    84.535922 
   15800    1014.6042   -108.79204   0.91803521     -107.874     -24579.8    4.3952786    4.3952786    4.3952786     -24579.8    23221.649   -48292.751   -48668.298   -10267.339   -10101.197   -21739.139    84.910074 
   15900    1619.2164   -109.32147     1.465101   -107.85636   -1937.3495    4.3801193    4.3801193    4.3801193   -1937.3495   -10416.009   -6918.4349    11522.396    540.15425    -21557.62    8866.6225    84.034536 
   16000    1603.2139   -109.31209    1.4506216   -107.86147    8.2959318    4.3730289    4.3730289    4.3730289    8.2959318    8861.8242   -42936.565    34099.629    32883.569   -6057.5341    -17488.64    83.627102 
   16100    1593.1815   -109.31381    1.4415441   -107.87226   -4613.5115    4.3862695    4.3862695    4.3862695   -4613.5115    15400.477   -33559.218    4318.2063   -12919.806      1738.84   -11568.465     84.38902 
   16200    1279.7626   -109.03281    1.1579561   -107.87485   -20287.295    4.3906636    4.3906636    4.3906636   -20287.295   -58148.853    -14090.78    11377.747    25624.551   -21169.838    5120.9486    84.642889 
   16300    1420.8781   -109.15336    1.2856403   -107.86772    853.37655    4.3783602    4.3783602    4.3783602    853.37655   -3652.7619   -34341.066    40553.957     22528.92   -6948.0123   -13806.115    83.933334 
   16400    1207.1998   -108.95941    1.0922998   -107.86711    10809.215    4.3800664    4.3800664    4.3800664    10809.215    854.87747    3444.1612    28128.607   -22229.385    803.79576    4561.3879    84.031492 
   16500    1051.3746   -108.82505   0.95130579   -107.87374   -27553.543    4.3898551    4.3898551    4.3898551   -27553.543   -62881.385   -13349.251   -6429.9924    41913.318   -20958.542    866.96806    84.596141 
   16600    2193.8115   -109.84349    1.9850068   -107.85848    3167.0249    4.3797894    4.3797894    4.3797894    3167.0249    -3916.144   -18194.247    31611.465    1890.2429    2573.2426   -12764.739     84.01555 
   16700    1249.2421   -109.00849    1.1303405   -107.87815   -3269.1495     4.378707     4.378707     4.378707   -3269.1495   -22751.145   -15563.491    28507.187   -11065.245   -9253.1015    10190.878    83.953278 
   16800    769.34215   -108.59063   0.69611695   -107.89451    -8787.677    4.3778538    4.3778538    4.3778538    -8787.677   -31044.742   -13139.603    17821.314    40229.139   -6750.7719    6455.4632    83.904209 
   16900    1980.6547   -109.67009     1.792138   -107.87795    625.91505    4.3874897    4.3874897    4.3874897    625.91505   -2096.3109   -30085.139    34059.195    -14436.79    9044.7613    -8008.989    84.459463 
   17000    1269.6664   -109.02979    1.1488209   -107.88097   -16787.348    4.3911688    4.3911688    4.3911688   -16787.348   -47144.531   -39646.307    36428.793    15973.969   -11414.343    3620.1674    84.672113 
   17100    1037.5392   -108.81322   0.93878723   -107.87443    14850.737    4.3757741    4.3757741    4.3757741    14850.737    8824.7467    7005.1194    28722.344     21983.88    2415.7117   -5013.0946    83.784695 
   17200     1721.373   -109.41691    1.5575345   -107.85938   -1123.3729     4.380615     4.380615     4.380615   -1123.3729    6951.6783   -29364.333    19042.536   -6457.3551    11940.831   -9826.2379    84.063075 
   17300    1284.7605   -109.03084    1.1624783   -107.86836   -18003.733    4.3838329    4.3838329    4.3838329   -18003.733   -41583.219   -54972.514    42544.534    37734.127   -16990.884    4987.5348     84.24846 
   17400    1279.4132   -109.02048    1.1576399   -107.86284    17473.719    4.3831425    4.3831425    4.3831425    17473.719    33836.524    6586.4116    11998.221   -2401.8949   -6182.5356   -7167.5613    84.208665 
   17500    1187.3889   -108.94528    1.0743745   -107.87091   -12271.204    4.3854235    4.3854235    4.3854235   -12271.204     4258.198   -57484.965    16413.154    30378.282    9385.9416   -10054.708    84.340201 
   17600    1325.2026   -109.07271    1.1990712   -107.87364    3394.4316    4.3748198    4.3748198    4.3748198    3394.4316    16369.383   -44850.654    38664.566    26148.338   -5655.8797    1600.4648    83.729886 
   17700    1813.2929   -109.51331    1.6407055   -107.87261    5525.3967     4.380204     4.380204     4.380204    5525.3967    35337.975   -14366.841   -4394.9436   -16697.516   -11532.864   -2512.4403    84.039413 
   17800    1332.2558   -109.07795    1.2054531    -107.8725   -13467.413    4.3905976    4.3905976    4.3905976   -13467.413    29917.358   -62967.738   -7351.8589    46099.797    4656.3806    1481.3957    84.639072 
   17900    1055.0334   -108.82616   0.95461639   -107.87155   -3283.0247    4.3800763    4.3800763    4.3800763   -3283.0247    9104.8727   -16447.518   -2506.4284   -2826.5493   -10359.428    2028.3721    84.032066 
   18000    1521.8881   -109.24972    1.3770363   -107.87268    9932.3753    4.3687207    4.3687207    4.3687207    9932.3753    27608.324    6982.1392   -4793.3376   -16204.187    -15721.41   -3720.7174    83.380182 
   18100    1832.0141   -109.53626    1.6576448   -107.87862    13804.617    4.3735584    4.3735584    4.3735584    13804.617    41837.894   -11446.725    11022.683    22270.626    16266.274     1381.596     83.65748 
   18200    1246.5532     -109.019    1.1279075   -107.89109   -7765.0665    4.3865192    4.3865192    4.3865192   -7765.0665    -9750.436   -25337.416    11792.653   -26688.474   -9356.8342    1350.5159    84.403433 
   18300    1308.8002   -109.06661    1.1842299   -107.88238   -489.79884    4.3882452    4.3882452    4.3882452   -489.79884    166.05458    18916.834   -20552.285    3012.2071   -5226.2493    4064.8775    84.503102 
   18400    1637.5823   -109.35018    1.4817189   -107.86846   -5778.7678    4.3832798    4.3832798    4.3832798   -5778.7678    7034.2932   -13449.476   -10921.121   -7030.2215    25900.854    7026.5172    84.216574 
   18500    1384.0165   -109.12078    1.2522873   -107.86849    8975.9699    4.3691172    4.3691172    4.3691172    8975.9699    25366.603   -13623.035    15184.342   -28037.841   -13145.677   -797.64309    83.402885 
   18600    746.29445   -108.56492    0.6752629   -107.88965    9041.6944    4.3756511    4.3756511    4.3756511    9041.6944    27805.554    46239.695   -46920.166    21110.899    13798.966   -5067.1205    83.777628 
   18700    1559.3759   -109.28853     1.410956   -107.87757   -24313.897    4.3998004    4.3998004    4.3998004   -24313.897   -13376.075   -21327.464    -38238.15   -4071.9144    15543.584    1105.4476    85.172406 
   18800    1963.2677   -109.64425    1.7764058   -107.86784    10321.644    4.3795766    4.3795766    4.3795766    10321.644     36025.67   -21745.628     16684.89   -18764.307   -8434.5178    2216.0387    84.003309 
   18900    896.49656   -108.69354   0.81116893   -107.88237    3700.1985    4.3635387    4.3635387    4.3635387    3700.1985   -3673.8748    35764.119   -20989.649    15367.158    23847.898    3050.8207    83.083829 
   19000    1472.0693   -109.22539    1.3319593   -107.89343   -12969.101    4.3807311    4.3807311    4.3807311   -12969.101    -12236.74   -15413.033    -11257.53    13940.604   -13323.732    4874.5394    84.069758 
   19100    1654.7324   -109.37743    1.4972367    -107.8802    5428.7043      4.38787      4.38787      4.38787    5428.7043    36145.439    2995.3239    -22854.65   -1677.8999    9848.4273   -2164.4727    84.481432 
   19200    784.22101   -108.58919   0.70957965   -107.87961   -5369.9679    4.3923589    4.3923589    4.3923589   -5369.9679    5617.6125    36691.675   -58419.191    7027.1271     5784.358    2478.8106    84.740977 
   19300    1462.4083   -109.17813    1.3232178   -107.85491    7758.5039    4.3904579    4.3904579    4.3904579    7758.5039    30361.447   -10702.193    3616.2576    9347.6309   -16776.011    9745.9416    84.630996 
   19400    1562.6676   -109.26459    1.4139344   -107.85066    27462.665    4.3744347    4.3744347    4.3744347    27462.665    53418.686    14560.545    14408.765   -10506.763    9400.7865    8357.6492    83.707777 
   19500    1286.1007   -109.03156    1.1636909   -107.86786    23946.067    4.3776358    4.3776358    4.3776358    23946.067    33947.187    47229.303   -9338.2888    8220.8063   -21016.193    6143.1641     83.89168 
   19600    1630.1928   -109.33699    1.4750327   -107.86196   -3945.3717    4.3931347    4.3931347    4.3931347   -3945.3717    5058.4502   -35744.824    18850.259   -11681.496   -3526.1636    -4586.305    84.785888 
   19700    1340.4895   -109.07203    1.2129031   -107.85913   -15596.547    4.3886678    4.3886678    4.3886678   -15596.547   -1853.5785   -36588.532   -8347.5292   -5882.9982   -4820.9364   -11161.271    84.527517 
   19800    1342.9599     -109.079    1.2151383   -107.86387   -10668.016    4.3780666    4.3780666    4.3780666   -10668.016   -2951.5943    23011.429   -52063.882    11287.802   -23304.359   -15.009458    83.916448 
   19900    1766.7851   -109.46602    1.5986243   -107.86739   -9031.2662    4.3808933    4.3808933    4.3808933   -9031.2662    16093.499   -37994.509   -5192.7888   -21654.292   -1060.5039   -3163.0222    84.079096 
   20000    1372.2359    -109.1178    1.2416278   -107.87617   -6675.2781    4.3840102    4.3840102    4.3840102   -6675.2781    11805.762   -14915.463   -16916.134    -1735.414   -7399.8416   -14155.747    84.258683 
   20100    1403.7235   -109.14209    1.2701185   -107.87197    489.62997    4.3897383    4.3897383    4.3897383    489.62997    25102.883    11588.082   -35222.075     11256.76   -19730.701     -8030.94    84.589392 
   20200    1865.9047   -109.54318    1.6883098   -107.85487   -16076.085    4.3939186    4.3939186    4.3939186   -16076.085   -8099.0318   -43042.985     2913.763   -4110.9228    558.44229    -10603.03    84.831278 
   20300    1051.7363   -108.81227   0.95163309   -107.86063    12962.931    4.3743463    4.3743463    4.3743463    12962.931    30737.457    12711.167   -4559.8304    3045.0321   -9574.9019   -11722.155    83.702705 
   20400    1373.6017   -109.11283    1.2428637   -107.86997    3479.9227    4.3766316    4.3766316    4.3766316    3479.9227     15682.04    10418.733   -15661.005    19400.799   -10465.109    2599.3251    83.833957 
   20500    1868.5963   -109.55934    1.6907452    -107.8686   -6701.4296    4.3866914    4.3866914    4.3866914   -6701.4296    24790.903   -42540.505   -2354.6874    9678.8904    10316.998   -26113.817    84.413373 
   20600    1154.9104   -108.92448    1.0449872   -107.87949     14595.13    4.3818993    4.3818993    4.3818993     14595.13    19572.524     28202.69   -3989.8242   -1328.2759   -22222.934   -13373.895    84.137029 
   20700    1560.7898   -109.27752    1.4122354   -107.86528    10673.209    4.3859531    4.3859531    4.3859531    10673.209     4791.726    427.06608    26800.834    6880.3603    -8939.146    179.54819    84.370758 
   20800    1316.4628   -109.05517    1.1911632   -107.86401   -434.16838    4.3849813    4.3849813    4.3849813   -434.16838    13953.209   -43724.501    28468.788   -3250.2127     12605.08    -34140.93    84.314686 
   20900    1335.7185   -109.07485    1.2085862   -107.86626    4344.5536    4.3732558    4.3732558    4.3732558    4344.5536   -7260.2319    28105.748   -7811.8553    4579.8613   -34527.061    3791.2894     83.64012 
   21000    1429.8419   -109.16047     1.293751   -107.86672    16820.013     4.375807     4.375807     4.375807    16820.013    18049.518   -6795.0121    39205.533    3586.6684    10287.083   -14266.028     83.78658 
   21100    1088.2583   -108.85783   0.98467895   -107.87315   -26988.706    4.3929128    4.3929128    4.3929128   -26988.706    7789.0632   -45715.095   -43040.087   -18397.156   -15097.452   -29946.216    84.773037 
   21200    1403.2658   -109.13261    1.2697044   -107.86291   -6794.4176    4.3838078    4.3838078    4.3838078   -6794.4176    5205.9907    11652.952   -37242.196    5570.5297   -40608.359    19024.853    84.247014 
   21300    1495.7232   -109.21012    1.3533618   -107.85676    19778.862    4.3753065    4.3753065    4.3753065    19778.862    31102.063   -4663.3252     32897.85   -5190.6075    26597.272   -24650.616    83.757835 
   21400    1400.5028   -109.13495    1.2672043   -107.86774   -21035.616    4.3840876    4.3840876    4.3840876   -21035.616   -18738.996   -30104.083   -14263.768   -17509.086   -24241.045   -12706.623    84.263143 
   21500    1337.1397   -109.07966    1.2098721   -107.86979    15687.763    4.3782426    4.3782426    4.3782426    15687.763     30548.53     28789.23   -12274.471    8586.0314    -19519.87    11839.359    83.926568 
   21600     1592.927   -109.30456    1.4413138   -107.86324    2436.7706    4.3904632    4.3904632    4.3904632    2436.7706    8327.4207    -445.7191   -571.38977   -12823.341    25075.956   -26797.036    84.631305 
   21700    951.53122   -108.71869   0.86096544   -107.85773   -12403.519    4.3944556    4.3944556    4.3944556   -12403.519    6060.5263    -2366.999   -40904.085   -3318.2026    -38517.29    20313.047    84.862385 
   21800    1190.6824   -108.92691    1.0773544   -107.84956    20887.947    4.3835994    4.3835994    4.3835994    20887.947    42772.081    35390.696   -15498.935    1612.5516    9178.8339   -3178.1542    84.235002 
   21900    1668.5165    -109.3564    1.5097088   -107.84669    14925.708    4.3850867    4.3850867    4.3850867    14925.708    43534.671   -4099.4664     5341.918   -11346.333    3364.6486   -14854.384    84.320767 
   22000    833.76687   -108.62897   0.75440979   -107.87456   -8334.6374     4.383847     4.383847     4.383847   -8334.6374   -4292.7101    8931.4178    -29642.62   -14516.164   -37025.897    30149.218    84.249271 
   22100    1991.0863   -109.66519    1.8015767   -107.86362     11265.47    4.3872109    4.3872109    4.3872109     11265.47    15357.573    10860.915    7577.9219   -11637.956    21613.252   -5170.0526    84.443368 
   22200    1290.6911   -109.03511    1.1678444   -107.86726   -11365.097    4.3992821    4.3992821    4.3992821   -11365.097   -24908.763   -1074.8696   -8111.6578   -3184.0853   -25402.741    9513.0749    85.142313 
   22300    1009.6125   -108.77013   0.91351864   -107.85661   -19836.005    4.3957869    4.3957869    4.3957869   -19836.005   -37085.661   -3660.1368   -18762.217   -18711.649   -18510.909    14947.861    84.939536 
   22400    2077.5032   -109.71656    1.8797685   -107.83679    14059.481    4.3774941    4.3774941    4.3774941    14059.481    9354.3058    27496.833    5327.3036   -2241.5471     4388.234    -8594.592    83.883532 
   22500    716.53346   -108.52075   0.64833453   -107.87241     15081.08    4.3741103    4.3741103    4.3741103     15081.08   -12391.811    75935.233   -18300.182    1042.4421   -47590.875     21447.46    83.689156 
   22600     1881.921   -109.56591    1.7028016    -107.8631    4301.3327     4.396484     4.396484     4.396484    4301.3327    33270.072   -14138.401   -6227.6732   -2986.3373    8945.7576   -2592.3064    84.979953 
   22700    1212.4599   -108.95296    1.0970592   -107.85591   -24576.062    4.4099724    4.4099724    4.4099724   -24576.062   -12084.214   -12092.418   -49551.555    2039.6078   -36795.195   -6723.5481    85.764513 
   22800    1402.7617   -109.12236    1.2692482   -107.85311    8184.8758    4.3788693    4.3788693    4.3788693    8184.8758    36844.843    11956.657   -24246.872    9396.1908   -17815.243    9911.3885    83.962615 
   22900    1968.6123    -109.6216    1.7812418   -107.84036    31915.124    4.3589273    4.3589273    4.3589273    31915.124     64701.79    19463.607    11579.974   -8148.4634    888.54534   -10818.231    82.820694 
   23000    884.48065   -108.68985   0.80029668   -107.88956   -14895.463    4.3860478    4.3860478    4.3860478   -14895.463   -27852.877    20637.875   -37471.388    4767.0718   -58436.585     -4113.85    84.376222 
   23100    1942.0964   -109.61165    1.7572496    -107.8544   -27957.008    4.4093831    4.4093831    4.4093831   -27957.008   -20484.228   -36141.275   -27245.521    6954.2227     8500.017      -2367.5    85.730136 
   23200    1379.7666   -109.09722    1.2484419   -107.84878   -20401.732    4.3947977    4.3947977    4.3947977   -20401.732   -52786.604    19160.226   -27578.819    2857.9696   -36679.732    1127.8149    84.882207 
   23300    1499.8234   -109.19743    1.3570717   -107.84036     1340.866    4.3760145    4.3760145    4.3760145     1340.866   -15815.509    25282.538   -5444.4311    3424.1547   -37294.171   -11380.296    83.798504 
   23400    2001.2779   -109.65459    1.8107983   -107.84379    16718.816    4.3839831    4.3839831    4.3839831    16718.816    20696.841    24604.726    4854.8813    14375.631    7982.5952   -1875.2842     84.25712 
   23500    845.64953   -108.62815   0.76516147   -107.86299   -26467.597    4.4023426    4.4023426    4.4023426   -26467.597   -52270.572    40024.165   -67156.386    6260.2853   -55633.863   -140.26483    85.320131 
   23600    1928.5123   -109.58225    1.7449584   -107.83729   -2992.7045    4.3971728    4.3971728    4.3971728   -2992.7045    23461.537   -26825.171   -5614.4791    1835.9686    4266.6969   -15851.077    85.019902 
   23700    1195.4736   -108.93232    1.0816897   -107.85063   -5973.3119    4.3831536    4.3831536    4.3831536   -5973.3119   -24043.418    30275.364   -24151.882     13995.04   -31937.373    5016.7071    84.209304 
   23800    1139.0312   -108.89406    1.0306193   -107.86344    14654.609    4.3712526    4.3712526    4.3712526    14654.609   -2257.4039    49716.744   -3495.5121   -3099.7232   -32143.166   -12916.582    83.525239 
   23900    2028.2343   -109.69664     1.835189   -107.86145    17355.408    4.3876708    4.3876708    4.3876708    17355.408    17783.068   -21553.895     55837.05   -1930.9635    23149.979     -749.305    84.469924 
   24000      921.496   -108.71312   0.83378895   -107.87933   -19380.937    4.3975169    4.3975169    4.3975169   -19380.937   -30182.414   -2722.3942   -25238.002    11300.871   -55491.114    13942.932     85.03986 
   24100    1531.9425   -109.24638    1.3861338   -107.86025    26445.261      4.37823      4.37823      4.37823    26445.261     34649.26    8301.6942    36384.829     -3971.01    2108.5902   -13869.752    83.925845 
   24200     1439.891   -109.17365    1.3028436   -107.87081    5509.1957    4.3820764    4.3820764    4.3820764    5509.1957      9520.11    3577.9119    3429.5652   -9108.4685   -8073.0945    10646.889    84.147233 
   24300    885.87221   -108.67497    0.8015558   -107.87341   -14325.281    4.3966608    4.3966608    4.3966608   -14325.281   -26262.597    10632.833   -27346.078    7083.3045    -53566.77    17688.823    84.990205 
   24400    2084.8705   -109.73227    1.8864347   -107.84584    1779.7824    4.3938524    4.3938524    4.3938524    1779.7824   -5589.1469    8479.5045    2448.9896   -15527.142    12325.123   -1878.4479    84.827447 
   24500    1092.8226   -108.85138   0.98880886   -107.86257   -23141.021    4.3924476    4.3924476    4.3924476   -23141.021   -50791.932    22706.364   -41337.495   -1814.6992    -49463.74    12481.412    84.746107 
   24600    1434.5829   -109.15819    1.2980408   -107.86015    6156.7277    4.3763098    4.3763098    4.3763098    6156.7277    10998.418    24058.258   -16586.493     12983.39   -24354.641    14803.158    83.815471 
   24700    1764.1243   -109.46034    1.5962167   -107.86413   -397.32977    4.3836689    4.3836689    4.3836689   -397.32977   -6417.2163    -2239.204    7464.4309   -12128.925    206.31619   -5251.2772    84.239004 
   24800      847.116    -108.6472   0.76648836   -107.88071   -10896.861    4.3860342    4.3860342    4.3860342   -10896.861    9174.2437    20587.404   -62452.229   -8293.0677   -54248.847    10562.987    84.375439 
   24900    1539.5643   -109.26851    1.3930301   -107.87548    15584.619    4.3792974    4.3792974    4.3792974    15584.619    25120.357    2956.3042    18677.194    5200.0507     5942.709    10152.668     83.98724 
   25000     1718.858   -109.41785    1.5552588   -107.86259   -5173.2961    4.3896697    4.3896697    4.3896697   -5173.2961   -12010.389    13872.476   -17381.975   -9578.3774   -17083.529    605.71136    84.585425 
   25100    992.02374   -108.76642   0.89760392   -107.86881    -1406.985    4.3813042    4.3813042    4.3813042    -1406.985     1381.344    19700.262   -25302.561   -2126.7194   -50209.179    19975.322    84.102758 
   25200    1657.2891   -109.35999      1.49955   -107.86044    10535.105    4.3816215    4.3816215    4.3816215    10535.105     -4737.28   -714.22717    37056.822    2650.2687    20874.461    11104.958    84.121031 
   25300    1224.9119   -108.97729    1.1083261   -107.86896    2283.9978    4.3824004    4.3824004    4.3824004    2283.9978   -18868.724    34582.527   -8861.8095   -5952.9627   -40197.426   -413.20677    84.165896 
   25400    1032.9414   -108.80761    0.9346271   -107.87298    16959.809    4.3830301    4.3830301    4.3830301    16959.809   -2515.6847    3527.8798    49867.232   -7609.4571   -13996.065    20096.594    84.202182 
   25500     1806.143   -109.49236    1.6342361   -107.85812   -7632.9316    4.3936866    4.3936866    4.3936866   -7632.9316   -9014.8219   -10404.506   -3479.4672    6972.4284    1589.3492     13709.99    84.817842 
   25600     1385.032   -109.11414     1.253206   -107.86093    16222.222    4.3764645    4.3764645    4.3764645    16222.222   -30682.478    60553.752    18795.391   -7336.6843   -42299.178   -9310.8558    83.824355 
   25700    1435.5828   -109.16199    1.2989454   -107.86304    13572.498    4.3833603    4.3833603    4.3833603    13572.498    1311.6228    18059.472    21346.401    -2468.276    11722.487    33967.085    84.221217 
   25800    1346.8294   -109.07858    1.2186396   -107.85994   -22800.154    4.3961974    4.3961974    4.3961974   -22800.154   -52333.004   -1618.6174    -14448.84    966.61281    -22970.37   -6019.3642    84.963338 
   25900    1218.7569   -108.96024    1.1027568   -107.85748    14059.194     4.381298     4.381298     4.381298    14059.194   -18300.467    39013.525    21464.524    4154.6489   -18942.833    3630.7234    84.102396 
   26000    1470.4173   -109.19341    1.3304645   -107.86294   -550.33279    4.3777962    4.3777962    4.3777962   -550.33279    7267.7785   -29445.987     20527.21   -13245.758     10775.21    36989.278      83.9009 
   26100    1430.3691   -109.16326     1.294228   -107.86904    8376.3645    4.3766963    4.3766963    4.3766963    8376.3645   -17290.365    47556.627   -5137.1681   -18007.376   -38775.512    -18080.69    83.837675 
   26200    1679.6852   -109.38598    1.5198145   -107.86617   -5695.0909    4.3917546    4.3917546    4.3917546   -5695.0909    6829.8337   -10221.656   -13693.451    8598.7206    4958.9151    21004.629    84.706006 
   26300    1081.3434   -108.83951   0.97842221   -107.86109   -14753.915    4.3972098    4.3972098    4.3972098   -14753.915   -33293.811   -17400.922    6432.9863   -12953.744   -4465.1952    18177.178    85.022049 
   26400    1778.8832   -109.45022    1.6095709   -107.84065    3249.4114    4.3781719    4.3781719    4.3781719    3249.4114   -17042.405    21656.839       5133.8    7611.5702   -23935.227   -3734.0062    83.922505 
   26500     1016.819   -108.77619   0.92003924   -107.85615    1137.9948    4.3831525    4.3831525    4.3831525    1137.9948   -16424.708   -3957.7458    23796.438   -1983.5716    22389.907    23344.744    84.209239 
   26600    1330.3786   -109.06712    1.2037545   -107.86337   -16624.366    4.3853201    4.3853201    4.3853201   -16624.366   -41471.604   -10656.561    2255.0649   -18261.619   -10927.884    7549.4354    84.334231 
   26700    1574.6457   -109.28855    1.4247725   -107.86378    14149.938    4.3851555    4.3851555    4.3851555    14149.938    1133.6395    47533.395   -6217.2203    9219.9306    -3192.376   -8293.8162    84.324737 
   26800    1111.5006   -108.88303    1.0057091   -107.87732   -13388.577    4.3879586    4.3879586    4.3879586   -13388.577   -25963.828    1238.4196   -15440.322   -5215.4413    9555.0371    14780.225    84.486551 
   26900    1930.2298   -109.60734    1.7465125   -107.86083    20095.165    4.3822342    4.3822342    4.3822342    20095.165   -5900.3534    59365.792    6820.0552   -12485.669    6056.6661    4289.3818     84.15632 
   27000    1385.7335   -109.12459    1.2538408   -107.87075   -25742.088    4.3928805    4.3928805    4.3928805   -25742.088   -26480.141   -33739.977   -17006.146    19066.824    3248.0562   -16995.073     84.77117 
   27100    997.53368    -108.7671   0.90258943   -107.86451    -6749.032      4.38994      4.38994      4.38994    -6749.032   -31159.139    9800.9883     1111.055   -2966.2801   -384.57733    3098.2513    84.601051 
   27200    2012.5819   -109.66749    1.8210264   -107.84646   -702.14051    4.3835922    4.3835922    4.3835922   -702.14051   -18091.046   -3236.2621    19220.886    5698.5618   -29.079919   -4223.4181    84.234586 
   27300    960.29845   -108.73496   0.86889822   -107.86606   -24510.818    4.3917659    4.3917659    4.3917659   -24510.818   -22697.741   -24374.846   -26459.867    19801.328    6806.7243   -28613.086    84.706656 
   27400    1918.2212     -109.592    1.7356468   -107.85635   -25.966597    4.3867125    4.3867125    4.3867125   -25.966597   -16743.225    6839.1179    9826.2069   -17032.414   -7001.1287    3609.3453    84.414588 
   27500    1518.5554   -109.23925    1.3740208   -107.86523    3826.8812    4.3813779    4.3813779    4.3813779    3826.8812   -7094.9152    21068.811   -2493.2525    18991.799   -12043.427   -11100.796    84.107001 
   27600    1215.7317   -108.97766    1.1000196   -107.87764    -9534.934    4.3824016    4.3824016    4.3824016    -9534.934   -6035.3948   -5987.8041   -16581.603    3597.6419    8649.5509    -28129.24    84.165969 
   27700    1900.1031   -109.57782    1.7192532   -107.85857     829.6845    4.3891679    4.3891679    4.3891679     829.6845   -48605.817    30989.984    20104.887    977.27548   -10439.272    20287.274    84.556422 
   27800    789.74319   -108.58423   0.71457624   -107.86966   -9552.0023    4.3915325    4.3915325    4.3915325   -9552.0023   -38811.265    8480.0017    1675.2562     12035.01   -24490.208   -15987.432    84.693151 
   27900     1308.703   -109.04816     1.184142   -107.86402    1423.7688     4.388048     4.388048     4.388048    1423.7688   -9452.5815    4575.8266    9148.0612     3822.964    8237.4904   -9135.8465    84.491714 
   28000    1943.9135   -109.61765    1.7588938   -107.85875   -7625.7873     4.380544     4.380544     4.380544   -7625.7873   -40215.217    9772.2236    7565.6319     1277.514   -5654.8199    19754.028    84.058983 
   28100    939.90576   -108.72482   0.85044648   -107.87437    2168.7844    4.3761429    4.3761429    4.3761429    2168.7844   -9866.8768   -1288.8911    17662.121    19889.944   -17593.126   -28253.804    83.805879 
   28200    1783.7997   -109.48054    1.6140195   -107.86652   -24551.628    4.3962002    4.3962002    4.3962002   -24551.628   -33096.769    6869.1662   -47427.282   -5553.9149    26762.915    2461.6394    84.963498 
   28300    1347.9588    -109.0788    1.2196615   -107.85914   -25311.062    4.3930763    4.3930763    4.3930763   -25311.062   -56509.269       -10607   -8816.9167    4508.8868    6363.5709    5689.3162    84.782504 
   28400    1095.2361   -108.84481   0.99099264   -107.85382   -8292.6524    4.3677528    4.3677528    4.3677528   -8292.6524   -27600.893   -17944.078    20667.014     24140.78   -7375.0075   -29061.248    83.324774 
   28500    1291.1013   -109.04205    1.1682156   -107.87384    -3045.972    4.3763474    4.3763474    4.3763474    -3045.972   -41711.489     54229.65   -21656.076   -10908.124    51488.676    6166.1798    83.817631 
   28600    1787.0234    -109.4814    1.6169363   -107.86447   -4594.9443    4.3907149    4.3907149    4.3907149   -4594.9443   -13490.632   -27623.242    27329.041    17690.379   -6800.7186   -6712.2506     84.64586 
   28700    1094.0948   -108.85765   0.98995994   -107.86769   -5107.5526    4.3911174    4.3911174    4.3911174   -5107.5526   -16475.038   -6637.7559    7790.1366    16315.299    14512.131   -21956.965    84.669142 
   28800    1495.5326    -109.2093    1.3531893   -107.85611   -5771.6782    4.3904043    4.3904043    4.3904043   -5771.6782   -36309.101    20202.256   -1208.1903   -8637.9495    22405.434    11146.731    84.627894 
   28900    1815.1569   -109.49561    1.6423921   -107.85322    4141.2123    4.3736571    4.3736571    4.3736571    4141.2123    8844.3094   -31321.038    34900.366    24812.287   -9179.6127   -19446.697    83.663146 
   29000    851.73378   -108.64866   0.77066663   -107.87799    9472.3883    4.3676448    4.3676448    4.3676448    9472.3883   -18619.623    9876.8299    37159.958   -327.66135    39202.455   -12946.117    83.318595 
   29100    1414.4833   -109.16597    1.2798542   -107.88611   -34312.803    4.3934708    4.3934708    4.3934708   -34312.803   -73304.266    -15672.77   -13961.371   -12247.692   -8882.2444     2808.484    84.805346 
   29200    1645.1223   -109.35061    1.4885413   -107.86206   -4487.1821    4.3940508    4.3940508    4.3940508   -4487.1821    1050.0671   -11485.674   -3025.9397    8191.2029   -6074.2551   -13690.867    84.838938 
   29300     1426.022   -109.15003    1.2902947   -107.85974   -1131.6792    4.3807806    4.3807806    4.3807806   -1131.6792   -13880.142    6779.4874    3705.6168    2389.7256    46171.764   -547.02509    84.072606 
   29400      1513.76   -109.23383    1.3696818   -107.86414    1288.5429    4.3766916    4.3766916    4.3766916    1288.5429   -21621.453    21417.192      4069.89   -18415.774   -44068.144   -3412.6795    83.837407 
   29500    1440.6763   -109.17377    1.3035542   -107.87021     17075.75    4.3752614    4.3752614    4.3752614     17075.75    13641.322    31878.254    5707.6745   -5000.7556    17063.063    -2518.118    83.755247 
   29600    1206.8401   -108.97308    1.0919743   -107.88111   -22829.997    4.3942271    4.3942271    4.3942271   -22829.997   -41309.697   -7245.9878   -19934.305    8473.0165    43084.613   -2306.4095    84.849151 
   29700     1448.285   -109.17808    1.3104387   -107.86765    -13239.01    4.3888649    4.3888649    4.3888649    -13239.01   -15046.624   -15816.423   -8853.9831   -10285.313     -47676.3   -3457.0949     84.53891 
   29800    1313.9657   -109.05037    1.1889037   -107.86147    25875.257    4.3644828    4.3644828    4.3644828    25875.257    36189.998    40345.094    1090.6795   -6739.2823    34097.401    7196.5909    83.137765 
   29900    1570.8624   -109.29627    1.4213493   -107.87492   -1478.0809    4.3759654    4.3759654    4.3759654   -1478.0809   -1081.4496     17305.05   -20657.844    11453.054        17328   -25071.266    83.795682 
   30000    1255.7927    -109.0133    1.1362676   -107.87703    -8392.282    4.3925624    4.3925624    4.3925624    -8392.282   -18492.406    6505.2448   -13189.685   -18264.898   -25266.073     8599.505    84.752752 
   30100    1614.1109   -109.32535    1.4604815   -107.86487   -23662.978    4.3950818    4.3950818    4.3950818   -23662.978   -35574.582    12874.562   -48288.915     9988.632    40910.756    2817.3258    84.898668 
   30200    1227.9318   -108.97485    1.1110585   -107.86379   -7844.8625    4.3790225    4.3790225    4.3790225   -7844.8625   -9185.8555    15012.539   -29361.271   -15284.363   -12336.742   -25910.745    83.971427 
   30300    1025.4403   -108.80088   0.92783997   -107.87304   -2555.7543    4.3652099    4.3652099    4.3652099   -2555.7543   -39570.161    9213.8516    22689.047   -20580.373   -11530.085    6811.7914    83.179327 
   30400    1992.1786   -109.67663     1.802565   -107.87407   -13710.909     4.390301     4.390301     4.390301   -13710.909   -20786.455    14363.729       -34710    7655.0697     21617.58   -5222.1726    84.621925 
   30500    1164.5442   -108.92719    1.0537041   -107.87348    -13241.89    4.3987079    4.3987079    4.3987079    -13241.89   -37544.862    20916.868   -23097.677   -24449.707   -19988.679   -11833.166    85.108974 
   30600     1280.047   -109.02567    1.1582134   -107.86746    2594.4734    4.3843637    4.3843637    4.3843637    2594.4734   -23815.027    12107.744    19490.702   -24331.906    2444.0097    3274.6061     84.27907 
   30700    2078.7012   -109.73067    1.8808526   -107.84982    963.47106    4.3838407    4.3838407    4.3838407    963.47106   -1968.9612    29491.587   -24632.213    7645.0401    -7052.863   -52.223268    84.248908 
   30800    788.61532    -108.5829   0.71355571   -107.86934    22664.234    4.3829411    4.3829411    4.3829411    22664.234    14922.701    67088.354   -14018.353   -20025.556   -28967.697   -3830.5753    84.197054 
   30900    1472.3546   -109.19514    1.3322174   -107.86292    11697.593    4.3954046    4.3954046    4.3954046    11697.593    14091.704    30265.443    -9264.368   -1195.4692    7361.3304    5120.7474    84.917375 
   31000    1770.5231   -109.46037    1.6020065   -107.85837   -3325.8401    4.3865334    4.3865334    4.3865334   -3325.8401    15108.207    2654.7726     -27740.5   -6185.8399   -17743.936    1632.4878    84.404253 
   31100    1038.4191   -108.80338   0.93958341    -107.8638    24968.357    4.3666825    4.3666825    4.3666825    24968.357    663.79209     70142.28    4098.9987   -21123.934   -24675.496   -7869.4552    83.263533 
   31200    1655.2639   -109.37269    1.4977176   -107.87497    6199.9184    4.3843546    4.3843546    4.3843546    6199.9184    40448.918   -6381.0328    -15468.13     13079.93    3408.3867    13586.085     84.27854 
   31300    1159.2848   -108.92538    1.0489452   -107.87643   -12539.271    4.4035514    4.4035514    4.4035514   -12539.271    -18771.94    8579.6102   -27425.482    540.38356   -24763.673   -2879.0978    85.390432 
   31400     1379.326   -109.10491    1.2480432   -107.85686     -4294.49    4.3949836    4.3949836    4.3949836     -4294.49   -35755.412    19198.252    3673.6899   -21557.041    6894.6715   -600.25646    84.892979 
   31500    1770.9261   -109.44225    1.6023712   -107.83988    14220.283    4.3766091    4.3766091    4.3766091    14220.283    24557.782    39511.463   -21408.397    11925.141   -11342.641    12473.791    83.832664 
   31600    1097.6411   -108.85488   0.99316877   -107.86171   -5039.8266    4.3835147    4.3835147    4.3835147   -5039.8266   -12136.789    7766.6942   -10749.385   -23368.118   -22170.412   -2548.6231    84.230117 
   31700    1670.9146   -109.37013    1.5118786   -107.85825   -2737.8189    4.3979517    4.3979517    4.3979517   -2737.8189   -14837.382    -9336.679    15960.604   -11352.618    12979.165   -7374.9933    85.065092 
   31800     1714.983   -109.40666    1.5517527   -107.85491   -26443.968     4.392468     4.392468     4.392468   -26443.968   -33803.644    10036.699   -55564.959     6027.757   -48313.873    4712.6704    84.747287 
   31900    965.87329   -108.73845   0.87394245   -107.86451    -5924.857    4.3676913    4.3676913    4.3676913    -5924.857   -16728.168   -4588.5942    3542.1916    -39020.48    -183.2715    3399.1086    83.321257 
   32000    1333.8121   -109.08383    1.2068612   -107.87696    4442.7104    4.3773061    4.3773061    4.3773061    4442.7104   -1779.3129    22046.102   -6938.6581   -14496.569    2167.2748   -24674.492    83.872727 
   32100    1295.6448   -109.04244    1.1723267   -107.87012   -931.05944    4.3992215    4.3992215    4.3992215   -931.05944   -2274.8991    29153.556   -29671.835     2215.253   -36369.509     8722.376    85.138795 
   32200     1089.872   -108.84608   0.98613907   -107.85994    3477.9154    4.3910308    4.3910308    4.3910308    3477.9154   -7173.7812     30405.59   -12798.063   -37847.059    12320.889    1188.1927    84.664132 
   32300    1546.0342   -109.24752    1.3988842   -107.84864    -3758.719    4.3867725    4.3867725    4.3867725    -3758.719    7520.8263    26815.078   -45612.061   -3575.3612    2915.5053    -32857.65    84.418053 
   32400    1517.3228   -109.22682    1.3729056   -107.85391    9326.0556    4.3797862    4.3797862    4.3797862    9326.0556    4612.7637    25291.835   -1926.4323   -19555.336   -22281.476    11050.047    84.015367 
   32500    1170.9749   -108.92969    1.0595227   -107.87017   -1540.7424    4.3876329    4.3876329    4.3876329   -1540.7424    2258.4893    -5132.143   -1748.5733   -31633.394     2320.311   -3619.7293    84.467734 
   32600     1506.885   -109.22849    1.3634612   -107.86503   -28771.117    4.3963965    4.3963965    4.3963965   -28771.117   -14675.763    -16791.74   -54845.848    9915.3083    23495.391   -31735.942    84.974883 
   32700    1404.9041   -109.13026    1.2711868   -107.85907    17855.321    4.3740887    4.3740887    4.3740887    17855.321    44606.642    3873.9328    5085.3891    -26743.86   -1990.2554    19609.478    83.687918 
   32800    1241.6525    -108.9946    1.1234732   -107.87112    10017.685    4.3811452    4.3811452    4.3811452    10017.685    29413.819    -10750.33    11389.567   -13863.308   -2050.1185    1508.1996    84.093602 
   32900    1723.2475   -109.41305    1.5592305   -107.85382   -9730.4045    4.3918771    4.3918771    4.3918771   -9730.4045    12747.522   -25062.143   -16876.592    724.72365    23571.883   -16389.802    84.713091 
   33000    944.07077   -108.71593   0.85421507   -107.86172    30412.887    4.3765818    4.3765818    4.3765818    30412.887    102663.86   -39425.754    28000.551   -34556.488   -5483.6739    21032.408    83.831098 
   33100    1567.5222   -109.28023     1.418327    -107.8619   -3440.3012     4.382852     4.382852     4.382852   -3440.3012    3462.4626    -11529.86    -2253.506    6816.2144    19186.294     4696.922    84.191921 
   33200    1604.1539   -109.31362    1.4514721   -107.86215     26225.26     4.373965     4.373965     4.373965     26225.26    87887.634    934.48102   -10146.336   -1763.5747    23832.751    3195.7913    83.680819 
   33300     1152.917   -108.92938    1.0431835   -107.88619   -15750.204    4.3761779    4.3761779    4.3761779   -15750.204    13032.414   -49986.111   -10296.914   -26474.506   -12563.568    27780.611     83.80789 
   33400    1597.7203   -109.32584    1.4456509   -107.88019   -15633.065    4.3855374    4.3855374    4.3855374   -15633.065   -7142.4031   -30937.811   -8818.9806    20827.497    18852.125   -6180.7236    84.346768 
   33500    1527.4761    -109.2535    1.3820924   -107.87141    2506.3859    4.3817681    4.3817681    4.3817681    2506.3859    44084.296   -23877.706   -12687.432   -6823.8497    9909.7145    865.28681    84.129475 
[...]
   91300    2289.3756   -109.94481    2.0714752   -107.87333    10362.865     4.369241     4.369241     4.369241    10362.865   -15294.398    48810.845   -2427.8531     11312.28    2939.4497   -886.18259    83.409979 
   91400    930.34967   -108.73843   0.84179994   -107.89663   -2623.5538     4.369929     4.369929     4.369929   -2623.5538   -34775.626   -3650.5753     30555.54    -40542.34    8022.5586   -6542.0973    83.449384 
   91500     1371.742   -109.12746     1.241181   -107.88628   -22573.543    4.3759736    4.3759736    4.3759736   -22573.543   -62895.136   -20397.278    15571.785   -17454.791   -6389.6217   -2712.5643    83.796153 
   91600    1847.5888   -109.54241    1.6717372   -107.87067    20004.939    4.3631439    4.3631439    4.3631439    20004.939    15409.604    29395.491    15209.721    14549.957   -13858.455    12225.488     83.06128 
   91700    1065.3458   -108.84885   0.96394724   -107.88491   -3563.5066    4.3722368    4.3722368    4.3722368   -3563.5066   -30263.479   -26508.353    46081.312   -59721.219    9654.1463   -12740.955    83.581668 
   91800    1559.1104   -109.28075    1.4107159   -107.87004   -10383.335     4.376182     4.376182     4.376182   -10383.335   -50747.807   -748.12181    20345.925    3905.5118   -9112.3377    -2547.907    83.808124 
   91900     1091.309   -108.86246   0.98743928   -107.87502    2229.4424    4.3697493    4.3697493    4.3697493    2229.4424   -12736.595   -11061.025    30485.947   -12510.563   -17427.111    20470.757    83.439088 
   92000    1059.0289   -108.84452   0.95823164   -107.88628   -14079.265    4.3720521    4.3720521    4.3720521   -14079.265   -16587.514   -44925.857    19275.574   -59032.439     13447.58   -22198.084    83.571073 
   92100    2146.3313   -109.81182    1.9420457   -107.86977     18417.19    4.3645493    4.3645493    4.3645493     18417.19     23665.91     21939.46    9646.1989     18892.92   -12258.085   -8548.3893    83.141565 
   92200    973.47135   -108.77339   0.88081734   -107.89257   -17209.305    4.3751891    4.3751891    4.3751891   -17209.305   -30489.598   -17916.637   -3221.6789    -49731.23   -18323.571    21149.877    83.751091 
   92300    1242.4169   -109.01056     1.124165    -107.8864   -17265.287    4.3775987    4.3775987    4.3775987   -17265.287   -296.75181   -37542.692   -13956.416   -34987.126    8693.5985   -17382.361    83.889545 
   92400    2002.7904   -109.67897    1.8121668   -107.86681    21420.372    4.3621976    4.3621976    4.3621976    21420.372    3635.5381    30405.882    30219.696    21870.716   -3501.4275   -493.38545    83.007244 
   92500      847.149   -108.65467   0.76651821   -107.88816   -23640.099    4.3724329    4.3724329    4.3724329   -23640.099   -48223.459       -44272    21575.162   -54615.159   -9216.6721    16985.721    83.592916 
   92600    1521.5632   -109.25648    1.3767424   -107.87974   -3726.1138    4.3700827    4.3700827    4.3700827   -3726.1138   -6435.1235   -12008.421    7265.2033   -7024.4381    9870.8864    2773.9893    83.458191 
   92700    1565.8375   -109.29221    1.4168027   -107.87541    8065.3269    4.3689835    4.3689835    4.3689835    8065.3269   -33338.238     32568.08    24966.139    5122.7688    10775.587   -2508.1198    83.395233 
   92800    956.45133   -108.75248   0.86541726   -107.88706   -29252.395     4.377384     4.377384     4.377384   -29252.395   -43225.422   -57760.138    13228.375   -41313.916   -6028.0401    16303.693    83.877202 
   92900    1692.2205    -109.4066    1.5311566   -107.87545    10974.976    4.3626872    4.3626872    4.3626872    10974.976    2056.9959    46760.924   -15892.991    7105.6413    23937.616    19730.815    83.035197 
   93000    1696.9184   -109.41342    1.5354074   -107.87801   -758.49899    4.3695458    4.3695458    4.3695458   -758.49899   -35665.337    21654.596    11735.244   -17876.191     1668.466   -13415.673    83.427431 
   93100    985.55503    -108.7735    0.8917509   -107.88174   -9074.8344    4.3784858    4.3784858    4.3784858   -9074.8344   -30498.308   -17473.438    20747.243   -25474.403     -1162.76    21065.653    83.940553 
   93200    1499.3221   -109.22384    1.3566182   -107.86722    18305.815     4.369505     4.369505     4.369505    18305.815    7788.1279    65362.438   -18233.122    14526.106    19352.823   -3552.7175    83.425095 
   93300     1425.688   -109.16492    1.2899925   -107.87492   -6803.3537    4.3727888    4.3727888    4.3727888   -6803.3537   -17279.822   -10234.047    7103.8076   -34638.683   -1137.4359   -22239.054    83.613329 
   93400    1582.1928   -109.30658    1.4316013   -107.87498    13382.815    4.3635545    4.3635545    4.3635545    13382.815   -5089.3351    36920.826    8316.9549   -9564.9475   -3339.5311    26842.078    83.084732 
   93500    1002.6355   -108.80034    0.9072057   -107.89314   -9266.7613    4.3706968    4.3706968    4.3706968   -9266.7613    9401.5278   -5951.7011   -31250.111    11499.517    24805.777   -31390.805    83.493379 
   93600    1690.8247   -109.41082    1.5298937   -107.88093   -11420.014    4.3807483    4.3807483    4.3807483   -11420.014   -24244.367    10197.176   -20212.851   -14006.304   -7016.3364   -20238.291    84.070744 
   93700    1639.2027   -109.36242    1.4831851   -107.87923   -2102.0523     4.367912     4.367912     4.367912   -2102.0523   -19794.067    24844.683   -11356.773    1132.3909   -8503.1767    18005.874    83.333889 
   93800    749.55586    -108.5711   0.67821389   -107.89289    992.87725    4.3650716    4.3650716    4.3650716    992.87725    21289.537   -7829.5347    -10481.37    14841.404    27300.828   -41697.925    83.171421 
   93900    1869.6301   -109.56642    1.6916806   -107.87474   -3915.7902    4.3805315    4.3805315    4.3805315   -3915.7902   -34814.837    54446.968   -31379.502   -4354.3812   -28049.962    218.46034    84.058265 
   94000    1397.8478   -109.13217     1.264802   -107.86737    -6971.885    4.3890699    4.3890699    4.3890699    -6971.885   -20223.405    15854.974   -16547.224   -2639.6337   -1121.3452   -9306.3241    84.550757 
   94100    1069.8161   -108.82956    0.9679921   -107.86157    1191.6577    4.3786782    4.3786782    4.3786782    1191.6577    2250.7148    15481.408   -14157.149    12079.663     19327.59    -33751.38    83.951624 
   94200    1761.1043   -109.44754    1.5934841   -107.85406    20665.875    4.3637375    4.3637375    4.3637375    20665.875   -19250.164    71690.671    9557.1175   -8443.5559   -36443.218    19858.829    83.095183 
   94300    1144.4522   -108.91339    1.0355244   -107.87786    10519.346    4.3648329    4.3648329    4.3648329    10519.346   -8155.6651    46037.144   -6323.4412   -3634.7384    12653.322   -28128.438    83.157775 
   94400    1002.5261   -108.79967   0.90710672   -107.89257   -11362.849    4.3841542    4.3841542    4.3841542   -11362.849   -31104.277   -1537.2518    -1447.018    11712.492    12013.542   -38848.916    84.266987 
   94500    2253.5429   -109.90563    2.0390529   -107.86658   -10890.691    4.3858952    4.3858952    4.3858952   -10890.691   -32630.324   -17330.467    17288.716   -12770.644   -20944.413    21968.886    84.367417 
   94600    581.37605   -108.41135   0.52604127    -107.8853     6304.575     4.365803     4.365803     4.365803     6304.575     42515.48   -20493.722   -3108.0325    9976.9242     29634.71   -43562.899    83.213236 
   94700    1355.5576   -109.11441     1.226537   -107.88787   -146.90731    4.3673957    4.3673957    4.3673957   -146.90731    7129.5178   -19656.877    12086.638    5406.8238    8700.4665   -5779.6456    83.304342 
   94800     1892.992   -109.58345    1.7128189   -107.87064    12942.272    4.3763224    4.3763224    4.3763224    12942.272    10634.427    1823.5277    26368.861   -7140.4923   -12661.649   -13130.138    83.816195 
   94900    729.26132   -108.53645   0.65985097    -107.8766    313.64995    4.3920976    4.3920976    4.3920976    313.64995    12391.314    -30223.14    18772.776    13728.494    33410.099   -44171.485    84.725854 
   95000    1740.8628   -109.41856    1.5751692   -107.84339   -20541.333    4.3920257    4.3920257    4.3920257   -20541.333   -50902.459    6293.7378   -17015.278   -497.50121   -25753.747    20396.932    84.721693 
   95100    1369.6966    -109.0867    1.2393303   -107.84737    9704.4874    4.3565948    4.3565948    4.3565948    9704.4874    8369.2511    21975.259    -1231.048    4038.8978   -26409.713   -33031.999    82.687811 
   95200     1315.486    -109.0581    1.1902794   -107.86782    3806.5943    4.3566982    4.3566982    4.3566982    3806.5943    4783.8364     13363.59   -6727.6438    15267.707    43275.185   -31543.667    82.693701 
   95300     1803.974   -109.50605    1.6322736   -107.87378   -14319.089    4.3761262    4.3761262    4.3761262   -14319.089   -33384.154    19169.633   -28742.745   -1328.3418    -23475.96    15710.899    83.804919 
   95400    1205.0142   -108.97383    1.0903222    -107.8835   -9816.5914    4.3833672    4.3833672    4.3833672   -9816.5914    9346.0473   -7845.9529   -30949.869    1079.0167   -19551.481   -22406.421    84.221616 
   95500    1033.0992   -108.81757    0.9347699    -107.8828   -10737.669    4.3747895    4.3747895    4.3747895   -10737.669   -24785.311    12491.949   -19919.644    14626.093    52485.264    -16031.36    83.728147 
   95600    2018.8831   -109.68709    1.8267278   -107.86036    16037.702    4.3646046    4.3646046    4.3646046    16037.702    9921.4731    23534.863     14656.77    -6189.084     -14633.2    4894.6564    83.144727 
   95700    922.10922   -108.71639    0.8343438   -107.88204   -11608.272    4.3775231    4.3775231    4.3775231   -11608.272    18689.105   -6796.9159   -46717.004    1525.1956    7140.9176   -35419.623      83.8852 
   95800    1110.5653   -108.88497    1.0048628   -107.88011   -14890.434    4.3810979    4.3810979    4.3810979   -14890.434   -22102.568    20378.983   -42947.718    5407.3516    42683.711   -5205.2661    84.090876 
   95900    2323.9415   -109.96179    2.1027511   -107.85904   -503.09313    4.3757632    4.3757632    4.3757632   -503.09313    18319.677   -6728.3652   -13100.591   -8176.9709   -19035.504   -512.65608    83.784065 
   96000    795.05539   -108.60976   0.71938283   -107.89038   -14489.443     4.367692     4.367692     4.367692   -14489.443    6867.3776   -4895.4762    -45440.23    5269.9812    46407.906   -34603.572    83.321295 
   96100    970.94251   -108.77054   0.87852919   -107.89201       6933.7    4.3594781    4.3594781    4.3594781       6933.7    14237.452    29655.844   -23092.196    5247.3701    14950.537    2645.3175    82.852096 
   96200    1777.4727    -109.4903    1.6082947   -107.88201     -12621.1    4.3775742    4.3775742    4.3775742     -12621.1   -1755.8881    6401.3022   -42508.715   -3115.3944   -51976.521    5299.0239    83.888138 
   96300    1413.5651    -109.1598    1.2790234   -107.88077   -9186.0467    4.3763886    4.3763886    4.3763886   -9186.0467    8884.4079   -4895.1868   -31547.361   -4413.4379    54995.492   -27785.443    83.819997 
   96400    1344.1677   -109.09274    1.2162312   -107.87651    12391.165    4.3683499    4.3683499    4.3683499    12391.165    10615.704    17270.371    9287.4208    3841.6183   -11097.654   -5045.9724    83.358956 
   96500     1773.235   -109.47512    1.6044603   -107.87066    9381.8997    4.3667355    4.3667355    4.3667355    9381.8997    6688.7645    12410.679    9046.2554   -6099.2776   -33919.606    6369.9866    83.266567 
   96600    641.29632   -108.47236   0.58025839   -107.89211    2676.8799     4.370868     4.370868     4.370868    2676.8799   -4413.1917   -1854.5786     14298.41    3077.7834    55968.654   -24748.923    83.503191 
   96700    1685.0935   -109.40962     1.524708   -107.88491   -17886.304    4.3783262    4.3783262    4.3783262   -17886.304    -16473.89   -22547.162   -14637.861    3421.5138   -4079.3512    1495.0274    83.931378 
   96800    1869.4637   -109.57003      1.69153    -107.8785    9993.1678    4.3648673    4.3648673    4.3648673    9993.1678   -13786.068   -1332.1787     45097.75   -13312.384    5017.8511   -5315.4089    83.159742 
   96900    554.42254   -108.40344   0.50165316   -107.90178   -32011.077     4.373802     4.373802     4.373802   -32011.077   -17614.171   -7598.7532   -70820.305    1966.4613    59878.144   -22442.647    83.671465 
   97000    2156.6478   -109.82725    1.9513802   -107.87587   -3558.6447    4.3696502    4.3696502    4.3696502   -3558.6447    13756.777   -18674.957   -5757.7548    5208.1274   -23000.528    7177.2178    83.433415 
   97100    1284.2306   -109.04713    1.1619988   -107.88514    3108.9349    4.3729485    4.3729485    4.3729485    3108.9349    12564.826    11227.508   -14465.529   -7924.4567    10821.089   -5928.5727    83.622489 
   97200    1205.7915   -108.96828    1.0910255   -107.87725   -12770.517    4.3776947    4.3776947    4.3776947   -12770.517    7543.4628   -2544.5404   -43310.472    5777.0891    47327.781   -35099.149    83.895066 
   97300    1724.5899   -109.41997    1.5604452   -107.85952    22010.638     4.369595     4.369595     4.369595    22010.638    14659.201    18223.594    33149.118   -2921.8258   -35493.168    1130.6068    83.430254 
   97400    857.14703   -108.65306   0.77556465   -107.87749   -10531.335    4.3775121    4.3775121    4.3775121   -10531.335    2779.4971    17019.547   -51393.051   -4460.7348    10896.556   -14321.438    83.884569 
   97500    1312.3988   -109.05975     1.187486   -107.87226    1332.4304    4.3734011    4.3734011    4.3734011    1332.4304    15324.669   -7685.3023   -3642.0751    1570.2276    27828.315   -35686.223    83.648457 
   97600    2004.8412    -109.6788    1.8140225   -107.86478    9047.6209    4.3713206    4.3713206    4.3713206    9047.6209   -8908.2873    33085.128    2966.0219   -4398.2399   -29068.869    9862.8602    83.529136 
   97700    1061.2412   -108.84204   0.96023338    -107.8818    3700.0172    4.3720242    4.3720242    4.3720242    3700.0172    16121.531    24622.958   -29644.437    2158.1908    29639.243    -32966.21    83.569473 
   97800    1279.8463   -109.03345    1.1580318   -107.87542    9888.9216    4.3731176    4.3731176    4.3731176    9888.9216    37232.856    12046.377   -19612.468   -8113.8211    4643.2593   -7402.0428     83.63219 
   97900     1381.888   -109.11741    1.2503613   -107.86705    227.02973     4.377534     4.377534     4.377534    227.02973   -12723.927    45538.461   -32133.445    7202.7312    266.74495     23181.96    83.885828 
   98000    1148.7123   -108.91235     1.039379   -107.87297    13289.648    4.3672316    4.3672316    4.3672316    13289.648    5101.8973     70094.94   -35327.893    -232.9177    37982.848   -23889.373    83.294948 
   98100    1497.2777   -109.22427    1.3547683    -107.8695    17482.716    4.3698617    4.3698617    4.3698617    17482.716    44243.959    45514.955   -37310.767   -2889.4855   -14593.913     17741.52    83.445528 
   98200    1127.0385   -108.89713    1.0197681   -107.87736   -5007.1999    4.3794637    4.3794637    4.3794637   -5007.1999    2086.5827    26129.251   -43237.434   -5959.3292    31683.477    12856.786    83.996807 
   98300    1717.0834   -109.41865    1.5536532     -107.865   -983.59728    4.3769473    4.3769473    4.3769473   -983.59728   -3366.5586    22604.293   -22188.527   -6523.9813    23751.563   -6378.3614    83.852104 
   98400    1530.8409   -109.25238     1.385137   -107.86724   -8841.0371    4.3770651    4.3770651    4.3770651   -8841.0371    47634.761   -21462.205   -52695.668    1857.9684    -16584.18    45396.161    83.858873 
   98500    903.05738   -108.69088    0.8171053   -107.87377    1267.1316    4.3687051    4.3687051    4.3687051    1267.1316    13802.891    39350.399   -49351.895   -3454.9054    52126.872   -6512.4763    83.379291 
   98600    1714.0278   -109.42314    1.5508884   -107.87226    11114.126     4.370556     4.370556     4.370556    11114.126    34710.756    14988.482   -16356.861   -3999.8321   -2517.7438   -2741.6915    83.485309 
   98700    1467.2105   -109.20078    1.3275628   -107.87321   -9877.9267    4.3836455    4.3836455    4.3836455   -9877.9267    42340.955   -6316.0427   -65658.693    -6066.717    20470.519    22912.685    84.237654 
   98800    663.59857   -108.48654   0.60043793    -107.8861   -17623.757     4.373498     4.373498     4.373498   -17623.757   -24402.234    41162.938   -69631.974   -4757.9563    51069.383   -17564.567    83.654014 
   98900    2022.5347   -109.70007    1.8300319   -107.87003     13960.28     4.365384     4.365384     4.365384     13960.28    21522.371    26539.057    -6180.587     -11617.4   -29666.534   -2335.8838     83.18928 
   99000    1577.3341   -109.30876    1.4272051   -107.88155   -2860.3783    4.3718463    4.3718463    4.3718463   -2860.3783    -19189.15    41615.214   -31007.199    7166.1476    55907.323    3193.3944    83.559273 
   99100    902.94826   -108.70481   0.81700656    -107.8878    12550.447    4.3715182    4.3715182    4.3715182    12550.447    1252.2439    69988.637   -33589.541    4184.6857    824.66359   -8962.9443    83.540463 
   99200    1499.0108   -109.22266    1.3563365   -107.86632   -4959.7831    4.3837534    4.3837534    4.3837534   -4959.7831    1860.5664    15500.397   -32240.313   -4269.4916   -11385.731    3539.4836    84.243875 
   99300    1420.3592    -109.1444    1.2851709   -107.85923   -4014.0159    4.3769625    4.3769625    4.3769625   -4014.0159    13662.013     14153.79    -39857.85    10092.514    48280.943    7914.2436    83.852978 
   99400    1262.8555   -109.00182    1.1426582   -107.85916    20383.084    4.3596132    4.3596132    4.3596132    20383.084    18259.792    65783.019   -22893.558   -13005.298   -39722.949   -18508.798    82.859801 
   99500    1317.4451   -109.06728     1.192052   -107.87523   -5853.9673    4.3734159    4.3734159    4.3734159   -5853.9673    22322.902    11212.383   -51097.186    2099.6129    5562.4459     26846.39    83.649307 
   99600    2127.7537    -109.7847    1.9252362   -107.85947     4087.896    4.3759841    4.3759841    4.3759841     4087.896    17135.979    19493.465   -24365.757   -1337.0535    3014.8231    6506.4639    83.796758 
   99700     1105.142   -108.87582   0.99995567   -107.87586   -10925.437    4.3768295    4.3768295    4.3768295   -10925.437   -16089.974    32334.099   -49020.435   -1012.5043   -46178.971   -6318.8364    83.845332 
   99800    1210.1166   -108.97156    1.0949389   -107.87663   -16978.518    4.3735078    4.3735078    4.3735078   -16978.518    33090.479   -25925.794   -58100.239    1609.7606    10185.535    47943.238    83.654581 
   99900    1897.9027   -109.58061    1.7172623   -107.86335    13113.313    4.3600267    4.3600267    4.3600267    13113.313   -12349.428    47656.143    4033.2256   -12283.179    -21254.61   -13325.988    82.883378 
  100000    814.08794   -108.62027   0.73660387   -107.88366    -15645.53    4.3797505    4.3797505    4.3797505    -15645.53    5617.8358   -7156.2405   -45398.185    9253.2043   -30932.466    30822.095    84.013316 
Loop time of 23.0084 on 1 procs for 100000 steps with 8 atoms

Pair  time (%) = 7.16805 (31.154)
Kspce time (%) = 5.59055 (24.2979)
Neigh time (%) = 0.13667 (0.594)
Comm  time (%) = 1.06037 (4.60861)
Outpt time (%) = 0.0303769 (0.132025)
Other time (%) = 9.02239 (39.2135)

Nlocal:    8 ave 8 max 8 min
Histogram: 1 0 0 0 0 0 0 0 0 0
Nghost:    1936 ave 1936 max 1936 min
Histogram: 1 0 0 0 0 0 0 0 0 0
Neighs:    2059 ave 2059 max 2059 min
Histogram: 1 0 0 0 0 0 0 0 0 0

Total # of neighbors = 2059
Ave neighs/atom = 257.375
Neighbor list builds = 1640
Dangerous builds = 0
unfix 20
unfix 21
print "seeds:6028433"
seeds:6028433
