LAMMPS (11 Aug 2017)
Reading data file ...
  triclinic box = (0 0 0) to (11.6635 20.202 171.391) with tilt (0 0 -0.0018)
  1 by 1 by 1 MPI processor grid
  reading atoms ...
  18 atoms
18 atoms in group Ni
Neighbor list info ...
  update every 1 steps, delay 0 steps, check yes
  max neighbors/atom: 2000, page size: 100000
  master list distance cutoff = 11
  ghost atom cutoff = 11
  binsize = 5.5, bins = 3 4 32
  1 neighbor lists, perpetual/occasional/extra = 1 0 0
  (1) pair eam/alloy, perpetual
      attributes: half, newton on
      pair build: half/bin/newton/tri
      stencil: half/bin/3d/newton/tri
      bin: standard
Setting up cg style minimization ...
  Unit style    : metal
  Current step  : 0
Per MPI rank memory allocation (min/avg/max) = 4.196 | 4.196 | 4.196 Mbytes
Step PotEng Lx Ly Lz Xy Xz Yz Press Pxx Pyy Pzz Pxy Pxz Pyz c_eatoms 
       0    -4.444985      11.6635       20.202     171.3907            0            0      -0.0018            0            0            0            0            0            0            0    -4.444985 
       1    -4.444985      11.6635       20.202     171.3907            0            0      -0.0018            0            0            0            0            0            0            0    -4.444985 
Loop time of 1.71661e-05 on 1 procs for 1 steps with 18 atoms

75.7% CPU use with 1 MPI tasks x no OpenMP threads

Minimization stats:
  Stopping criterion = search direction is not downhill
  Energy initial, next-to-last, final = 
        -4.44498504022     -4.44498504022     -4.44498504022
  Force two-norm initial, final = 0 0
  Force max component initial, final = 0 0
  Final line search alpha, max atom move = 0 0
  Iterations, force evaluations = 1 0

MPI task timing breakdown:
Section |  min time  |  avg time  |  max time  |%varavg| %total
---------------------------------------------------------------
Pair    | 2.1458e-06 | 2.1458e-06 | 2.1458e-06 |   0.0 | 12.50
Neigh   | 0          | 0          | 0          |   0.0 |  0.00
Comm    | 9.5367e-07 | 9.5367e-07 | 9.5367e-07 |   0.0 |  5.56
Output  | 0          | 0          | 0          |   0.0 |  0.00
Modify  | 0          | 0          | 0          |   0.0 |  0.00
Other   |            | 1.407e-05  |            |       | 81.94

Nlocal:    18 ave 18 max 18 min
Histogram: 1 0 0 0 0 0 0 0 0 0
Nghost:    104 ave 104 max 104 min
Histogram: 1 0 0 0 0 0 0 0 0 0
Neighs:    0 ave 0 max 0 min
Histogram: 1 0 0 0 0 0 0 0 0 0

Total # of neighbors = 0
Ave neighs/atom = 0
Neighbor list builds = 0
Dangerous builds = 0
pypospack:output_section:begin
tot_energy = -4.44498504021607
num_atoms = 18
a11 = 11.6635
a22 = 20.202
a33 = 171.3907
a12 = 0
a13 = 0
a23 = -0.0018
tot_press = 0
pxx = 0
pyy = 0
pzz = 0
pxy = 0
pxz = 0
pyz = 0
pypospack:output_section:done
pypospack:lammps_sim:done
Total wall time: 0:00:00
