    2    2    1    1
  0.9639684E+01  0.3009788E-09  0.3009788E-09  0.3009788E-09  0.5000000E-15
  1.000000000000000E-004
  CAR 
 automatically generated by pyflamestk   
      8     10     16
 
  0.1250000E+00  0.1250000E+00  0.1250000E+00  0.3125000E-01
    1      -13.632776   1.000000
    2        2.409281   1.000000
    3        3.267518   1.000000
    4        3.267518   1.000000
    5        8.683721   0.000000
    6       17.309394   0.000000
    7       19.315903   0.000000
    8       19.315906   0.000000
    9       23.529069   0.000000
   10       23.529069   0.000000
   11       24.866936   0.000000
   12       27.259660   0.000000
   13       28.685164   0.000000
   14       28.685165   0.000000
   15       38.904780   0.000000
   16       40.825714   0.000000
 
  0.3750000E+00  0.1250000E+00  0.1250000E+00  0.9375000E-01
    1      -12.986524   1.000000
    2        0.254643   1.000000
    3        2.406211   1.000000
    4        2.966443   1.000000
    5       11.110053   0.000000
    6       15.245638   0.000000
    7       18.617850   0.000000
    8       20.289728   0.000000
    9       22.113581   0.000000
   10       24.330915   0.000000
   11       26.410660   0.000000
   12       31.063998   0.000000
   13       32.325188   0.000000
   14       33.207580   0.000000
   15       35.573271   0.000000
   16       38.851532   0.000000
 
 -0.3750000E+00  0.1250000E+00  0.1250000E+00  0.9375000E-01
    1      -12.555165   1.000000
    2       -0.861958   1.000000
    3        2.258820   1.000000
    4        2.631182   1.000000
    5       11.716781   0.000000
    6       15.434789   0.000000
    7       17.910592   0.000000
    8       19.721436   0.000000
    9       23.697528   0.000000
   10       25.951143   0.000000
   11       26.025004   0.000000
   12       32.282164   0.000000
   13       32.880217   0.000000
   14       33.241506   0.000000
   15       35.798859   0.000000
   16       37.503084   0.000000
 
 -0.1250000E+00  0.1250000E+00  0.1250000E+00  0.9375000E-01
    1      -13.272682   1.000000
    2        1.135007   1.000000
    3        2.896320   1.000000
    4        2.899680   1.000000
    5       10.276502   0.000000
    6       15.498572   0.000000
    7       19.418134   0.000000
    8       19.906100   0.000000
    9       21.070568   0.000000
   10       24.910583   0.000000
   11       26.871835   0.000000
   12       29.953656   0.000000
   13       30.261267   0.000000
   14       30.987731   0.000000
   15       37.182403   0.000000
   16       38.961022   0.000000
 
  0.3750000E+00  0.3750000E+00  0.1250000E+00  0.9375000E-01
    1      -12.753065   1.000000
    2        0.072767   1.000000
    3        2.211090   1.000000
    4        2.440035   1.000000
    5       12.211033   0.000000
    6       13.910070   0.000000
    7       17.163895   0.000000
    8       20.784513   0.000000
    9       21.240043   0.000000
   10       27.084657   0.000000
   11       30.146159   0.000000
   12       30.399360   0.000000
   13       32.328882   0.000000
   14       34.822579   0.000000
   15       36.466633   0.000000
   16       37.871275   0.000000
 
 -0.3750000E+00  0.3750000E+00  0.1250000E+00  0.1875000E+00
    1      -12.346040   1.000000
    2       -0.034021   1.000000
    3        0.959730   1.000000
    4        2.032647   1.000000
    5       13.762015   0.000000
    6       14.777832   0.000000
    7       15.570390   0.000000
    8       19.544809   0.000000
    9       22.993770   0.000000
   10       26.444653   0.000000
   11       29.973633   0.000000
   12       31.409207   0.000000
   13       32.669421   0.000000
   14       36.335987   0.000000
   15       38.880943   0.000000
   16       41.087217   0.000000
 
 -0.1250000E+00  0.3750000E+00  0.1250000E+00  0.1875000E+00
    1      -12.599544   1.000000
    2       -0.244549   1.000000
    3        1.693849   1.000000
    4        2.529941   1.000000
    5       12.579789   0.000000
    6       14.798296   0.000000
    7       16.933059   0.000000
    8       20.118787   0.000000
    9       22.696673   0.000000
   10       25.354723   0.000000
   11       28.864196   0.000000
   12       31.635978   0.000000
   13       32.237078   0.000000
   14       34.882284   0.000000
   15       35.526964   0.000000
   16       41.007783   0.000000
 
 -0.3750000E+00 -0.3750000E+00  0.1250000E+00  0.9375000E-01
    1      -12.381711   1.000000
    2       -0.397986   1.000000
    3        1.693697   1.000000
    4        2.145857   1.000000
    5       12.853289   0.000000
    6       13.485174   0.000000
    7       16.024726   0.000000
    8       21.476554   0.000000
    9       21.491697   0.000000
   10       28.906157   0.000000
   11       29.393170   0.000000
   12       31.963208   0.000000
   13       32.661827   0.000000
   14       37.794859   0.000000
   15       38.167844   0.000000
   16       41.094314   0.000000
 
  0.3750000E+00  0.3750000E+00  0.3750000E+00  0.3125000E-01
    1      -12.789242   1.000000
    2       -0.594527   1.000000
    3        2.826654   1.000000
    4        2.826654   1.000000
    5       10.920856   0.000000
    6       15.447705   0.000000
    7       19.523398   0.000000
    8       19.523400   0.000000
    9       24.072418   0.000000
   10       24.444391   0.000000
   11       24.444394   0.000000
   12       31.897934   0.000000
   13       33.219857   0.000000
   14       33.219860   0.000000
   15       36.840003   0.000000
   16       36.840007   0.000000
 
 -0.3750000E+00  0.3750000E+00  0.3750000E+00  0.9375000E-01
    1      -12.428877   1.000000
    2       -0.278673   1.000000
    3        1.063010   1.000000
    4        2.494752   1.000000
    5       13.072245   0.000000
    6       15.246509   0.000000
    7       16.125319   0.000000
    8       20.428049   0.000000
    9       22.503683   0.000000
   10       25.547679   0.000000
   11       29.077804   0.000000
   12       31.619427   0.000000
   13       32.043604   0.000000
   14       35.367194   0.000000
   15       37.235473   0.000000
   16       40.110966   0.000000
