# ['Ni']

18 atoms
1 atom types

    0.0000     2.8778 xlo xhi
    0.0000     4.9846 ylo yhi
    0.0000    42.2885 zlo zhi

    0.0000     0.0000    -0.0004 xy xz yz

Atoms

1 1     0.0000     0.0000     0.0000
2 1     1.4389     0.8308     2.3494
3 1     0.0000     1.6615     4.6987
4 1     1.4389     2.4923     0.0000
5 1     0.0000     3.3231     2.3494
6 1     1.4389     4.1538     4.6987
7 1     0.0000     0.0000     7.0481
8 1     1.4389     0.8308     9.3974
9 1     0.0000     1.6615    11.7468
10 1     1.4389     2.4923     7.0481
11 1     0.0000     3.3231     9.3974
12 1     1.4389     4.1538    11.7468
13 1     0.0000     0.0000    14.0962
14 1     1.4389     0.8308    16.4455
15 1     0.0000     1.6615    18.7949
16 1     1.4389     2.4923    14.0962
17 1     0.0000     3.3231    16.4455
18 1     1.4389     4.1538    18.7949
