   2   2   0   0
  0.9563318E+01  0.3001819E-09  0.3001820E-09  0.3001819E-09  0.5000000E-15
  1.000000000000000E-004
  CAR 
 automatically generated by pyflamestk   
     44.07449114    -16.32048387  301      3.63502246      1.00000000
    -16.320  0.0000E+00  0.0000E+00
    -16.119  0.0000E+00  0.0000E+00
    -15.918  0.0000E+00  0.0000E+00
    -15.717  0.0000E+00  0.0000E+00
    -15.515  0.0000E+00  0.0000E+00
    -15.314  0.0000E+00  0.0000E+00
    -15.113  0.0000E+00  0.0000E+00
    -14.911  0.0000E+00  0.0000E+00
    -14.710  0.0000E+00  0.0000E+00
    -14.509  0.0000E+00  0.0000E+00
    -14.307  0.0000E+00  0.0000E+00
    -14.106  0.0000E+00  0.0000E+00
    -13.905  0.0000E+00  0.0000E+00
    -13.703  0.4511E-04  0.9082E-05
    -13.502  0.3045E+00  0.6130E-01
    -13.301  0.1018E-01  0.6335E-01
    -13.099  0.9262E+00  0.2498E+00
    -12.898  0.6511E+00  0.3809E+00
    -12.697  0.7790E+00  0.5377E+00
    -12.495  0.2441E+01  0.1029E+01
    -12.294  0.2829E+01  0.1599E+01
    -12.093  0.1993E+01  0.2000E+01
    -11.892  0.1484E-05  0.2000E+01
    -11.690  0.0000E+00  0.2000E+01
    -11.489  0.0000E+00  0.2000E+01
    -11.288  0.0000E+00  0.2000E+01
    -11.086  0.0000E+00  0.2000E+01
    -10.885  0.0000E+00  0.2000E+01
    -10.684  0.0000E+00  0.2000E+01
    -10.482  0.0000E+00  0.2000E+01
    -10.281  0.0000E+00  0.2000E+01
    -10.080  0.0000E+00  0.2000E+01
     -9.878  0.0000E+00  0.2000E+01
     -9.677  0.0000E+00  0.2000E+01
     -9.476  0.0000E+00  0.2000E+01
     -9.274  0.0000E+00  0.2000E+01
     -9.073  0.0000E+00  0.2000E+01
     -8.872  0.0000E+00  0.2000E+01
     -8.670  0.0000E+00  0.2000E+01
     -8.469  0.0000E+00  0.2000E+01
     -8.268  0.0000E+00  0.2000E+01
     -8.067  0.0000E+00  0.2000E+01
     -7.865  0.0000E+00  0.2000E+01
     -7.664  0.0000E+00  0.2000E+01
     -7.463  0.0000E+00  0.2000E+01
     -7.261  0.0000E+00  0.2000E+01
     -7.060  0.0000E+00  0.2000E+01
     -6.859  0.0000E+00  0.2000E+01
     -6.657  0.0000E+00  0.2000E+01
     -6.456  0.0000E+00  0.2000E+01
     -6.255  0.0000E+00  0.2000E+01
     -6.053  0.0000E+00  0.2000E+01
     -5.852  0.0000E+00  0.2000E+01
     -5.651  0.0000E+00  0.2000E+01
     -5.449  0.0000E+00  0.2000E+01
     -5.248  0.0000E+00  0.2000E+01
     -5.047  0.0000E+00  0.2000E+01
     -4.845  0.0000E+00  0.2000E+01
     -4.644  0.0000E+00  0.2000E+01
     -4.443  0.0000E+00  0.2000E+01
     -4.241  0.0000E+00  0.2000E+01
     -4.040  0.0000E+00  0.2000E+01
     -3.839  0.0000E+00  0.2000E+01
     -3.638  0.0000E+00  0.2000E+01
     -3.436  0.0000E+00  0.2000E+01
     -3.235  0.0000E+00  0.2000E+01
     -3.034  0.0000E+00  0.2000E+01
     -2.832  0.0000E+00  0.2000E+01
     -2.631  0.0000E+00  0.2000E+01
     -2.430  0.0000E+00  0.2000E+01
     -2.228  0.0000E+00  0.2000E+01
     -2.027  0.0000E+00  0.2000E+01
     -1.826  0.0000E+00  0.2000E+01
     -1.624  0.0000E+00  0.2000E+01
     -1.423  0.0000E+00  0.2000E+01
     -1.222  0.0000E+00  0.2000E+01
     -1.020  0.1111E-06  0.2000E+01
     -0.819  0.6530E+00  0.2131E+01
     -0.618  0.3022E+00  0.2192E+01
     -0.416  0.3887E+00  0.2271E+01
     -0.215  0.2480E+01  0.2770E+01
     -0.014  0.1962E+01  0.3165E+01
      0.187  0.1964E+01  0.3560E+01
      0.389  0.9388E+00  0.3749E+01
      0.590  0.3921E-02  0.3750E+01
      0.791  0.1275E-07  0.3750E+01
      0.993  0.9453E+00  0.3940E+01
      1.194  0.2400E+01  0.4424E+01
      1.395  0.3799E+00  0.4500E+01
      1.597  0.1315E-03  0.4500E+01
      1.798  0.2691E+01  0.5042E+01
      1.999  0.1334E+00  0.5069E+01
      2.201  0.2455E+01  0.5563E+01
      2.402  0.2251E+01  0.6016E+01
      2.603  0.4445E+01  0.6911E+01
      2.805  0.1390E+01  0.7191E+01
      3.006  0.2719E+01  0.7738E+01
      3.207  0.6808E+00  0.7875E+01
      3.409  0.6174E+00  0.7999E+01
      3.610  0.2902E-02  0.8000E+01
      3.811  0.0000E+00  0.8000E+01
      4.012  0.0000E+00  0.8000E+01
      4.214  0.0000E+00  0.8000E+01
      4.415  0.0000E+00  0.8000E+01
      4.616  0.0000E+00  0.8000E+01
      4.818  0.0000E+00  0.8000E+01
      5.019  0.0000E+00  0.8000E+01
      5.220  0.0000E+00  0.8000E+01
      5.422  0.0000E+00  0.8000E+01
      5.623  0.0000E+00  0.8000E+01
      5.824  0.0000E+00  0.8000E+01
      6.026  0.0000E+00  0.8000E+01
      6.227  0.0000E+00  0.8000E+01
      6.428  0.0000E+00  0.8000E+01
      6.630  0.0000E+00  0.8000E+01
      6.831  0.0000E+00  0.8000E+01
      7.032  0.0000E+00  0.8000E+01
      7.234  0.0000E+00  0.8000E+01
      7.435  0.0000E+00  0.8000E+01
      7.636  0.0000E+00  0.8000E+01
      7.838  0.0000E+00  0.8000E+01
      8.039  0.0000E+00  0.8000E+01
      8.240  0.0000E+00  0.8000E+01
      8.441  0.0000E+00  0.8000E+01
      8.643  0.1100E-07  0.8000E+01
      8.844  0.1924E+00  0.8039E+01
      9.045  0.1180E+00  0.8062E+01
      9.247  0.0000E+00  0.8062E+01
      9.448  0.0000E+00  0.8062E+01
      9.649  0.0000E+00  0.8062E+01
      9.851  0.0000E+00  0.8062E+01
     10.052  0.0000E+00  0.8062E+01
     10.253  0.8111E-06  0.8063E+01
     10.455  0.7631E+00  0.8216E+01
     10.656  0.1683E+00  0.8250E+01
     10.857  0.1176E-07  0.8250E+01
     11.059  0.1939E+00  0.8289E+01
     11.260  0.6880E+00  0.8428E+01
     11.461  0.3600E+00  0.8500E+01
     11.663  0.3461E-06  0.8500E+01
     11.864  0.7187E+00  0.8645E+01
     12.065  0.2127E+00  0.8687E+01
     12.266  0.6856E-02  0.8689E+01
     12.468  0.9240E+00  0.8875E+01
     12.669  0.2182E+00  0.8919E+01
     12.870  0.1665E+01  0.9254E+01
     13.072  0.9121E+00  0.9438E+01
     13.273  0.9219E+00  0.9623E+01
     13.474  0.9207E-02  0.9625E+01
     13.676  0.8631E+00  0.9799E+01
     13.877  0.1184E+01  0.1004E+02
     14.078  0.1669E+01  0.1037E+02
     14.280  0.9223E-02  0.1038E+02
     14.481  0.0000E+00  0.1038E+02
     14.682  0.4358E-09  0.1038E+02
     14.884  0.9685E+00  0.1057E+02
     15.085  0.2757E+01  0.1112E+02
     15.286  0.4166E-01  0.1113E+02
     15.488  0.1841E+01  0.1150E+02
     15.689  0.2877E+01  0.1208E+02
     15.890  0.1139E+01  0.1231E+02
     16.091  0.4620E-01  0.1232E+02
     16.293  0.1569E+01  0.1264E+02
     16.494  0.2480E+00  0.1269E+02
     16.695  0.0000E+00  0.1269E+02
     16.897  0.2231E-06  0.1269E+02
     17.098  0.1307E+01  0.1295E+02
     17.299  0.9425E+00  0.1314E+02
     17.501  0.8535E+00  0.1331E+02
     17.702  0.2096E-02  0.1331E+02
     17.903  0.1125E-04  0.1331E+02
     18.105  0.8656E+00  0.1349E+02
     18.306  0.6572E-01  0.1350E+02
     18.507  0.2108E-12  0.1350E+02
     18.709  0.5701E-01  0.1351E+02
     18.910  0.8743E+00  0.1369E+02
     19.111  0.1553E-04  0.1369E+02
     19.313  0.2877E-03  0.1369E+02
     19.514  0.7169E+00  0.1383E+02
     19.715  0.2419E+01  0.1432E+02
     19.917  0.1749E+01  0.1467E+02
     20.118  0.1002E+01  0.1487E+02
     20.319  0.1680E+01  0.1521E+02
     20.520  0.1148E+01  0.1544E+02
     20.722  0.9085E+00  0.1562E+02
     20.923  0.3183E+00  0.1569E+02
     21.124  0.6186E+00  0.1581E+02
     21.326  0.9500E+00  0.1600E+02
     21.527  0.9075E+00  0.1619E+02
     21.728  0.1828E+01  0.1656E+02
     21.930  0.3475E-01  0.1656E+02
     22.131  0.2952E-03  0.1656E+02
     22.332  0.9205E+00  0.1675E+02
     22.534  0.1065E-01  0.1675E+02
     22.735  0.9025E+00  0.1693E+02
     22.936  0.1883E+01  0.1731E+02
     23.138  0.5406E+00  0.1742E+02
     23.339  0.1331E+01  0.1769E+02
     23.540  0.2608E-04  0.1769E+02
     23.742  0.5969E+00  0.1781E+02
     23.943  0.9470E+00  0.1800E+02
     24.144  0.8636E-02  0.1800E+02
     24.345  0.3087E+00  0.1806E+02
     24.547  0.9561E+00  0.1825E+02
     24.748  0.5976E+00  0.1837E+02
     24.949  0.8512E-02  0.1838E+02
     25.151  0.1229E+01  0.1862E+02
     25.352  0.4390E-02  0.1863E+02
     25.553  0.1558E+01  0.1894E+02
     25.755  0.1193E+01  0.1918E+02
     25.956  0.4313E-01  0.1919E+02
     26.157  0.9326E+00  0.1938E+02
     26.359  0.9302E+00  0.1956E+02
     26.560  0.2553E+00  0.1961E+02
     26.761  0.2539E+01  0.2012E+02
     26.963  0.3033E-02  0.2013E+02
     27.164  0.9421E+00  0.2032E+02
     27.365  0.9190E+00  0.2050E+02
     27.567  0.3088E+00  0.2056E+02
     27.768  0.2724E-03  0.2056E+02
     27.969  0.0000E+00  0.2056E+02
     28.170  0.0000E+00  0.2056E+02
     28.372  0.0000E+00  0.2056E+02
     28.573  0.0000E+00  0.2056E+02
     28.774  0.4551E-03  0.2056E+02
     28.976  0.6422E+00  0.2069E+02
     29.177  0.2707E+01  0.2124E+02
     29.378  0.9953E+00  0.2144E+02
     29.580  0.6755E+00  0.2157E+02
     29.781  0.2574E+00  0.2162E+02
     29.982  0.4540E-06  0.2163E+02
     30.184  0.1884E+01  0.2200E+02
     30.385  0.1768E+01  0.2236E+02
     30.586  0.1211E+01  0.2260E+02
     30.788  0.7256E+00  0.2275E+02
     30.989  0.3956E-06  0.2275E+02
     31.190  0.4381E+00  0.2284E+02
     31.392  0.1424E+01  0.2312E+02
     31.593  0.8651E+00  0.2330E+02
     31.794  0.1395E+01  0.2358E+02
     31.995  0.2397E+01  0.2406E+02
     32.197  0.1295E+01  0.2432E+02
     32.398  0.1276E+01  0.2458E+02
     32.599  0.4204E+01  0.2543E+02
     32.801  0.1724E+00  0.2546E+02
     33.002  0.2686E+01  0.2600E+02
     33.203  0.9222E+00  0.2619E+02
     33.405  0.7847E+00  0.2635E+02
     33.606  0.1699E+01  0.2669E+02
     33.807  0.4415E-06  0.2669E+02
     34.009  0.0000E+00  0.2669E+02
     34.210  0.0000E+00  0.2669E+02
     34.411  0.0000E+00  0.2669E+02
     34.613  0.0000E+00  0.2669E+02
     34.814  0.2536E-08  0.2669E+02
     35.015  0.4436E+00  0.2678E+02
     35.217  0.2350E+01  0.2725E+02
     35.418  0.3709E-03  0.2725E+02
     35.619  0.8235E+00  0.2742E+02
     35.821  0.2765E+01  0.2797E+02
     36.022  0.7115E+00  0.2812E+02
     36.223  0.3564E+00  0.2819E+02
     36.424  0.1193E-02  0.2819E+02
     36.626  0.1936E+01  0.2858E+02
     36.827  0.8572E+00  0.2875E+02
     37.028  0.2189E+00  0.2879E+02
     37.230  0.4021E+00  0.2888E+02
     37.431  0.7966E+00  0.2904E+02
     37.632  0.1071E+01  0.2925E+02
     37.834  0.9253E+00  0.2944E+02
     38.035  0.8064E+00  0.2960E+02
     38.236  0.1057E+01  0.2981E+02
     38.438  0.8606E+00  0.2999E+02
     38.639  0.7075E-01  0.3000E+02
     38.840  0.1479E-10  0.3000E+02
     39.042  0.2111E+00  0.3004E+02
     39.243  0.3788E+01  0.3081E+02
     39.444  0.3649E-01  0.3081E+02
     39.646  0.0000E+00  0.3081E+02
     39.847  0.0000E+00  0.3081E+02
     40.048  0.2068E-15  0.3081E+02
     40.249  0.7033E-02  0.3081E+02
     40.451  0.9238E+00  0.3100E+02
     40.652  0.5112E-03  0.3100E+02
     40.853  0.1486E-08  0.3100E+02
     41.055  0.1498E+00  0.3103E+02
     41.256  0.1562E+01  0.3134E+02
     41.457  0.3256E+01  0.3200E+02
     41.659  0.3078E-03  0.3200E+02
     41.860  0.0000E+00  0.3200E+02
     42.061  0.0000E+00  0.3200E+02
     42.263  0.0000E+00  0.3200E+02
     42.464  0.0000E+00  0.3200E+02
     42.665  0.0000E+00  0.3200E+02
     42.867  0.0000E+00  0.3200E+02
     43.068  0.0000E+00  0.3200E+02
     43.269  0.0000E+00  0.3200E+02
     43.471  0.0000E+00  0.3200E+02
     43.672  0.0000E+00  0.3200E+02
     43.873  0.0000E+00  0.3200E+02
     44.074  0.0000E+00  0.3200E+02
