# ['Ni']

10 atoms
1 atom types

    0.0000     3.5078 xlo xhi
    0.0000     2.5110 ylo yhi
    0.0000    25.1100 zlo zhi

    0.0000     0.0000     0.0000 xy xz yz

Atoms

1 1     0.0000     0.0000     0.0000
2 1     1.7539     1.2555     1.2555
3 1     0.0000     0.0000     2.5110
4 1     1.7539     1.2555     3.7665
5 1     0.0000     0.0000     5.0220
6 1     1.7539     1.2555     6.2775
7 1     0.0000     0.0000     7.5330
8 1     1.7539     1.2555     8.7885
9 1     0.0000     0.0000    10.0440
10 1     1.7539     1.2555    11.2995
