LAMMPS (11 Aug 2017)
Reading data file ...
  triclinic box = (0 0 0) to (3.1798 3.1798 31.7979) with tilt (0 -0 0)
  1 by 1 by 1 MPI processor grid
  reading atoms ...
  20 atoms
20 atoms in group Ni
Neighbor list info ...
  update every 1 steps, delay 0 steps, check yes
  max neighbors/atom: 2000, page size: 100000
  master list distance cutoff = 5.64464
  ghost atom cutoff = 5.64464
  binsize = 2.82232, bins = 2 2 12
  1 neighbor lists, perpetual/occasional/extra = 1 0 0
  (1) pair eam/alloy, perpetual
      attributes: half, newton on
      pair build: half/bin/newton/tri
      stencil: half/bin/3d/newton/tri
      bin: standard
Setting up cg style minimization ...
  Unit style    : metal
  Current step  : 0
Per MPI rank memory allocation (min/avg/max) = 4.207 | 4.207 | 4.207 Mbytes
Step PotEng Lx Ly Lz Xy Xz Yz Press Pxx Pyy Pzz Pxy Pxz Pyz c_eatoms 
       0   -156.20676       3.1798       3.1798      31.7979            0           -0            0   -28998.295   -36061.319   -36061.319   -14872.247 4.6334807e-12 5.497936e-12 3.561556e-12   -156.20676 
       1   -156.22632       3.1798       3.1798      31.7979            0           -0            0   -25048.681    -32560.77    -32560.77   -10024.502 2.3098247e-11 1.5905978e-12 3.6134233e-12   -156.22632 
       2   -156.23094       3.1798       3.1798      31.7979            0           -0            0   -22087.562   -29890.364   -29890.364   -6481.9564 -2.8319557e-11 -2.2925356e-11 4.2271866e-11   -156.23094 
       3   -156.23196       3.1798       3.1798      31.7979            0           -0            0   -21101.416   -29008.076   -29008.076   -5288.0978 -7.375533e-11 4.4156379e-11 -7.1749794e-12   -156.23196 
       4   -156.23224       3.1798       3.1798      31.7979            0           -0            0   -20538.495   -28501.165   -28501.165   -4613.1549 -2.8354135e-11 5.0415036e-11 -2.207819e-11   -156.23224 
       5   -156.23251       3.1798       3.1798      31.7979            0           -0            0   -18740.957   -26891.538   -26891.538   -2439.7942 3.291846e-11 -1.4280802e-11 5.9768443e-11   -156.23251 
       6   -156.23285       3.1798       3.1798      31.7979            0           -0            0   -17581.185    -25861.09    -25861.09   -1021.3753 -6.5352824e-12 -4.4813365e-11 -1.3831286e-11   -156.23285 
       7   -156.23306       3.1798       3.1798      31.7979            0           -0            0    -16794.96   -25166.668   -25166.668   -51.545534 -8.3264339e-11 -5.1417804e-11 8.0964888e-11   -156.23306 
       8   -156.23307       3.1798       3.1798      31.7979            0           -0            0    -16744.48   -25121.874   -25121.874    10.306658 2.2302948e-11 -3.077461e-11 -1.3416347e-11   -156.23307 
       9   -156.23308       3.1798       3.1798      31.7979            0           -0            0   -16774.132   -25148.549   -25148.549    -25.29816 2.0746928e-11 -3.8762178e-11 -3.7102423e-11   -156.23308 
      10   -156.23308       3.1798       3.1798      31.7979            0           -0            0   -16799.488   -25171.737   -25171.737     -54.9914 -1.4142489e-11 -2.3789811e-11 -1.4592006e-11   -156.23308 
      11   -156.23308       3.1798       3.1798      31.7979            0           -0            0   -16793.671   -25166.543   -25166.543   -47.927887 1.1756593e-11 -1.3520082e-11 -5.5204118e-11   -156.23308 
      12   -156.23308       3.1798       3.1798      31.7979            0           -0            0   -16772.064   -25147.204   -25147.204   -21.784248 1.7738624e-11 -7.2614249e-12 -4.6594143e-11   -156.23308 
      13   -156.23308       3.1798       3.1798      31.7979            0           -0            0     -16755.2   -25132.228   -25132.228   -1.1431367 -7.0193774e-12 4.0352776e-11 -2.8993832e-11   -156.23308 
      14   -156.23308       3.1798       3.1798      31.7979            0           -0            0     -16754.2   -25131.347   -25131.347  0.093952562 2.0643194e-11 6.5836919e-11 -4.451945e-11   -156.23308 
      15   -156.23308       3.1798       3.1798      31.7979            0           -0            0   -16754.556   -25131.671   -25131.671  -0.32823029 5.8056821e-11 -1.0027682e-12 -1.0096838e-11   -156.23308 
      16   -156.23308       3.1798       3.1798      31.7979            0           -0            0   -16754.628   -25131.737   -25131.737  -0.41109099 1.2240688e-11   5.4599e-11 -1.3001408e-11   -156.23308 
      17   -156.23308       3.1798       3.1798      31.7979            0           -0            0   -16754.645   -25131.752   -25131.752  -0.42996237 -2.6071973e-11 -1.6597543e-11 2.748968e-11   -156.23308 
      18   -156.23308       3.1798       3.1798      31.7979            0           -0            0   -16754.401   -25131.535   -25131.535  -0.13417643 5.4287796e-12 -1.0235151e-11 -5.2057501e-11   -156.23308 
      19   -156.23308       3.1798       3.1798      31.7979            0           -0            0   -16754.286   -25131.432   -25131.432  0.005848145 -2.0435724e-11 -2.4896314e-11 -3.3195085e-12   -156.23308 
      20   -156.23308       3.1798       3.1798      31.7979            0           -0            0   -16754.293   -25131.439   -25131.439 -0.0021945684 -3.3921228e-11 5.982031e-12 -3.5269778e-12   -156.23308 
      21   -156.23308       3.1798       3.1798      31.7979            0           -0            0   -16754.294    -25131.44    -25131.44 -0.0033520655 -4.2946142e-11 4.7372153e-12 3.2866592e-11   -156.23308 
      22   -156.23308       3.1798       3.1798      31.7979            0           -0            0   -16754.294    -25131.44    -25131.44 -0.0035753724 -3.5961342e-11 -3.2849303e-12 2.7472391e-11   -156.23308 
      23   -156.23308       3.1798       3.1798      31.7979            0           -0            0   -16754.294    -25131.44    -25131.44 -0.0036116313 1.103045e-11 -1.58714e-11 3.9142538e-11   -156.23308 
      24   -156.23308       3.1798       3.1798      31.7979            0           -0            0   -16754.292   -25131.438   -25131.438 -0.00093542024 1.5214414e-11 1.1410811e-12 -1.4012821e-10   -156.23308 
      25   -156.23308       3.1798       3.1798      31.7979            0           -0            0   -16754.291   -25131.437   -25131.437 -1.7155062e-05 5.5325142e-13 -2.3720655e-11 -1.0726162e-10   -156.23308 
      26   -156.23308       3.1798       3.1798      31.7979            0           -0            0   -16754.291   -25131.437   -25131.437 5.5174467e-06 7.3997378e-12 -2.0850663e-11 -5.8125977e-11   -156.23308 
      27   -156.23308       3.1798       3.1798      31.7979            0           -0            0   -16754.291   -25131.437   -25131.437 -3.6026188e-05 -5.8437181e-12 -4.529746e-12 1.683959e-11   -156.23308 
Loop time of 0.00259018 on 1 procs for 27 steps with 20 atoms

100.0% CPU use with 1 MPI tasks x no OpenMP threads

Minimization stats:
  Stopping criterion = energy tolerance
  Energy initial, next-to-last, final = 
        -156.206755271     -156.233076144     -156.233076144
  Force two-norm initial, final = 1.09797 1.03784e-09
  Force max component initial, final = 0.412887 3.40848e-10
  Final line search alpha, max atom move = 1 3.40848e-10
  Iterations, force evaluations = 27 54

MPI task timing breakdown:
Section |  min time  |  avg time  |  max time  |%varavg| %total
---------------------------------------------------------------
Pair    | 0.0020959  | 0.0020959  | 0.0020959  |   0.0 | 80.92
Neigh   | 0          | 0          | 0          |   0.0 |  0.00
Comm    | 0.00014257 | 0.00014257 | 0.00014257 |   0.0 |  5.50
Output  | 0.00026608 | 0.00026608 | 0.00026608 |   0.0 | 10.27
Modify  | 0          | 0          | 0          |   0.0 |  0.00
Other   |            | 8.559e-05  |            |       |  3.30

Nlocal:    20 ave 20 max 20 min
Histogram: 1 0 0 0 0 0 0 0 0 0
Nghost:    547 ave 547 max 547 min
Histogram: 1 0 0 0 0 0 0 0 0 0
Neighs:    752 ave 752 max 752 min
Histogram: 1 0 0 0 0 0 0 0 0 0

Total # of neighbors = 752
Ave neighs/atom = 37.6
Neighbor list builds = 0
Dangerous builds = 0
pypospack:output_section:begin
tot_energy = -156.233076144001
num_atoms = 20
a11 = 3.1798
a22 = 3.1798
a33 = 31.7979
a12 = 0
a13 = -0
a23 = 0
tot_press = -16754.2914989787
pxx = -25131.437230455
pyy = -25131.4372304549
pzz = -3.60261879899265e-05
pxy = -5.84371813334916e-12
pxz = -4.52974600869077e-12
pyz = 1.68395901239115e-11
pypospack:output_section:done
pypospack:lammps_sim:done
Total wall time: 0:00:00
