# ['Ni']

20 atoms
1 atom types

    0.0000     3.1798 xlo xhi
    0.0000     3.1798 ylo yhi
    0.0000    31.7979 zlo zhi

    0.0000    -0.0000     0.0000 xy xz yz

Atoms

1 1     0.0000     0.0000     0.0000
2 1     1.5899     1.5899     0.0000
3 1     1.5899     0.0000     1.5899
4 1     0.0000     1.5899     1.5899
5 1     0.0000     0.0000     3.1798
6 1     1.5899     1.5899     3.1798
7 1     1.5899     0.0000     4.7697
8 1     0.0000     1.5899     4.7697
9 1     0.0000     0.0000     6.3596
10 1     1.5899     1.5899     6.3596
11 1     1.5899     0.0000     7.9495
12 1     0.0000     1.5899     7.9495
13 1     0.0000     0.0000     9.5394
14 1     1.5899     1.5899     9.5394
15 1     1.5899     0.0000    11.1293
16 1     0.0000     1.5899    11.1293
17 1     0.0000     0.0000    12.7192
18 1     1.5899     1.5899    12.7192
19 1     1.5899     0.0000    14.3091
20 1     0.0000     1.5899    14.3091
