LAMMPS (11 Aug 2017)
Reading data file ...
  triclinic box = (0 0 0) to (3.5167 3.5167 3.5167) with tilt (0 -0 0)
  1 by 1 by 1 MPI processor grid
  reading atoms ...
  4 atoms
4 atoms in group Ni
Neighbor list info ...
  update every 1 steps, delay 0 steps, check yes
  max neighbors/atom: 2000, page size: 100000
  master list distance cutoff = 5.64464
  ghost atom cutoff = 5.64464
  binsize = 2.82232, bins = 2 2 2
  1 neighbor lists, perpetual/occasional/extra = 1 0 0
  (1) pair eam/alloy, perpetual
      attributes: half, newton on
      pair build: half/bin/newton/tri
      stencil: half/bin/3d/newton/tri
      bin: standard
Setting up cg style minimization ...
  Unit style    : metal
  Current step  : 0
WARNING: Energy due to 3 extra global DOFs will be included in minimizer energies
Per MPI rank memory allocation (min/avg/max) = 4.211 | 4.211 | 4.211 Mbytes
Step PotEng Xhi Xlo Yhi Ylo Zhi Xy Xz Yz Press Pxx Pyy Pzz Pxy Pxz Pyz c_eatoms 
       0   -18.288015       3.5167            0       3.5167            0       3.5167            0           -0            0   -347717.45   -347717.45   -347717.45   -347717.45 3.6553644e-11 2.8885047e-11 3.5786784e-12   -18.288015 
      10   -18.556797    3.4991165    0.0175835    3.4991165    0.0175835    3.4991165            0           -0            0   -317587.82   -317587.82   -317587.82   -317587.82 -3.0296112e-12 4.083389e-12 5.7826057e-11   -18.556797 
      20   -18.793039     3.481533     0.035167     3.481533     0.035167     3.481533            0           -0            0   -278686.21   -278686.21   -278686.21   -278686.21 -2.6480186e-11 -2.0369374e-11 9.9130952e-12   -18.793039 
      30   -18.990518    3.4639495    0.0527505    3.4639495    0.0527505    3.4639495            0           -0            0    -229459.6    -229459.6    -229459.6    -229459.6 4.3272095e-11 3.6270138e-11 2.618732e-11   -18.990518 
      40   -19.142175     3.446366     0.070334     3.446366     0.070334     3.446366            0           -0            0   -168102.52   -168102.52   -168102.52   -168102.52 5.6339833e-12 2.3836083e-11 3.1781444e-12   -19.142175 
      50   -19.240009    3.4287825    0.0879175    3.4287825    0.0879175    3.4287825            0           -0            0    -92516.58    -92516.58    -92516.58    -92516.58 -3.8758519e-12 -2.3851396e-12 5.9628491e-13   -19.240009 
      60   -19.274956     3.411199     0.105501     3.411199     0.105501     3.411199            0           -0            0   -263.54728   -263.54728   -263.54728   -263.54728 -1.3849165e-11 2.3081942e-11 -1.969659e-11   -19.274956 
      66   -19.274956    3.4111534   0.10554665    3.4111534   0.10554665    3.4111534            0           -0            0 -2.2920728e-08 -2.2910879e-08 -2.2904724e-08 -2.2946582e-08 -7.6946181e-12 5.5401251e-12 -2.1544931e-12   -19.274956 
Loop time of 0.00125909 on 1 procs for 66 steps with 4 atoms

95.1% CPU use with 1 MPI tasks x no OpenMP threads

Minimization stats:
  Stopping criterion = energy tolerance
  Energy initial, next-to-last, final = 
        -18.2880149738     -19.2749559222     -19.2749559222
  Force two-norm initial, final = 16.3487 9.74531e-13
  Force max component initial, final = 9.43892 5.50358e-13
  Final line search alpha, max atom move = 1 5.50358e-13
  Iterations, force evaluations = 66 72

MPI task timing breakdown:
Section |  min time  |  avg time  |  max time  |%varavg| %total
---------------------------------------------------------------
Pair    | 0.00065207 | 0.00065207 | 0.00065207 |   0.0 | 51.79
Neigh   | 0          | 0          | 0          |   0.0 |  0.00
Comm    | 0.00013041 | 0.00013041 | 0.00013041 |   0.0 | 10.36
Output  | 6.6042e-05 | 6.6042e-05 | 6.6042e-05 |   0.0 |  5.25
Modify  | 0          | 0          | 0          |   0.0 |  0.00
Other   |            | 0.0004106  |            |       | 32.61

Nlocal:    4 ave 4 max 4 min
Histogram: 1 0 0 0 0 0 0 0 0 0
Nghost:    360 ave 360 max 360 min
Histogram: 1 0 0 0 0 0 0 0 0 0
Neighs:    156 ave 156 max 156 min
Histogram: 1 0 0 0 0 0 0 0 0 0

Total # of neighbors = 156
Ave neighs/atom = 39
Neighbor list builds = 0
Dangerous builds = 0
pypospack:output_section:begin
tot_energy = -19.2749559222124
num_atoms = 4
a11 = 3.3056067033635
a22 = 3.3056067033635
a33 = 3.3056067033635
a12 = 0
a13 = -0
a23 = 0
tot_press = -2.2920728494999e-08
pxx = -2.29108793837885e-08
pyy = -2.2904723689282e-08
pzz = -2.29465824119263e-08
pxy = -7.69461813314051e-12
pxz = 5.54012505586117e-12
pyz = -2.15449307727934e-12
pypospack:output_section:done
pypospack:lammps_sim:done
Total wall time: 0:00:00
