LAMMPS (11 Aug 2017)
# ---- initialize simulations
clear
units metal
dimension 3
boundary p p p
atom_style atomic
atom_modify map array
# ---- create atoms
read_data /home/sullberg/repos/pypospack/dev/cluster_sampling/dev__cluster_sampling/rank_15/Ni_fcc.lmps_min_all/lammps.structure
  triclinic box = (0 0 0) to (3.5167 3.5167 3.5167) with tilt (0 -0 0)
  1 by 1 by 1 MPI processor grid
  reading atoms ...
  4 atoms
# ---- define interatomic potential
include potential.mod
mass 1 58.6934

group Ni type 1
4 atoms in group Ni

pair_style eam/alloy
pair_coeff * * /home/sullberg/repos/pypospack/dev/cluster_sampling/dev__cluster_sampling/rank_15/Ni_fcc.lmps_min_all/Ni.eam.alloy Ni

neighbor 1.0 bin
neigh_modify every 1 delay 0 check yes
# ---- define settings
compute eng all pe/atom
compute eatoms all reduce sum c_eng
# ---- run minimization
reset_timestep 0
fix 1 all box/relax aniso 0.0 vmax 0.001
thermo 10
thermo_style custom step pe xhi xlo yhi ylo zhi xy xz yz press pxx pyy pzz pxy pxz pyz c_eatoms
min_style cg
minimize 1e-25 1e-25 5000 10000
Neighbor list info ...
  update every 1 steps, delay 0 steps, check yes
  max neighbors/atom: 2000, page size: 100000
  master list distance cutoff = 5.64464
  ghost atom cutoff = 5.64464
  binsize = 2.82232, bins = 2 2 2
  1 neighbor lists, perpetual/occasional/extra = 1 0 0
  (1) pair eam/alloy, perpetual
      attributes: half, newton on
      pair build: half/bin/newton/tri
      stencil: half/bin/3d/newton/tri
      bin: standard
Per MPI rank memory allocation (min/avg/max) = 4.211 | 4.211 | 4.211 Mbytes
Step PotEng Xhi Xlo Yhi Ylo Zhi Xy Xz Yz Press Pxx Pyy Pzz Pxy Pxz Pyz c_eatoms 
       0   -18.288015       3.5167            0       3.5167            0       3.5167            0           -0            0   -347717.45   -347717.45   -347717.45   -347717.45 3.6553644e-11 2.8885047e-11 3.5786784e-12   -18.288015 
      10   -18.556797    3.4991165    0.0175835    3.4991165    0.0175835    3.4991165            0           -0            0   -317587.82   -317587.82   -317587.82   -317587.82 -3.0296112e-12 4.083389e-12 5.7826057e-11   -18.556797 
      20   -18.793039     3.481533     0.035167     3.481533     0.035167     3.481533            0           -0            0   -278686.21   -278686.21   -278686.21   -278686.21 -2.6480186e-11 -2.0369374e-11 9.9130952e-12   -18.793039 
      30   -18.990518    3.4639495    0.0527505    3.4639495    0.0527505    3.4639495            0           -0            0    -229459.6    -229459.6    -229459.6    -229459.6 4.3272095e-11 3.6270138e-11 2.618732e-11   -18.990518 
      40   -19.142175     3.446366     0.070334     3.446366     0.070334     3.446366            0           -0            0   -168102.52   -168102.52   -168102.52   -168102.52 5.6339833e-12 2.3836083e-11 3.1781444e-12   -19.142175 
      50   -19.240009    3.4287825    0.0879175    3.4287825    0.0879175    3.4287825            0           -0            0    -92516.58    -92516.58    -92516.58    -92516.58 -3.8758519e-12 -2.3851396e-12 5.9628491e-13   -19.240009 
      60   -19.274956     3.411199     0.105501     3.411199     0.105501     3.411199            0           -0            0   -263.54728   -263.54728   -263.54728   -263.54728 -1.3849165e-11 2.3081942e-11 -1.969659e-11   -19.274956 
      66   -19.274956    3.4111534   0.10554665    3.4111534   0.10554665    3.4111534            0           -0            0 -2.2920728e-08 -2.2910879e-08 -2.2904724e-08 -2.2946582e-08 -7.6946181e-12 5.5401251e-12 -2.1544931e-12   -19.274956 
Loop time of 0.00125909 on 1 procs for 66 steps with 4 atoms

95.1% CPU use with 1 MPI tasks x no OpenMP threads

Minimization stats:
  Stopping criterion = energy tolerance
  Energy initial, next-to-last, final = 
        -18.2880149738     -19.2749559222     -19.2749559222
  Force two-norm initial, final = 16.3487 9.74531e-13
  Force max component initial, final = 9.43892 5.50358e-13
  Final line search alpha, max atom move = 1 5.50358e-13
  Iterations, force evaluations = 66 72

MPI task timing breakdown:
Section |  min time  |  avg time  |  max time  |%varavg| %total
---------------------------------------------------------------
Pair    | 0.00065207 | 0.00065207 | 0.00065207 |   0.0 | 51.79
Neigh   | 0          | 0          | 0          |   0.0 |  0.00
Comm    | 0.00013041 | 0.00013041 | 0.00013041 |   0.0 | 10.36
Output  | 6.6042e-05 | 6.6042e-05 | 6.6042e-05 |   0.0 |  5.25
Modify  | 0          | 0          | 0          |   0.0 |  0.00
Other   |            | 0.0004106  |            |       | 32.61

Nlocal:    4 ave 4 max 4 min
Histogram: 1 0 0 0 0 0 0 0 0 0
Nghost:    360 ave 360 max 360 min
Histogram: 1 0 0 0 0 0 0 0 0 0
Neighs:    156 ave 156 max 156 min
Histogram: 1 0 0 0 0 0 0 0 0 0

Total # of neighbors = 156
Ave neighs/atom = 39
Neighbor list builds = 0
Dangerous builds = 0
# ---- define output variables ----
variable natoms equal "count(all)"
variable tot_energy equal "c_eatoms"
variable a11 equal "xhi-xlo"
variable a22 equal "yhi-ylo"
variable a33 equal "zhi-zlo"
variable tilt_xy equal "xy"
variable tilt_xz equal "xz"
variable tilt_yz equal "yz"
variable tot_press equal "press"
variable press_xx equal "pxx"
variable press_yy equal "pyy"
variable press_zz equal "pzz"
variable press_xy equal "pxy"
variable press_xz equal "pxz"
variable press_yz equal "pyz"

# ---- output ----
print "pypospack:output_section:begin"
pypospack:output_section:begin
print "tot_energy = ${tot_energy}"
tot_energy = -19.2749559222124
print "num_atoms = ${natoms}"
num_atoms = 4
print "a11 = ${a11}"
a11 = 3.3056067033635
print "a22 = ${a22}"
a22 = 3.3056067033635
print "a33 = ${a33}"
a33 = 3.3056067033635
print "a12 = ${tilt_xy}"
a12 = 0
print "a13 = ${tilt_xz}"
a13 = -0
print "a23 = ${tilt_yz}"
a23 = 0
print "tot_press = ${tot_press}"
tot_press = -2.2920728494999e-08
print "pxx = ${press_xx}"
pxx = -2.29108793837885e-08
print "pyy = ${press_yy}"
pyy = -2.2904723689282e-08
print "pzz = ${press_zz}"
pzz = -2.29465824119263e-08
print "pxy = ${press_xy}"
pxy = -7.69461813314051e-12
print "pxz = ${press_xz}"
pxz = 5.54012505586117e-12
print "pyz = ${press_yz}"
pyz = -2.15449307727934e-12
print "pypospack:output_section:done"
pypospack:output_section:done
print "pypospack:lammps_sim:done"
pypospack:lammps_sim:done
Total wall time: 0:00:00
