# ['Ni']

10 atoms
1 atom types

    0.0000     2.7791 xlo xhi
    0.0000     1.9894 ylo yhi
    0.0000    19.8940 zlo zhi

    0.0000     0.0000     0.0000 xy xz yz

Atoms

1 1     0.0000     0.0000     0.0000
2 1     1.3896     0.9947     0.9947
3 1     0.0000     0.0000     1.9894
4 1     1.3896     0.9947     2.9841
5 1     0.0000     0.0000     3.9788
6 1     1.3896     0.9947     4.9735
7 1     0.0000     0.0000     5.9682
8 1     1.3896     0.9947     6.9629
9 1     0.0000     0.0000     7.9576
10 1     1.3896     0.9947     8.9523
