LAMMPS (10 Feb 2015)
Reading data file ...
  triclinic box = (0 0 0) to (4.2565 4.2565 4.2565) with tilt (0 0 0)
  1 by 1 by 1 MPI processor grid
  reading atoms ...
  8 atoms
4 atoms in group Mg
4 atoms in group O
Setting atom values ...
  4 settings made for charge
Setting atom values ...
  4 settings made for charge
PPPM initialization ...
  G vector (1/distance) = 0.352969
  grid = 8 8 8
  stencil order = 5
  estimated absolute RMS force accuracy = 4.01483e-05
  estimated relative force accuracy = 2.78815e-06
  using double precision FFTs
  3d grid and FFT values/proc = 3375 512
Neighbor list info ...
  1 neighbor list requests
  update every 1 steps, delay 0 steps, check yes
  master list distance cutoff = 11
Setting up minimization ...
Memory usage per processor = 4.06549 Mbytes
Step PotEng Lx Ly Lz Xy Xz Yz Press Pxx Pyy Pzz Pxy Pxz Pyz eatoms 
       0   -115.02334       4.2565       4.2565       4.2565            0            0            0    14836.064    14836.064    14836.064    14836.064 5.7083842e-11 -5.8546636e-11 3.613515e-11   -115.02334 
       4   -115.02629     4.268627     4.268627     4.268627            0            0            0   -3.7663252   -3.7663252   -3.7663252   -3.7663252 5.5364648e-11 -5.1262271e-11 1.3911233e-11   -115.02629 
Loop time of 0.00727582 on 1 procs for 4 steps with 8 atoms

Minimization stats:
  Stopping criterion = linesearch alpha is zero
  Energy initial, next-to-last, final = 
        -115.023341276       -115.0262927       -115.0262927
  Force two-norm initial, final = 2.14234 0.00179672
  Force max component initial, final = 2.14234 0.000546963
  Final line search alpha, max atom move = 0.00390625 2.13657e-06
  Iterations, force evaluations = 4 21

Pair  time (%) = 0.0019722 (27.1062)
Kspce time (%) = 0.00116062 (15.9518)
Neigh time (%) = 0 (0)
Comm  time (%) = 0.000243664 (3.34895)
Outpt time (%) = 0 (0)
Other time (%) = 0.00389934 (53.5931)

Nlocal:    8 ave 8 max 8 min
Histogram: 1 0 0 0 0 0 0 0 0 0
Nghost:    2189 ave 2189 max 2189 min
Histogram: 1 0 0 0 0 0 0 0 0 0
Neighs:    2344 ave 2344 max 2344 min
Histogram: 1 0 0 0 0 0 0 0 0 0

Total # of neighbors = 2344
Ave neighs/atom = 293
Neighbor list builds = 0
Dangerous builds = 0
pypospack:output_section:begin
tot_energy = -115.026292700229
num_atoms = 8
xx = 4.26862697136346
yy = 4.26862697136346
zz = 4.26862697136346
xy = 0
xz = 0
yz = 0
tot_press = -3.7663252179344
pxx = -3.76632521787482
pyy = -3.76632521789834
pzz = -3.76632521803003
pxy = 5.53646482695888e-11
pxz = -5.12622707696674e-11
pyz = 1.39112332535826e-11
pypospack:output_section:done
pypospack:lammps_sim:done
PPPM initialization ...
  G vector (1/distance) = 0.352845
  grid = 8 8 8
  stencil order = 5
  estimated absolute RMS force accuracy = 4.03767e-05
  estimated relative force accuracy = 2.80401e-06
  using double precision FFTs
  3d grid and FFT values/proc = 3375 512
Setting up run ...
Memory usage per processor = 3.06549 Mbytes
Step Temp PotEng KinEng TotEng Press Lx Ly Lz Press Pxx Pyy Pzz Pxy Pxz Pyz Volume 
       0         1300    -115.0263    1.1762673   -113.85003    16149.045     4.268627     4.268627     4.268627    16149.045    3423.9905    10357.846    34665.298   -430.46647   -2500.9414    -7987.782    77.779404 
     100    573.35118    -114.2153    0.5187802   -113.69652    3528.7593    4.2872927    4.2872927    4.2872927    3528.7593    3706.8171   -11972.011    18851.471    698.45436    325.66613    20323.563    78.804207 
     200     598.0851   -113.91369   0.54115997   -113.37253    -11849.09    4.3020084    4.3020084    4.3020084    -11849.09   -2684.3315   -50977.078    18114.138   -667.58618    3994.8079    42223.382    79.618457 
     300    1589.4577   -114.52441    1.4381748   -113.08623   -3914.4456     4.301657     4.301657     4.301657   -3914.4456   -30592.841   -3955.7651     22805.27   -1244.9449   -6518.3658   -13094.891    79.598949 
     400    1462.9118   -114.19944    1.3236733   -112.87577    14561.828    4.2943414    4.2943414    4.2943414    14561.828   -12686.379   -12046.023    68417.887   -1061.1639   -1060.8475    14927.813    79.193533 
     500    1099.0853   -113.73845   0.99447545   -112.74397   -21943.552    4.3083569    4.3083569    4.3083569   -21943.552   -605.74363     -38282.1   -26942.812   -1496.7576    3924.4947    59427.166    79.971458 
     600    1268.6986   -113.80971    1.1479451   -112.66177   -9633.7339    4.3070294    4.3070294    4.3070294   -9633.7339   -17082.221   -20105.893    8286.9125    1497.2559   -1791.5055   -12074.295    79.897561 
     700    1069.7737   -113.60597   0.96795373   -112.63801    10085.302    4.2983163    4.2983163    4.2983163    10085.302   -16643.518    25670.108    21229.315    793.88852   -15549.609   -3739.4537    79.413642 
     800    1081.8225   -113.62335   0.97885577    -112.6445   -20921.092    4.3104169    4.3104169    4.3104169   -20921.092    -21880.74   -39766.605   -1115.9319   -1750.4207   -2734.4341    54613.299    80.086225 
     900    1378.8076   -113.89338    1.2475741   -112.64581   -1509.1212    4.3075217    4.3075217    4.3075217   -1509.1212   -31152.064    15800.327    10824.374   -2439.2984    5673.7065   -17627.176    79.924956 
    1000    979.69746   -113.54699   0.88645085   -112.66054   -17708.144     4.309189     4.309189     4.309189   -17708.144   -46680.872   -14654.749    8211.1909   -792.30349   -3944.4731   -10471.028    80.017803 
    1100    1022.5823   -113.58432   0.92525395   -112.65906    9918.8901    4.2955751    4.2955751    4.2955751    9918.8901   -18227.204   -10047.435    58031.309   -4442.5959   -9375.5157    23005.649    79.261803 
    1200    1769.4617   -114.26049    1.6010461   -112.65944    8568.5033    4.2935447    4.2935447    4.2935447    8568.5033   -3884.8496     4208.222    25382.138     -7736.95    1269.6492   -5656.8354    79.149464 
    1300     1027.379    -113.6027   0.92959413   -112.67311   -22547.595    4.3193267    4.3193267    4.3193267   -22547.595   -37292.898   -19029.867    -11320.02    3361.2284    8177.6646   -34769.311    80.583877 
    1400    1178.4715   -113.72608    1.0663057   -112.65977   -16378.401    4.3131614    4.3131614    4.3131614   -16378.401   -51895.081   -25027.049    27786.926   -75.502425     1403.665    9259.0738    80.239301 
    1500    2010.7266   -114.45876    1.8193477   -112.63941    19789.597    4.2880401    4.2880401    4.2880401    19789.597   -9318.6848    17339.411    51348.063     1605.667   -2696.2046    5313.9216    78.845429 
    1600    1154.6569   -113.70852    1.0447578   -112.66376    12883.319    4.3001056    4.3001056    4.3001056    12883.319    -11408.07   -23273.108    73331.136    6019.9457    -1740.121    -24931.16    79.512858 
    1700     1230.798   -113.78246    1.1136519   -112.66881   -13681.763    4.3123594    4.3123594    4.3123594   -13681.763   -34512.564   -5953.7107   -579.01305   -5060.0833   -6468.1073   -17709.353    80.194548 
    1800    1791.0478   -114.27292    1.6205777   -112.65234    8841.7017    4.3066985    4.3066985    4.3066985    8841.7017   -35749.694    10807.033    51467.766   -2111.8921    771.23327    23688.363    79.879144 
    1900    1233.2646    -113.7702    1.1158837   -112.65432   -8925.2335     4.314315     4.314315     4.314315   -8925.2335   -30877.256   -34461.222    38562.778    4586.0647   -1381.7552   -30036.056    80.303702 
    2000    1073.9843   -113.62745   0.97176359   -112.65568   -9345.6952    4.3081261    4.3081261    4.3081261   -9345.6952   -34754.906    -18364.58      25082.4   -1422.9611   -8212.3744   -22514.502    79.958607 
    2100    1453.7528   -113.96702    1.3153861   -112.65164   -4837.5966    4.3001022    4.3001022    4.3001022   -4837.5966   -35382.142    32767.513   -11898.161    3292.0909    6438.4707    12302.254    79.512668 
    2200    1290.2872   -113.82635    1.1674789   -112.65887   -19841.806    4.3040312    4.3040312    4.3040312   -19841.806   -20982.133   -33442.093   -5101.1912    5723.6873    6654.2423   -35474.972     79.73082 
    2300    905.53004   -113.48344   0.81934261    -112.6641    17945.733    4.2998528    4.2998528    4.2998528    17945.733   -15108.781   -14131.516    83077.497   -3364.9101   -8829.2724   -22457.081    79.498836 
    2400    1662.5915   -114.17076    1.5043477   -112.66641   -8311.1001    4.3124324    4.3124324    4.3124324   -8311.1001    -46451.27     30833.79     -9315.82    -3068.362   -13428.454     11898.58     80.19862 
    2500    1144.8907   -113.69927    1.0359212   -112.66335    -24755.21    4.3284629    4.3284629    4.3284629    -24755.21   -49530.754   -44883.419    20148.544    7709.1872    401.64335   -23130.944     81.09631 
    2600    951.95123   -113.52791   0.86134548   -112.66657   -16669.587    4.3020139    4.3020139    4.3020139   -16669.587   -5392.9087   -46020.531    1404.6771    5368.0309   -977.18416   -55239.128    79.618761 
    2700    1555.1008   -114.05178    1.4070879   -112.64469    27765.178    4.2772142    4.2772142    4.2772142    27765.178   -4004.9288    48595.893    38704.571   -6726.8873   -25861.557    24662.844    78.249757 
    2800    1227.3781   -113.78213    1.1105575   -112.67157    -20651.18    4.3123073    4.3123073    4.3123073    -20651.18   -17080.526   -47886.531    3013.5161    7447.2608    420.76742   -14075.095    80.191642 
    2900    963.26618   -113.53121   0.87158348   -112.65963   -16493.023    4.3208428    4.3208428    4.3208428   -16493.023   -14110.554   -53949.652    18581.138    6081.0822    15150.314   -53814.539    80.668763 
    3000    1791.0224   -114.25699    1.6205547   -112.63643    7253.7907    4.3110812    4.3110812    4.3110812    7253.7907   -14418.019    12373.426    23805.966   -4031.5495    317.32496   -848.78774     80.12326 
    3100    1304.1046   -113.81989    1.1799813   -112.63991   -2596.0062     4.307584     4.307584     4.307584   -2596.0062   -7764.7681    -32186.14    32162.889    3193.6881   -3451.9415   -18944.205    79.928424 
    3200    881.30391   -113.44622    0.7974223    -112.6488   -3576.1602    4.2970118    4.2970118    4.2970118   -3576.1602    1036.3281   -51101.939     39337.13    5310.8498    -4650.842   -56405.161    79.341362 
    3300    1943.3851     -114.415    1.7584157   -112.65658    -1097.784    4.3092967    4.3092967    4.3092967    -1097.784   -27975.136    8789.1312    15892.653    34.278478   -1702.1803    13372.522    80.023802 
    3400    1679.9743   -114.17734    1.5200761   -112.65727   -18117.994     4.324178     4.324178     4.324178   -18117.994   -23726.982   -42557.251    11930.251   -4144.2732   -12881.244   -26972.642    80.855711 
    3500    683.31472   -113.27665   0.61827752   -112.65837   -5775.9536    4.3132434    4.3132434    4.3132434   -5775.9536    7547.5245   -45946.991    21071.605    6395.7741    823.44932    -55324.84    80.243878 
    3600    1758.5054   -114.22579    1.5911326   -112.63466     9882.309    4.2963145    4.2963145    4.2963145     9882.309   -11132.138     28523.81    12255.255   -1436.0602    19104.834    13908.089     79.30274 
    3700    1340.0573   -113.86253     1.212512   -112.65002   -1416.9881    4.3155348    4.3155348    4.3155348   -1416.9881   -24079.614   -14761.944    34590.593   -9475.1328    9055.7318   -1916.0286    80.371833 
    3800    1050.4123   -113.60261   0.95043509   -112.65218   -9428.9497    4.3130231    4.3130231    4.3130231   -9428.9497    9774.8519   -44635.447    6573.7465    7030.1422    1606.2644   -46803.072    80.231584 
    3900    1347.4404   -113.86804    1.2191924   -112.64884    5550.6642    4.3089129    4.3089129    4.3089129    5550.6642   -3175.8427   -16338.084    36165.919   -1099.6606    6822.2602    4888.5002    80.002424 
    4000     1497.608   -114.00251    1.3550672   -112.64745    11425.826    4.3178642    4.3178642    4.3178642    11425.826   -314.61036   -3812.2065    38404.295   -3222.1507    4528.9549   -4602.8923    80.502048 
    4100    1082.6979   -113.62883   0.97964779   -112.64919    829.10509    4.3170452    4.3170452    4.3170452    829.10509    23318.735   -39040.656    18209.236    2032.8261   -14653.655   -45736.627    80.456251 
    4200    1255.4157   -113.77124    1.1359265   -112.63531   -13241.229    4.3115624    4.3115624    4.3115624   -13241.229     12753.74   -32703.975   -19773.453    3961.7842   -1197.4199     7288.027     80.15009 
    4300    1255.9357   -113.76919     1.136397   -112.63279    14151.757    4.2993688    4.2993688    4.2993688    14151.757   -170.05119   -4635.1327    47260.455   -705.40707    22992.623     9936.759     79.47199 
    4400     1004.238   -113.55524    0.9086556   -112.64659   -3609.9294    4.3114466    4.3114466    4.3114466   -3609.9294    7781.1248   -7956.5871   -10654.326   -1737.9417    11030.589   -35163.775    80.143635 
    4500    1438.6674   -113.93498    1.3017365   -112.63324    -26789.54    4.3283581    4.3283581    4.3283581    -26789.54   -16064.298   -54618.628   -9685.6947    14878.917    4217.9977    23522.702    81.090422 
    4600    1325.2867   -113.82643    1.1991473   -112.62728    -10566.51    4.3167881    4.3167881    4.3167881    -10566.51   -46832.766   -6149.5357    21282.771   -4498.7645    28635.182    4837.2851    80.441874 
    4700     965.1952   -113.50016    0.8733289   -112.62683    1337.7523    4.2990265    4.2990265    4.2990265    1337.7523    8718.0946   -1417.3346   -3287.5031   -8912.1624    2007.1608   -52170.246     79.45301 
    4800    1631.3962   -114.10805    1.4761216   -112.63193   -3487.5188    4.3086721    4.3086721    4.3086721   -3487.5188   -2231.6611   -28112.039    19881.144    23122.416   -6865.7325    9072.2467    79.989009 
    4900    1706.3532   -114.16984    1.5439442   -112.62589   -21846.364    4.3267225    4.3267225    4.3267225   -21846.364   -18047.105   -18376.586   -29115.401   -1788.6482   -1363.1637   -2459.2397     80.99853 
    5000    952.59027   -113.49288    0.8619237   -112.63096   -9337.7276    4.3123352    4.3123352    4.3123352   -9337.7276     20113.64   -23967.194   -24159.629   -2612.5859   -6985.9455   -41196.406      80.1932 
    5100    1354.3403   -113.85547    1.2254355   -112.63004    11654.579    4.3049137    4.3049137    4.3049137    11654.579    13588.214   -16983.705    38359.227    3068.5987   -8447.3064    1167.9938    79.779873 
    5200    1585.8749   -114.06575    1.4349329   -112.63082    4911.2273    4.3140371    4.3140371    4.3140371    4911.2273    30165.217   -10428.084   -5003.4514     1518.438   -4265.4551   -8244.4276     80.28818 
    5300    744.10583   -113.31567    0.6732826   -112.64238    2776.4476    4.3149881    4.3149881    4.3149881    2776.4476    31135.707   -26195.768    3389.4037   -20583.684    1686.6503     -32666.1    80.341289 
    5400    1010.6487   -113.54952   0.91445614   -112.63506    8355.5572    4.3221014    4.3221014    4.3221014    8355.5572    15664.835    8402.9103    998.92637   -4807.4328    9567.4007    5451.7503    80.739276 
    5500     1455.467   -113.93792    1.3169371   -112.62099    19209.916    4.3121307    4.3121307    4.3121307    19209.916    49077.569    41170.706   -32618.528   -10741.458    5536.4928   -8653.1663    80.181789 
    5600    1199.9047   -113.72133     1.085699   -112.63563   -4607.5873     4.314212     4.314212     4.314212   -4607.5873    37568.142   -23626.854    -27764.05   -3926.1471    2733.5861   -36545.881     80.29795 
    5700    1546.6704   -114.03043    1.3994599   -112.63097   -11395.621    4.3226178    4.3226178    4.3226178   -11395.621   -27280.788   -8613.3261    1707.2521   -7216.5683    3664.7292    10768.098     80.76822 
    5800    1581.8961   -114.05684    1.4313328   -112.62551   -8755.2028    4.3147213    4.3147213    4.3147213   -8755.2028    2549.0951   -12844.114    -15970.59    16800.486   -6700.6969   -12580.349    80.326391 
    5900      1500.53   -113.99236    1.3577111   -112.63465   -10856.366    4.3188082    4.3188082    4.3188082   -10856.366    18227.505   -27954.108   -22842.495    1692.7093    12809.391   -22445.006     80.55486 
    6000     1546.249   -114.02486    1.3990786   -112.62579    -8717.045    4.3172048    4.3172048    4.3172048    -8717.045   -15333.641   -21457.299    10639.805    -19014.58     7689.122    19687.344    80.465171 
    6100    831.90742   -113.38096   0.75272732   -112.62824    22808.614    4.3037674    4.3037674    4.3037674    22808.614    40340.378    23486.304     4599.162   -2022.5981   -8171.7031   -18533.067     79.71616 
    6200     1352.148   -113.85652     1.223452   -112.63307   -13715.205      4.32774      4.32774      4.32774   -13715.205   -9430.8837   -18155.014   -13559.717   -5759.9451    5552.8753   -2032.1124    81.055683 
    6300    1214.0858   -113.71066    1.0985303   -112.61213   -17707.359    4.3290449    4.3290449    4.3290449   -17707.359   -36737.087   -16931.782    546.79268   -35053.531    4022.8449    18916.185    81.129027 
    6400    1201.3182   -113.69529    1.0869779   -112.60831   -4118.8598    4.2916395    4.2916395    4.2916395   -4118.8598   -7233.7832    664.05416   -5786.8503   -5315.1595   -6960.0213     -31451.8    79.044143 
    6500    1238.0684   -113.75497    1.1202303   -112.63474    6283.1008    4.2975796    4.2975796    4.2975796    6283.1008    6425.3854   -5572.3812    17996.298    10745.655   -12196.119   -33831.962    79.372817 
    6600    1777.7307    -114.2424    1.6085281   -112.63387   -27331.875    4.3233658    4.3233658    4.3233658   -27331.875   -55458.586   -42896.055    16359.016   -35212.002    8956.4187   -1436.6047    80.810157 
    6700    1230.8348   -113.74719    1.1136851   -112.63351   -12858.823     4.317087     4.317087     4.317087   -12858.823   -29243.553   -27143.156     17810.24   -1662.6055    -6392.473   -19720.523    80.458586 
    6800    1255.0286   -113.76745    1.1355763   -112.63188   -11991.559    4.3047456    4.3047456    4.3047456   -11991.559   -7089.8592   -26120.456   -2764.3627    18586.782   -12246.175   -30746.622    79.770529 
    6900    1532.4906   -114.01989    1.3866297   -112.63326    13041.318    4.2955869    4.2955869    4.2955869    13041.318   -8994.5205    19132.903     28985.57   -33985.345   -1867.6683    15447.463    79.262456 
    7000    1272.3737   -113.80158    1.1512704   -112.65031    23855.938    4.3001334    4.3001334    4.3001334    23855.938    40379.063    5268.5523    25920.199    -7820.078   -7298.8239   -21028.541    79.514402 
    7100    943.02142   -113.51376    0.8532656   -112.66049   -32834.015    4.3311757    4.3311757    4.3311757   -32834.015   -6710.6607   -20720.325    -71071.06    12895.094   -6809.0008   -23126.111    81.248882 
    7200    1463.1527   -113.96806    1.3238913   -112.64417   -3209.7352    4.3081333    4.3081333    4.3081333   -3209.7352    8231.0181   -11859.558   -6000.6656   -3385.9511   -4831.0576    16038.839    79.959008 
    7300    1398.5403   -113.88266    1.2654287   -112.61724    53937.779    4.2730301    4.2730301    4.2730301    53937.779     71934.02     67445.87    22433.446   -12846.547    4893.3803   -31364.477    78.020341 
    7400    722.98457   -113.31507   0.65417164   -112.66089   -30032.289    4.3165708    4.3165708    4.3165708   -30032.289    -7600.171   -52337.543   -30159.154    15952.689    4411.4574   -22870.697     80.42973 
    7500    1573.6958   -114.04818     1.423913   -112.62427   -35130.547    4.3238874    4.3238874    4.3238874   -35130.547   -40824.194   -33409.516   -31157.932    32631.687    4231.2798    6701.6866    80.839409 
    7600    1461.0739   -113.93844    1.3220104   -112.61643    27858.778    4.2998727    4.2998727    4.2998727    27858.778    12915.733    55739.275    14921.327   -7396.1591   -2190.6405   -15146.524    79.499938 
    7700    1374.7261    -113.8753     1.243881   -112.63141   -10795.861    4.3059978    4.3059978    4.3059978   -10795.861    5572.2606   -12265.668   -25694.175    23.341925   -2112.3028   -25522.613     79.84016 
    7800    1499.5101   -113.99317    1.3567883   -112.63638    5379.7703    4.3088037    4.3088037    4.3088037    5379.7703   -37663.119    22254.594    31547.836     37923.69    1376.6018    9640.8253    79.996339 
    7900    1301.8352   -113.82152    1.1779278   -112.64359   -4123.3464    4.3158105    4.3158105    4.3158105   -4123.3464    19568.497   -23600.992   -8337.5444   -2325.9343   -3033.3345   -15825.738    80.387234 
    8000    1479.9307    -113.9725    1.3390724   -112.63343   -5558.8533    4.3077212    4.3077212    4.3077212   -5558.8533    5448.1404   -16379.409    -5745.291    593.48252    2610.4975   -35822.531    79.936064 
    8100     1126.248   -113.65502    1.0190528   -112.63596    14009.482    4.2987086    4.2987086    4.2987086    14009.482   -12757.674    32744.908    22041.211      33025.8   -8001.9972    20160.826     79.43539 
    8200    987.43623   -113.54366   0.89345305   -112.65021   -8655.6161    4.3035044    4.3035044    4.3035044   -8655.6161    14522.593   -36819.944   -3669.4967     10519.81   -1705.4289    -16144.18    79.701549 
    8300    1563.7917   -114.06548    1.4149516   -112.65053   -4875.8366    4.3083854    4.3083854    4.3083854   -4875.8366    17276.821   -253.05672   -31651.274   -11405.198    214.92679   -32885.304    79.973047 
    8400    917.09087   -113.48121   0.82980309    -112.6514   -1151.1279    4.3152633    4.3152633    4.3152633   -1151.1279    -629.2734   -25308.612    22484.502    11069.019    1801.9922    17623.195    80.356663 
    8500    1173.1177   -113.70366    1.0614615    -112.6422   -20338.749    4.3014879    4.3014879    4.3014879   -20338.749   -26857.112   -29404.301   -4754.8338    33249.653    333.06537    3651.2434    79.589561 
    8600    1447.5365   -113.95472    1.3097615   -112.64496    21123.531    4.3035514    4.3035514    4.3035514    21123.531    13700.212    69356.565   -19686.185   -21568.712    4175.8758   -27870.154    79.704159 
    8700    1604.0543   -114.09833     1.451382   -112.64695   -11786.732    4.3123418    4.3123418    4.3123418   -11786.732   -15259.057   -18427.766   -1673.3734    8522.5948    2255.2846    12848.086    80.193566 
    8800    905.62328   -113.46816   0.81942698   -112.64873   -3958.0608    4.3114001    4.3114001    4.3114001   -3958.0608   -39486.997     34296.69   -6683.8756    24871.851     6174.336    14017.618    80.141041 
    8900    1685.2036   -114.15945    1.5248076   -112.63464    9780.2569    4.3165088    4.3165088    4.3165088    9780.2569    1668.8855    49546.377   -21874.492   -2859.5695     11270.16   -7826.6192    80.426266 
    9000    1663.2418   -114.13747    1.5049361   -112.63253    14297.296    4.3047003    4.3047003    4.3047003    14297.296    12946.255    31359.386   -1413.7526     3929.165   -6356.0709    13377.167    79.768009 
    9100     591.8175    -113.1943   0.53548891   -112.65881   -622.38797      4.31221      4.31221      4.31221   -622.38797    22058.213   -26822.081    2896.7038    15773.548   -3702.3776    13168.954    80.186216 
    9200    1610.0996   -114.10096    1.4568519   -112.64411    -8187.872     4.314141     4.314141     4.314141    -8187.872    9507.4253   -22166.294   -11904.747    5274.5628    4943.9378    1569.7086    80.293986 
    9300    1305.6572     -113.826    1.1813861   -112.64461    36690.601    4.2946685    4.2946685    4.2946685    36690.601    62897.156    17444.809    29729.839   -9750.8869    63.251788   -5230.0543     79.21163 
    9400    1138.3353   -113.68904    1.0299897   -112.65905   -33606.692    4.3110457    4.3110457    4.3110457   -33606.692   -36871.242   -74013.128    10064.295    33105.562   -2261.0155    10665.668     80.12128 
    9500    1327.3725   -113.84346    1.2010345   -112.64242   -1663.9035    4.3155253    4.3155253    4.3155253   -1663.9035    43113.872   -50394.541    2288.9584    611.71724    -5529.515   -2781.5429    80.371303 
    9600     1474.403   -113.97043    1.3340708   -112.63636    20129.325    4.2955506    4.2955506    4.2955506    20129.325    46026.539    6435.4408    7925.9959   -3913.5556     5540.561   -22817.733    79.260447 
    9700    1081.8477   -113.62997   0.97887853    -112.6511    19428.903    4.3020873    4.3020873    4.3020873    19428.903    58340.793   -14860.777    14806.694    12556.037   -8188.0218    16697.781     79.62284 
    9800    1402.7442   -113.91441    1.2692325   -112.64518    1748.1238    4.3180011    4.3180011    4.3180011    1748.1238    10625.064    17269.662   -22650.354    22122.291    1522.1872   -5557.7914    80.509708 
    9900     1210.556   -113.73321    1.0953365   -112.63787    19698.416    4.3149944    4.3149944    4.3149944    19698.416    36853.942    8688.5549     13552.75   -10384.463    6128.0084   -38424.253    80.341642 
   10000    1417.1496   -113.91097    1.2822668    -112.6287    23251.195    4.2988699    4.2988699    4.2988699    23251.195    44511.058    8501.9078    16740.618    27943.472   -1271.6746    14284.916    79.444331 
   10100    1208.6439   -113.73087    1.0936064   -112.63726    13574.893    4.2992435    4.2992435    4.2992435    13574.893   -10220.678    32717.975    18227.384    15743.574   -336.96998    -8456.018    79.465042 
   10200    1306.9378   -113.82341    1.1825448   -112.64087   -7680.4688    4.3131878    4.3131878    4.3131878   -7680.4688     13181.86   -36358.595    135.32895   -9220.8944    1318.3407   -32989.741    80.240774 
   10300    1265.1051     -113.787    1.1446937    -112.6423    13610.533    4.3109162    4.3109162    4.3109162    13610.533   -9141.4981    39682.216     10290.88    4811.4582    1912.9223    4394.0697     80.11406 
   10400    1362.4651   -113.87779    1.2327871   -112.64501   -23763.467    4.3097172    4.3097172    4.3097172   -23763.467   -21726.664   -58256.619    8692.8836    31039.921   -851.64181    8688.7961    80.047232 
   10500    1165.8434   -113.69922    1.0548796   -112.64434    7648.5298    4.2975665    4.2975665    4.2975665    7648.5298    8561.4003    20747.166   -6362.9766    4001.1087    6726.1006   -46907.937     79.37209 
   10600    1510.1516   -114.01524    1.3664169   -112.64882   -476.34466     4.306643     4.306643     4.306643   -476.34466     12272.51    13193.772   -26895.316    1341.4308    4218.9385   -647.88018    79.876058 
   10700    1278.9468   -113.79844    1.1572179   -112.64122   -18972.805    4.3181957    4.3181957    4.3181957   -18972.805   -21974.306   -31112.678   -3831.4323    25486.196   -5211.2237    14267.314    80.520592 
   10800    1351.7522   -113.85163    1.2230938   -112.62854    6158.3905    4.3059576    4.3059576    4.3059576    6158.3905    5282.5851    57081.154   -43888.567   -495.46131    4951.6752   -42987.477    79.837929 
   10900      1723.81   -114.19345    1.5597395   -112.63371     1963.897    4.3090312    4.3090312    4.3090312     1963.897      16008.4    5694.1365   -15810.846   -7389.8958    6376.1605    -3042.789    80.009011 
   11000     995.1872   -113.54477   0.90046629    -112.6443    2248.6111    4.3093716    4.3093716    4.3093716    2248.6111   -23672.707    42653.423   -12234.882    16093.459    -9045.806    8117.8545    80.027976 
   11100    1103.4281   -113.65152   0.99840489   -112.65311   -22463.567    4.3104306    4.3104306    4.3104306   -22463.567    38431.649    -59646.22    -46176.13      16633.3    5441.3062   -33638.352     80.08699 
   11200    1510.2161   -114.00451    1.3664753   -112.63804    28824.633    4.3026876    4.3026876    4.3026876    28824.633    71167.018    47580.141   -32273.259   -16797.759   -4054.4766    5994.6075    79.656177 
   11300     1087.727     -113.637   0.98419822    -112.6528   -21087.246    4.3119486    4.3119486    4.3119486   -21087.246    9966.5757   -39734.172   -33494.142    10289.756   -1095.7769   -4775.1145    80.171631 
   11400    714.68091   -113.29873   0.64665831   -112.65207   -29575.443    4.3145008    4.3145008    4.3145008   -29575.443    17327.811   -62402.089    -43652.05    23116.491    6286.9985   -33163.064    80.314072 
   11500    1880.8448   -114.32783    1.7018279     -112.626    34626.276    4.2887997    4.2887997    4.2887997    34626.276    33544.282    52648.874    17685.672   -5060.9253   -4550.4077     9792.866    78.887338 
   11600    1293.8503   -113.82363     1.170703   -112.65292   -33156.124    4.3123802    4.3123802    4.3123802   -33156.124   -27141.259   -38188.236   -34138.878   -3216.8471   -3851.6293   -2157.5715    80.195708 
   11700    955.65614   -113.51786   0.86469776   -112.65317   -32011.077    4.3065906    4.3065906    4.3065906   -32011.077   -20016.237   -57937.341   -18079.653    11944.558    6972.8754   -41589.009    79.873143 
   11800    1638.2878   -114.12247    1.4823572   -112.64011    38010.239    4.2931148    4.2931148    4.2931148    38010.239    26680.592    76224.384    11125.741    12655.764   -2394.6259    5808.9062     79.12569 
   11900    1546.7365   -114.04189    1.3995197   -112.64237    -27963.52    4.3184451    4.3184451    4.3184451    -27963.52   -18407.898   -39730.709   -25751.951   -16425.305    3570.6411    20903.684    80.534544 
   12000    1117.4411   -113.65803    1.0110842   -112.64694    3097.1062    4.2982593    4.2982593    4.2982593    3097.1062    18671.757    5572.1691   -14952.607   -2867.4253   -1314.3607   -45947.528     79.41048 
   12100    1363.0723   -113.88486    1.2333365   -112.65152    30207.185    4.2945383    4.2945383    4.2945383    30207.185    26894.945    45347.218    18379.392    14021.388    751.84043   -6022.1925    79.204424 
   12200    1646.7767    -114.1426    1.4900382   -112.65256    -22452.62    4.3135047    4.3135047    4.3135047    -22452.62   -10376.187   -13641.437   -43340.235   -4027.4153     13387.31    35231.539    80.258462 
   12300    965.84563   -113.53115   0.87391743   -112.65723    3068.0257    4.2993821    4.2993821    4.2993821    3068.0257    50278.095    1924.5172   -42998.535    1130.7213   -2897.4432   -35877.662    79.472731 
   12400    1444.7513   -113.95613    1.3072413   -112.64889    9261.9417    4.2944005    4.2944005    4.2944005    9261.9417    29786.714    26717.993   -28718.882    14650.899    4330.7397   -23930.271    79.196799 
   12500    1532.4842   -114.03396    1.3866239   -112.64733    4863.9379    4.3068007    4.3068007    4.3068007    4863.9379   -11171.962     69168.64   -43404.864   -9233.8967    2750.8903    32441.763    79.884832 
   12600    1056.2094    -113.6126   0.95568049   -112.65692   -1059.7933    4.2996642    4.2996642    4.2996642   -1059.7933    40381.831    11656.091   -55217.303   -4922.8033   -4432.3251   -36348.937    79.488376 
   12700    1218.6039   -113.76144    1.1026184   -112.65882    4746.3035    4.3045706    4.3045706    4.3045706    4746.3035    19468.524    47249.607   -52479.221   -3796.1801    2478.8515   -37882.771    79.760801 
   12800    1842.7685   -114.31039    1.6673757   -112.64302     10787.36    4.3039668    4.3039668    4.3039668     10787.36    12029.474    56511.417   -36178.809   -13856.144   -1302.4314    21313.926    79.727239 
   12900    774.27306   -113.35792   0.70057854   -112.65735    -4530.271    4.2978328    4.2978328    4.2978328    -4530.271    45861.869    -2029.078   -57423.604    556.93699    40.809304   -40398.719    79.386845 
   13000    1014.6017   -113.57448   0.91803294   -112.65645    -11873.05    4.3024988    4.3024988    4.3024988    -11873.05    49466.757   -28305.469   -56780.439   -6493.7358   -5141.3074   -24835.299    79.645687 
   13100    1810.3116   -114.27858     1.638008   -112.64057    13619.734    4.3016133    4.3016133    4.3016133    13619.734    7834.1343    47675.181   -14650.115    15169.691    8560.1396    12858.244    79.596526 
   13200    899.73181   -113.46907   0.81409625   -112.65497   -7436.7891    4.3059612    4.3059612    4.3059612   -7436.7891    46788.968   -20274.598   -48824.737    4485.9836   -3042.3154   -48428.724    79.838124 
   13300    1201.2798   -113.73033    1.0869432   -112.64338    2358.9871    4.3055591    4.3055591    4.3055591    2358.9871    37379.745    15395.465   -45698.249   -6728.4976     6474.924    674.13168    79.815764 
   13400    1747.2687   -114.21774    1.5809655   -112.63677    3856.9259    4.3073118    4.3073118    4.3073118    3856.9259   -1077.7761    46714.043   -34065.489    14946.398     2891.252    20994.311    79.913278 
   13500    1181.6207   -113.72051    1.0691552   -112.65136    26010.846    4.2908677    4.2908677    4.2908677    26010.846    54410.362    46344.892   -22722.715    -8150.525   -816.55514   -50174.456    79.001507 
   13600    1075.1182   -113.63963   0.97278953   -112.66684   -1716.6824    4.3011655    4.3011655    4.3011655   -1716.6824    40661.214    4789.0193   -50600.281    4189.6883     2330.938    11474.425     79.57167 
   13700    1649.3552   -114.13859    1.4923713   -112.64622   -13188.793    4.3102408    4.3102408    4.3102408   -13188.793    12674.284   -2451.8338    -49788.83   -9910.6388   -5843.5906    38876.313    80.076413 
   13800    1479.5967   -113.97509    1.3387702   -112.63632    22489.557    4.2901889    4.2901889    4.2901889    22489.557    32434.884     31927.99    3105.7965   -4914.7881    5995.3464    -46092.83    78.964019 
   13900    944.20513   -113.50651   0.85433665   -112.65217   -42031.188     4.305863     4.305863     4.305863   -42031.188    18781.586   -66983.389    -77891.76    13965.899   -7072.1508    23624.889    79.832665 
   14000    1235.2703   -113.76269    1.1176985   -112.64499   -14978.901    4.3004533    4.3004533    4.3004533   -14978.901    20653.494   -10155.908   -55434.288   -9825.5483   -4490.2094    48454.252     79.53215 
   14100    1445.0653    -113.9478    1.3075254   -112.64027    1392.2424    4.3034789    4.3034789    4.3034789    1392.2424   -7407.5133    31098.472   -19514.232    9743.8292    2098.0052   -26893.214    79.700129 
   14200    847.35253   -113.41235   0.76670238   -112.64564   -33727.593    4.3116134    4.3116134    4.3116134   -33727.593    38985.112   -72254.617   -67913.273   -1026.9553   -192.18345    30275.925    80.152936 
   14300    1187.6009   -113.71431    1.0745663   -112.63975    24193.549    4.2909318    4.2909318    4.2909318    24193.549    28568.461    86925.835   -42913.648    9079.2514   -2489.9867     38087.33    79.005047 
   14400    1736.9798   -114.21358    1.5716558   -112.64192    11506.358     4.297216     4.297216     4.297216    11506.358    23659.332    8345.2016    2514.5398   -6817.6345    9468.3338   -9338.9104    79.352671 
   14500    835.87455   -113.41565   0.75631686   -112.65933    1463.5951    4.3056089    4.3056089    4.3056089    1463.5951    16855.656    32557.136   -45022.007   -15780.127    4459.4821    27810.708    79.818532 
   14600    1276.2594   -113.81064    1.1547863   -112.65586    -12424.86    4.3076965    4.3076965    4.3076965    -12424.86    22170.394   -1663.9566   -57781.017    14106.997   -9247.3718    34567.462    79.934688 
   14700    1899.9826   -114.35798    1.7191442   -112.63883    21761.927    4.2902087    4.2902087    4.2902087    21761.927    8787.5943    48711.455    7786.7328   -21803.619    3344.5238   -19810.951     78.96511 
   14800    1067.9121   -113.62533   0.96626932   -112.65906   -12468.081    4.2967629    4.2967629    4.2967629   -12468.081   -973.53576   -2526.4928   -33904.213   -11774.015    3001.7052    52607.191    79.327571 
   14900    1234.6438   -113.77294    1.1171316    -112.6558    -32757.34    4.3097729    4.3097729    4.3097729    -32757.34   -311.40311    -30357.66   -67602.956   -664.78804   -4517.9929    36028.529    80.050336 
   15000    1654.7991   -114.14163     1.497297   -112.64433    31548.112    4.2990617    4.2990617    4.2990617    31548.112   -14285.457    105416.22    3513.5794   -8249.7345   -6051.3737   -23388.593    79.454966 
   15100    1082.4614   -113.64012    0.9794338   -112.66068   -22791.052    4.3075705    4.3075705    4.3075705   -22791.052   -5793.6796   -35520.725   -27058.751   -22919.967    2861.0639    34542.737    79.927673 
   15200    1061.8034   -113.61605   0.96074203   -112.65531   -832.44924     4.295813     4.295813     4.295813   -832.44924    7929.4913     31074.74   -41501.579   -2483.5257   -8589.3919    39460.141    79.274973 
   15300    1715.3737   -114.20196    1.5521061   -112.64985    15844.071    4.2992146    4.2992146    4.2992146    15844.071   -4724.3466    34471.161    17785.398    6035.2353   -13279.122   -12323.678     79.46344 
   15400    966.72281   -113.53089   0.87471112   -112.65618    -3977.158    4.3083276    4.3083276    4.3083276    -3977.158    19.045338    160.04508   -12110.564   -15881.234    3596.2205    20614.665    79.969827 
   15500    763.24953    -113.3478   0.69060421    -112.6572   -3743.4396    4.3086258    4.3086258    4.3086258   -3743.4396    38026.803   -35074.511   -14182.611   -13382.648    -6854.401    41482.597    79.986433 
   15600    1521.8925   -114.01306    1.3770403   -112.63602   -5792.8837    4.3096444    4.3096444    4.3096444   -5792.8837   -29412.397    13201.356   -1167.6101    17525.509   -5112.8675   -8382.1344    80.043175 
   15700     1366.655   -113.87399    1.2365782   -112.63741    8197.3561    4.2878181    4.2878181    4.2878181    8197.3561     18530.29   -17302.821      23364.6   -12770.727    807.87226    18616.163     78.83318 
   15800    698.32383   -113.29184   0.63185808   -112.65998    3561.9548    4.2987198    4.2987198    4.2987198    3561.9548    9857.5356   -1625.0309    2453.3598   -18719.407    -832.8834    60026.986    79.436007 
   15900    1613.6081   -114.10309    1.4600265   -112.64306   -23697.665    4.3208064    4.3208064    4.3208064   -23697.665   -39218.748   -19952.589   -11921.657    7258.9225   -11194.436   -5562.3946    80.666722 
   16000    1351.8838   -113.86223    1.2232128   -112.63902    8908.2329    4.3031274    4.3031274    4.3031274    8908.2329   -825.64136    32999.407   -5449.0667   -5891.9893   -10289.006    2206.6342    79.680605 
   16100    1219.1899    -113.7442    1.1031486   -112.64105   -2696.7082    4.2908159    4.2908159    4.2908159   -2696.7082    15613.119   -23749.379    46.135291   -9147.9542    8418.3014    57552.286    78.998646 
   16200    1432.3114   -113.94606    1.2959855   -112.65008    6138.8075    4.3051244    4.3051244    4.3051244    6138.8075   -25891.376    49711.289   -5403.4909   -10314.701   -11133.241   -5500.5965     79.79159 
   16300     1814.914   -114.28887    1.6421723    -112.6467   -852.83639      4.30468      4.30468      4.30468   -852.83639    35.881077    25667.613   -28262.003    5922.8959   -19150.667    3109.8163     79.76688 
   16400    807.24807   -113.39291   0.73041502    -112.6625    4216.6354     4.303181     4.303181     4.303181    4216.6354    21681.376    5478.8499    -14510.32   -25019.718    6554.2847    48903.671    79.683579 
   16500    1477.1411   -113.98932    1.3365483   -112.65277   -4446.7837    4.3047436    4.3047436    4.3047436   -4446.7837   -18611.239    18916.292   -13645.405   -26826.496   -8737.1179   -5241.5018    79.770418 
   16600    1622.3325   -114.11073    1.4679205   -112.64281    19265.267    4.3069434    4.3069434    4.3069434    19265.267   -3082.2231    58722.962    2155.0639    12075.998   -7754.5683    1229.1776    79.892773 
   16700    1249.1277   -113.78163     1.130237   -112.65139    -15698.29    4.3116776    4.3116776    4.3116776    -15698.29    25943.072   -33247.571   -39790.369    -8717.705    5390.3332    56250.777    80.156516 
   16800    1237.4409   -113.76524    1.1196625   -112.64558    19726.258    4.2981105    4.2981105    4.2981105    19726.258   -2025.1756    54429.456    6774.4939   -24638.992   -5044.6232     -3704.75    79.402235 
   16900    1437.6877   -113.95196    1.3008501   -112.65111     2798.573    4.2999824    4.2999824    4.2999824     2798.573    1229.1579    10831.871   -3665.3101    2974.8293   -5276.2742   -4856.0373    79.506026 
   17000    1315.9465   -113.84713     1.190696   -112.65644    -12851.41    4.3075352    4.3075352    4.3075352    -12851.41    12632.474   -14847.578   -36339.126    18824.306    -7144.762    23642.545    79.925711 
   17100    1150.6945   -113.69426    1.0411726   -112.65309   -5865.3143    4.3074097    4.3074097    4.3074097   -5865.3143   -24375.363   -1636.3858    8415.8064   -31393.155    4213.6163     9484.667    79.918727 
   17200    1355.5235   -113.87217    1.2265061   -112.64567   -5681.1006    4.2973496    4.2973496    4.2973496   -5681.1006   -14536.333   -12091.847     9584.878   -19112.284    5077.4279   -11254.553    79.360074 
   17300    1122.6527   -113.66881    1.0157998   -112.65302   -17131.903    4.3041884    4.3041884    4.3041884   -17131.903    2478.9901   -18899.844   -34974.856    23533.848   -6431.4111    30258.646    79.739557 
   17400    883.61018   -113.45039   0.79950906   -112.65088     -13653.7    4.3139936    4.3139936    4.3139936     -13653.7   -37728.299   -11160.108     7927.306    -21115.96    144.59373    30299.364    80.285753 
   17500    1702.3233   -114.17588    1.5402979   -112.63558    5349.8591    4.2972921    4.2972921    4.2972921    5349.8591   -15957.277    4550.5808    27456.273   -24003.467    2417.2136   -15640.884    79.356886 
   17600    1181.1801   -113.71718    1.0687566   -112.64842   -530.94583    4.2990427    4.2990427    4.2990427   -530.94583    -12462.32   -3239.1807    14108.663    32093.223    -3777.718    19914.034    79.453911 
   17700    861.32048   -113.43579   0.77934087   -112.65645    -11898.29    4.3080654    4.3080654    4.3080654    -11898.29   -44772.507    1422.1473    7655.4907   -2560.4227     -4158.23    14404.247    79.955229 
   17800    1314.7563   -113.83504    1.1896192   -112.64542    24719.156    4.3064064    4.3064064    4.3064064    24719.156    27308.166    43314.873    3534.4292   -36508.694   -1545.0682   -6814.3218    79.862894 
   17900    1458.5163   -113.96052    1.3196962   -112.64083    5457.4173     4.308437     4.308437     4.308437    5457.4173    15531.469    -9026.861    9867.6437    14012.984   -12879.945   -7659.1639    79.975919 
   18000    883.22963   -113.44164   0.79916473   -112.64248    19609.118    4.3056808    4.3056808    4.3056808    19609.118     29431.11    5194.8628    24201.383   -2348.1983   -6623.4556    17152.898     79.82253 
   18100    1282.9828    -113.7941    1.1608698   -112.63323    127.71808    4.3187151    4.3187151    4.3187151    127.71808    49373.472   -43701.184    -5289.133   -25340.871   -5248.6053    1792.7936    80.549653 
   18200    1336.8979   -113.83241    1.2096534   -112.62275   -3375.8535    4.3167899    4.3167899    4.3167899   -3375.8535    7493.0505   -14771.259   -2849.3517    2398.4069   -4313.9242   -22539.952    80.441977 
   18300    1298.2624   -113.79916    1.1746951   -112.62446    7028.0427    4.3034002    4.3034002    4.3034002    7028.0427   -10653.416   -3394.5466    35132.091    12895.724    1106.8211    19219.955     79.69576 
   18400    1262.1145   -113.77246    1.1419877   -112.63047   -14411.354    4.3171539    4.3171539    4.3171539   -14411.354   -6940.2419   -21762.153   -14531.665   -12796.986    5247.8492   -7301.6903     80.46233 
   18500    1506.3152   -113.98645    1.3629457    -112.6235   -23363.313    4.3221757    4.3221757    4.3221757   -23363.313   -4144.3593   -39767.512   -26178.068    3129.2313    3851.8371   -29910.001    80.743443 
   18600    1660.2004   -114.12489    1.5021842    -112.6227   -6615.1424    4.3083415    4.3083415    4.3083415   -6615.1424   -20508.908   -23737.942    24401.423      4051.08    -1584.837    20125.793    79.970599 
   18700    1451.6212   -113.94914    1.3134574   -112.63568    7039.3764    4.2911358    4.2911358    4.2911358    7039.3764    19237.448   -6901.6783    8782.3593    230.04993    9010.0744   -17880.568    79.016314 
   18800    1136.4364   -113.68323    1.0282715   -112.65496    5467.2053    4.3015365    4.3015365    4.3015365    5467.2053    26778.132   -30609.199    20232.683   -1814.2636    3542.0136   -38339.177    79.592259 
   18900    1635.1816   -114.12474    1.4795466   -112.64519   -4808.3618    4.3238609    4.3238609    4.3238609   -4808.3618   -43993.133    36028.863   -6460.8151      9316.68    8464.4208    5825.7626    80.837921 
   19000    1335.5662   -113.84784    1.2084484   -112.63939   -4001.2309    4.3155654    4.3155654    4.3155654   -4001.2309   -5812.8075    9927.6424   -16118.528   -8910.0465   -716.41409   -17497.456     80.37354 
   19100    1153.6512   -113.67767    1.0438478   -112.63382    3018.8902     4.296664     4.296664     4.296664    3018.8902    12202.586   -2470.1706   -675.74508   -25901.475   -617.60724   -42101.808    79.322093 
   19200    1655.0804   -114.13378    1.4975515   -112.63623   -980.26139    4.3056454    4.3056454    4.3056454   -980.26139   -4655.9404    8414.5167   -6699.3606   -5345.1056    -5724.931    18518.711    79.820559 
   19300    1621.6002   -114.10456    1.4672579    -112.6373   -13454.173    4.3108839    4.3108839    4.3108839   -13454.173   -7798.7052    -10660.89   -21902.924    2908.0951   -7275.9144    -16289.78    80.112258 
   19400    1226.8589   -113.74963    1.1100878   -112.63954    18957.714    4.3032393    4.3032393    4.3032393    18957.714    21335.529    24018.321    11519.291   -17251.346    7525.6678   -34366.336    79.686819 
   19500    1387.7116   -113.89297    1.2556306   -112.63734   -7957.7153    4.3069129    4.3069129    4.3069129   -7957.7153   -35883.959    7657.4908    4353.3226   -14199.734   -11243.959    16736.612    79.891077 
   19600    1231.0808   -113.75047    1.1139077   -112.63656     23885.15    4.2952477    4.2952477    4.2952477     23885.15    4195.6595    63333.947    4125.8438    13969.711   -103.87175    7142.3118     79.24368 
   19700    1430.6072   -113.94023    1.2944435   -112.64579    708.58942    4.3046722    4.3046722    4.3046722    708.58942    14855.678   -15463.334    2733.4242   -7526.9953    1300.2362   -31717.013    79.766447 
   19800    982.34363   -113.53617   0.88884516   -112.64732   -23400.567    4.3152331    4.3152331    4.3152331   -23400.567   -39755.215   -18449.604   -11996.882   -24201.413    -5590.853   -868.89189    80.354975 
   19900    952.66359   -113.50291   0.86199004   -112.64092    16755.043    4.2947514    4.2947514    4.2947514    16755.043   -31043.481    74384.647    6923.9635    -1988.306    4772.7485    20614.477    79.216217 
   20000     1693.461   -114.17254    1.5322791   -112.64026    1251.7961    4.2973966    4.2973966    4.2973966    1251.7961   -17829.152    21043.334    541.20652    -1506.506   -6229.9411   -21336.436    79.362679 
   20100     856.0565   -113.42468   0.77457791   -112.65011    12099.681    4.3077469    4.3077469    4.3077469    12099.681   -28369.808    27348.498    37320.354   -32707.809   -2177.2556    5396.3274    79.937496 
   20200    1037.5899    -113.5867   0.93883312   -112.64787   -11993.268    4.3101919    4.3101919    4.3101919   -11993.268   -49150.658   -9285.5417    22456.397    -5902.227   -2710.3165    9332.4785    80.073688 
   20300    1502.4948   -114.00332    1.3594888   -112.64383   -10329.698    4.3024234    4.3024234    4.3024234   -10329.698   -25488.594    3121.4922   -8621.9928   -1447.1899    6113.1523    8771.8369      79.6415 
   20400    1601.5419   -114.09226    1.4491088   -112.64315    9196.9028    4.2803544    4.2803544    4.2803544    9196.9028   -24685.865   -22358.779    74635.352     -44338.1    3951.6425    2276.1093    78.422229 
   20500    1367.9992   -113.90232    1.2377944   -112.66452   -5896.6317     4.299612     4.299612     4.299612   -5896.6317   -8008.4077    7410.8029    -17092.29    3129.6676   -9598.6947    2966.2953     79.48548 
   20600    1294.0938   -113.81667    1.1709233   -112.64575   -48322.175    4.3203796    4.3203796    4.3203796   -48322.175   -44073.054   -31141.882   -69751.589   -5466.9839   -1618.7481     27545.32    80.642825 
   20700    1241.6767   -113.76454    1.1234952   -112.64104      1505.03    4.2920707    4.2920707    4.2920707      1505.03   -11738.657   -16715.906    32969.654   -46483.035    5780.8383   -14263.824    79.067971 
   20800    1476.1124   -113.98014    1.3356175   -112.64452    20491.855     4.290019     4.290019     4.290019    20491.855    9271.0693     17493.66    34710.836   -4282.5563   -5891.4528   -16598.995    78.954636 
   20900    1666.3996   -114.15596    1.5077934   -112.64816   -10112.247    4.3062017    4.3062017    4.3062017   -10112.247   -22142.794   -6618.6294   -1575.3176     -4802.82   -1896.6232    15131.254    79.851503 
   21000     924.6588   -113.49361   0.83665071   -112.65695   -13919.397    4.3110021    4.3110021    4.3110021   -13919.397   -58062.053   -39879.556    56183.419   -44366.121    6635.4155   -3287.1325    80.118849 
   21100    1333.2862   -113.85469    1.2063853   -112.64831   -9487.5457    4.3005716    4.3005716    4.3005716   -9487.5457    14324.689   -38628.333   -4158.9927   -3522.7435    2018.2047   -33172.434    79.538712 
   21200    1404.1937   -113.91018     1.270544   -112.63964    35943.619    4.2818036    4.2818036    4.2818036    35943.619    7424.9472    28261.991    72143.918    584.07858   -11884.589   -14158.092     78.50191 
   21300    862.93871    -113.4466   0.78080508   -112.66579   -13540.536    4.3073897    4.3073897    4.3073897   -13540.536   -64280.655   -6911.4446    30570.491   -40431.354   -242.04643    15727.563    79.917609 
   21400    1248.3291   -113.77274    1.1295144   -112.64323   -27177.241    4.3182972    4.3182972    4.3182972   -27177.241    -25787.01   -41890.416   -13854.296   -780.80778    -8105.979   -32250.413     80.52627 
   21500     1150.675   -113.67332    1.0411549   -112.63216    27877.381    4.2987862    4.2987862    4.2987862    27877.381    554.67629    30400.809    52676.657   -7692.4968    4046.8817    -21228.87     79.43969 
   21600    1386.0816   -113.88798    1.2541557   -112.63383   -16138.627    4.2928634    4.2928634    4.2928634   -16138.627   -40577.563   -35194.317    27355.999   -54226.236   -6269.4235    13349.141    79.111787 
   21700    1090.1769   -113.63008   0.98641498   -112.64367    26416.386    4.2921589    4.2921589    4.2921589    26416.386   -1658.0187    61478.726    19428.451    3336.7761   -675.58083   -23504.736    79.072845 
   21800    1281.1605   -113.81129     1.159221   -112.65207   -23020.643    4.3161026    4.3161026    4.3161026   -23020.643   -25539.497   -45905.975    2383.5416     -9725.81    4767.6173   -29384.054    80.403558 
   21900     1311.256   -113.82818     1.186452   -112.64173   -17209.406    4.3108312    4.3108312    4.3108312   -17209.406   -62128.871    9130.5566    1370.0971   -39087.031   -10330.239    7400.5929    80.109319 
   22000    1495.3129   -113.98336    1.3529905   -112.63037    20029.066    4.2810379    4.2810379    4.2810379    20029.066     21594.77    12442.394    26050.034    1387.2258   -2576.6798   -9891.2263    78.459803 
   22100    1535.2503   -114.03677    1.3891268   -112.64764    -13601.73    4.2920379    4.2920379    4.2920379    -13601.73    13338.852   -29052.969   -25091.072    3631.9007     4903.847   -45823.883     79.06616 
   22200    1054.8703   -113.60288   0.95446883   -112.64841   -34165.626    4.3186358    4.3186358    4.3186358   -34165.626   -66876.199   -25382.232   -10238.446   -29921.234   -6410.9843    4601.0007    80.545212 
   22300    1379.4868    -113.8841    1.2481886   -112.63591   -16672.558    4.3064892    4.3064892    4.3064892   -16672.558   -30228.387    10317.887   -30107.173   -9222.5343   -20040.677    6791.5089      79.8675 
   22400    1513.3725   -113.99951    1.3693312   -112.63018    684.12858     4.287677     4.287677     4.287677    684.12858    12418.023    -4697.137   -5668.5001    6668.6673   -1670.7054   -20528.689      78.8254 
   22500    1025.9543   -113.57786   0.92830503   -112.64956   -19801.224    4.2992654    4.2992654    4.2992654   -19801.224   -53011.863   -15246.418    8854.6079   -23490.123     3225.243   -11609.186    79.466259 
   22600    1424.5201   -113.93533    1.2889357    -112.6464   -5557.7917    4.2998891    4.2998891    4.2998891   -5557.7917   -13226.143   -3259.2391   -187.99276   -3741.8822   -4654.9272    22890.779    79.500846 
   22700    1100.2217   -113.64188   0.99550367   -112.64638    12143.037    4.3047839    4.3047839    4.3047839    12143.037   -1206.9274    37000.948     635.0908   -4052.0707    5889.8621    16973.537    79.772657 
   22800    1294.6833   -113.81311    1.1714567   -112.64166   -31439.413    4.3106927    4.3106927    4.3106927   -31439.413   -56807.926   -35719.366   -1790.9485   -6018.1058     1439.731   -26899.644    80.101602 
   22900    1353.0656   -113.85674    1.2242822   -112.63246    28168.626    4.2866924    4.2866924    4.2866924    28168.626    9534.4149    28858.009    46113.454    4422.2921    3094.8182    17085.552    78.771109 
   23000    1295.5831   -113.82033    1.1722708   -112.64806    3202.6882      4.29727      4.29727      4.29727    3202.6882    28870.253   -6918.2132   -12343.975   -1938.6156   -14620.035    45488.513    79.355666 
   23100    1382.2807   -113.89038    1.2507166   -112.63966   -7615.4829    4.3128628    4.3128628    4.3128628   -7615.4829   -39657.984   -1571.0073    18382.542    3658.8714    3443.2123   -10207.165    80.222637 
   23200    1376.6231   -113.87856    1.2455975   -112.63297    18795.825    4.2955239    4.2955239    4.2955239    18795.825    7433.0163    2715.8285     46238.63   -1645.1496    4445.4089    9529.0135    79.258968 
   23300    1290.2323   -113.81207    1.1674293   -112.64464   -6708.5594    4.3004016    4.3004016    4.3004016   -6708.5594    25158.065    1788.4906   -47072.234   -1586.7776    794.38305    62461.074    79.529279 
   23400     1688.486   -114.16631    1.5277776   -112.63853   -3346.7186      4.30591      4.30591      4.30591   -3346.7186   -18394.467   -3947.8954    12302.206   -4324.9481   -1235.5544   -6823.2702    79.835277 
   23500    1077.2683   -113.61683   0.97473499    -112.6421    26252.789    4.2917191    4.2917191    4.2917191    26252.789    3115.5569    58998.552    16644.259   -13277.353    1071.8462    20544.213    79.048541 
   23600    1071.6263   -113.62519   0.96962998   -112.65556   -32549.931    4.3066853    4.3066853    4.3066853   -32549.931    17638.215   -42201.121   -73086.889    11283.287    4568.5545    70841.563    79.878411 
   23700    1746.2421   -114.21275    1.5800365   -112.63272    5913.1634    4.3056538    4.3056538    4.3056538    5913.1634   -10632.873    41538.247   -13165.884   -487.61207   -2454.7479   -11864.862    79.821031 
   23800     1081.456   -113.62311   0.97852411   -112.64459   -1118.2383     4.299594     4.299594     4.299594   -1118.2383    3135.6558    2842.1796   -9332.5504   -11300.962    2571.5452    38423.323    79.484482 
   23900    979.02312   -113.54263   0.88584069   -112.65678   -20169.949    4.3072665    4.3072665    4.3072665   -20169.949    1015.6821   -32543.023   -28982.505    3810.3428    8516.4063    65546.749    79.910756 
   24000    2093.9585    -114.5335    1.8946577   -112.63884    16252.507    4.2972822    4.2972822    4.2972822    16252.507   -4686.4892    44725.388    8718.6228    4755.6664   -12201.523   -31243.423    79.356339 
   24100    1020.3265   -113.58085    0.9232129   -112.65763   -18551.961    4.3015167    4.3015167    4.3015167   -18551.961     8499.442   -44005.012   -20150.314   -12226.389   -3563.1968    57721.254    79.591161 
   24200    1059.8661   -113.61666    0.9589891   -112.65767   -19318.343    4.2989536    4.2989536    4.2989536   -19318.343    -8092.786   -10267.941   -39594.303   -16726.787    798.20491    54526.345    79.448968 
   24300    1898.6824   -114.36146    1.7179678   -112.64349    10095.567    4.3020922    4.3020922    4.3020922    10095.567    -15608.87    23192.301    22703.269    6980.0585    4029.3734   -19826.298    79.623111 
   24400    1233.8296   -113.76937    1.1163949   -112.65297   -9356.3532    4.3055847    4.3055847    4.3055847   -9356.3532    18060.307   -6566.2602   -39563.106    1754.0824    4195.2253    45802.468    79.817187 
   24500    800.89779    -113.3768   0.72466915   -112.65213    12799.977    4.3055656    4.3055656    4.3055656    12799.977   -2546.7831    44363.834   -3417.1194   -18183.749    1604.7931     38848.81    79.816123 
   24600    1844.9012    -114.3072    1.6693054    -112.6379   -2358.6382    4.2999285    4.2999285    4.2999285   -2358.6382   -23440.998    11450.092    4914.9913   -10465.476    7783.6175   -15029.161    79.503035 
   24700    970.12598   -113.52238   0.87779037   -112.64459    28651.424     4.283346     4.283346     4.283346    28651.424    49924.528    76497.791   -40468.045    10603.401    -1752.924    38399.417    78.586776 
   24800    969.05689   -113.53876   0.87682304   -112.66194   -17531.865    4.3091382    4.3091382    4.3091382   -17531.865    6605.5269   -52420.782   -6780.3401   -12861.562    3178.4576    39960.401    80.014973 
   24900    1412.6772   -113.91885      1.27822   -112.64063    -9377.802    4.3127044    4.3127044    4.3127044    -9377.802   -34685.121    11305.373   -4753.6575   -13015.364    6930.7671   -30584.545    80.213799 
   25000    1248.2727   -113.76098    1.1294634   -112.63152    5253.1586    4.2842557    4.2842557    4.2842557    5253.1586    35613.144    9518.4915   -29372.159   -557.57049    1131.7924    51083.646    78.636856 
   25100    1139.0368   -113.67711    1.0306244   -112.64649   -2020.6755    4.3001959    4.3001959    4.3001959   -2020.6755     30874.07   -31051.675   -5884.4217   -4530.3306   -5059.2905     35999.62    79.517869 
   25200    1652.4561    -114.1297     1.495177   -112.63452   -7286.1335     4.310154     4.310154     4.310154   -7286.1335    -29714.68   -949.25271    8805.5327   -22183.404     946.2524   -18957.252    80.071571 
   25300    1104.2559   -113.63814   0.99915392   -112.63899   -845.59242    4.3046497    4.3046497    4.3046497   -845.59242    22602.002   -27553.554    2414.7747    551.26251     14143.58    46568.594      79.7652 
   25400    1269.7702   -113.78279    1.1489148   -112.63388   -148.70554    4.3025606    4.3025606    4.3025606   -148.70554    15081.255   -24464.881    8937.5088    4237.7858   -11517.041    28643.879    79.649119 
   25500    1669.7076   -114.14254    1.5107865   -112.63176    12422.502     4.288982     4.288982     4.288982    12422.502   -18836.738    18458.318    37645.925   -26453.724   -8626.0052   -16382.327    78.897397 
   25600    945.39986   -113.50844   0.85541766   -112.65302    8320.2036    4.3041427    4.3041427    4.3041427    8320.2036    34875.809   -29464.145    19548.947   -3892.6035    11923.438    31004.079    79.737017 
   25700    1672.6404    -114.1496    1.5134402   -112.63616   -20615.358    4.3128964    4.3128964    4.3128964   -20615.358    3784.1679   -35067.007   -30563.235    1027.3682    4188.8966    27015.331    80.224512 
   25800    1190.1013   -113.70865    1.0768287   -112.63183    36060.977    4.2903929    4.2903929    4.2903929    36060.977   -3.4312254    40747.723    67438.639   -14960.539   -15510.563   -24786.358    78.975284 
   25900    1059.1195    -113.5992   0.95831356   -112.64089   -18764.551    4.3036333    4.3036333    4.3036333   -18764.551    14802.598   -35201.197   -35895.056   -16885.318    2348.4287    28125.418    79.708707 
   26000    1575.6613   -114.05633    1.4256914   -112.63064   -2381.9414    4.3023989    4.3023989    4.3023989   -2381.9414    12624.038    13972.691   -33742.553    4723.1573    2517.8833    35170.128    79.640139 
   26100    1060.6672   -113.60131   0.95971401   -112.64159    14678.787     4.297124     4.297124     4.297124    14678.787   -14029.009    39080.284    18985.086    4398.2387   -11855.835   -19349.841    79.347573 
   26200    1091.9774   -113.63347   0.98804407   -112.64543   -40954.516    4.3122385    4.3122385    4.3122385   -40954.516   -37284.022    -50514.69   -35064.835    -26393.42   -8831.4605    6017.0349    80.187804 
   26300    1737.1328   -114.19847    1.5717943   -112.62667    20027.738    4.2974489    4.2974489    4.2974489    20027.738    6861.3583    76027.513   -22805.657    4613.4577    1191.1088    13376.394    79.365575 
   26400    1136.1442   -113.67212    1.0280071   -112.64411   -18567.045     4.299996     4.299996     4.299996   -18567.045   -34203.027   -3026.2965   -18471.811     8435.486   -11416.245   -15450.214    79.506778 
   26500    898.57096   -113.46327   0.81304589   -112.65023   -20273.124    4.3097256    4.3097256    4.3097256   -20273.124   -30647.793   -27412.001    -2759.577   -19217.608   -8274.0013   -7173.4687    80.047703 
   26600    1972.9531   -114.41308    1.7851694   -112.62791    23438.975    4.2948014    4.2948014    4.2948014    23438.975    13793.464     40145.35    16378.111    -1172.954    5014.3651   -15870.772    79.218984 
   26700    932.69615   -113.49323   0.84392308   -112.64931    10379.456    4.2953232    4.2953232    4.2953232    10379.456    4033.0978   -8708.0229    35813.292    9603.2702    266.50629   -1976.7714    79.247859 
   26800    1100.4192   -113.64427   0.99568243   -112.64859   -19811.865    4.3092125    4.3092125    4.3092125   -19811.865   -1972.0027   -30969.031   -26494.562    744.76821   -683.45679   -19739.544    80.019111 
   26900    1615.2552   -114.08877    1.4615169   -112.62725    24464.178    4.3054952    4.3054952    4.3054952    24464.178    21559.962    12457.401    39375.172   -3989.8517    7984.6378    13401.347    79.812208 
   27000    1062.3744   -113.60152   0.96125867   -112.64026   -8731.4309    4.2998459    4.2998459    4.2998459   -8731.4309   -24104.597   -13423.206    11333.511    1419.2757    4308.3386    8373.0086    79.498451 
   27100    1366.2793    -113.8744    1.2362382   -112.63816    12612.191    4.2930822    4.2930822    4.2930822    12612.191   -9033.4098    37883.672    8986.3094    15906.975   -7971.6795   -26303.422    79.123884 
   27200    1543.1978    -114.0323    1.3963178   -112.63598    20626.596     4.301607     4.301607     4.301607    20626.596    8075.3991    23553.676    30250.713   -12527.533   -91.623011    21461.165    79.596176 
   27300    926.91606   -113.48427   0.83869313   -112.64558   -37745.588    4.3142103    4.3142103    4.3142103   -37745.588   -39826.948    -20394.98   -53014.834   -1348.4212    21338.653    27846.134    80.297853 
   27400    1506.4035    -113.9944    1.3630256   -112.63137    15189.293    4.2931118    4.2931118    4.2931118    15189.293   -10629.712     38567.21    17630.381    14073.533   -2142.6134     -8439.15    79.125522 
   27500    1574.9712   -114.05434     1.425067   -112.62927    18284.062    4.2960021    4.2960021    4.2960021    18284.062    9492.5873    34671.453    10688.146   -4042.6746    902.08058     7272.205    79.285444 
   27600    701.47733   -113.27486   0.63471143   -112.64014   -44813.417    4.3162075    4.3162075    4.3162075   -44813.417   -46188.109   -10227.717   -78024.425   -1364.3781    21772.495    28411.496    80.409423 
   27700    1624.7036    -114.1007     1.470066   -112.63064   -1575.2571    4.2968407    4.2968407    4.2968407   -1575.2571   -16693.176    39378.163   -27410.758    476.36865    -6570.034   -870.17816     79.33188 
   27800    1439.5324   -113.93395    1.3025191   -112.63143    18857.832    4.2924639    4.2924639    4.2924639    18857.832    25850.906     4951.334    25771.255   -679.30676    3751.6197    -803.2405    79.089703 
   27900    887.25851   -113.45376   0.80281014   -112.65095    -26734.34    4.2972123    4.2972123    4.2972123    -26734.34   -17949.267   -18361.649   -43892.102    -8523.983    12123.542    23902.661    79.352465 
   28000    1392.7843   -113.91069    1.2602205   -112.65047    11025.652    4.3032504    4.3032504    4.3032504    11025.652   -5348.9045    24414.519    14011.343   -2636.8581    2193.2175    1973.5142    79.687436 
   28100    1649.9248   -114.12797    1.4928867   -112.63508   -3270.9366     4.311566     4.311566     4.311566   -3270.9366    4011.6179   -32167.849    18343.421    2431.1934    3000.6572   -16384.425    80.150291 
   28200     933.9963   -113.49051   0.84509948   -112.64541   -1818.8331    4.2919075    4.2919075    4.2919075   -1818.8331    16000.632   -24482.964     3025.832   -7367.2621    5017.1425    18404.428    79.058951 
   28300    1436.4382   -113.94311    1.2997195   -112.64339    28495.127    4.2874714    4.2874714    4.2874714    28495.127    13521.616    24290.418    47673.345   -2134.5687    22682.768    14945.163    78.814064 
   28400    1745.2602    -114.2227    1.5791481   -112.64355   -7836.0269    4.3071635    4.3071635    4.3071635   -7836.0269    -7266.708   -36241.707    20000.335    9078.5038   -16143.838   -20849.521    79.905023 
   28500    804.44538   -113.38287   0.72787908     -112.655   -11633.262    4.3077165    4.3077165    4.3077165   -11633.262    9592.0425   -28181.648    -16310.18    4312.6533    2191.3124    8836.4147    79.935802 
   28600    1743.6751   -114.21402    1.5777139   -112.63631    14605.851    4.2939663    4.2939663    4.2939663    14605.851    24680.981   -11724.689     30861.26    -13925.83    18473.741    15731.094    79.172783 
   28700     1575.175   -114.06192    1.4252514   -112.63667    2097.5553    4.3003218    4.3003218    4.3003218    2097.5553   -6788.3985   -11791.512    24872.576    9376.4704    -17316.54    -16920.88    79.524854 
   28800      735.714   -113.31056   0.66568949   -112.64487   -20312.478    4.3082806    4.3082806    4.3082806   -20312.478    4936.4735   -29558.412   -36315.495    5286.4216    5054.8059   -2733.6525    79.967212 
   28900    1790.7463   -114.24987    1.6203049   -112.62957   -21326.865    4.3075815    4.3075815    4.3075815   -21326.865    832.02228   -38442.675   -26369.943   -3582.9084   -2117.5442    29329.902    79.928287 
   29000    1204.9532   -113.72388     1.090267   -112.63361    14184.966    4.2960338    4.2960338    4.2960338    14184.966   -22862.908    17579.061    47838.743    1221.8016   -28173.738   -12779.969    79.287196 
   29100    1030.6498   -113.57603   0.93255357   -112.64348   -11730.592    4.2977813    4.2977813    4.2977813   -11730.592    4467.9578   -13180.257   -26479.477    3743.1483   -13655.011    6800.7258     79.38399 
   29200    1602.8941   -114.08912    1.4503323   -112.63879   -13306.656    4.3106569    4.3106569    4.3106569   -13306.656    6892.0745   -38605.687   -8206.3545   -5905.4681    10417.727    12020.609    80.099607 
   29300    1320.1617    -113.8356    1.1945101   -112.64109    12726.837    4.2960489    4.2960489    4.2960489    12726.837   -20487.318    35036.282    23631.546   -7423.6182    1941.1644   -4447.2592    79.288036 
   29400    1268.9754    -113.7906    1.1481956   -112.64241    10910.276     4.296864     4.296864     4.296864    10910.276     36961.22   -4402.0061    171.61326    7099.2298   -16512.076   -10109.625    79.333174 
   29500    1609.0968   -114.08843    1.4559446   -112.63249   -8959.0157    4.3142884    4.3142884    4.3142884   -8959.0157    17263.326   -38767.984   -5372.3887   -9150.4573    7304.4916    9412.8103    80.302214 
   29600    1146.5435   -113.67142    1.0374166     -112.634    18397.376    4.2975828    4.2975828    4.2975828    18397.376    11424.928    29708.616    14058.586   -16737.663   -9153.3531    3058.5296    79.372991 
   29700    1163.3668    -113.6869    1.0526388   -112.63426    21311.157     4.291287     4.291287     4.291287    21311.157    40681.395   -4308.6535    27560.729    2223.2215   -19765.462   -21089.199     79.02467 
   29800    1632.3088   -114.11114    1.4769473   -112.63419    504.36861    4.3063309    4.3063309    4.3063309    504.36861    9268.4278   -6095.2004   -1660.1216    -150.3089    500.25242    10119.547    79.858694 
   29900    1069.8897   -113.60324   0.96805865   -112.63518    11105.397    4.3119724    4.3119724    4.3119724    11105.397    1881.4941    14572.902    16861.794   -14788.761    9594.9855    292.42545     80.17296 
   30000    1436.2057   -113.92565    1.2995091   -112.62614   -22513.134    4.3083869    4.3083869    4.3083869   -22513.134   -2345.8808   -15147.742   -50045.778   -880.69185    5763.1548    1730.4838    79.973129 
   30100    1441.8576   -113.92654     1.304623   -112.62192    8239.1246     4.292204     4.292204     4.292204    8239.1246    14766.357    15706.149    -5755.132      8020.73    807.52567    4520.5912     79.07534 
   30200    1308.7146   -113.82067    1.1841525   -112.63651   -2602.1214    4.2978923    4.2978923    4.2978923   -2602.1214   -13863.129    4351.4428    1705.3215   -5460.3004    12754.521    12048.709    79.390146 
   30300    1165.2479   -113.68418    1.0543408   -112.62984   -19136.215    4.3228902    4.3228902    4.3228902   -19136.215   -11319.931   -7106.4504   -38982.264    6322.6845    8015.5445   -4414.3588    80.783491 
   30400    1776.7442   -114.21625    1.6076355   -112.60861     -28434.2    4.3160104    4.3160104    4.3160104     -28434.2   -26211.334   -31566.369   -27524.897    7358.4889     1824.901   -3820.3641    80.398406 
   30500    1162.5357   -113.66328    1.0518867   -112.61139   -2391.8282    4.2971758    4.2971758    4.2971758   -2391.8282   -25432.894     30707.05    -12449.64    2951.1171    6345.2747    7562.9044    79.350442 
   30600    1464.8499   -113.94758     1.325427   -112.62216    4047.6202    4.3062026    4.3062026    4.3062026    4047.6202   -3787.9067     58291.78   -42361.013    808.48147    9743.4424   -27084.707    79.851556 
   30700     1650.651   -114.10975    1.4935437    -112.6162   -2957.5671    4.3207014    4.3207014    4.3207014   -2957.5671   -26855.552    24639.434   -6656.5832    6477.0359     1964.175   -6167.3501    80.660845 
   30800    1044.1485   -113.56957   0.94476752    -112.6248    -12176.75    4.3145743    4.3145743    4.3145743    -12176.75   -22914.923    3969.3192   -17584.647   -11807.812   -4655.8983    1011.7496    80.318181 
   30900    1582.9446   -114.05384    1.4322816   -112.62155    11626.577      4.29566      4.29566      4.29566    11626.577    46041.817    9826.1083   -20988.195   -3723.2883    5709.7502   -22607.252    79.266503 
   31000    1568.3277   -114.04165    1.4190559    -112.6226     37255.51    4.2910925    4.2910925    4.2910925     37255.51    43537.604    29011.037     39217.89   -5850.5003    -13715.32   -8681.3805    79.013921 
   31100    889.63912   -113.45068   0.80496417   -112.64572   -15952.738    4.3182837    4.3182837    4.3182837   -15952.738   -35998.655   -30484.357      18624.8    10686.301   -16994.003    912.65886    80.525517 
   31200     1521.681   -113.99658     1.376849   -112.61974   -11219.257     4.318603     4.318603     4.318603   -11219.257   -26816.169   -25354.276    18512.673    3303.6038     1421.647   -10691.515     80.54338 
   31300    1351.6947   -113.84279    1.2230418   -112.61975    21018.342    4.2870131    4.2870131    4.2870131    21018.342   -5854.4015    293.92065    68615.508    2909.2576   -10444.661   -1869.4604    78.788793 
   31400    502.21088   -113.10148   0.45441095   -112.64707    3933.5042    4.2926359    4.2926359    4.2926359    3933.5042   -59129.151   -3574.0377    74503.701      9101.84   -12642.507    13749.009    79.099211 
   31500    1654.4981   -114.13264    1.4970247   -112.63561   -5625.0715     4.317746     4.317746     4.317746   -5625.0715   -40443.398    17605.153    5963.0308    726.26514     -206.572    8196.0578     80.49544 
   31600    1416.4976    -113.9101    1.2816768   -112.62842   -14677.097    4.3230205    4.3230205    4.3230205   -14677.097   -36588.561   -14282.193    6839.4631    477.49915    2846.4756    5210.9007    80.790797 
   31700    555.75331   -113.12756   0.50285727   -112.62471   -16511.428    4.3121779    4.3121779    4.3121779   -16511.428   -68832.367   -6230.0416    25528.125    1883.7732   -17754.159      6869.95    80.184421 
   31800    2020.2998   -114.42946    1.8280098   -112.60145    21184.484     4.287372     4.287372     4.287372    21184.484    3626.3718    46033.541    13893.538   -3149.1841     16.19169     16874.96     78.80858 
   31900    1274.9215   -113.79045    1.1535757   -112.63688    4469.2649    4.3010473    4.3010473    4.3010473    4469.2649   -24935.172    22448.222    15894.746    7131.5536    10985.159   -3637.8801    79.565108 
   32000    989.35483   -113.52981   0.89518904   -112.63462   -35258.679    4.3225497    4.3225497    4.3225497   -35258.679   -72571.872   -38968.817    5764.6517    13525.424   -11923.775    8075.5364    80.764405 
   32100    1708.0662   -114.16458    1.5454942   -112.61909   -1858.1548     4.305854     4.305854     4.305854   -1858.1548   -13366.084    20780.065   -12988.446   -6492.3055    8873.8629    578.99313    79.832163 
   32200    1083.4914   -113.60832   0.98036576   -112.62796    1912.6569    4.2885433    4.2885433    4.2885433    1912.6569    -14718.74    15724.223    4732.4869    2957.2449    32567.549   -7973.4698    78.873189 
   32300    1066.6457   -113.60599   0.96512343   -112.64087   -8192.8275    4.2998122    4.2998122    4.2998122   -8192.8275   -29420.529   -4080.5962    8922.6428    5637.1205   -6280.6469   -4261.4953    79.496583 
   32400    1704.5797   -114.17169    1.5423395   -112.62935   -7338.4122    4.3173957    4.3173957    4.3173957   -7338.4122   -6643.6329    23863.691   -39235.295   -3420.9678    7531.3085     2710.924    80.475848 
   32500    1180.2853   -113.70573    1.0679469   -112.63778    -9072.819    4.3029525    4.3029525    4.3029525    -9072.819   -11627.179    10673.707   -26264.985    3800.2998    46153.754    4546.6565    79.670887 
   32600    972.79497   -113.51616   0.88020533   -112.63595    29871.863    4.2871973    4.2871973    4.2871973    29871.863    10314.678    56269.317    23031.594    5190.5895   -9676.3884   -8270.6474    78.798949 
   32700      1773.12   -114.24081    1.6043562   -112.63645    1418.3921     4.296648     4.296648     4.296648    1418.3921    7750.4256   -3373.9558   -121.29337    5676.6114   -2026.2967    9426.9706    79.321209 
   32800     928.3395   -113.48838   0.83998109   -112.64839   -8006.1853    4.3087417    4.3087417    4.3087417   -8006.1853   -19135.897    11687.801    -16570.46   -222.38678     43831.86    5754.2181    79.992888 
   32900    1387.6896   -113.89731    1.2556107    -112.6417   -3413.6095    4.3016835    4.3016835    4.3016835   -3413.6095   -11629.333    18025.664    -16637.16    7876.6382   -5018.3828   -583.55393     79.60042 
   33000    1740.6167   -114.21009    1.5749466   -112.63514    14198.071    4.2892239    4.2892239    4.2892239    14198.071    10446.567    137.32391    32010.324   -6355.2961    6431.3754    3006.7917    78.910748 
   33100    842.00441   -113.41642   0.76186329   -112.65456    9827.0425    4.2964394    4.2964394    4.2964394    9827.0425    23097.856    44873.528   -38490.257    6909.7433    62187.857    9731.7713    79.309659 
   33200    1614.8806   -114.10397    1.4611779    -112.6428   -9330.4995    4.3093215    4.3093215    4.3093215   -9330.4995    8443.6463    -85.71857   -36349.426   -194.49771   -8137.3175    16475.483    80.025186 
   33300    1613.2213   -114.09739    1.4596766   -112.63772    6157.5546    4.3032333    4.3032333    4.3032333    6157.5546   -13555.878    30436.101    1592.4401   -6734.3274    56.901262   -14293.784    79.686487 
   33400    943.75979   -113.50008   0.85393369   -112.64615   -2319.0487     4.292817     4.292817     4.292817   -2319.0487   -3094.5492    60533.445   -64396.042   -1153.7848    64372.361    14294.222    79.109224 
   33500    1726.8431    -114.2054    1.5624839   -112.64292   -2027.6387     4.298846     4.298846     4.298846   -2027.6387    23750.866   -3794.2682   -26039.514   -504.22545   -3424.6085    12587.613    79.443002 
   33600     1558.956    -114.0504    1.4105761   -112.63982   -9147.4148    4.3079205    4.3079205    4.3079205   -9147.4148   -10835.655    8637.7217   -25244.311   -9663.2561    7332.4458   -512.13509    79.947158 
   33700    911.88255   -113.47419    0.8250905    -112.6491   -21500.465    4.3004266    4.3004266    4.3004266   -21500.465    -21301.03    16930.019   -60130.382   -2954.0499    67099.671    4925.7096    79.530667 
   33800    1580.5004   -114.06992      1.43007   -112.63985    17849.764    4.2893003    4.2893003    4.2893003    17849.764    26619.115    24337.693    2592.4852   -1326.3628   -7337.7999    12439.293    78.914964 
   33900    1640.4293   -114.12662    1.4842949   -112.64232   -7538.5287    4.3003311    4.3003311    4.3003311   -7538.5287   -3823.9109   -10300.572   -8491.1035   -3389.3448    14100.454    150.40667    79.525366 
   34000    1028.0355   -113.57732   0.93018815   -112.64713   -13812.722    4.3078879    4.3078879    4.3078879   -13812.722   -8194.4691   -5852.8002   -27390.897    -3039.146      47634.9    4102.8407    79.945345 
   34100    1212.0051   -113.73222    1.0966476   -112.63557    6714.6422    4.3040189    4.3040189    4.3040189    6714.6422     34428.57   -10790.308   -3494.3354    -7387.575   -12142.438    29522.365    79.730139 
   34200    1434.4933   -113.93153    1.2979597   -112.63357   -837.62827    4.2964748    4.2964748    4.2964748   -837.62827    35568.237   -18998.821     -19082.3    7990.1765    249.03236   -12028.417    79.311618 
   34300    987.58305   -113.53398    0.8935859   -112.64039    20843.906    4.2874698    4.2874698    4.2874698    20843.906    4479.1047     43482.86    14569.753   -10840.852    34488.813   -1396.8019    78.813974 
   34400     1104.769    -113.6497   0.99961821   -112.65008   -203.82055    4.3011856    4.3011856    4.3011856   -203.82055    32053.393   -11395.668   -21269.187   -6363.8261     2449.668     39694.25    79.572785 
   34500    1434.1194   -113.93265    1.2976214   -112.63503   -14852.608    4.3127252    4.3127252    4.3127252   -14852.608    5323.9679   -33571.746   -16310.047    3293.3092    -9328.431    7389.4492     80.21496 
   34600     1329.659   -113.83466    1.2031034   -112.63156    12662.921    4.2916813    4.2916813    4.2916813    12662.921   -16419.944    59849.972   -5441.2642   -4208.4122    33144.243   -5788.9285    79.046456 
   34700    945.59862   -113.49985   0.85559751   -112.64426     -8106.68     4.285859     4.285859     4.285859     -8106.68    34940.383   -44221.928   -15038.495   -12057.125    14578.128    57423.088    78.725177 
   34800    1338.6745    -113.8601    1.2112608   -112.64884   -9374.1876    4.2992921    4.2992921    4.2992921   -9374.1876   -1778.9941   -18405.308   -7938.2603   -8265.7746   -6839.7921    29464.602    79.467739 
   34900    1715.0782   -114.19313    1.5518388   -112.64129   -14758.792    4.3091282    4.3091282    4.3091282   -14758.792   -24692.163    610.23289   -20194.447     3507.299    18811.346   -23071.344    80.014414 
   35000    631.07667   -113.22428   0.57101143   -112.65327   -30415.181    4.3022884    4.3022884    4.3022884   -30415.181    18981.828   -60138.751   -50088.618   -8353.4081    18359.157    73336.404    79.634004 
   35100    1548.0191   -114.04026    1.4006802   -112.63958    9095.5091    4.2763693    4.2763693    4.2763693    9095.5091     39487.32   -14016.707    1815.9149   -12147.662    -9036.749     29937.56    78.203394 
   35200    1507.9086   -114.01469    1.3643874   -112.65031    4078.5813    4.3025266    4.3025266    4.3025266    4078.5813   -23786.514    19558.266    16463.992    3665.7386    6677.5143   -7659.8332    79.647233 
[...]
   91200    986.09243   -113.53549   0.89223716   -112.64325   -10493.613    4.2959928    4.2959928    4.2959928   -10493.613    14980.186   -41092.621    -5368.404    7109.3067    8293.7966    60450.602     79.28493 
   91300    1060.5372   -113.60251   0.95959631   -112.64291   -5865.8134    4.2885276    4.2885276    4.2885276   -5865.8134   -6391.0295   -18573.533    7367.1224    46.903115   -21425.152     24925.98    78.872324 
   91400    1555.0138   -114.04371    1.4070092    -112.6367    7119.2819    4.2840792    4.2840792    4.2840792    7119.2819   -1433.4241    19355.568    3435.7013    903.82335    -24531.27   -16860.433     78.62714 
   91500    965.94575    -113.5215   0.87400801   -112.64749   -13720.197     4.293158     4.293158     4.293158   -13720.197    22164.836   -39773.808    -23551.62    -982.1204    9212.0107    65112.458    79.128078 
   91600    1206.4928   -113.73623    1.0916601   -112.64457   -12478.421    4.2933842    4.2933842    4.2933842   -12478.421   -15109.288   -14331.994   -7993.9804    7755.5007   -14912.625    24782.031    79.140583 
   91700    1643.4521   -114.12284      1.48703   -112.63581   -749.55808    4.2868618    4.2868618    4.2868618   -749.55808   -14471.594    7509.8101      4713.11    3912.0647   -25832.483   -12651.104    78.780447 
   91800    1110.2065   -113.64885    1.0045381   -112.64431   -21555.552    4.2883648    4.2883648    4.2883648   -21555.552    40681.649   -66229.877   -39118.428   -4877.3453    7752.5521    77887.519     78.86334 
   91900    1423.9314   -113.92627     1.288403   -112.63787     -14077.5    4.2953853    4.2953853    4.2953853     -14077.5   -15568.756   -6648.1634   -20015.582   -3941.1928   -5466.4858    16033.922    79.251298 
   92000    1483.6135   -113.97844    1.3424047   -112.63604    -6027.606    4.2917518    4.2917518    4.2917518    -6027.606   -24688.016    41519.786   -34914.588   -1230.6058   -29784.633   -3198.5546    79.050349 
   92100    891.79635   -113.45073   0.80691608   -112.64382    3683.5917    4.2824245    4.2824245    4.2824245    3683.5917    37754.663    7341.0415   -34044.929   -2009.8131   -2762.7693     73460.48    78.536068 
   92200    1525.7368   -114.02069    1.3805187   -112.64017     -3052.06    4.2921978    4.2921978    4.2921978     -3052.06   -12506.141    24445.419   -21095.459   -4696.7076   -1382.9113     10473.87    79.074996 
   92300    1615.4492   -114.09969    1.4616924   -112.63799   -16634.425    4.2951949    4.2951949    4.2951949   -16634.425   -30574.484    13541.332   -32870.121   -2562.9081   -16766.817   -7791.6061    79.240759 
   92400    964.67274   -113.51912   0.87285617   -112.64627    346.77656    4.2833058    4.2833058    4.2833058    346.77656    36501.738   -849.46563   -34611.943    734.23328     -5984.23    71280.351    78.584565 
   92500    1702.5864   -114.17866     1.540536   -112.63812    7756.7023    4.2878326    4.2878326    4.2878326    7756.7023   -6595.6271    24795.231    5070.5034   -6087.6693     6288.953    16215.846    78.833983 
   92600    1385.8747   -113.89302    1.2539685   -112.63905    4597.7274    4.2932887    4.2932887    4.2932887    4597.7274   -27859.198    31089.072    10563.308    -2881.496   -1047.6932    306.35742    79.135306 
   92700    953.90911   -113.50968   0.86311701   -112.64656   -3792.5342    4.2882654    4.2882654    4.2882654   -3792.5342    36355.038   -11693.032   -36039.609    2619.1545   -13722.374    68144.922    78.857858 
   92800    1897.0496   -114.35113    1.7164904   -112.63464    8993.8659    4.2855373    4.2855373    4.2855373    8993.8659    8935.9421   -2690.2575    20735.913    2518.2971    10725.224    376.43574    78.707449 
   92900    1352.0899   -113.86276    1.2233994   -112.63936   -5881.3282    4.2945163    4.2945163    4.2945163   -5881.3282   -23654.621   -18298.876    24309.512    3587.6398    5852.1788    9028.6852    79.203205 
   93000    986.48826   -113.53611   0.89259531   -112.64351   -11884.074    4.2942013    4.2942013    4.2942013   -11884.074    28403.571   -29532.145   -34523.648    -7883.581   -11970.843     61171.72    79.185779 
   93100    1728.1179   -114.19108    1.5636374   -112.62744    25985.796    4.2808034    4.2808034    4.2808034    25985.796     20817.02    17327.193    39813.176    11650.018    -4425.784   -7777.1002    78.446909 
   93200    1010.3559   -113.55618   0.91419128   -112.64199   -15166.867    4.2926804    4.2926804    4.2926804   -15166.867   -23143.239   -24572.872      2215.51    5694.5691    5006.7746   -1114.1301    79.101673 
   93300    1211.6462   -113.73576     1.096323   -112.63944   -24104.625    4.2951231    4.2951231    4.2951231   -24104.625     19733.64   -47882.356   -44165.161   -7461.5889    6573.5492    55113.015    79.236787 
   93400    1619.0753   -114.09347    1.4649734    -112.6285    26614.284    4.2793903    4.2793903    4.2793903    26614.284    35327.271    677.74685    43837.835    10027.127    599.75487    349.20624    78.369251 
   93500    742.98976   -113.31893   0.67227275   -112.64666   -30735.594    4.2980312    4.2980312    4.2980312   -30735.594   -38556.516   -52286.306   -1363.9594    3434.2701     16186.62   -17014.891    79.397841 
   93600    1530.0168   -114.02172    1.3843913   -112.63733   -10015.326    4.2922606    4.2922606    4.2922606   -10015.326    17988.305   -29440.919   -18593.365   -4270.8522    7912.3489    17923.643    79.078468 
   93700    1670.1599    -114.1443    1.5111958   -112.63311    20358.052    4.2762223    4.2762223    4.2762223    20358.052    21581.495    12656.327    26836.334    6561.9094   -18502.458   -3422.5349     78.19533 
   93800    496.50899   -113.10653   0.44925177   -112.65728   -29444.363    4.2942178    4.2942178    4.2942178   -29444.363   -47057.025   -42364.989    1088.9235    15608.855    8181.2937   -25850.163    79.186693 
   93900    1812.4489    -114.2828    1.6399419   -112.64286    2424.6582    4.2891536    4.2891536    4.2891536    2424.6582    11998.422    2742.5854   -7467.0329   -3771.8727    3747.4423   -8614.4937    78.906868 
   94000    1545.5868   -114.04305    1.3984794   -112.64457    12345.116    4.2886298    4.2886298    4.2886298    12345.116    3135.3184    18181.674    15718.355    2363.9543   -11881.926    3997.6171    78.877964 
   94100     862.4653   -113.43375   0.78037673   -112.65337    -24671.85    4.2932598    4.2932598    4.2932598    -24671.85   -32430.629   -38939.825   -2645.0962    19068.901   -9808.9045   -24074.329    79.133706 
   94200    1737.9712   -114.20698    1.5725528   -112.63443    32705.763    4.2797782    4.2797782    4.2797782    32705.763    46368.336    1927.3849    49821.568    1545.3602    9326.5803   -9917.7749    78.390564 
   94300     1239.981   -113.76965    1.1219609   -112.64769   -15746.106    4.2923437    4.2923437    4.2923437   -15746.106    842.25137   -11534.063   -36546.507   -2907.7515   -16335.711    35517.159    79.083062 
   94400    930.77095   -113.49077   0.84218112   -112.64859   -15508.034    4.2919247    4.2919247    4.2919247   -15508.034   -13379.229   -18165.408   -14979.463    22400.333   -18931.042    1666.9066    79.059906 
   94500    1821.1807   -114.27755    1.6478425   -112.62971    23665.661    4.2828805    4.2828805    4.2828805    23665.661    33318.288   -2109.7686    39788.463     10425.95    10466.726   -2836.5442    78.561158 
   94600    941.34073    -113.4982   0.85174487   -112.64646   -30729.557    4.2952806    4.2952806    4.2952806   -30729.557   -14131.357   -31941.067   -46116.249   -5753.7818   -14433.083    39488.258    79.245504 
   94700    745.12684   -113.32662   0.67420642   -112.65242   -3655.8369    4.2828058    4.2828058    4.2828058   -3655.8369   -7342.0779   -10501.254    6875.8213     7260.388   -19269.108    15214.314    78.557045 
   94800    1661.9922   -114.14359    1.5038055   -112.63979    28062.728    4.2862572    4.2862572    4.2862572    28062.728    29086.913    16933.672    38167.601    9204.2736    1503.9512   -15359.122    78.747119 
   94900    960.59197   -113.51596    0.8691638    -112.6468   -20924.216    4.2994218    4.2994218    4.2994218   -20924.216    5860.8601   -35254.931   -33378.577   -6871.8498   -9957.9541    11842.483    79.474934 
   95000     896.1742    -113.4536   0.81087725   -112.64272    8630.2138     4.285351     4.285351     4.285351    8630.2138    26392.039   -9227.5435    8726.1457   -10264.437   -21262.343    26792.981    78.697187 
   95100    1821.9066   -114.28177    1.6484994   -112.63327    9061.2207    4.2852788    4.2852788    4.2852788    9061.2207     28403.46   -4161.1205    2941.3226    1305.4028    4810.9537   -30355.387    78.693207 
   95200    1095.6763    -113.6405   0.99139097   -112.64911   -6008.0715    4.2863387    4.2863387    4.2863387   -6008.0715    40506.935   -27678.475   -30852.674    1360.4433    4524.9922   -20239.496    78.751611 
   95300    1227.1527   -113.76044    1.1103536   -112.65009    3246.1837     4.285472     4.285472     4.285472    3246.1837    23657.914    1280.7671    -15200.13   -5559.4896    -13473.72    36084.647    78.703853 
   95400    1640.3082   -114.12416    1.4841853   -112.63998   -12243.373    4.2981312    4.2981312    4.2981312   -12243.373    8467.4024   -12523.654   -32673.868   -3394.1013   -4293.3215   -29348.392    79.403383 
   95500    1253.3933   -113.77926    1.1340966   -112.64516    -5926.155    4.2848531    4.2848531    4.2848531    -5926.155    46534.295   -20288.567   -44024.193    4288.8398    1105.1949   -41636.722    78.669759 
   95600    1296.2499   -113.81365    1.1728741   -112.64077    8872.8312    4.2774244    4.2774244    4.2774244    8872.8312    32411.319    26246.257   -32039.082   -7369.5243   -11361.018    47383.958    78.261296 
   95700    1327.0962   -113.84455    1.2007845   -112.64377   -18411.938    4.2939163    4.2939163    4.2939163   -18411.938    3669.3326    -5758.617    -53146.53   -8742.0583   -6355.5509   -23151.453    79.170015 
   95800    1214.7698   -113.74206    1.0991492   -112.64291   -5745.2436    4.2909558    4.2909558    4.2909558   -5745.2436    35899.378   -24998.035   -28137.073     393.3512      4307.75   -53714.097    79.006375 
   95900    1344.8954   -113.85561    1.2168896   -112.63872    -1614.491    4.2882314    4.2882314    4.2882314    -1614.491    38501.103   -9159.2664   -34185.309    4253.1051   -203.83351    56196.336    78.855983 
   96000    1190.0826   -113.71746    1.0768117   -112.64064    -5562.671    4.2860218    4.2860218    4.2860218    -5562.671    29283.663   -20465.552   -25506.123   -12982.134   -5774.2334   -10893.231     78.73415 
   96100    1159.7078   -113.69191     1.049328   -112.64259    10626.134    4.2853271    4.2853271    4.2853271    10626.134    38377.895   -15338.109    8838.6171   -5567.4947    310.67068   -59072.166     78.69587 
   96200    1530.7797   -114.02082    1.3850817   -112.63574   -1580.9527    4.2968438    4.2968438    4.2968438   -1580.9527    21184.084   -22229.397   -3697.5451   -488.29783    1317.6924    47027.079    79.332056 
   96300     1331.323   -113.84562     1.204609   -112.64101   -3167.4186    4.2874007    4.2874007    4.2874007   -3167.4186    26185.218    -35213.54   -473.93331   -2117.7749   -9413.4298    -2003.022    78.810162 
   96400     963.3163   -113.52308   0.87162884   -112.65145   -716.12947     4.279828     4.279828     4.279828   -716.12947    18971.001   -21677.392    558.00235   -6469.3593    -12970.75   -68366.547    78.393302 
   96500    1708.7668   -114.18998    1.5461281   -112.64385    3606.4065    4.2887296    4.2887296    4.2887296    3606.4065     -5178.88   -6628.6727    22626.772   -8762.3077    12304.559    15634.672     78.88347 
   96600    1584.4121   -114.07902    1.4336094   -112.64541   -8593.3487    4.2935057    4.2935057    4.2935057   -8593.3487    26436.656   -38503.404   -13713.298     2256.843    7215.4859   -20588.687    79.147306 
   96700    835.06011   -113.40445   0.75557994   -112.64887   -15211.899    4.2936009    4.2936009    4.2936009   -15211.899    23038.605    -53027.97   -15646.332   -1234.3598   -12072.304   -55756.628    79.152569 
   96800    1683.5565   -114.15536    1.5233173   -112.63204   -1906.9389    4.2883561    4.2883561    4.2883561   -1906.9389   -17099.069   -4150.8142    15529.067   -10170.728    11505.415    20053.147    78.862862 
   96900    1467.6893   -113.96496    1.3279961   -112.63696    -1730.091    4.2822347    4.2822347    4.2822347    -1730.091    26563.976   -12604.195   -19150.054    1447.1189    7794.9604   -36065.741    78.525627 
   97000     1134.202   -113.67284    1.0262498   -112.64659   -3049.5092    4.2854373    4.2854373    4.2854373   -3049.5092    24811.781   -32295.487   -1664.8214   -4961.5987   -13023.056   -51557.838    78.701941 
   97100    1340.5947   -113.85887    1.2129983   -112.64587   -7009.3575    4.2908316    4.2908316    4.2908316   -7009.3575   -32939.426    4395.7442    7515.6089   -8456.9856   -2553.5051    12497.118    78.999514 
   97200    1290.9694   -113.81437    1.1680963   -112.64627   -9280.8669    4.2865253    4.2865253    4.2865253   -9280.8669    12219.308   -10134.298   -29927.611    6482.2282    21979.481    -14984.01      78.7619 
   97300    1271.5335   -113.79282    1.1505102   -112.64231    3200.8925    4.2846203    4.2846203    4.2846203    3200.8925    37376.751     -17137.5   -10636.574   -4576.5143   -7936.8137   -43565.803    78.656934 
   97400    1003.3254   -113.55367    0.9078299   -112.64584    -8343.858    4.2901041    4.2901041    4.2901041    -8343.858   -32221.432    2930.6752    4259.1832   -10587.719   -22278.529    8377.8579    78.959334 
   97500    1306.0109   -113.82589    1.1817061   -112.64419   -2317.9865    4.2849436    4.2849436    4.2849436   -2317.9865    13000.563   -8276.5333   -11677.989   -194.64104    18481.099    2657.2865    78.674744 
   97600    1437.7857   -113.94313    1.3009387   -112.64219    11085.363    4.2849231    4.2849231    4.2849231    11085.363    44710.194   -2752.0768   -8702.0275   -1690.0656   -7528.3052   -17574.551    78.673616 
   97700    760.81861   -113.34296   0.68840466   -112.65456   -9903.7174    4.2890365    4.2890365    4.2890365   -9903.7174   -28881.652   -4908.3049    4078.8042   -17917.741   -43659.863   -947.05728    78.900403 
   97800    1167.9662   -113.70635    1.0568003   -112.64955    5510.8588    4.2861796    4.2861796    4.2861796    5510.8588      13830.2   -15056.014    17758.391   -2233.7012   -2834.3624    8597.6253    78.742843 
   97900    1655.6872   -114.13948    1.4981006   -112.64138    2162.0384    4.2876362    4.2876362    4.2876362    2162.0384    11214.622    645.24593   -5373.7528    4740.8442    2246.3235    7827.6005    78.823149 
   98000    946.91831   -113.50873   0.85679158   -112.65194    -2788.982    4.2851231    4.2851231    4.2851231    -2788.982   -13394.851    7379.8238   -2351.9187   -11848.481   -41389.862   -8455.8733    78.684628 
   98100    1133.7366   -113.67781    1.0258287   -112.65198   -4706.3922    4.2857622    4.2857622    4.2857622   -4706.3922   -10854.628    -25142.88    21878.332   -5751.7088   -13638.367    19900.109    78.719839 
   98200    1550.0057   -114.04706    1.4024777   -112.64458    2824.5421    4.2889617    4.2889617    4.2889617    2824.5421    6789.5027    4773.3699   -3089.2462     8774.647    12741.791    24637.431    78.896278 
   98300    1302.6975   -113.82633    1.1787081   -112.64763     4744.098    4.2844022    4.2844022    4.2844022     4744.098    -16866.71    20485.453    10613.551   -3838.3154   -25756.749   -9129.4165    78.644927 
   98400    1310.3404    -113.8359    1.1856235   -112.65028    3777.5349    4.2857034    4.2857034    4.2857034    3777.5349   -11597.387    2098.0455    20831.946   -16622.325   -13833.995    3312.8775    78.716601 
   98500    1797.6787   -114.26809    1.6265775   -112.64151    2949.4023    4.2880961    4.2880961    4.2880961    2949.4023    7493.0077   -9153.4499    10508.649    3042.0293    7806.8589    17955.597     78.84852 
   98600    1250.4429    -113.7802     1.131427   -112.64877   -2752.3334    4.2873404    4.2873404    4.2873404   -2752.3334   -31016.114    30376.697   -7617.5835   -3604.0658   -16257.595    11935.811     78.80684 
   98700    1207.4343   -113.74474    1.0925119   -112.65223   -5602.4617    4.2865172    4.2865172    4.2865172   -5602.4617   -26963.701    14068.029   -3911.7126   -11020.566   -12552.848   -16197.795     78.76145 
   98800     1919.398   -114.37613    1.7367117   -112.63941    12480.684    4.2832226    4.2832226    4.2832226    12480.684    28257.707   -1291.2287    10475.573   -1392.8433    1967.3086   -12268.125    78.579982 
   98900    1216.0409   -113.75233    1.1002993   -112.65203   -15796.667    4.2892904    4.2892904    4.2892904   -15796.667   -31965.602     16588.65   -32013.048     8501.208   -6581.1719     13521.47    78.914419 
   99000     942.5856   -113.50875   0.85287126   -112.65588   -10928.256    4.2858214    4.2858214    4.2858214   -10928.256   -40953.252    31136.832   -22968.348    6715.0066   -6565.5357   -7909.2149    78.723103 
   99100    1762.6819   -114.23831    1.5949116    -112.6434     11505.94    4.2828699    4.2828699    4.2828699     11505.94    22403.522   -8359.1653    20473.463   -5742.8145    2408.7422   -21290.331    78.560573 
   99200    1213.1104    -113.7489    1.0976477   -112.65125   -12467.896    4.2908297    4.2908297    4.2908297   -12467.896   -43048.714    9392.1217   -3747.0971    13295.599    -2474.959   -5395.4332    78.999405 
   99300    969.09985   -113.53065   0.87686191   -112.65379    -4326.477    4.2857028    4.2857028    4.2857028    -4326.477   -48276.679    21225.781    14071.467    11284.292   -3762.9415    8931.4899    78.716566 
   99400    1786.2696   -114.25698    1.6162543   -112.64072    8804.9479    4.2874419    4.2874419    4.2874419    8804.9479    6888.8192    215.07888    19310.946   -4336.1142    -1366.306   -14196.729    78.812432 
   99500    1241.2728   -113.77408    1.1231297   -112.65096   -12532.314    4.2889894    4.2889894    4.2889894   -12532.314   -51886.305   -16175.793    30465.155    856.51906   -647.35862   -18228.491    78.897805 
   99600    688.18239   -113.27906   0.62268189   -112.65638    -1444.509    4.2846412    4.2846412    4.2846412    -1444.509   -58892.431    28037.406    26521.498    3358.3759    -5461.355    9687.6534    78.658087 
   99700    1536.5895   -114.03481    1.3903385   -112.64447    2888.7133    4.2921862    4.2921862    4.2921862    2888.7133    8452.6082   -4840.3032    5053.8349   -2096.1843    392.14631    9184.6798    79.074353 
   99800    1217.1385   -113.74936    1.1012925   -112.64807    6905.4218    4.2845757    4.2845757    4.2845757    6905.4218   -30667.258   -23526.583    74910.106   -14317.868    2584.8273    -3850.028    78.654477 
   99900    919.59771   -113.48474   0.83207133   -112.65266   -5006.4408    4.2835856    4.2835856    4.2835856   -5006.4408   -40577.199    -2000.745    27558.622      5873.34    -6523.499    2812.3004    78.599967 
  100000    1635.6506   -114.12106     1.479971   -112.64109   -3289.3387    4.2927892    4.2927892    4.2927892   -3289.3387   -534.34077   -1446.4512   -7887.2241   -2478.3328    -4488.646    11347.611    79.107688 
Loop time of 22.7512 on 1 procs for 100000 steps with 8 atoms

Pair  time (%) = 7.25542 (31.8903)
Kspce time (%) = 5.48957 (24.1287)
Neigh time (%) = 0.0285537 (0.125504)
Comm  time (%) = 1.11382 (4.89567)
Outpt time (%) = 0.0278704 (0.122501)
Other time (%) = 8.83593 (38.8373)

Nlocal:    8 ave 8 max 8 min
Histogram: 1 0 0 0 0 0 0 0 0 0
Nghost:    2189 ave 2189 max 2189 min
Histogram: 1 0 0 0 0 0 0 0 0 0
Neighs:    2284 ave 2284 max 2284 min
Histogram: 1 0 0 0 0 0 0 0 0 0

Total # of neighbors = 2284
Ave neighs/atom = 285.5
Neighbor list builds = 323
Dangerous builds = 0
seeds:9042891
