ITEM: TIMESTEP
0
ITEM: NUMBER OF ATOMS
13957
ITEM: BOX BOUNDS pp pp ss
0 43.111
0 24.8902
-0.02 140.247
ITEM: ATOMS id type xs ys zs c_peratom fx fy fz 
1 1 0 0.1 0.000142585 -3.90398 0 0 -0.0382313 
2 1 0.0166667 0.05 0.0146312 -4.40682 0 0 0.0498847 
3 1 0.0166667 0.15 0.0146312 -4.40682 0 0 0.05346 
4 1 0 0 0.000142585 -3.90398 0 0 -0.0382313 
5 1 0.05 0.05 0.000142585 -3.90398 0 0 -0.038243 
10 1 0.05 0.15 0.000142585 -3.90398 0 0 -0.0381279 
35 1 0.0333333 0 0.0291198 -4.45 0 0 -0.00933333 
43 1 0.0333333 0.1 0.0291198 -4.45 0 0 -0.00932179 
44 1 0.0666667 0.1 0.0146312 -4.40682 0 0 0.0500873 
45 1 0.0833333 0.05 0.0291198 -4.45 0 0 -0.0113817 
46 1 0.0833333 0.15 0.0291198 -4.45 0 0 -0.00931235 
47 1 0.0666667 0 0.0146312 -4.40682 0 0 0.0500873 
48 1 0.1 0 0.000142585 -3.90398 0 0 -0.038243 
49 1 0.116667 0.05 0.0146312 -4.40682 0 0 0.049743 
62 1 0.116667 0.15 0.0146312 -4.40682 0 0 0.0498139 
64 1 0.1 0.1 0.000142585 -3.90398 0 0 -0.038243 
65 1 0.15 0.05 0.000142585 -3.90398 0 0 -0.038243 
66 1 0.15 0.15 0.000142585 -3.90398 0 0 -0.038243 
153 1 0.133333 0.1 0.0291198 -4.45 0 0 -0.0114316 
156 1 0.133333 0 0.0291198 -4.45 0 0 -0.0114316 
157 1 0.166667 0 0.0146312 -4.40682 0 0 0.049743 
158 1 0.183333 0.05 0.0291198 -4.45 0 0 -0.0114352 
179 1 0.183333 0.15 0.0291198 -4.45 0 0 -0.0114352 
181 1 0.166667 0.1 0.0146312 -4.40682 0 0 0.049743 
182 1 0.2 0.1 0.000142585 -3.90398 0 0 -0.038243 
183 1 0.216667 0.05 0.0146312 -4.40682 0 0 0.049743 
184 1 0.216667 0.15 0.0146312 -4.40682 0 0 0.049743 
185 1 0.2 0 0.000142585 -3.90398 0 0 -0.038243 
186 1 0.25 0.05 0.000142585 -3.90398 0 0 -0.038243 
214 1 0.25 0.15 0.000142585 -3.90398 0 0 -0.038243 
335 1 0.233333 0 0.0291198 -4.45 0 0 -0.0114352 
368 1 0.233333 0.1 0.0291198 -4.45 0 0 -0.0114352 
369 1 0.266667 0.1 0.0146312 -4.40682 0 0 0.049743 
370 1 0.283333 0.05 0.0291198 -4.45 0 0 -0.0114352 
371 1 0.283333 0.15 0.0291198 -4.45 0 0 -0.0114352 
372 1 0.266667 0 0.0146312 -4.40682 0 0 0.049743 
373 1 0.3 0 0.000142585 -3.90398 0 0 -0.038243 
374 1 0.316667 0.05 0.0146312 -4.40682 0 0 0.049743 
406 1 0.316667 0.15 0.0146312 -4.40682 0 0 0.049743 
408 1 0.3 0.1 0.000142585 -3.90398 0 0 -0.038243 
409 1 0.35 0.05 0.000142585 -3.90398 0 0 -0.038243 
410 1 0.35 0.15 0.000142585 -3.90398 0 0 -0.038243 
618 1 0.333333 0.1 0.0291198 -4.45 0 0 -0.0114352 
621 1 0.333333 0 0.0291198 -4.45 0 0 -0.0114352 
622 1 0.366667 0 0.0146312 -4.40682 0 0 0.049743 
623 1 0.383333 0.05 0.0291198 -4.45 0 0 -0.0114352 
655 1 0.383333 0.15 0.0291198 -4.45 0 0 -0.0114352 
657 1 0.366667 0.1 0.0146312 -4.40682 0 0 0.049743 
658 1 0.4 0.1 0.000142585 -3.90398 0 0 -0.038243 
659 1 0.416667 0.05 0.0146312 -4.40682 0 0 0.049743 
660 1 0.416667 0.15 0.0146312 -4.40682 0 0 0.049743 
661 1 0.4 0 0.000142585 -3.90398 0 0 -0.038243 
662 1 0.45 0.05 0.000142585 -3.90398 0 0 -0.038243 
693 1 0.45 0.15 0.000142585 -3.90398 0 0 -0.038243 
932 1 0.433333 0 0.0291198 -4.45 0 0 -0.0114352 
967 1 0.433333 0.1 0.0291198 -4.45 0 0 -0.0114352 
968 1 0.466667 0.1 0.0146312 -4.40682 0 0 0.049743 
969 1 0.483333 0.05 0.0291198 -4.45 0 0 -0.0114352 
970 1 0.483333 0.15 0.0291198 -4.45 0 0 -0.0114352 
971 1 0.466667 0 0.0146312 -4.40682 0 0 0.049743 
972 1 0.5 0 0.000142585 -3.90398 0 0 -0.038243 
973 1 0.516667 0.05 0.0146312 -4.40682 0 0 0.049743 
1005 1 0.516667 0.15 0.0146312 -4.40682 0 0 0.049743 
1007 1 0.5 0.1 0.000142585 -3.90398 0 0 -0.038243 
1008 1 0.55 0.05 0.000142585 -3.90398 0 0 -0.038243 
1009 1 0.55 0.15 0.000142585 -3.90398 0 0 -0.038243 
1338 1 0.533333 0.1 0.0291198 -4.45 0 0 -0.0114352 
1341 1 0.533333 0 0.0291198 -4.45 0 0 -0.0114352 
1342 1 0.566667 0 0.0146312 -4.40682 0 0 0.0497155 
1343 1 0.583333 0.05 0.0291198 -4.45 0 0 -0.0114498 
1375 1 0.583333 0.15 0.0291198 -4.45 0 0 -0.0114498 
1377 1 0.566667 0.1 0.0146312 -4.40682 0 0 0.0497155 
1378 1 0.6 0.1 0.000142585 -3.90398 0 0 -0.0381753 
1379 1 0.616667 0.05 0.0146312 -4.40682 0 0 0.045501 
1380 1 0.616667 0.15 0.0146312 -4.40682 0 0 0.045501 
1381 1 0.6 0 0.000142585 -3.90398 0 0 -0.0381753 
1382 1 0.65 0.05 0.000142585 -3.88868 0 0 -0.03308 
1413 1 0.65 0.15 0.000142585 -3.88868 0 0 -0.03308 
1772 1 0.633333 0 0.0291198 -4.45 0 0 -0.0125126 
1807 1 0.633333 0.1 0.0291198 -4.45 0 0 -0.0125126 
1808 1 0.666667 0.1 0.0146312 -4.37823 0 0 0.0508664 
1809 1 0.683333 0.05 0.0291198 -4.4499 0 0 -0.0308293 
1810 1 0.683333 0.15 0.0291198 -4.4499 0 0 -0.0308293 
1811 1 0.666667 0 0.0146312 -4.37823 0 0 0.0509679 
1812 1 0.7 0 0.000142585 -3.53941 0 0 0.182519 
1813 1 0.716667 0.05 0.0146312 -4.25779 0 0 -0.177494 
1845 1 0.716667 0.15 0.0146312 -4.25779 0 0 -0.177508 
1847 1 0.7 0.1 0.000142585 -3.53941 0 0 0.182587 
2288 1 0.733333 0.1 0.0291198 -4.42142 0 0 0.0913679 
2291 1 0.733333 0 0.0291198 -4.42142 0 0 0.0914831 
2292 1 0.766667 0 0.0146312 -4.1821 0 0 -0.292954 
2293 1 0.783333 0.05 0.0291198 -4.43551 0 0 0.0264502 
2325 1 0.783333 0.15 0.0291198 -4.43551 0 0 0.0264428 
2327 1 0.766667 0.1 0.0146312 -4.1821 0 0 -0.293069 
2328 1 0.8 0.1 0.000142585 -3.53941 0 0 0.185584 
2329 1 0.816667 0.05 0.0146312 -4.35209 0 0 0.048119 
2330 1 0.816667 0.15 0.0146312 -4.35209 0 0 0.0481055 
2331 1 0.8 0 0.000142585 -3.53941 0 0 0.185526 
2332 1 0.85 0.05 0.000142585 -3.88868 0 0 -0.0335824 
2363 1 0.85 0.15 0.000142585 -3.88868 0 0 -0.0335824 
2837 1 0.833333 0 0.0291198 -4.45 0 0 -0.0235034 
2872 1 0.833333 0.1 0.0291198 -4.45 0 0 -0.0235147 
2873 1 0.866667 0.1 0.0146312 -4.40682 0 0 0.0314898 
2874 1 0.883333 0.05 0.0291198 -4.45 0 0 -0.0119439 
2875 1 0.883333 0.15 0.0291198 -4.45 0 0 -0.0116807 
2876 1 0.866667 0 0.0146312 -4.40682 0 0 0.0315034 
2877 1 0.9 0 0.000142585 -3.90398 0 0 -0.0381401 
2878 1 0.916667 0.05 0.0146312 -4.40682 0 0 0.0496271 
2910 1 0.916667 0.15 0.0146312 -4.40682 0 0 0.0500245 
2912 1 0.9 0.1 0.000142585 -3.90398 0 0 -0.0381401 
2913 1 0.95 0.05 0.000142585 -3.90398 0 0 -0.0382428 
2914 1 0.95 0.15 0.000142585 -3.90398 0 0 -0.0382163 
3483 1 0.933333 0.1 0.0291198 -4.45 0 0 -0.0108627 
3486 1 0.933333 0 0.0291198 -4.45 0 0 -0.010874 
3487 1 0.966667 0 0.0146312 -4.40682 0 0 0.0501504 
3488 1 0.983333 0.05 0.0291198 -4.45 0 0 -0.0108887 
3520 1 0.983333 0.15 0.0291198 -4.43571 0 0 -0.0387692 
3522 1 0.966667 0.1 0.0146312 -4.40682 0 0 0.0501547 
6 1 0 0.3 0.000142585 -3.90398 0 0 -0.035658 
7 1 0.0166667 0.25 0.0146312 -4.39252 0 0 -0.00128065 
9 1 0 0.2 0.000142585 -3.90398 0 0 -0.0375422 
11 1 0.05 0.25 0.000142585 -3.90398 0 0 -0.0374206 
40 1 0.0333333 0.2 0.0291198 -4.42397 0 0 -0.00284926 
56 1 0.0333333 0.3 0.0291198 -4.3292 0 0 0.221053 
57 1 0.0666667 0.3 0.0146312 -4.40672 0 0 0.058587 
58 1 0.0833333 0.25 0.0291198 -4.43571 0 0 -0.0361883 
60 1 0.0666667 0.2 0.0146312 -4.40682 0 0 0.0537943 
61 1 0.1 0.2 0.000142585 -3.90398 0 0 -0.0382313 
63 1 0.116667 0.25 0.0146312 -4.40682 0 0 0.0502276 
82 1 0.1 0.3 0.000142585 -3.90398 0 0 -0.0382045 
83 1 0.15 0.25 0.000142585 -3.90398 0 0 -0.0382429 
174 1 0.133333 0.3 0.0291198 -4.45 0 0 -0.0105093 
177 1 0.133333 0.2 0.0291198 -4.45 0 0 -0.0111648 
178 1 0.166667 0.2 0.0146312 -4.40682 0 0 0.0497465 
180 1 0.183333 0.25 0.0291198 -4.45 0 0 -0.0114316 
209 1 0.166667 0.3 0.0146312 -4.40682 0 0 0.0497537 
210 1 0.2 0.3 0.000142585 -3.90398 0 0 -0.038243 
211 1 0.216667 0.25 0.0146312 -4.40682 0 0 0.049743 
213 1 0.2 0.2 0.000142585 -3.90398 0 0 -0.038243 
215 1 0.25 0.25 0.000142585 -3.90398 0 0 -0.038243 
365 1 0.233333 0.2 0.0291198 -4.45 0 0 -0.0114352 
400 1 0.233333 0.3 0.0291198 -4.45 0 0 -0.0114352 
401 1 0.266667 0.3 0.0146312 -4.40682 0 0 0.049743 
402 1 0.283333 0.25 0.0291198 -4.45 0 0 -0.0114352 
404 1 0.266667 0.2 0.0146312 -4.40682 0 0 0.049743 
405 1 0.3 0.2 0.000142585 -3.90398 0 0 -0.038243 
407 1 0.316667 0.25 0.0146312 -4.40682 0 0 0.049743 
436 1 0.3 0.3 0.000142585 -3.90398 0 0 -0.038243 
437 1 0.35 0.25 0.000142585 -3.90398 0 0 -0.038243 
650 1 0.333333 0.3 0.0291198 -4.45 0 0 -0.0114352 
653 1 0.333333 0.2 0.0291198 -4.45 0 0 -0.0114352 
654 1 0.366667 0.2 0.0146312 -4.40682 0 0 0.049743 
656 1 0.383333 0.25 0.0291198 -4.45 0 0 -0.0114352 
688 1 0.366667 0.3 0.0146312 -4.40682 0 0 0.049743 
689 1 0.4 0.3 0.000142585 -3.90398 0 0 -0.038243 
690 1 0.416667 0.25 0.0146312 -4.40682 0 0 0.049743 
692 1 0.4 0.2 0.000142585 -3.90398 0 0 -0.038243 
694 1 0.45 0.25 0.000142585 -3.90398 0 0 -0.038243 
964 1 0.433333 0.2 0.0291198 -4.45 0 0 -0.0114352 
999 1 0.433333 0.3 0.0291198 -4.45 0 0 -0.0114352 
1000 1 0.466667 0.3 0.0146312 -4.40682 0 0 0.049743 
1001 1 0.483333 0.25 0.0291198 -4.45 0 0 -0.0114352 
1003 1 0.466667 0.2 0.0146312 -4.40682 0 0 0.049743 
1004 1 0.5 0.2 0.000142585 -3.90398 0 0 -0.038243 
1006 1 0.516667 0.25 0.0146312 -4.40682 0 0 0.049743 
1035 1 0.5 0.3 0.000142585 -3.90398 0 0 -0.038243 
1036 1 0.55 0.25 0.000142585 -3.90398 0 0 -0.038243 
1370 1 0.533333 0.3 0.0291198 -4.45 0 0 -0.0114352 
1373 1 0.533333 0.2 0.0291198 -4.45 0 0 -0.0114352 
1374 1 0.566667 0.2 0.0146312 -4.40682 0 0 0.0497155 
1376 1 0.583333 0.25 0.0291198 -4.45 0 0 -0.0114498 
1408 1 0.566667 0.3 0.0146312 -4.40682 0 0 0.0497155 
1409 1 0.6 0.3 0.000142585 -3.90398 0 0 -0.0381753 
1410 1 0.616667 0.25 0.0146312 -4.40682 0 0 0.045501 
1412 1 0.6 0.2 0.000142585 -3.90398 0 0 -0.0381753 
1414 1 0.65 0.25 0.000142585 -3.88868 0 0 -0.03308 
1804 1 0.633333 0.2 0.0291198 -4.45 0 0 -0.0125126 
1839 1 0.633333 0.3 0.0291198 -4.45 0 0 -0.0125126 
1840 1 0.666667 0.3 0.0146312 -4.37823 0 0 0.0508664 
1841 1 0.683333 0.25 0.0291198 -4.4499 0 0 -0.0308293 
1843 1 0.666667 0.2 0.0146312 -4.37823 0 0 0.0508664 
1844 1 0.7 0.2 0.000142585 -3.53941 0 0 0.182587 
1846 1 0.716667 0.25 0.0146312 -4.25779 0 0 -0.177508 
1873 1 0.7 0.3 0.000142585 -3.53941 0 0 0.182587 
2320 1 0.733333 0.3 0.0291198 -4.42142 0 0 0.0913679 
2323 1 0.733333 0.2 0.0291198 -4.42142 0 0 0.0913679 
2324 1 0.766667 0.2 0.0146312 -4.1821 0 0 -0.293069 
2326 1 0.783333 0.25 0.0291198 -4.43551 0 0 0.0264428 
2358 1 0.766667 0.3 0.0146312 -4.1821 0 0 -0.293069 
2359 1 0.8 0.3 0.000142585 -3.53941 0 0 0.185584 
2360 1 0.816667 0.25 0.0146312 -4.35209 0 0 0.0481055 
2362 1 0.8 0.2 0.000142585 -3.53941 0 0 0.185584 
2364 1 0.85 0.25 0.000142585 -3.88868 0 0 -0.0335824 
2869 1 0.833333 0.2 0.0291198 -4.45 0 0 -0.023511 
2904 1 0.833333 0.3 0.0291198 -4.45 0 0 -0.0234843 
2905 1 0.866667 0.3 0.0146312 -4.40682 0 0 0.0319017 
2906 1 0.883333 0.25 0.0291198 -4.45 0 0 -0.00948729 
2908 1 0.866667 0.2 0.0146312 -4.40682 0 0 0.0315607 
2909 1 0.9 0.2 0.000142585 -3.90398 0 0 -0.0381284 
2911 1 0.916667 0.25 0.0146312 -4.40682 0 0 0.0537586 
2940 1 0.9 0.3 0.000142585 -3.90398 0 0 -0.0380133 
2941 1 0.95 0.25 0.000142585 -3.90398 0 0 -0.0375254 
3515 1 0.933333 0.3 0.0291198 -4.40966 0 0 -0.0302874 
3518 1 0.933333 0.2 0.0291198 -4.43571 0 0 -0.03838 
3519 1 0.966667 0.2 0.0146312 -4.40672 0 0 0.0548721 
3521 1 0.983333 0.25 0.0291198 -4.34221 0 0 0.188005 
3548 1 0.966667 0.3 0.0146312 -4.39242 0 0 0.00139902 
8 1 0.0166667 0.35 0.0146312 -4.37823 0 0 -0.0585101 
12 1 0 0.5 0.000142585 -3.90398 0 0 -0.0375422 
13 1 0.0166667 0.45 0.0146312 -4.39252 0 0 -0.00128065 
15 1 0 0.4 0.000142585 -3.90398 0 0 -0.035658 
16 1 0.05 0.35 0.000142585 -3.90398 0 0 -0.0368263 
17 1 0.05 0.45 0.000142585 -3.90398 0 0 -0.0374206 
53 1 0.0333333 0.4 0.0291198 -4.3292 0 0 0.221053 
59 1 0.0833333 0.35 0.0291198 -4.42142 0 0 -0.0642361 
74 1 0.0333333 0.5 0.0291198 -4.42397 0 0 -0.00284563 
75 1 0.0666667 0.5 0.0146312 -4.40682 0 0 0.0537943 
76 1 0.0833333 0.45 0.0291198 -4.43571 0 0 -0.0361883 
78 1 0.0666667 0.4 0.0146312 -4.40672 0 0 0.058587 
79 1 0.1 0.4 0.000142585 -3.90398 0 0 -0.0382045 
80 1 0.116667 0.35 0.0146312 -4.40682 0 0 0.0505726 
81 1 0.116667 0.45 0.0146312 -4.40682 0 0 0.0502276 
84 1 0.15 0.35 0.000142585 -3.90398 0 0 -0.0382428 
99 1 0.1 0.5 0.000142585 -3.90398 0 0 -0.0382313 
100 1 0.15 0.45 0.000142585 -3.90398 0 0 -0.0382429 
202 1 0.133333 0.5 0.0291198 -4.45 0 0 -0.0111648 
205 1 0.133333 0.4 0.0291198 -4.45 0 0 -0.0105093 
206 1 0.166667 0.4 0.0146312 -4.40682 0 0 0.0497537 
207 1 0.183333 0.35 0.0291198 -4.45 0 0 -0.0114281 
208 1 0.183333 0.45 0.0291198 -4.45 0 0 -0.0114316 
233 1 0.166667 0.5 0.0146312 -4.40682 0 0 0.0497465 
212 1 0.216667 0.35 0.0146312 -4.40682 0 0 0.049743 
234 1 0.2 0.5 0.000142585 -3.90398 0 0 -0.038243 
235 1 0.216667 0.45 0.0146312 -4.40682 0 0 0.049743 
237 1 0.2 0.4 0.000142585 -3.90398 0 0 -0.038243 
238 1 0.25 0.35 0.000142585 -3.90398 0 0 -0.038243 
239 1 0.25 0.45 0.000142585 -3.90398 0 0 -0.038243 
397 1 0.233333 0.4 0.0291198 -4.45 0 0 -0.0114352 
403 1 0.283333 0.35 0.0291198 -4.45 0 0 -0.0114352 
428 1 0.233333 0.5 0.0291198 -4.45 0 0 -0.0114352 
429 1 0.266667 0.5 0.0146312 -4.40682 0 0 0.049743 
430 1 0.283333 0.45 0.0291198 -4.45 0 0 -0.0114352 
432 1 0.266667 0.4 0.0146312 -4.40682 0 0 0.049743 
433 1 0.3 0.4 0.000142585 -3.90398 0 0 -0.038243 
434 1 0.316667 0.35 0.0146312 -4.40682 0 0 0.049743 
435 1 0.316667 0.45 0.0146312 -4.40682 0 0 0.049743 
438 1 0.35 0.35 0.000142585 -3.90398 0 0 -0.038243 
456 1 0.3 0.5 0.000142585 -3.90398 0 0 -0.038243 
457 1 0.35 0.45 0.000142585 -3.90398 0 0 -0.038243 
681 1 0.333333 0.5 0.0291198 -4.45 0 0 -0.0114352 
684 1 0.333333 0.4 0.0291198 -4.45 0 0 -0.0114352 
685 1 0.366667 0.4 0.0146312 -4.40682 0 0 0.049743 
686 1 0.383333 0.35 0.0291198 -4.45 0 0 -0.0114352 
687 1 0.383333 0.45 0.0291198 -4.45 0 0 -0.0114352 
712 1 0.366667 0.5 0.0146312 -4.40682 0 0 0.049743 
691 1 0.416667 0.35 0.0146312 -4.40682 0 0 0.049743 
713 1 0.4 0.5 0.000142585 -3.90398 0 0 -0.038243 
714 1 0.416667 0.45 0.0146312 -4.40682 0 0 0.049743 
716 1 0.4 0.4 0.000142585 -3.90398 0 0 -0.038243 
717 1 0.45 0.35 0.000142585 -3.90398 0 0 -0.038243 
718 1 0.45 0.45 0.000142585 -3.90398 0 0 -0.038243 
996 1 0.433333 0.4 0.0291198 -4.45 0 0 -0.0114352 
1002 1 0.483333 0.35 0.0291198 -4.45 0 0 -0.0114352 
1027 1 0.433333 0.5 0.0291198 -4.45 0 0 -0.0114352 
1028 1 0.466667 0.5 0.0146312 -4.40682 0 0 0.049743 
1029 1 0.483333 0.45 0.0291198 -4.45 0 0 -0.0114352 
1031 1 0.466667 0.4 0.0146312 -4.40682 0 0 0.049743 
1032 1 0.5 0.4 0.000142585 -3.90398 0 0 -0.038243 
1033 1 0.516667 0.35 0.0146312 -4.40682 0 0 0.049743 
1034 1 0.516667 0.45 0.0146312 -4.40682 0 0 0.049743 
1037 1 0.55 0.35 0.000142585 -3.90398 0 0 -0.038243 
1055 1 0.5 0.5 0.000142585 -3.90398 0 0 -0.038243 
1056 1 0.55 0.45 0.000142585 -3.90398 0 0 -0.038243 
1401 1 0.533333 0.5 0.0291198 -4.45 0 0 -0.0114352 
1404 1 0.533333 0.4 0.0291198 -4.45 0 0 -0.0114352 
1405 1 0.566667 0.4 0.0146312 -4.40682 0 0 0.0497155 
1406 1 0.583333 0.35 0.0291198 -4.45 0 0 -0.0114498 
1407 1 0.583333 0.45 0.0291198 -4.45 0 0 -0.0114498 
1432 1 0.566667 0.5 0.0146312 -4.40682 0 0 0.0497155 
1411 1 0.616667 0.35 0.0146312 -4.40682 0 0 0.045501 
1433 1 0.6 0.5 0.000142585 -3.90398 0 0 -0.0381753 
1434 1 0.616667 0.45 0.0146312 -4.40682 0 0 0.045501 
1436 1 0.6 0.4 0.000142585 -3.90398 0 0 -0.0381753 
1437 1 0.65 0.35 0.000142585 -3.88868 0 0 -0.03308 
1438 1 0.65 0.45 0.000142585 -3.88868 0 0 -0.03308 
1836 1 0.633333 0.4 0.0291198 -4.45 0 0 -0.0125126 
1842 1 0.683333 0.35 0.0291198 -4.4499 0 0 -0.0308293 
1865 1 0.633333 0.5 0.0291198 -4.45 0 0 -0.0125126 
1866 1 0.666667 0.5 0.0146312 -4.37823 0 0 0.0509679 
1867 1 0.683333 0.45 0.0291198 -4.4499 0 0 -0.0308293 
1869 1 0.666667 0.4 0.0146312 -4.37823 0 0 0.0508664 
1870 1 0.7 0.4 0.000142585 -3.53941 0 0 0.182587 
1871 1 0.716667 0.35 0.0146312 -4.25779 0 0 -0.177508 
1872 1 0.716667 0.45 0.0146312 -4.25779 0 0 -0.177494 
1891 1 0.7 0.5 0.000142585 -3.53941 0 0 0.182519 
2351 1 0.733333 0.5 0.0291198 -4.42142 0 0 0.0914831 
2354 1 0.733333 0.4 0.0291198 -4.42142 0 0 0.0913679 
2355 1 0.766667 0.4 0.0146312 -4.1821 0 0 -0.293069 
2356 1 0.783333 0.35 0.0291198 -4.43551 0 0 0.0264428 
2357 1 0.783333 0.45 0.0291198 -4.43551 0 0 0.0264502 
2382 1 0.766667 0.5 0.0146312 -4.1821 0 0 -0.292954 
2361 1 0.816667 0.35 0.0146312 -4.35209 0 0 0.0481055 
2383 1 0.8 0.5 0.000142585 -3.53941 0 0 0.185526 
2384 1 0.816667 0.45 0.0146312 -4.35209 0 0 0.048119 
2386 1 0.8 0.4 0.000142585 -3.53941 0 0 0.185584 
2387 1 0.85 0.35 0.000142585 -3.88868 0 0 -0.0335824 
2388 1 0.85 0.45 0.000142585 -3.88868 0 0 -0.0335824 
2901 1 0.833333 0.4 0.0291198 -4.45 0 0 -0.0234843 
2907 1 0.883333 0.35 0.0291198 -4.45 0 0 -0.00700744 
2932 1 0.833333 0.5 0.0291198 -4.45 0 0 -0.0234998 
2933 1 0.866667 0.5 0.0146312 -4.40682 0 0 0.0315743 
2934 1 0.883333 0.45 0.0291198 -4.45 0 0 -0.00948729 
2936 1 0.866667 0.4 0.0146312 -4.40682 0 0 0.0319017 
2937 1 0.9 0.4 0.000142585 -3.90398 0 0 -0.0380133 
2938 1 0.916667 0.35 0.0146312 -4.40682 0 0 0.0578413 
2939 1 0.916667 0.45 0.0146312 -4.40682 0 0 0.0537586 
2942 1 0.95 0.35 0.000142585 -3.90398 0 0 -0.0366646 
2960 1 0.9 0.5 0.000142585 -3.90398 0 0 -0.0381284 
2961 1 0.95 0.45 0.000142585 -3.90398 0 0 -0.0375254 
3541 1 0.933333 0.5 0.0291198 -4.43571 0 0 -0.0383764 
3544 1 0.933333 0.4 0.0291198 -4.40966 0 0 -0.0302874 
3545 1 0.966667 0.4 0.0146312 -4.39242 0 0 0.00139902 
3546 1 0.983333 0.35 0.0291198 -4.25523 0 0 0.428836 
3547 1 0.983333 0.45 0.0291198 -4.34221 0 0 0.188005 
3566 1 0.966667 0.5 0.0146312 -4.40672 0 0 0.0548757 
14 1 0.0166667 0.55 0.0146312 -4.40682 0 0 0.0535309 
19 1 0.0166667 0.65 0.0146312 -4.40682 0 0 0.0534452 
21 1 0 0.6 0.000142585 -3.90398 0 0 -0.0382196 
22 1 0.05 0.55 0.000142585 -3.90398 0 0 -0.0381279 
23 1 0.05 0.65 0.000142585 -3.90398 0 0 -0.0381279 
71 1 0.0333333 0.6 0.0291198 -4.45 0 0 -0.00723431 
77 1 0.0833333 0.55 0.0291198 -4.45 0 0 -0.00928565 
93 1 0.0833333 0.65 0.0291198 -4.45 0 0 -0.0093173 
95 1 0.0666667 0.6 0.0146312 -4.40682 0 0 0.0504317 
96 1 0.1 0.6 0.000142585 -3.90398 0 0 -0.038243 
97 1 0.116667 0.55 0.0146312 -4.40682 0 0 0.0498139 
98 1 0.116667 0.65 0.0146312 -4.40682 0 0 0.0498139 
101 1 0.15 0.55 0.000142585 -3.90398 0 0 -0.038243 
112 1 0.15 0.65 0.000142585 -3.90398 0 0 -0.038243 
229 1 0.133333 0.6 0.0291198 -4.45 0 0 -0.0114279 
230 1 0.166667 0.6 0.0146312 -4.40682 0 0 0.049743 
231 1 0.183333 0.55 0.0291198 -4.45 0 0 -0.0114352 
232 1 0.183333 0.65 0.0291198 -4.45 0 0 -0.0114352 
236 1 0.216667 0.55 0.0146312 -4.40682 0 0 0.049743 
251 1 0.216667 0.65 0.0146312 -4.40682 0 0 0.049743 
253 1 0.2 0.6 0.000142585 -3.90398 0 0 -0.038243 
254 1 0.25 0.55 0.000142585 -3.90398 0 0 -0.038243 
255 1 0.25 0.65 0.000142585 -3.90398 0 0 -0.038243 
425 1 0.233333 0.6 0.0291198 -4.45 0 0 -0.0114352 
431 1 0.283333 0.55 0.0291198 -4.45 0 0 -0.0114352 
450 1 0.283333 0.65 0.0291198 -4.45 0 0 -0.0114352 
452 1 0.266667 0.6 0.0146312 -4.40682 0 0 0.049743 
453 1 0.3 0.6 0.000142585 -3.90398 0 0 -0.038243 
454 1 0.316667 0.55 0.0146312 -4.40682 0 0 0.049743 
455 1 0.316667 0.65 0.0146312 -4.40682 0 0 0.049743 
458 1 0.35 0.55 0.000142585 -3.90398 0 0 -0.038243 
469 1 0.35 0.65 0.000142585 -3.90398 0 0 -0.038243 
708 1 0.333333 0.6 0.0291198 -4.45 0 0 -0.0114352 
709 1 0.366667 0.6 0.0146312 -4.40682 0 0 0.049743 
710 1 0.383333 0.55 0.0291198 -4.45 0 0 -0.0114352 
711 1 0.383333 0.65 0.0291198 -4.45 0 0 -0.0114352 
715 1 0.416667 0.55 0.0146312 -4.40682 0 0 0.049743 
730 1 0.416667 0.65 0.0146312 -4.40682 0 0 0.049743 
732 1 0.4 0.6 0.000142585 -3.90398 0 0 -0.038243 
733 1 0.45 0.55 0.000142585 -3.90398 0 0 -0.038243 
734 1 0.45 0.65 0.000142585 -3.90398 0 0 -0.038243 
1024 1 0.433333 0.6 0.0291198 -4.45 0 0 -0.0114352 
1030 1 0.483333 0.55 0.0291198 -4.45 0 0 -0.0114352 
1049 1 0.483333 0.65 0.0291198 -4.45 0 0 -0.0114352 
1051 1 0.466667 0.6 0.0146312 -4.40682 0 0 0.049743 
1052 1 0.5 0.6 0.000142585 -3.90398 0 0 -0.038243 
1053 1 0.516667 0.55 0.0146312 -4.40682 0 0 0.049743 
1054 1 0.516667 0.65 0.0146312 -4.40682 0 0 0.049743 
1057 1 0.55 0.55 0.000142585 -3.90398 0 0 -0.038243 
1068 1 0.55 0.65 0.000142585 -3.90398 0 0 -0.038243 
1428 1 0.533333 0.6 0.0291198 -4.45 0 0 -0.0114352 
1429 1 0.566667 0.6 0.0146312 -4.40682 0 0 0.0497155 
1430 1 0.583333 0.55 0.0291198 -4.45 0 0 -0.0114498 
1431 1 0.583333 0.65 0.0291198 -4.45 0 0 -0.0114462 
1435 1 0.616667 0.55 0.0146312 -4.40682 0 0 0.0455148 
1450 1 0.616667 0.65 0.0146312 -4.40682 0 0 0.0465266 
1452 1 0.6 0.6 0.000142585 -3.90398 0 0 -0.0381788 
1453 1 0.65 0.55 0.000142585 -3.88868 0 0 -0.0331437 
1454 1 0.65 0.65 0.000142585 -3.88879 0 0 -0.0338861 
1862 1 0.633333 0.6 0.0291198 -4.45 0 0 -0.0124254 
1868 1 0.683333 0.55 0.0291198 -4.4499 0 0 -0.0303418 
1885 1 0.683333 0.65 0.0291198 -4.4499 0 0 -0.0251239 
1887 1 0.666667 0.6 0.0146312 -4.37823 0 0 0.0580041 
1888 1 0.7 0.6 0.000142585 -3.55536 0 0 0.179007 
1889 1 0.716667 0.55 0.0146312 -4.25779 0 0 -0.176264 
1890 1 0.716667 0.65 0.0146312 -4.28561 0 0 -0.188859 
2378 1 0.733333 0.6 0.0291198 -4.42142 0 0 0.0959326 
2379 1 0.766667 0.6 0.0146312 -4.19667 0 0 -0.324716 
2380 1 0.783333 0.55 0.0291198 -4.43551 0 0 0.0270844 
2381 1 0.783333 0.65 0.0291198 -4.43561 0 0 0.0350073 
2385 1 0.816667 0.55 0.0146312 -4.35209 0 0 0.0493396 
2400 1 0.816667 0.65 0.0146312 -4.36641 0 0 0.032341 
2402 1 0.8 0.6 0.000142585 -3.55536 0 0 0.181142 
2403 1 0.85 0.55 0.000142585 -3.88868 0 0 -0.0336168 
2404 1 0.85 0.65 0.000142585 -3.88879 0 0 -0.0343634 
2929 1 0.833333 0.6 0.0291198 -4.45 0 0 -0.0229309 
2935 1 0.883333 0.55 0.0291198 -4.45 0 0 -0.0116735 
2954 1 0.883333 0.65 0.0291198 -4.45 0 0 -0.0116096 
2956 1 0.866667 0.6 0.0146312 -4.40682 0 0 0.0325183 
2957 1 0.9 0.6 0.000142585 -3.90398 0 0 -0.0381436 
2958 1 0.916667 0.55 0.0146312 -4.40682 0 0 0.0500317 
2959 1 0.916667 0.65 0.0146312 -4.40682 0 0 0.0500377 
2962 1 0.95 0.55 0.000142585 -3.90398 0 0 -0.0382163 
2973 1 0.95 0.65 0.000142585 -3.90398 0 0 -0.0382164 
3562 1 0.933333 0.6 0.0291198 -4.45 0 0 -0.0103087 
3563 1 0.966667 0.6 0.0146312 -4.40682 0 0 0.050555 
3564 1 0.983333 0.55 0.0291198 -4.43571 0 0 -0.0385031 
3565 1 0.983333 0.65 0.0291198 -4.43571 0 0 -0.0385392 
18 1 0 0.7 0.000142585 -3.90398 0 0 -0.0375555 
20 1 0.0166667 0.75 0.0146312 -4.39252 0 0 -0.00546593 
27 1 0 0.8 0.000142585 -3.90398 0 0 -0.0365701 
28 1 0.05 0.75 0.000142585 -3.90398 0 0 -0.0375555 
88 1 0.0333333 0.8 0.0291198 -4.35661 0 0 0.220719 
91 1 0.0333333 0.7 0.0291198 -4.42397 0 0 -0.00328505 
92 1 0.0666667 0.7 0.0146312 -4.40682 0 0 0.0533743 
94 1 0.0833333 0.75 0.0291198 -4.43571 0 0 -0.0388197 
107 1 0.0666667 0.8 0.0146312 -4.40672 0 0 0.0543444 
108 1 0.1 0.8 0.000142585 -3.90398 0 0 -0.0382164 
109 1 0.116667 0.75 0.0146312 -4.40682 0 0 0.0501469 
111 1 0.1 0.7 0.000142585 -3.90398 0 0 -0.0382313 
113 1 0.15 0.75 0.000142585 -3.90398 0 0 -0.0382429 
226 1 0.133333 0.7 0.0291198 -4.45 0 0 -0.0111691 
245 1 0.133333 0.8 0.0291198 -4.45 0 0 -0.0108776 
246 1 0.166667 0.8 0.0146312 -4.40682 0 0 0.0497502 
247 1 0.183333 0.75 0.0291198 -4.45 0 0 -0.0114316 
249 1 0.166667 0.7 0.0146312 -4.40682 0 0 0.0497465 
250 1 0.2 0.7 0.000142585 -3.90398 0 0 -0.038243 
252 1 0.216667 0.75 0.0146312 -4.40682 0 0 0.049743 
261 1 0.2 0.8 0.000142585 -3.90398 0 0 -0.038243 
262 1 0.25 0.75 0.000142585 -3.90398 0 0 -0.038243 
445 1 0.233333 0.8 0.0291198 -4.45 0 0 -0.0114352 
448 1 0.233333 0.7 0.0291198 -4.45 0 0 -0.0114352 
449 1 0.266667 0.7 0.0146312 -4.40682 0 0 0.049743 
451 1 0.283333 0.75 0.0291198 -4.45 0 0 -0.0114352 
464 1 0.266667 0.8 0.0146312 -4.40682 0 0 0.049743 
465 1 0.3 0.8 0.000142585 -3.90398 0 0 -0.038243 
466 1 0.316667 0.75 0.0146312 -4.40682 0 0 0.049743 
468 1 0.3 0.7 0.000142585 -3.90398 0 0 -0.038243 
470 1 0.35 0.75 0.000142585 -3.90398 0 0 -0.038243 
705 1 0.333333 0.7 0.0291198 -4.45 0 0 -0.0114352 
724 1 0.333333 0.8 0.0291198 -4.45 0 0 -0.0114352 
725 1 0.366667 0.8 0.0146312 -4.40682 0 0 0.049743 
726 1 0.383333 0.75 0.0291198 -4.45 0 0 -0.0114352 
728 1 0.366667 0.7 0.0146312 -4.40682 0 0 0.049743 
729 1 0.4 0.7 0.000142585 -3.90398 0 0 -0.038243 
731 1 0.416667 0.75 0.0146312 -4.40682 0 0 0.049743 
740 1 0.4 0.8 0.000142585 -3.90398 0 0 -0.038243 
741 1 0.45 0.75 0.000142585 -3.90398 0 0 -0.038243 
1044 1 0.433333 0.8 0.0291198 -4.45 0 0 -0.0114352 
1047 1 0.433333 0.7 0.0291198 -4.45 0 0 -0.0114352 
1048 1 0.466667 0.7 0.0146312 -4.40682 0 0 0.049743 
1050 1 0.483333 0.75 0.0291198 -4.45 0 0 -0.0114352 
1063 1 0.466667 0.8 0.0146312 -4.40682 0 0 0.049743 
1064 1 0.5 0.8 0.000142585 -3.90398 0 0 -0.038243 
1065 1 0.516667 0.75 0.0146312 -4.40682 0 0 0.049743 
1067 1 0.5 0.7 0.000142585 -3.90398 0 0 -0.038243 
1069 1 0.55 0.75 0.000142585 -3.90398 0 0 -0.038243 
1425 1 0.533333 0.7 0.0291198 -4.45 0 0 -0.0114352 
1444 1 0.533333 0.8 0.0291198 -4.45 0 0 -0.0114352 
1445 1 0.566667 0.8 0.0146312 -4.40682 0 0 0.0497292 
1446 1 0.583333 0.75 0.0291198 -4.45 0 0 -0.0114423 
1448 1 0.566667 0.7 0.0146312 -4.40682 0 0 0.0497292 
1449 1 0.6 0.7 0.000142585 -3.90398 0 0 -0.0382056 
1451 1 0.616667 0.75 0.0146312 -4.40682 0 0 0.0476469 
1460 1 0.6 0.8 0.000142585 -3.90398 0 0 -0.0382056 
1461 1 0.65 0.75 0.000142585 -3.90377 0 0 -0.0367978 
1880 1 0.633333 0.8 0.0291198 -4.45 0 0 -0.01203 
1883 1 0.633333 0.7 0.0291198 -4.45 0 0 -0.01203 
1884 1 0.666667 0.7 0.0146312 -4.39252 0 0 0.041068 
1886 1 0.683333 0.75 0.0291198 -4.45 0 0 -0.0224461 
1897 1 0.666667 0.8 0.0146312 -4.39252 0 0 0.041068 
1898 1 0.7 0.8 0.000142585 -3.72012 0 0 0.0749323 
1899 1 0.716667 0.75 0.0146312 -4.35437 0 0 -0.00954226 
1901 1 0.7 0.7 0.000142585 -3.72012 0 0 0.0749323 
1902 1 0.75 0.75 0.000142585 -3.57108 0 0 0.175802 
2375 1 0.733333 0.7 0.0291198 -4.43571 0 0 0.034731 
2394 1 0.733333 0.8 0.0291198 -4.43571 0 0 0.034731 
2395 1 0.766667 0.8 0.0146312 -4.28428 0 0 -0.145802 
2396 1 0.783333 0.75 0.0291198 -4.4498 0 0 -0.027328 
2398 1 0.766667 0.7 0.0146312 -4.28428 0 0 -0.145802 
2399 1 0.8 0.7 0.000142585 -3.72012 0 0 0.0762556 
2401 1 0.816667 0.75 0.0146312 -4.37823 0 0 0.0608758 
2410 1 0.8 0.8 0.000142585 -3.72012 0 0 0.0762556 
2411 1 0.85 0.75 0.000142585 -3.90377 0 0 -0.0368559 
2949 1 0.833333 0.8 0.0291198 -4.45 0 0 -0.0174801 
2952 1 0.833333 0.7 0.0291198 -4.45 0 0 -0.0175032 
2953 1 0.866667 0.7 0.0146312 -4.40682 0 0 0.0396062 
2955 1 0.883333 0.75 0.0291198 -4.45 0 0 -0.00949392 
2968 1 0.866667 0.8 0.0146312 -4.40682 0 0 0.0398797 
2969 1 0.9 0.8 0.000142585 -3.90398 0 0 -0.038073 
2970 1 0.916667 0.75 0.0146312 -4.40682 0 0 0.0533464 
2972 1 0.9 0.7 0.000142585 -3.90398 0 0 -0.0381764 
2974 1 0.95 0.75 0.000142585 -3.90398 0 0 -0.0375555 
3559 1 0.933333 0.7 0.0291198 -4.43571 0 0 -0.038816 
3572 1 0.933333 0.8 0.0291198 -4.42397 0 0 -0.00329582 
3573 1 0.966667 0.8 0.0146312 -4.39252 0 0 -0.00546593 
3574 1 0.983333 0.75 0.0291198 -4.35661 0 0 0.22072 
3576 1 0.966667 0.7 0.0146312 -4.40672 0 0 0.054348 
24 1 0 0.9 0.000142585 -3.90398 0 0 -0.0375555 
25 1 0.0166667 0.85 0.0146312 -4.39252 0 0 -0.00546593 
26 1 0.0166667 0.95 0.0146312 -4.40682 0 0 0.0533743 
29 1 0.05 0.85 0.000142585 -3.90398 0 0 -0.0375555 
30 1 0.05 0.95 0.000142585 -3.90398 0 0 -0.0381279 
103 1 0.0333333 0.9 0.0291198 -4.42397 0 0 -0.00329582 
104 1 0.0666667 0.9 0.0146312 -4.40682 0 0 0.0533743 
105 1 0.0833333 0.85 0.0291198 -4.43571 0 0 -0.0388197 
106 1 0.0833333 0.95 0.0291198 -4.45 0 0 -0.00934409 
110 1 0.116667 0.85 0.0146312 -4.40682 0 0 0.0501469 
114 1 0.116667 0.95 0.0146312 -4.40682 0 0 0.0498139 
115 1 0.1 0.9 0.000142585 -3.90398 0 0 -0.0382313 
116 1 0.15 0.85 0.000142585 -3.90398 0 0 -0.0382429 
117 1 0.15 0.95 0.000142585 -3.90398 0 0 -0.038243 
242 1 0.133333 0.9 0.0291198 -4.45 0 0 -0.0111691 
248 1 0.183333 0.85 0.0291198 -4.45 0 0 -0.0114316 
256 1 0.183333 0.95 0.0291198 -4.45 0 0 -0.0114352 
257 1 0.166667 0.9 0.0146312 -4.40682 0 0 0.0497465 
258 1 0.2 0.9 0.000142585 -3.90398 0 0 -0.038243 
259 1 0.216667 0.85 0.0146312 -4.40682 0 0 0.049743 
260 1 0.216667 0.95 0.0146312 -4.40682 0 0 0.049743 
263 1 0.25 0.85 0.000142585 -3.90398 0 0 -0.038243 
264 1 0.25 0.95 0.000142585 -3.90398 0 0 -0.038243 
460 1 0.233333 0.9 0.0291198 -4.45 0 0 -0.0114352 
461 1 0.266667 0.9 0.0146312 -4.40682 0 0 0.049743 
462 1 0.283333 0.85 0.0291198 -4.45 0 0 -0.0114352 
463 1 0.283333 0.95 0.0291198 -4.45 0 0 -0.0114352 
467 1 0.316667 0.85 0.0146312 -4.40682 0 0 0.049743 
471 1 0.316667 0.95 0.0146312 -4.40682 0 0 0.049743 
472 1 0.3 0.9 0.000142585 -3.90398 0 0 -0.038243 
473 1 0.35 0.85 0.000142585 -3.90398 0 0 -0.038243 
474 1 0.35 0.95 0.000142585 -3.90398 0 0 -0.038243 
721 1 0.333333 0.9 0.0291198 -4.45 0 0 -0.0114352 
727 1 0.383333 0.85 0.0291198 -4.45 0 0 -0.0114352 
735 1 0.383333 0.95 0.0291198 -4.45 0 0 -0.0114352 
736 1 0.366667 0.9 0.0146312 -4.40682 0 0 0.049743 
737 1 0.4 0.9 0.000142585 -3.90398 0 0 -0.038243 
738 1 0.416667 0.85 0.0146312 -4.40682 0 0 0.049743 
739 1 0.416667 0.95 0.0146312 -4.40682 0 0 0.049743 
742 1 0.45 0.85 0.000142585 -3.90398 0 0 -0.038243 
743 1 0.45 0.95 0.000142585 -3.90398 0 0 -0.038243 
1059 1 0.433333 0.9 0.0291198 -4.45 0 0 -0.0114352 
1060 1 0.466667 0.9 0.0146312 -4.40682 0 0 0.049743 
1061 1 0.483333 0.85 0.0291198 -4.45 0 0 -0.0114352 
1062 1 0.483333 0.95 0.0291198 -4.45 0 0 -0.0114352 
1066 1 0.516667 0.85 0.0146312 -4.40682 0 0 0.049743 
1070 1 0.516667 0.95 0.0146312 -4.40682 0 0 0.049743 
1071 1 0.5 0.9 0.000142585 -3.90398 0 0 -0.038243 
1072 1 0.55 0.85 0.000142585 -3.90398 0 0 -0.038243 
1073 1 0.55 0.95 0.000142585 -3.90398 0 0 -0.038243 
1441 1 0.533333 0.9 0.0291198 -4.45 0 0 -0.0114352 
1447 1 0.583333 0.85 0.0291198 -4.45 0 0 -0.0114462 
1455 1 0.583333 0.95 0.0291198 -4.45 0 0 -0.0114498 
1456 1 0.566667 0.9 0.0146312 -4.40682 0 0 0.0497155 
1457 1 0.6 0.9 0.000142585 -3.90398 0 0 -0.0381788 
1458 1 0.616667 0.85 0.0146312 -4.40682 0 0 0.0465266 
1459 1 0.616667 0.95 0.0146312 -4.40682 0 0 0.0455148 
1462 1 0.65 0.85 0.000142585 -3.88879 0 0 -0.0338861 
1463 1 0.65 0.95 0.000142585 -3.88868 0 0 -0.0331437 
1893 1 0.633333 0.9 0.0291198 -4.45 0 0 -0.0124254 
1894 1 0.666667 0.9 0.0146312 -4.37823 0 0 0.0580041 
1895 1 0.683333 0.85 0.0291198 -4.4499 0 0 -0.0251239 
1896 1 0.683333 0.95 0.0291198 -4.4499 0 0 -0.0303418 
1900 1 0.716667 0.85 0.0146312 -4.28561 0 0 -0.188859 
1903 1 0.716667 0.95 0.0146312 -4.25779 0 0 -0.176264 
1904 1 0.7 0.9 0.000142585 -3.55536 0 0 0.179007 