LAMMPS (11 Aug 2017)
# ---- initialize simulations
clear
units metal
dimension 3
boundary p p p
atom_style atomic
atom_modify map array
# ---- create atoms
read_data /ufrc/phillpot/eragasa/pareto_optimization_3.5NN/rank_0/Ni_fcc_110_s.lmps_min_pos/lammps.structure
  triclinic box = (0 0 0) to (3.3796 2.4193 24.1928) with tilt (0 0 0)
  1 by 1 by 1 MPI processor grid
  reading atoms ...
  10 atoms
# ---- define interatomic potential
include potential.mod
mass 1 58.6934

group Ni type 1
10 atoms in group Ni

pair_style eam/alloy
pair_coeff * * /ufrc/phillpot/eragasa/pareto_optimization_3.5NN/rank_0/Ni_fcc_110_s.lmps_min_pos/Ni.eam.alloy Ni

neighbor 1.0 bin
neigh_modify every 1 delay 0 check yes
# ---- define settings
compute eng all pe/atom
compute eatoms all reduce sum c_eng

# ---- run minimization
reset_timestep 0
thermo 1
thermo_style custom step pe lx ly lz xy xz yz press pxx pyy pzz pxy pxz pyz c_eatoms
min_style cg
minimize 1e-20 1e-20 1000 100000
Neighbor list info ...
  update every 1 steps, delay 0 steps, check yes
  max neighbors/atom: 2000, page size: 100000
  master list distance cutoff = 5.64464
  ghost atom cutoff = 5.64464
  binsize = 2.82232, bins = 2 1 9
  1 neighbor lists, perpetual/occasional/extra = 1 0 0
  (1) pair eam/alloy, perpetual
      attributes: half, newton on
      pair build: half/bin/newton/tri
      stencil: half/bin/3d/newton/tri
      bin: standard
Per MPI rank memory allocation (min/avg/max) = 4.214 | 4.214 | 4.214 Mbytes
Step PotEng Lx Ly Lz Xy Xz Yz Press Pxx Pyy Pzz Pxy Pxz Pyz c_eatoms 
       0   -36.041471       3.3796       2.4193      24.1928            0            0            0   -31959.575   -34221.534   -34449.533   -27207.658 -3.5857509e-11 2.215803e-11     0.714618   -36.041471 
       1   -36.079026       3.3796       2.4193      24.1928            0            0            0   -24942.286    -26941.91   -29485.174   -18399.775 1.351682e-11 2.3043227e-12   0.38349956   -36.079026 
       2   -36.088757       3.3796       2.4193      24.1928            0            0            0   -21532.984   -23572.711   -27386.243       -13640 -1.0425655e-11 2.4082982e-11  0.049120039   -36.088757 
       3   -36.100898       3.3796       2.4193      24.1928            0            0            0   -14442.871   -17208.568    -23426.73    -2693.316 -2.2930821e-11 -7.1883628e-11 -0.037437276   -36.100898 
       4   -36.103185       3.3796       2.4193      24.1928            0            0            0    -13483.08   -16401.346   -22967.811   -1080.0816 3.7656005e-12 4.8924705e-11  0.014545396   -36.103185 
       5   -36.103231       3.3796       2.4193      24.1928            0            0            0   -13372.665   -16347.767   -22939.548   -830.67966 -2.3015126e-11 -5.6568312e-11  0.066518079   -36.103231 
       6   -36.103266       3.3796       2.4193      24.1928            0            0            0   -13034.197    -16059.71   -22764.549   -278.33169 1.7198116e-11 3.2985536e-10    0.1482598   -36.103266 
       7   -36.103277       3.3796       2.4193      24.1928            0            0            0    -12880.73   -15907.478   -22668.967   -65.743676 -2.385817e-11 -2.9659724e-10   0.13613341   -36.103277 
       8   -36.103278       3.3796       2.4193      24.1928            0            0            0   -12840.411   -15868.105   -22642.988   -10.140235 1.183073e-11 8.0454584e-11   0.11030322   -36.103278 
       9   -36.103278       3.3796       2.4193      24.1928            0            0            0   -12838.597   -15866.801    -22642.22   -6.7697077 -1.2701876e-11 -6.1767089e-11  0.095184574   -36.103278 
      10   -36.103278       3.3796       2.4193      24.1928            0            0            0   -12835.735   -15864.293   -22640.698   -2.2146443 2.3633358e-11 7.0503844e-10  0.045690335   -36.103278 
      11   -36.103278       3.3796       2.4193      24.1928            0            0            0   -12834.463   -15863.126   -22639.956   -0.3069788 -2.4701215e-11 -7.77456e-10  0.047028507   -36.103278 
      12   -36.103278       3.3796       2.4193      24.1928            0            0            0   -12834.301   -15863.007   -22639.884 -0.010246594 2.7876684e-11 1.0079164e-09  0.057757975   -36.103278 
      13   -36.103278       3.3796       2.4193      24.1928            0            0            0   -12834.308   -15863.008   -22639.886 -0.029812438 -1.7563435e-11 -1.2562352e-09  0.062908192   -36.103278 
      14   -36.103278       3.3796       2.4193      24.1928            0            0            0   -12834.302   -15863.002   -22639.881 -0.024880386 8.2618399e-12 1.0054715e-09  0.063161555   -36.103278 
      15   -36.103278       3.3796       2.4193      24.1928            0            0            0    -12834.29   -15862.991   -22639.874 -0.0041897143 7.1096786e-12 -4.0025383e-09  0.062150486   -36.103278 
      16   -36.103278       3.3796       2.4193      24.1928            0            0            0    -12834.28   -15862.983    -22639.87  0.012684732 -1.0762873e-11 1.4545967e-08  0.057714209   -36.103278 
      17   -36.103278       3.3796       2.4193      24.1928            0            0            0   -12834.259   -15862.963   -22639.857   0.04299493 -4.5243409e-12 -4.980424e-08  0.036546591   -36.103278 
      18   -36.103278       3.3796       2.4193      24.1928            0            0            0   -12834.232   -15862.939   -22639.842  0.085355339 -1.4500372e-11 5.440423e-08   0.01885477   -36.103278 
      19   -36.103278       3.3796       2.4193      24.1928            0            0            0   -12834.245   -15862.953   -22639.851  0.069020494 8.2899414e-12 -1.535722e-07  0.010361655   -36.103278 
      20   -36.103278       3.3796       2.4193      24.1928            0            0            0   -12834.283   -15862.985   -22639.871 0.0067185422 -2.2424994e-11 4.208497e-07 3.9282877e-05   -36.103278 
      21   -36.103278       3.3796       2.4193      24.1928            0            0            0   -12834.286   -15862.988   -22639.872 0.0013295586 1.6298868e-12 -6.4552494e-07 -9.9202638e-05   -36.103278 
      22   -36.103278       3.3796       2.4193      24.1928            0            0            0   -12834.287   -15862.988   -22639.873 0.00081818894 -9.6669148e-12 3.9767272e-07 -3.4705125e-05   -36.103278 
      23   -36.103278       3.3796       2.4193      24.1928            0            0            0   -12834.287   -15862.988   -22639.873 0.0004835275 -3.8780065e-12 -3.522883e-07 -2.3348452e-05   -36.103278 
      24   -36.103278       3.3796       2.4193      24.1928            0            0            0   -12834.287   -15862.988   -22639.873 0.00031946789 -1.8715597e-11 7.7332384e-07 -1.6662503e-05   -36.103278 
      25   -36.103278       3.3796       2.4193      24.1928            0            0            0   -12834.287   -15862.989   -22639.873 8.9718954e-05 -6.5476487e-12 -1.853211e-06 -6.5737593e-06   -36.103278 
      26   -36.103278       3.3796       2.4193      24.1928            0            0            0   -12834.287   -15862.989   -22639.873 2.1571837e-05 3.9342095e-13 1.6104838e-06 -3.7665512e-06   -36.103278 
      27   -36.103278       3.3796       2.4193      24.1928            0            0            0   -12834.287   -15862.989   -22639.873 -4.2472359e-06 6.9691711e-12 -3.1326889e-07 -2.5295703e-06   -36.103278 
      28   -36.103278       3.3796       2.4193      24.1928            0            0            0   -12834.287   -15862.989   -22639.873 -7.3600064e-06 -3.2316721e-12 8.9915445e-08 -1.6493019e-06   -36.103278 
      29   -36.103278       3.3796       2.4193      24.1928            0            0            0   -12834.287   -15862.989   -22639.873 -4.7760468e-06 -2.8101496e-12 -1.7378556e-08 -1.2236679e-06   -36.103278 
      30   -36.103278       3.3796       2.4193      24.1928            0            0            0   -12834.287   -15862.989   -22639.873 -5.3706944e-06 2.2115878e-11 5.0754113e-08 -9.0282366e-07   -36.103278 
      31   -36.103278       3.3796       2.4193      24.1928            0            0            0   -12834.287   -15862.989   -22639.873 -7.0991703e-07 3.3946608e-11 -6.995269e-08 -1.4543584e-07   -36.103278 
      32   -36.103278       3.3796       2.4193      24.1928            0            0            0   -12834.287   -15862.989   -22639.873 2.0576548e-06 2.4645012e-11 7.7056102e-08 2.1303028e-07   -36.103278 
      33   -36.103278       3.3796       2.4193      24.1928            0            0            0   -12834.287   -15862.989   -22639.873 2.0137377e-06 1.2308455e-11 -4.9842542e-08 2.8701351e-07   -36.103278 
      34   -36.103278       3.3796       2.4193      24.1928            0            0            0   -12834.287   -15862.989   -22639.873 1.4136325e-06 -1.0116539e-12 1.029081e-08 2.7478219e-07   -36.103278 
      35   -36.103278       3.3796       2.4193      24.1928            0            0            0   -12834.287   -15862.989   -22639.873 5.2643292e-07 2.0626498e-11 -3.9314274e-09 6.9363177e-08   -36.103278 
      36   -36.103278       3.3796       2.4193      24.1928            0            0            0   -12834.287   -15862.989   -22639.873 -7.6188215e-08 -1.9783453e-11 7.3066701e-10 -1.0195673e-08   -36.103278 
      37   -36.103278       3.3796       2.4193      24.1928            0            0            0   -12834.287   -15862.989   -22639.873 -3.5062243e-07 -1.1746426e-11 -2.7918837e-11 -6.7338773e-09   -36.103278 
      38   -36.103278       3.3796       2.4193      24.1928            0            0            0   -12834.287   -15862.989   -22639.873 -2.5317234e-07 -8.4866519e-12 -5.7706423e-11 1.0296023e-08   -36.103278 
      39   -36.103278       3.3796       2.4193      24.1928            0            0            0   -12834.287   -15862.989   -22639.873 -1.4658421e-07 5.7889083e-12 3.3665593e-11 8.4983983e-09   -36.103278 
      40   -36.103278       3.3796       2.4193      24.1928            0            0            0   -12834.287   -15862.989   -22639.873 -8.3490839e-08 4.3838334e-12 -1.1506158e-10 -2.641091e-09   -36.103278 
      41   -36.103278       3.3796       2.4193      24.1928            0            0            0   -12834.287   -15862.989   -22639.873 -4.2259536e-08 2.5319448e-11 3.0532276e-11 -8.3644666e-09   -36.103278 
      42   -36.103278       3.3796       2.4193      24.1928            0            0            0   -12834.287   -15862.989   -22639.873 -1.8011205e-08 -2.3605257e-11 -6.2975453e-11 -7.0219457e-09   -36.103278 
      43   -36.103278       3.3796       2.4193      24.1928            0            0            0   -12834.287   -15862.989   -22639.873 -5.1128425e-09 -1.9474337e-11 1.6669808e-10 -6.8616829e-09   -36.103278 
      44   -36.103278       3.3796       2.4193      24.1928            0            0            0   -12834.287   -15862.989   -22639.873 1.2555749e-10 9.4421028e-12 -1.0529631e-10 -6.8798084e-09   -36.103278 
Loop time of 0.00455308 on 1 procs for 44 steps with 10 atoms

56.7% CPU use with 1 MPI tasks x no OpenMP threads

Minimization stats:
  Stopping criterion = energy tolerance
  Energy initial, next-to-last, final = 
        -36.0414708474     -36.1032779039     -36.1032779039
  Force two-norm initial, final = 0.674191 2.37582e-13
  Force max component initial, final = 0.45074 1.12497e-13
  Final line search alpha, max atom move = 1 1.12497e-13
  Iterations, force evaluations = 44 88

MPI task timing breakdown:
Section |  min time  |  avg time  |  max time  |%varavg| %total
---------------------------------------------------------------
Pair    | 0.0016029  | 0.0016029  | 0.0016029  |   0.0 | 35.20
Neigh   | 0          | 0          | 0          |   0.0 |  0.00
Comm    | 0.00018477 | 0.00018477 | 0.00018477 |   0.0 |  4.06
Output  | 0.0026748  | 0.0026748  | 0.0026748  |   0.0 | 58.75
Modify  | 0          | 0          | 0          |   0.0 |  0.00
Other   |            | 9.06e-05   |            |       |  1.99

Nlocal:    10 ave 10 max 10 min
Histogram: 1 0 0 0 0 0 0 0 0 0
Nghost:    357 ave 357 max 357 min
Histogram: 1 0 0 0 0 0 0 0 0 0
Neighs:    320 ave 320 max 320 min
Histogram: 1 0 0 0 0 0 0 0 0 0

Total # of neighbors = 320
Ave neighs/atom = 32
Neighbor list builds = 0
Dangerous builds = 0

# ---- define output variables ----
variable natoms equal "count(all)"
variable tot_energy equal "c_eatoms"
variable a11 equal "xhi-xlo"
variable a22 equal "yhi-ylo"
variable a33 equal "zhi-zlo"
variable tilt_xy equal "xy"
variable tilt_xz equal "xz"
variable tilt_yz equal "yz"
variable tot_press equal "press"
variable press_xx equal "pxx"
variable press_yy equal "pyy"
variable press_zz equal "pzz"
variable press_xy equal "pxy"
variable press_xz equal "pxz"
variable press_yz equal "pyz"

# ---- output ----
print "pypospack:output_section:begin"
pypospack:output_section:begin
print "tot_energy = ${tot_energy}"
tot_energy = -36.1032779039248
print "num_atoms = ${natoms}"
num_atoms = 10
print "a11 = ${a11}"
a11 = 3.3796
print "a22 = ${a22}"
a22 = 2.4193
print "a33 = ${a33}"
a33 = 24.1928
print "a12 = ${tilt_xy}"
a12 = 0
print "a13 = ${tilt_xz}"
a13 = 0
print "a23 = ${tilt_yz}"
a23 = 0
print "tot_press = ${tot_press}"
tot_press = -12834.2872328013
print "pxx = ${press_xx}"
pxx = -15862.9886209133
print "pyy = ${press_yy}"
pyy = -22639.8730774907
print "pzz = ${press_zz}"
pzz = 1.25557485979055e-10
print "pxy = ${press_xy}"
pxy = 9.44210279520199e-12
print "pxz = ${press_xz}"
pxz = -1.05296307064351e-10
print "pyz = ${press_yz}"
pyz = -6.87980835214688e-09
print "pypospack:output_section:done"
pypospack:output_section:done
print "pypospack:lammps_sim:done"
pypospack:lammps_sim:done
Total wall time: 0:00:00
