# ['Al']

28 atoms
1 atom types

    0.0000     2.6910 xlo xhi
    0.0000     4.6610 ylo yhi
    0.0000    30.7611 zlo zhi

    0.0000     0.0000     0.0000 xy xz yz

Atoms

1 1     0.0000     0.0000     0.0000
2 1     1.3455     2.3305     0.0000
3 1     1.3455     0.7768     2.1972
4 1     0.0000     3.1073     2.1972
5 1     0.0000     1.5537     4.3944
6 1     1.3455     3.8842     4.3944
7 1     0.0000     0.0000     6.5917
8 1     1.3455     2.3305     6.5917
9 1     1.3455     0.7768     8.7889
10 1     0.0000     3.1073     8.7889
11 1     0.0000     1.5537    10.9861
12 1     1.3455     3.8842    10.9861
13 1     0.0000     0.0000    13.1833
14 1     1.3455     2.3305    13.1833
15 1     0.0000     1.5537    15.3806
16 1     1.3455     3.8842    15.3806
17 1     0.0000     0.0000    17.5778
18 1     1.3455     2.3305    17.5778
19 1     1.3455     0.7768    19.7750
20 1     0.0000     3.1073    19.7750
21 1     0.0000     1.5537    21.9722
22 1     1.3455     3.8842    21.9722
23 1     0.0000     0.0000    24.1694
24 1     1.3455     2.3305    24.1694
25 1     1.3455     0.7768    26.3667
26 1     0.0000     3.1073    26.3667
27 1     0.0000     1.5537    28.5639
28 1     1.3455     3.8842    28.5639
