# ['Ni']

20 atoms
1 atom types

    0.0000     9.2298 xlo xhi
    0.0000     9.2298 ylo yhi
    0.0000    92.2983 zlo zhi

    0.0000    -0.0000     0.0000 xy xz yz

Atoms

1 1     0.0000     0.0000     0.0000
2 1     4.6149     4.6149     0.0000
3 1     4.6149     0.0000     4.6149
4 1     0.0000     4.6149     4.6149
5 1     0.0000     0.0000     9.2298
6 1     4.6149     4.6149     9.2298
7 1     4.6149     0.0000    13.8447
8 1     0.0000     4.6149    13.8447
9 1     0.0000     0.0000    18.4597
10 1     4.6149     4.6149    18.4597
11 1     4.6149     0.0000    23.0746
12 1     0.0000     4.6149    23.0746
13 1     0.0000     0.0000    27.6895
14 1     4.6149     4.6149    27.6895
15 1     4.6149     0.0000    32.3044
16 1     0.0000     4.6149    32.3044
17 1     0.0000     0.0000    36.9193
18 1     4.6149     4.6149    36.9193
19 1     4.6149     0.0000    41.5342
20 1     0.0000     4.6149    41.5342
