   2   2   0   0
  0.1090254E+02  0.2793739E-09  0.2793739E-09  0.2793739E-09  0.5000000E-15
  1.000000000000000E-004
  CAR 
 automatically generated by pyflamestk   
     29.87652413     -0.72241613  301      9.24708339      1.00000000
     -0.722  0.0000E+00  0.0000E+00  0.0000E+00  0.0000E+00
     -0.620  0.0000E+00  0.0000E+00  0.0000E+00  0.0000E+00
     -0.518  0.0000E+00  0.0000E+00  0.0000E+00  0.0000E+00
     -0.416 -0.2040E-30  0.0000E+00 -0.2080E-31  0.0000E+00
     -0.314 -0.8345E-27 -0.1751E-27 -0.8514E-28 -0.1786E-28
     -0.212 -0.2022E-23 -0.4691E-24 -0.2063E-24 -0.4786E-25
     -0.110 -0.2897E-20 -0.7439E-21 -0.2957E-21 -0.7592E-22
     -0.008 -0.2454E-17 -0.6973E-18 -0.2506E-18 -0.7120E-19
      0.094 -0.1159E-14 -0.3861E-15 -0.1185E-15 -0.3945E-16
      0.196 -0.3499E-12 -0.1220E-12 -0.3581E-13 -0.1248E-13
      0.298 -0.6028E-10 -0.2329E-10 -0.6184E-11 -0.2388E-11
      0.400 -0.6079E-08 -0.2606E-08 -0.6262E-09 -0.2681E-09
      0.502 -0.3569E-06 -0.1699E-06 -0.3702E-07 -0.1759E-07
      0.604 -0.1208E-04 -0.6402E-05 -0.1270E-05 -0.6705E-06
      0.706 -0.2323E-03 -0.1375E-03 -0.2496E-04 -0.1469E-04
      0.808 -0.2454E-02 -0.1636E-02 -0.2752E-03 -0.1816E-03
      0.910 -0.1315E-01 -0.1011E-01 -0.1616E-02 -0.1213E-02
      1.012 -0.2579E-01 -0.2571E-01 -0.4247E-02 -0.3835E-02
      1.114  0.4769E-01  0.1985E-01  0.6169E-03 -0.1811E-02
      1.216  0.3014E+00  0.2434E+00  0.3136E-01  0.2302E-01
      1.318  0.5079E+00  0.4916E+00  0.8316E-01  0.7316E-01
      1.420  0.3651E+00  0.4164E+00  0.1204E+00  0.1156E+00
      1.522  0.8856E-01  0.1330E+00  0.1294E+00  0.1292E+00
      1.624 -0.2228E-01 -0.1464E-01  0.1272E+00  0.1277E+00
      1.725 -0.1698E-01 -0.2046E-01  0.1254E+00  0.1256E+00
      1.827 -0.3759E-02 -0.5342E-02  0.1250E+00  0.1251E+00
      1.929 -0.4084E-03 -0.6579E-03  0.1250E+00  0.1250E+00
      2.031 -0.2410E-04 -0.4351E-04  0.1250E+00  0.1250E+00
      2.133 -0.8035E-06 -0.1616E-05  0.1250E+00  0.1250E+00
      2.235 -0.1541E-07 -0.3445E-07  0.1250E+00  0.1250E+00
      2.337 -0.1718E-09 -0.4260E-09  0.1250E+00  0.1250E+00
      2.439 -0.5955E-11 -0.1400E-10  0.1250E+00  0.1250E+00
      2.541 -0.7151E-09 -0.1486E-08  0.1250E+00  0.1250E+00
      2.643 -0.6181E-07 -0.1180E-06  0.1250E+00  0.1250E+00
      2.745 -0.3104E-05 -0.5441E-05  0.1250E+00  0.1250E+00
      2.847 -0.8957E-04 -0.1438E-03  0.1250E+00  0.1250E+00
      2.949 -0.1457E-02 -0.2134E-02  0.1248E+00  0.1248E+00
      3.051 -0.1283E-01 -0.1696E-01  0.1235E+00  0.1230E+00
      3.153 -0.5471E-01 -0.6305E-01  0.1180E+00  0.1166E+00
      3.255 -0.6030E-01 -0.3854E-01  0.1118E+00  0.1127E+00
      3.357  0.3109E+00  0.4234E+00  0.1435E+00  0.1559E+00
      3.459  0.1153E+01  0.1273E+01  0.2611E+00  0.2857E+00
      3.561  0.1511E+01  0.1462E+01  0.4152E+00  0.4348E+00
      3.663  0.8418E+00  0.7014E+00  0.5011E+00  0.5064E+00
      3.765  0.1104E+00  0.4780E-01  0.5124E+00  0.5113E+00
      3.867 -0.7814E-01 -0.7647E-01  0.5044E+00  0.5035E+00
      3.969 -0.3603E-01 -0.2917E-01  0.5007E+00  0.5005E+00
      4.071 -0.6397E-02 -0.7869E-02  0.5001E+00  0.4997E+00
      4.173 -0.8627E-03 -0.2346E-01  0.5000E+00  0.4973E+00
      4.275 -0.3691E-02 -0.7172E-01  0.4996E+00  0.4900E+00
      4.377 -0.2485E-01  0.2209E-02  0.4971E+00  0.4902E+00
      4.479 -0.7347E-01  0.5734E+00  0.4896E+00  0.5487E+00
      4.581  0.1534E-01  0.1391E+01  0.4911E+00  0.6906E+00
      4.683  0.6134E+00  0.1365E+01  0.5537E+00  0.8298E+00
      4.785  0.1417E+01  0.5119E+00  0.6982E+00  0.8820E+00
      4.887  0.1341E+01 -0.8588E-01  0.8349E+00  0.8732E+00
      4.989  0.5004E+00 -0.3427E-01  0.8859E+00  0.8697E+00
      5.091 -0.3625E-01  0.6278E+00  0.8822E+00  0.9338E+00
      5.193 -0.1344E+00  0.1385E+01  0.8685E+00  0.1075E+01
      5.295 -0.7764E-01  0.1495E+01  0.8606E+00  0.1228E+01
      5.397  0.3437E+00  0.1540E+01  0.8957E+00  0.1385E+01
      5.499  0.1192E+01  0.2048E+01  0.1017E+01  0.1593E+01
      5.601  0.1963E+01  0.2087E+01  0.1218E+01  0.1806E+01
      5.703  0.2542E+01  0.1255E+01  0.1477E+01  0.1934E+01
      5.805  0.2500E+01  0.4631E+00  0.1732E+01  0.1982E+01
      5.907  0.1321E+01  0.7923E+00  0.1867E+01  0.2062E+01
      6.009  0.2576E+00  0.2440E+01  0.1893E+01  0.2311E+01
      6.111  0.3351E+00  0.4024E+01  0.1927E+01  0.2722E+01
      6.213  0.8270E+00  0.4189E+01  0.2011E+01  0.3149E+01
      6.315  0.1190E+01  0.3294E+01  0.2133E+01  0.3485E+01
      6.417  0.1888E+01  0.1919E+01  0.2325E+01  0.3681E+01
      6.519  0.2551E+01  0.1076E+01  0.2586E+01  0.3790E+01
      6.621  0.2870E+01  0.2019E+01  0.2878E+01  0.3996E+01
      6.723  0.3393E+01  0.3298E+01  0.3224E+01  0.4333E+01
      6.825  0.3184E+01  0.2739E+01  0.3549E+01  0.4612E+01
      6.927  0.1688E+01  0.1700E+01  0.3721E+01  0.4785E+01
      7.029  0.7471E+00  0.2564E+01  0.3798E+01  0.5047E+01
      7.131  0.1522E+01  0.3916E+01  0.3953E+01  0.5446E+01
      7.233  0.2975E+01  0.3174E+01  0.4256E+01  0.5770E+01
      7.335  0.4012E+01  0.1320E+01  0.4665E+01  0.5905E+01
      7.437  0.4279E+01  0.4013E+00  0.5102E+01  0.5945E+01
      7.539  0.3802E+01  0.2130E+00  0.5490E+01  0.5967E+01
      7.641  0.2679E+01  0.1258E+00  0.5763E+01  0.5980E+01
      7.743  0.1152E+01  0.8399E+00  0.5880E+01  0.6066E+01
      7.845  0.1049E+00  0.2438E+01  0.5891E+01  0.6314E+01
      7.947 -0.1489E-01  0.3159E+01  0.5890E+01  0.6637E+01
      8.049  0.2832E+00  0.2684E+01  0.5918E+01  0.6910E+01
      8.151  0.5486E+00  0.3090E+01  0.5974E+01  0.7225E+01
      8.253  0.1031E+01  0.4343E+01  0.6080E+01  0.7668E+01
      8.355  0.1807E+01  0.4602E+01  0.6264E+01  0.8138E+01
      8.457  0.2413E+01  0.4202E+01  0.6510E+01  0.8566E+01
      8.559  0.2778E+01  0.3968E+01  0.6793E+01  0.8971E+01
      8.661  0.3329E+01  0.4033E+01  0.7133E+01  0.9382E+01
      8.763  0.4417E+01  0.4536E+01  0.7583E+01  0.9845E+01
      8.865  0.5381E+01  0.4093E+01  0.8132E+01  0.1026E+02
      8.967  0.5217E+01  0.2177E+01  0.8664E+01  0.1048E+02
      9.069  0.3827E+01  0.4292E+00  0.9055E+01  0.1053E+02
      9.171  0.2552E+01 -0.1909E+00  0.9315E+01  0.1051E+02
      9.273  0.2615E+01 -0.1853E+00  0.9582E+01  0.1049E+02
      9.375  0.3344E+01  0.1487E+00  0.9923E+01  0.1051E+02
      9.477  0.3369E+01  0.9577E+00  0.1027E+02  0.1060E+02
      9.579  0.2053E+01  0.1529E+01  0.1048E+02  0.1076E+02
      9.681  0.4645E+00  0.1041E+01  0.1052E+02  0.1087E+02
      9.783 -0.2029E+00  0.2268E+00  0.1050E+02  0.1089E+02
      9.885 -0.7026E-01 -0.7136E-01  0.1050E+02  0.1088E+02
      9.987  0.6413E+00 -0.4750E-01  0.1056E+02  0.1088E+02
     10.089  0.1443E+01 -0.9991E-02  0.1071E+02  0.1088E+02
     10.191  0.1300E+01 -0.1042E-02  0.1084E+02  0.1088E+02
     10.293  0.4540E+00 -0.5928E-04  0.1089E+02  0.1088E+02
     10.395 -0.3132E-01 -0.1907E-05  0.1088E+02  0.1088E+02
     10.497 -0.6505E-01 -0.3540E-07  0.1088E+02  0.1088E+02
     10.599 -0.1815E-01 -0.8689E-08  0.1088E+02  0.1087E+02
     10.701 -0.2344E-02 -0.5376E-06  0.1088E+02  0.1087E+02
     10.803 -0.1618E-03 -0.2011E-04  0.1088E+02  0.1087E+02
     10.905 -0.6331E-05 -0.4285E-03  0.1088E+02  0.1087E+02
     11.007 -0.3667E-05 -0.5057E-02  0.1087E+02  0.1087E+02
     11.109 -0.9983E-04 -0.3093E-01  0.1087E+02  0.1087E+02
     11.211 -0.1591E-02 -0.7738E-01  0.1087E+02  0.1086E+02
     11.313 -0.1369E-01  0.6471E-01  0.1087E+02  0.1087E+02
     11.415 -0.5664E-01  0.7424E+00  0.1087E+02  0.1095E+02
     11.517 -0.5626E-01  0.1478E+01  0.1086E+02  0.1110E+02
     11.619  0.3351E+00  0.1221E+01  0.1090E+02  0.1122E+02
     11.721  0.1180E+01  0.3224E+00  0.1102E+02  0.1125E+02
     11.823  0.1494E+01 -0.1074E+00  0.1117E+02  0.1124E+02
     11.925  0.7637E+00  0.3299E+00  0.1125E+02  0.1128E+02
     12.027  0.6251E-02  0.1402E+01  0.1125E+02  0.1142E+02
     12.129  0.8021E-01  0.1951E+01  0.1126E+02  0.1162E+02
     12.231  0.9919E+00  0.1212E+01  0.1136E+02  0.1174E+02
     12.333  0.1833E+01  0.2344E+00  0.1154E+02  0.1177E+02
     12.435  0.1536E+01 -0.9024E-01  0.1170E+02  0.1176E+02
     12.537  0.5763E+00 -0.5501E-01  0.1176E+02  0.1175E+02
     12.639  0.1145E-01 -0.1137E-01  0.1176E+02  0.1175E+02
     12.741 -0.6956E-01 -0.1184E-02  0.1175E+02  0.1175E+02
     12.843 -0.2626E-01 -0.6769E-04  0.1175E+02  0.1175E+02
     12.945 -0.4599E-02 -0.2199E-05  0.1175E+02  0.1175E+02
     13.047 -0.4415E-03 -0.4123E-07  0.1175E+02  0.1175E+02
     13.149 -0.2422E-04 -0.4503E-09  0.1175E+02  0.1175E+02
     13.251 -0.7708E-06 -0.2881E-11  0.1175E+02  0.1175E+02
     13.353 -0.1432E-07 -0.1061E-13  0.1175E+02  0.1175E+02
     13.455 -0.1560E-09  0.0000E+00  0.1175E+02  0.1175E+02
     13.557 -0.9976E-12  0.0000E+00  0.1175E+02  0.1175E+02
     13.659 -0.3810E-14  0.0000E+00  0.1175E+02  0.1175E+02
     13.761  0.0000E+00  0.0000E+00  0.1175E+02  0.1175E+02
     13.863  0.0000E+00  0.0000E+00  0.1175E+02  0.1175E+02
     13.965  0.0000E+00  0.0000E+00  0.1175E+02  0.1175E+02
     14.067  0.0000E+00 -0.3750E-28  0.1175E+02  0.1175E+02
     14.169  0.0000E+00 -0.1159E-24  0.1175E+02  0.1175E+02
     14.271 -0.7289E-28 -0.2119E-21  0.1175E+02  0.1175E+02
     14.373 -0.2159E-24 -0.2291E-18  0.1175E+02  0.1175E+02
     14.475 -0.3786E-21 -0.1464E-15  0.1175E+02  0.1175E+02
     14.577 -0.3924E-18 -0.5342E-13  0.1175E+02  0.1175E+02
     14.679 -0.2403E-15 -0.1180E-10  0.1175E+02  0.1175E+02
     14.781 -0.8411E-13 -0.1527E-08  0.1175E+02  0.1175E+02
     14.883 -0.1778E-10 -0.1153E-06  0.1175E+02  0.1175E+02
     14.985 -0.2204E-08 -0.5050E-05  0.1175E+02  0.1175E+02
     15.087 -0.1594E-06 -0.1266E-03  0.1175E+02  0.1175E+02
     15.189 -0.6676E-05 -0.1780E-02  0.1175E+02  0.1175E+02
     15.291 -0.1599E-03 -0.1336E-01  0.1175E+02  0.1175E+02
     15.393 -0.2138E-02 -0.4689E-01  0.1175E+02  0.1174E+02
     15.495 -0.1512E-01 -0.2825E-01  0.1175E+02  0.1174E+02
     15.597 -0.4785E-01  0.2725E+00  0.1174E+02  0.1177E+02
     15.699 -0.5122E-02  0.8403E+00  0.1174E+02  0.1185E+02
     15.801  0.3470E+00  0.1313E+01  0.1178E+02  0.1199E+02
     15.903  0.8470E+00  0.1628E+01  0.1186E+02  0.1215E+02
     16.005  0.9632E+00  0.1502E+01  0.1196E+02  0.1231E+02
     16.107  0.1063E+01  0.7215E+00  0.1207E+02  0.1238E+02
     16.209  0.1457E+01  0.6021E-01  0.1222E+02  0.1239E+02
     16.311  0.1230E+01 -0.8029E-01  0.1235E+02  0.1238E+02
     16.413  0.4133E+00 -0.3253E-01  0.1239E+02  0.1238E+02
     16.515 -0.3956E-01 -0.5416E-02  0.1238E+02  0.1238E+02
     16.617 -0.6351E-01 -0.4673E-03  0.1238E+02  0.1238E+02
     16.719 -0.1714E-01 -0.2259E-04  0.1238E+02  0.1238E+02
     16.821 -0.2165E-02 -0.1101E-04  0.1238E+02  0.1237E+02
     16.923 -0.1614E-03 -0.2314E-03  0.1237E+02  0.1237E+02
     17.025 -0.3185E-03 -0.2860E-02  0.1237E+02  0.1237E+02
     17.127 -0.3619E-02 -0.1846E-01  0.1237E+02  0.1237E+02
     17.229 -0.2161E-01 -0.5048E-01  0.1237E+02  0.1237E+02
     17.331 -0.5189E-01  0.2506E-01  0.1237E+02  0.1237E+02
     17.433  0.5178E-01  0.4494E+00  0.1237E+02  0.1242E+02
     17.535  0.5147E+00  0.9600E+00  0.1242E+02  0.1251E+02
     17.637  0.9922E+00  0.8395E+00  0.1253E+02  0.1260E+02
     17.739  0.7989E+00  0.2914E+00  0.1261E+02  0.1263E+02
     17.841  0.2173E+00  0.1463E+00  0.1263E+02  0.1264E+02
     17.943 -0.1285E-01  0.4044E+00  0.1263E+02  0.1269E+02
     18.045  0.2069E+00  0.4577E+00  0.1265E+02  0.1273E+02
     18.147  0.4809E+00  0.1903E+00  0.1270E+02  0.1275E+02
     18.249  0.4008E+00 -0.2137E-01  0.1274E+02  0.1275E+02
     18.351  0.1045E+00  0.9600E-02  0.1275E+02  0.1275E+02
     18.453  0.2109E-01  0.2667E+00  0.1275E+02  0.1278E+02
     18.555  0.2592E+00  0.5009E+00  0.1278E+02  0.1283E+02
     18.657  0.4982E+00  0.3860E+00  0.1283E+02  0.1287E+02
     18.759  0.3840E+00  0.8563E-01  0.1287E+02  0.1288E+02
     18.861  0.9776E-01 -0.9015E-01  0.1288E+02  0.1287E+02
     18.963 -0.5711E-01 -0.2250E-01  0.1287E+02  0.1287E+02
     19.065 -0.9631E-01  0.5493E+00  0.1286E+02  0.1292E+02
     19.167  0.1166E+00  0.1378E+01  0.1287E+02  0.1306E+02
     19.269  0.8619E+00  0.1383E+01  0.1296E+02  0.1320E+02
     19.371  0.1516E+01  0.5607E+00  0.1312E+02  0.1326E+02
     19.473  0.1134E+01 -0.1788E-02  0.1323E+02  0.1326E+02
     19.575  0.2957E+00 -0.7108E-01  0.1326E+02  0.1325E+02
     19.677 -0.6265E-01 -0.2253E-01  0.1326E+02  0.1325E+02
     19.779 -0.5347E-01 -0.3182E-02  0.1325E+02  0.1325E+02
     19.881 -0.1230E-01 -0.2389E-03  0.1325E+02  0.1325E+02
     19.983 -0.1377E-02 -0.5515E-04  0.1325E+02  0.1325E+02
     20.085 -0.1058E-03 -0.8498E-03  0.1325E+02  0.1325E+02
     20.187 -0.4768E-03 -0.8847E-02  0.1325E+02  0.1325E+02
     20.289 -0.5638E-02 -0.4773E-01  0.1325E+02  0.1324E+02
     20.391 -0.3552E-01 -0.1023E+00  0.1325E+02  0.1323E+02
     20.493 -0.9863E-01  0.1244E+00  0.1324E+02  0.1325E+02
     20.595  0.2304E-01  0.1059E+01  0.1324E+02  0.1335E+02
     20.697  0.8104E+00  0.2129E+01  0.1332E+02  0.1357E+02
     20.799  0.1981E+01  0.2010E+01  0.1352E+02  0.1378E+02
     20.901  0.2168E+01  0.8798E+00  0.1374E+02  0.1387E+02
     21.003  0.1114E+01  0.3307E+00  0.1386E+02  0.1390E+02
     21.105  0.3575E+00  0.9520E+00  0.1389E+02  0.1400E+02
     21.207  0.8301E+00  0.1486E+01  0.1398E+02  0.1415E+02
     21.309  0.1471E+01  0.9488E+00  0.1413E+02  0.1425E+02
     21.411  0.1067E+01  0.1726E+00  0.1424E+02  0.1426E+02
     21.513  0.2526E+00 -0.7588E-01  0.1426E+02  0.1426E+02
     21.615 -0.6838E-01 -0.4248E-01  0.1426E+02  0.1425E+02
     21.717 -0.4993E-01 -0.8293E-02  0.1425E+02  0.1425E+02
     21.819 -0.1089E-01 -0.8147E-03  0.1425E+02  0.1425E+02
     21.921 -0.1169E-02 -0.4386E-04  0.1425E+02  0.1425E+02
     22.023 -0.6823E-04 -0.1338E-05  0.1425E+02  0.1425E+02
     22.125 -0.2251E-05 -0.2387E-07  0.1425E+02  0.1425E+02
     22.227 -0.4343E-07 -0.3122E-07  0.1425E+02  0.1425E+02
     22.329 -0.6163E-07 -0.1701E-05  0.1425E+02  0.1425E+02
     22.431 -0.3075E-05 -0.5378E-04  0.1425E+02  0.1425E+02
     22.533 -0.8888E-04 -0.9626E-03  0.1425E+02  0.1425E+02
     22.635 -0.1448E-02 -0.9411E-02  0.1425E+02  0.1425E+02
     22.737 -0.1277E-01 -0.4585E-01  0.1425E+02  0.1424E+02
     22.839 -0.5458E-01 -0.7310E-01  0.1424E+02  0.1424E+02
     22.941 -0.6057E-01  0.2088E+00  0.1424E+02  0.1426E+02
     23.043  0.3092E+00  0.1014E+01  0.1427E+02  0.1436E+02
     23.145  0.1151E+01  0.1531E+01  0.1439E+02  0.1452E+02
     23.247  0.1512E+01  0.9885E+00  0.1454E+02  0.1462E+02
     23.349  0.8440E+00  0.1925E+00  0.1463E+02  0.1464E+02
     23.451  0.1116E+00 -0.7448E-01  0.1464E+02  0.1463E+02
     23.553 -0.7813E-01 -0.4432E-01  0.1463E+02  0.1463E+02
     23.655 -0.3616E-01 -0.8892E-02  0.1463E+02  0.1463E+02
     23.757 -0.6418E-02 -0.8930E-03  0.1463E+02  0.1463E+02
     23.859 -0.5829E-03 -0.4907E-04  0.1463E+02  0.1463E+02
     23.961 -0.2918E-04 -0.1527E-05  0.1463E+02  0.1463E+02
     24.063 -0.8305E-06 -0.2738E-07  0.1463E+02  0.1463E+02
     24.165 -0.1364E-07 -0.2857E-09  0.1463E+02  0.1463E+02
     24.267 -0.1310E-09 -0.2175E-10  0.1463E+02  0.1462E+02
     24.369 -0.8089E-10 -0.2556E-08  0.1462E+02  0.1462E+02
     24.471 -0.8834E-08 -0.1906E-06  0.1462E+02  0.1462E+02
     24.573 -0.5674E-06 -0.8234E-05  0.1462E+02  0.1462E+02
     24.675 -0.2106E-04 -0.2036E-03  0.1462E+02  0.1462E+02
     24.777 -0.4452E-03 -0.2816E-02  0.1462E+02  0.1462E+02
     24.879 -0.5210E-02 -0.2068E-01  0.1462E+02  0.1462E+02
     24.981 -0.3155E-01 -0.6878E-01  0.1462E+02  0.1462E+02
     25.083 -0.7759E-01 -0.1479E-01  0.1461E+02  0.1461E+02
     25.185  0.7006E-01  0.5167E+00  0.1462E+02  0.1467E+02
     25.287  0.7550E+00  0.1351E+01  0.1470E+02  0.1480E+02
     25.389  0.1485E+01  0.1408E+01  0.1485E+02  0.1495E+02
     25.491  0.1228E+01  0.5977E+00  0.1497E+02  0.1501E+02
     25.593  0.3775E+00  0.1814E-02  0.1501E+02  0.1501E+02
     25.695 -0.5889E-01 -0.1161E+00  0.1501E+02  0.1500E+02
     25.797 -0.1095E+00 -0.9947E-01  0.1500E+02  0.1499E+02
     25.899 -0.8399E-01  0.1780E+00  0.1499E+02  0.1501E+02
     26.001  0.2486E+00  0.9704E+00  0.1501E+02  0.1510E+02
     26.103  0.1074E+01  0.1530E+01  0.1512E+02  0.1526E+02
     26.205  0.1527E+01  0.1031E+01  0.1528E+02  0.1537E+02
     26.307  0.9259E+00  0.2201E+00  0.1537E+02  0.1539E+02
     26.409  0.1522E+00 -0.7577E-01  0.1539E+02  0.1538E+02
     26.511 -0.9907E-01 -0.7224E-01  0.1538E+02  0.1537E+02
     26.613 -0.1114E+00 -0.8367E-01  0.1537E+02  0.1536E+02
     26.715 -0.1171E-01  0.1790E-01  0.1536E+02  0.1537E+02
     26.817  0.5528E+00  0.6237E+00  0.1542E+02  0.1543E+02
     26.919  0.1378E+01  0.1423E+01  0.1556E+02  0.1558E+02
     27.021  0.1383E+01  0.1333E+01  0.1570E+02  0.1571E+02
     27.123  0.5608E+00  0.4929E+00  0.1576E+02  0.1576E+02
     27.225 -0.1786E-02 -0.2149E-01  0.1576E+02  0.1576E+02
     27.327 -0.7191E-01 -0.6951E-01  0.1575E+02  0.1575E+02
     27.429 -0.3006E-01 -0.3454E-01  0.1575E+02  0.1575E+02
     27.531 -0.3714E-01 -0.4980E-01  0.1575E+02  0.1574E+02
     27.633 -0.4479E-01 -0.2726E-02  0.1574E+02  0.1574E+02
     27.735  0.1771E+00  0.3694E+00  0.1576E+02  0.1578E+02
     27.837  0.7302E+00  0.9190E+00  0.1583E+02  0.1587E+02
     27.939  0.1016E+01  0.9219E+00  0.1594E+02  0.1597E+02
     28.041  0.6028E+00  0.3735E+00  0.1600E+02  0.1601E+02
     28.143  0.9538E-01 -0.1272E-02  0.1601E+02  0.1601E+02
     28.245 -0.5158E-01 -0.4738E-01  0.1600E+02  0.1600E+02
     28.347 -0.2630E-01 -0.1501E-01  0.1600E+02  0.1600E+02
     28.449 -0.4908E-02 -0.2119E-02  0.1600E+02  0.1600E+02
     28.551 -0.4646E-03 -0.1581E-03  0.1600E+02  0.1600E+02
     28.653 -0.2417E-04 -0.6588E-05  0.1600E+02  0.1600E+02
     28.755 -0.7137E-06 -0.1569E-06  0.1600E+02  0.1600E+02
     28.857 -0.1216E-07 -0.2166E-08  0.1600E+02  0.1600E+02
     28.959 -0.1206E-09 -0.1744E-10  0.1600E+02  0.1600E+02
     29.061 -0.6994E-12 -0.8273E-13  0.1600E+02  0.1600E+02
     29.163 -0.2721E-14  0.0000E+00  0.1600E+02  0.1600E+02
     29.265  0.0000E+00  0.0000E+00  0.1600E+02  0.1600E+02
     29.367  0.0000E+00  0.0000E+00  0.1600E+02  0.1600E+02
     29.469  0.0000E+00  0.0000E+00  0.1600E+02  0.1600E+02
     29.571  0.0000E+00  0.0000E+00  0.1600E+02  0.1600E+02
     29.673  0.0000E+00  0.0000E+00  0.1600E+02  0.1600E+02
     29.775  0.0000E+00  0.0000E+00  0.1600E+02  0.1600E+02
     29.877  0.0000E+00  0.0000E+00  0.1600E+02  0.1600E+02
