       N       E                     dE             d eps       ncg     rms          rms(c)
DAV:   1    -0.443716483805E+03   -0.44372E+03   -0.13548E+04   256   0.187E+03
DAV:   2    -0.450117070616E+03   -0.64006E+01   -0.64275E+01   464   0.732E+01
DAV:   3    -0.450122273945E+03   -0.52033E-02   -0.52033E-02   256   0.265E+00
DAV:   4    -0.450122322165E+03   -0.48219E-04   -0.48220E-04   416   0.193E-01
DAV:   5    -0.450122322546E+03   -0.38103E-06   -0.38413E-06   256   0.115E-02    0.940E+01
DAV:   6    -0.561271436694E+02    0.39400E+03   -0.31212E+02   384   0.158E+02    0.474E+01
DAV:   7    -0.132658615952E+03   -0.76531E+02   -0.20973E+03   256   0.320E+02    0.765E+01
DAV:   8    -0.295715791339E+02    0.10309E+03   -0.16505E+03   256   0.526E+02    0.336E+01
DAV:   9    -0.117971481724E+02    0.17774E+02   -0.86782E+01   256   0.924E+01    0.900E+00
DAV:  10    -0.120021495229E+02   -0.20500E+00   -0.32457E-01   272   0.466E+00    0.854E+00
DAV:  11    -0.116244004967E+02    0.37775E+00   -0.29712E-01   320   0.497E+00    0.682E+00
DAV:  12    -0.111367228944E+02    0.48768E+00   -0.84126E-01   256   0.932E+00    0.431E+00
DAV:  13    -0.108337490095E+02    0.30297E+00   -0.14181E+00   256   0.123E+01    0.106E+00
DAV:  14    -0.108168047362E+02    0.16944E-01   -0.83814E-02   256   0.302E+00    0.272E-01
DAV:  15    -0.108185124614E+02   -0.17077E-02   -0.31226E-03   320   0.604E-01    0.382E-01
DAV:  16    -0.108159973264E+02    0.25151E-02   -0.18076E-02   256   0.143E+00    0.157E-02
DAV:  17    -0.108160039710E+02   -0.66446E-05   -0.11913E-04   320   0.108E-01    0.146E-02
DAV:  18    -0.108160004916E+02    0.34794E-05   -0.81371E-05   256   0.985E-02    0.926E-03
DAV:  19    -0.108159990196E+02    0.14720E-05   -0.94163E-06   256   0.326E-02    0.613E-04
DAV:  20    -0.108159990478E+02   -0.28241E-07   -0.18300E-07   128   0.448E-03
   1 F= -.10815999E+02 E0= -.10819202E+02  d E =0.960840E-02  mag=    -0.9868
