    2    2   40    2
  0.3052557E+02  0.3508000E-09  0.3508000E-09  0.5728540E-09  0.5000000E-15
  1.000000000000000E-004
  CAR 
 automatically generated by pyflamestk   
     20     12     16
