automatically generated by pyflamestk   
           1
     3.020106   -0.000000    0.000000
    -1.510053    2.615488   -0.000000
     0.000000    0.000000    4.894528
   Ni
   2
Direct configuration=     1
   0.00000000  0.00000000  0.00000000
   0.33333300  0.66666700  0.50000000
automatically generated by pyflamestk   
           1
     1.556423   -0.000000    0.000000
    -0.778211    1.347902   -0.000000
     0.000000    0.000000    2.392491
   Ni
   2
Direct configuration=     2
   0.00000000 -0.00000000  0.00000000
   0.33333300  0.66666700  0.50000000
