   2   2   0   0
  0.9639684E+01  0.3009788E-09  0.3009788E-09  0.3009788E-09  0.5000000E-15
  1.000000000000000E-004
  CAR 
 automatically generated by pyflamestk   
     43.83394378    -16.40567667  301      3.52359776      1.00000000
    -16.406  0.0000E+00  0.0000E+00
    -16.205  0.0000E+00  0.0000E+00
    -16.004  0.0000E+00  0.0000E+00
    -15.803  0.0000E+00  0.0000E+00
    -15.602  0.0000E+00  0.0000E+00
    -15.402  0.0000E+00  0.0000E+00
    -15.201  0.0000E+00  0.0000E+00
    -15.000  0.0000E+00  0.0000E+00
    -14.799  0.0000E+00  0.0000E+00
    -14.598  0.0000E+00  0.0000E+00
    -14.398  0.0000E+00  0.0000E+00
    -14.197  0.0000E+00  0.0000E+00
    -13.996  0.0000E+00  0.0000E+00
    -13.795  0.4689E-04  0.9415E-05
    -13.594  0.3052E+00  0.6128E-01
    -13.394  0.1377E-01  0.6405E-01
    -13.193  0.9256E+00  0.2499E+00
    -12.992  0.7624E+00  0.4030E+00
    -12.791  0.9077E+00  0.5853E+00
    -12.591  0.2732E+01  0.1134E+01
    -12.390  0.3147E+01  0.1766E+01
    -12.189  0.1167E+01  0.2000E+01
    -11.988  0.1959E-07  0.2000E+01
    -11.787  0.0000E+00  0.2000E+01
    -11.587  0.0000E+00  0.2000E+01
    -11.386  0.0000E+00  0.2000E+01
    -11.185  0.0000E+00  0.2000E+01
    -10.984  0.0000E+00  0.2000E+01
    -10.783  0.0000E+00  0.2000E+01
    -10.583  0.0000E+00  0.2000E+01
    -10.382  0.0000E+00  0.2000E+01
    -10.181  0.0000E+00  0.2000E+01
     -9.980  0.0000E+00  0.2000E+01
     -9.779  0.0000E+00  0.2000E+01
     -9.579  0.0000E+00  0.2000E+01
     -9.378  0.0000E+00  0.2000E+01
     -9.177  0.0000E+00  0.2000E+01
     -8.976  0.0000E+00  0.2000E+01
     -8.775  0.0000E+00  0.2000E+01
     -8.575  0.0000E+00  0.2000E+01
     -8.374  0.0000E+00  0.2000E+01
     -8.173  0.0000E+00  0.2000E+01
     -7.972  0.0000E+00  0.2000E+01
     -7.771  0.0000E+00  0.2000E+01
     -7.571  0.0000E+00  0.2000E+01
     -7.370  0.0000E+00  0.2000E+01
     -7.169  0.0000E+00  0.2000E+01
     -6.968  0.0000E+00  0.2000E+01
     -6.767  0.0000E+00  0.2000E+01
     -6.567  0.0000E+00  0.2000E+01
     -6.366  0.0000E+00  0.2000E+01
     -6.165  0.0000E+00  0.2000E+01
     -5.964  0.0000E+00  0.2000E+01
     -5.763  0.0000E+00  0.2000E+01
     -5.563  0.0000E+00  0.2000E+01
     -5.362  0.0000E+00  0.2000E+01
     -5.161  0.0000E+00  0.2000E+01
     -4.960  0.0000E+00  0.2000E+01
     -4.759  0.0000E+00  0.2000E+01
     -4.559  0.0000E+00  0.2000E+01
     -4.358  0.0000E+00  0.2000E+01
     -4.157  0.0000E+00  0.2000E+01
     -3.956  0.0000E+00  0.2000E+01
     -3.755  0.0000E+00  0.2000E+01
     -3.555  0.0000E+00  0.2000E+01
     -3.354  0.0000E+00  0.2000E+01
     -3.153  0.0000E+00  0.2000E+01
     -2.952  0.0000E+00  0.2000E+01
     -2.751  0.0000E+00  0.2000E+01
     -2.551  0.0000E+00  0.2000E+01
     -2.350  0.0000E+00  0.2000E+01
     -2.149  0.0000E+00  0.2000E+01
     -1.948  0.0000E+00  0.2000E+01
     -1.747  0.0000E+00  0.2000E+01
     -1.547  0.0000E+00  0.2000E+01
     -1.346  0.0000E+00  0.2000E+01
     -1.145  0.1814E-14  0.2000E+01
     -0.944  0.1363E-01  0.2003E+01
     -0.743  0.9199E+00  0.2187E+01
     -0.543  0.2892E+00  0.2246E+01
     -0.342  0.9581E+00  0.2438E+01
     -0.141  0.2800E+01  0.3000E+01
      0.060  0.2174E+01  0.3437E+01
      0.261  0.1044E+01  0.3646E+01
      0.461  0.5170E+00  0.3750E+01
      0.662  0.1376E-07  0.3750E+01
      0.863  0.5869E-02  0.3751E+01
      1.064  0.2311E+01  0.4215E+01
      1.265  0.1418E+01  0.4500E+01
      1.465  0.3495E-03  0.4500E+01
      1.666  0.3849E+00  0.4577E+01
      1.867  0.2416E+01  0.5062E+01
      2.068  0.1411E+01  0.5346E+01
      2.269  0.2628E+01  0.5873E+01
      2.469  0.2540E+01  0.6383E+01
      2.670  0.3760E+01  0.7138E+01
      2.871  0.9911E+00  0.7338E+01
      3.072  0.2660E+01  0.7872E+01
      3.273  0.2431E+00  0.7921E+01
      3.473  0.3958E+00  0.8000E+01
      3.674  0.3020E-07  0.8000E+01
      3.875  0.0000E+00  0.8000E+01
      4.076  0.0000E+00  0.8000E+01
      4.277  0.0000E+00  0.8000E+01
      4.477  0.0000E+00  0.8000E+01
      4.678  0.0000E+00  0.8000E+01
      4.879  0.0000E+00  0.8000E+01
      5.080  0.0000E+00  0.8000E+01
      5.281  0.0000E+00  0.8000E+01
      5.481  0.0000E+00  0.8000E+01
      5.682  0.0000E+00  0.8000E+01
      5.883  0.0000E+00  0.8000E+01
      6.084  0.0000E+00  0.8000E+01
      6.285  0.0000E+00  0.8000E+01
      6.485  0.0000E+00  0.8000E+01
      6.686  0.0000E+00  0.8000E+01
      6.887  0.0000E+00  0.8000E+01
      7.088  0.0000E+00  0.8000E+01
      7.289  0.0000E+00  0.8000E+01
      7.489  0.0000E+00  0.8000E+01
      7.690  0.0000E+00  0.8000E+01
      7.891  0.0000E+00  0.8000E+01
      8.092  0.0000E+00  0.8000E+01
      8.293  0.0000E+00  0.8000E+01
      8.493  0.6887E-07  0.8000E+01
      8.694  0.2290E+00  0.8046E+01
      8.895  0.8230E-01  0.8062E+01
      9.096  0.0000E+00  0.8062E+01
      9.297  0.0000E+00  0.8062E+01
      9.497  0.0000E+00  0.8062E+01
      9.698  0.0000E+00  0.8062E+01
      9.899  0.0000E+00  0.8062E+01
     10.100  0.4552E-06  0.8063E+01
     10.301  0.7313E+00  0.8209E+01
     10.501  0.2025E+00  0.8250E+01
     10.702  0.4879E-09  0.8250E+01
     10.903  0.1255E+00  0.8275E+01
     11.104  0.6039E+00  0.8396E+01
     11.305  0.5156E+00  0.8500E+01
     11.505  0.1560E-07  0.8500E+01
     11.706  0.3992E+00  0.8580E+01
     11.907  0.5346E+00  0.8687E+01
     12.108  0.2082E-02  0.8688E+01
     12.309  0.9296E+00  0.8875E+01
     12.509  0.4661E-01  0.8884E+01
     12.710  0.1823E+01  0.9250E+01
     12.911  0.8874E+00  0.9428E+01
     13.112  0.8676E+00  0.9602E+01
     13.313  0.1127E+00  0.9625E+01
     13.513  0.7225E+00  0.9770E+01
     13.714  0.3729E+00  0.9845E+01
     13.915  0.2199E+01  0.1029E+02
     14.116  0.4404E+00  0.1037E+02
     14.317  0.0000E+00  0.1038E+02
     14.517  0.2648E-12  0.1038E+02
     14.718  0.1111E+00  0.1040E+02
     14.919  0.3623E+01  0.1112E+02
     15.120  0.1412E-02  0.1113E+02
     15.321  0.1819E+01  0.1149E+02
     15.521  0.2093E+01  0.1191E+02
     15.722  0.2002E+01  0.1231E+02
     15.923  0.1546E-02  0.1231E+02
     16.124  0.1340E+01  0.1258E+02
     16.325  0.5261E+00  0.1269E+02
     16.525  0.1515E-07  0.1269E+02
     16.726  0.1719E-08  0.1269E+02
     16.927  0.6911E+00  0.1283E+02
     17.128  0.1296E+01  0.1309E+02
     17.329  0.1031E+01  0.1329E+02
     17.529  0.9519E-01  0.1331E+02
     17.730  0.1058E-06  0.1331E+02
     17.931  0.6468E+00  0.1344E+02
     18.132  0.2870E+00  0.1350E+02
     18.333  0.1037E-15  0.1350E+02
     18.533  0.5091E-02  0.1350E+02
     18.734  0.9279E+00  0.1369E+02
     18.935  0.8060E-03  0.1369E+02
     19.136  0.1048E-06  0.1369E+02
     19.336  0.4554E+00  0.1378E+02
     19.537  0.2321E+01  0.1424E+02
     19.738  0.1870E+01  0.1462E+02
     19.939  0.1077E+01  0.1484E+02
     20.140  0.1446E+01  0.1513E+02
     20.340  0.1474E+01  0.1542E+02
     20.541  0.1005E+01  0.1562E+02
     20.742  0.7425E-01  0.1564E+02
     20.943  0.8610E+00  0.1581E+02
     21.144  0.9134E+00  0.1600E+02
     21.344  0.9510E+00  0.1619E+02
     21.545  0.1705E+01  0.1653E+02
     21.746  0.1658E+00  0.1656E+02
     21.947  0.7905E-06  0.1656E+02
     22.148  0.7600E+00  0.1672E+02
     22.348  0.1738E+00  0.1675E+02
     22.549  0.8614E+00  0.1692E+02
     22.750  0.1804E+01  0.1729E+02
     22.951  0.3101E+00  0.1735E+02
     23.152  0.1693E+01  0.1769E+02
     23.352  0.1234E-04  0.1769E+02
     23.553  0.4560E+00  0.1778E+02
     23.754  0.1039E+01  0.1799E+02
     23.955  0.6120E-01  0.1800E+02
     24.156  0.3079E+00  0.1806E+02
     24.356  0.6742E+00  0.1820E+02
     24.557  0.8845E+00  0.1837E+02
     24.758  0.1142E-02  0.1838E+02
     24.959  0.1154E+01  0.1861E+02
     25.160  0.9110E-01  0.1863E+02
     25.360  0.9645E+00  0.1882E+02
     25.561  0.1496E+01  0.1912E+02
     25.762  0.3406E+00  0.1919E+02
     25.963  0.5292E+00  0.1929E+02
     26.164  0.1338E+01  0.1956E+02
     26.364  0.9052E-01  0.1958E+02
     26.565  0.2710E+01  0.2012E+02
     26.766  0.1680E-02  0.2013E+02
     26.967  0.9288E+00  0.2031E+02
     27.168  0.9273E+00  0.2050E+02
     27.368  0.3213E+00  0.2056E+02
     27.569  0.4205E-03  0.2056E+02
     27.770  0.0000E+00  0.2056E+02
     27.971  0.0000E+00  0.2056E+02
     28.172  0.0000E+00  0.2056E+02
     28.372  0.0000E+00  0.2056E+02
     28.573  0.2115E-03  0.2056E+02
     28.774  0.6241E+00  0.2069E+02
     28.975  0.2779E+01  0.2125E+02
     29.176  0.9508E+00  0.2144E+02
     29.376  0.2453E+00  0.2149E+02
     29.577  0.6916E+00  0.2162E+02
     29.778  0.4093E-06  0.2163E+02
     29.979  0.1701E+01  0.2197E+02
     30.180  0.1867E+01  0.2234E+02
     30.380  0.1343E+01  0.2261E+02
     30.581  0.6908E+00  0.2275E+02
     30.782  0.2195E-06  0.2275E+02
     30.983  0.2926E+00  0.2281E+02
     31.184  0.1574E+01  0.2312E+02
     31.384  0.2886E+00  0.2318E+02
     31.585  0.1745E+01  0.2353E+02
     31.786  0.2637E+01  0.2406E+02
     31.987  0.1014E+01  0.2427E+02
     32.188  0.1264E+01  0.2452E+02
     32.388  0.4351E+01  0.2539E+02
     32.589  0.2551E+00  0.2544E+02
     32.790  0.2765E+01  0.2600E+02
     32.991  0.9301E+00  0.2619E+02
     33.192  0.4005E+00  0.2627E+02
     33.392  0.2093E+01  0.2669E+02
     33.593  0.2397E-04  0.2669E+02
     33.794  0.0000E+00  0.2669E+02
     33.995  0.0000E+00  0.2669E+02
     34.196  0.0000E+00  0.2669E+02
     34.396  0.0000E+00  0.2669E+02
     34.597  0.4074E-10  0.2669E+02
     34.798  0.2067E+00  0.2673E+02
     34.999  0.2593E+01  0.2725E+02
     35.200  0.1467E-02  0.2725E+02
     35.400  0.7433E+00  0.2740E+02
     35.601  0.2737E+01  0.2795E+02
     35.802  0.6567E+00  0.2808E+02
     36.003  0.5318E+00  0.2819E+02
     36.204  0.1300E-03  0.2819E+02
     36.404  0.1835E+01  0.2856E+02
     36.605  0.9660E+00  0.2875E+02
     36.806  0.9471E-01  0.2877E+02
     37.007  0.5279E+00  0.2887E+02
     37.208  0.8008E+00  0.2904E+02
     37.408  0.1069E+01  0.2925E+02
     37.609  0.9295E+00  0.2944E+02
     37.810  0.6233E+00  0.2956E+02
     38.011  0.1246E+01  0.2981E+02
     38.212  0.8263E+00  0.2998E+02
     38.412  0.1076E+00  0.3000E+02
     38.613  0.5197E-12  0.3000E+02
     38.814  0.1192E+00  0.3002E+02
     39.015  0.3794E+01  0.3079E+02
     39.216  0.1331E+00  0.3081E+02
     39.416  0.0000E+00  0.3081E+02
     39.617  0.0000E+00  0.3081E+02
     39.818  0.5183E-16  0.3081E+02
     40.019  0.3437E-02  0.3081E+02
     40.220  0.9291E+00  0.3100E+02
     40.420  0.1263E-02  0.3100E+02
     40.621  0.3852E-11  0.3100E+02
     40.822  0.4973E-01  0.3101E+02
     41.023  0.1545E+01  0.3132E+02
     41.224  0.3385E+01  0.3200E+02
     41.424  0.2725E-03  0.3200E+02
     41.625  0.0000E+00  0.3200E+02
     41.826  0.0000E+00  0.3200E+02
     42.027  0.0000E+00  0.3200E+02
     42.228  0.0000E+00  0.3200E+02
     42.428  0.0000E+00  0.3200E+02
     42.629  0.0000E+00  0.3200E+02
     42.830  0.0000E+00  0.3200E+02
     43.031  0.0000E+00  0.3200E+02
     43.232  0.0000E+00  0.3200E+02
     43.432  0.0000E+00  0.3200E+02
     43.633  0.0000E+00  0.3200E+02
     43.834  0.0000E+00  0.3200E+02
