# ['Ni']

20 atoms
1 atom types

    0.0000     3.3335 xlo xhi
    0.0000     3.3335 ylo yhi
    0.0000    33.3354 zlo zhi

    0.0000    -0.0000     0.0000 xy xz yz

Atoms

1 1     0.0000     0.0000     0.0000
2 1     1.6668     1.6668     0.0000
3 1     1.6668     0.0000     1.6668
4 1     0.0000     1.6668     1.6668
5 1     0.0000     0.0000     3.3335
6 1     1.6668     1.6668     3.3335
7 1     1.6668     0.0000     5.0003
8 1     0.0000     1.6668     5.0003
9 1     0.0000     0.0000     6.6671
10 1     1.6668     1.6668     6.6671
11 1     1.6668     0.0000     8.3338
12 1     0.0000     1.6668     8.3338
13 1     0.0000     0.0000    10.0006
14 1     1.6668     1.6668    10.0006
15 1     1.6668     0.0000    11.6674
16 1     0.0000     1.6668    11.6674
17 1     0.0000     0.0000    13.3342
18 1     1.6668     1.6668    13.3342
19 1     1.6668     0.0000    15.0009
20 1     0.0000     1.6668    15.0009
