LAMMPS (10 Feb 2015)
# ---- initialize simulations
clear
units metal
dimension 3
boundary p p p
atom_style charge
atom_modify map array
# ---- create atoms
read_data /Users/eugeneragasa/pyflamestk_git/pypospack/tests/tests_integration/workflow/WorkflowLammpsThermalExpansion/param_2856/MgO_NaCl_unit.npt.T500/lammps.structure
  triclinic box = (0 0 0) to (4.2565 4.2565 4.2565) with tilt (0 0 0)
  1 by 1 by 1 MPI processor grid
  reading atoms ...
  8 atoms
# ---- define interatomic potential
include potential.mod
mass 1 24.305
mass 2 15.999

group Mg type 1
4 atoms in group Mg
group O type 2
4 atoms in group O

set group Mg charge 1.71287520642
  4 settings made for charge
set group O charge -1.71287520642
  4 settings made for charge

variable R_cut equal 10.0

pair_style buck/coul/long ${R_cut}
pair_style buck/coul/long 10
pair_coeff 1 1 0.0 0.5 0.0 ${R_cut}
pair_coeff 1 1 0.0 0.5 0.0 10
pair_coeff 1 2 1268.25800143 0.292150986054 0.0 ${R_cut}
pair_coeff 1 2 1268.25800143 0.292150986054 0.0 10
pair_coeff 2 2 34972.2762623 0.190168709461 15.9037418312 ${R_cut}
pair_coeff 2 2 34972.2762623 0.190168709461 15.9037418312 10

kspace_style pppm 1.0e-5

neighbor 1.0 bin
neigh_modify every 1 delay 0 check yes
# ---- define settings
compute eng all pe/atom
compute eatoms all reduce sum c_eng
# ---- run minimization
reset_timestep 0
fix 1 all box/relax iso 0.0 vmax 0.001
thermo 10
thermo_style custom step pe lx ly lz xy xz yz press pxx pyy pzz pxy pxz pyz c_eatoms
min_style cg
minimize 1e-25 1e-25 5000 10000
PPPM initialization ...
  G vector (1/distance) = 0.353245
  grid = 8 8 8
  stencil order = 5
  estimated absolute RMS force accuracy = 4.15075e-05
  estimated relative force accuracy = 2.88254e-06
  using double precision FFTs
  3d grid and FFT values/proc = 3375 512
Neighbor list info ...
  1 neighbor list requests
  update every 1 steps, delay 0 steps, check yes
  master list distance cutoff = 11
Memory usage per processor = 4.06549 Mbytes
Step PotEng Lx Ly Lz Xy Xz Yz Press Pxx Pyy Pzz Pxy Pxz Pyz eatoms 
       0    -118.2398       4.2565       4.2565       4.2565            0            0            0    92099.563    92099.563    92099.563    92099.563 -2.6648665e-10 1.3518399e-10 2.2028947e-10    -118.2398 
      10   -118.33067     4.299065     4.299065     4.299065            0            0            0    34673.493    34673.493    34673.493    34673.493 -1.1760899e-11 -1.3745134e-10 -5.0678772e-11   -118.33067 
      18   -118.34767    4.3277342    4.3277342    4.3277342            0            0            0    -4.391814    -4.391814    -4.391814    -4.391814 -1.1240186e-10 -1.6034703e-10 -8.891662e-11   -118.34767 
Loop time of 0.0119119 on 1 procs for 18 steps with 8 atoms

Minimization stats:
  Stopping criterion = linesearch alpha is zero
  Energy initial, next-to-last, final = 
        -118.239795936     -118.347671294     -118.347671294
  Force two-norm initial, final = 13.2992 0.00175014
  Force max component initial, final = 13.2992 0.000655584
  Final line search alpha, max atom move = 0.00390625 2.56088e-06
  Iterations, force evaluations = 18 35

Pair  time (%) = 0.00320339 (26.8924)
Kspce time (%) = 0.00187373 (15.73)
Neigh time (%) = 0 (0)
Comm  time (%) = 0.000357866 (3.00428)
Outpt time (%) = 1.19209e-05 (0.100076)
Other time (%) = 0.00646496 (54.2732)

Nlocal:    8 ave 8 max 8 min
Histogram: 1 0 0 0 0 0 0 0 0 0
Nghost:    2189 ave 2189 max 2189 min
Histogram: 1 0 0 0 0 0 0 0 0 0
Neighs:    2344 ave 2344 max 2344 min
Histogram: 1 0 0 0 0 0 0 0 0 0

Total # of neighbors = 2344
Ave neighs/atom = 293
Neighbor list builds = 0
Dangerous builds = 0
unfix 1
# ---- define output variables ----
variable natoms equal "count(all)"
variable tot_energy equal "c_eatoms"
variable length_x equal "lx"
variable length_y equal "ly"
variable length_z equal "lz"
variable tilt_xy equal "xy"
variable tilt_xz equal "xz"
variable tilt_yz equal "yz"
variable tot_press equal "press"
variable press_xx equal "pxx"
variable press_yy equal "pyy"
variable press_zz equal "pzz"
variable press_xy equal "pxy"
variable press_xz equal "pxz"
variable press_yz equal "pyz"

# ---- output ----
print "pypospack:output_section:begin"
pypospack:output_section:begin
print "tot_energy = ${tot_energy}"
tot_energy = -118.347671293792
print "num_atoms = ${natoms}"
num_atoms = 8
print "xx = ${length_x}"
xx = 4.32773421076983
print "yy = ${length_y}"
yy = 4.32773421076983
print "zz = ${length_z}"
zz = 4.32773421076983
print "xy = ${tilt_xy}"
xy = 0
print "xz = ${tilt_xz}"
xz = 0
print "yz = ${tilt_yz}"
yz = 0
print "tot_press = ${tot_press}"
tot_press = -4.39181402043263
print "pxx = ${press_xx}"
pxx = -4.39181402021402
print "pyy = ${press_yy}"
pyy = -4.39181402042068
print "pzz = ${press_zz}"
pzz = -4.39181402066319
print "pxy = ${press_xy}"
pxy = -1.12401857084108e-10
print "pxz = ${press_xz}"
pxz = -1.60347032595802e-10
print "pyz = ${press_yz}"
pyz = -8.89166196817966e-11
print "pypospack:output_section:done"
pypospack:output_section:done
print "pypospack:lammps_sim:done"
pypospack:lammps_sim:done
#------------------------------------------------------------------------------
# RUN THERMOSTAT
# running using an NPT Nose-Hoover style thermostat
#------------------------------------------------------------------------------
variable tempdamp equal 0.1
variable pressdamp equal 1.0
# set initial velocities
velocity all create 500 1209997 mom yes dist gaussian loop all
# fix for Nose-Hoover style thermostat
fix 20 all npt temp 500 500 0.1 aniso 0.0 0.0 1.0 drag 1.0 couple xyz
variable boxx equal lx
variable boxy equal ly
variable boxz equal lz
variable boxp equal press
variable boxt equal temp
# calculate averages every 10000 steps
reset_timestep 0
fix 21 all ave/time 10 10 100 v_boxx v_boxy v_boxz v_boxp v_boxt file lattice.out
thermo_style custom step temp pe ke etotal press lx ly lz press pxx pyy pzz pxy pxz pyz vol
thermo_modify flush yes
thermo 100
run 100000
PPPM initialization ...
  G vector (1/distance) = 0.352508
  grid = 8 8 8
  stencil order = 5
  estimated absolute RMS force accuracy = 4.29555e-05
  estimated relative force accuracy = 2.9831e-06
  using double precision FFTs
  3d grid and FFT values/proc = 3375 512
Memory usage per processor = 3.06549 Mbytes
Step Temp PotEng KinEng TotEng Press Lx Ly Lz Press Pxx Pyy Pzz Pxy Pxz Pyz Volume 
       0          500   -118.34768   0.45241051   -117.89527    5955.3091    4.3277342    4.3277342    4.3277342    5955.3091    9218.8259    4303.7953     4343.306    1923.5303    -195.8387   -3176.9292    81.055361 
     100    158.79503   -117.97621   0.14368108   -117.83252   -4851.5041    4.3535882    4.3535882    4.3535882   -4851.5041    7228.7179    -12376.12   -9407.1102   -655.09071    1088.9226    2411.7327    82.516737 
     200    441.84895   -118.11143   0.39979421   -117.71164    1459.3536    4.3379142    4.3379142    4.3379142    1459.3536    10205.734   -7658.6773    1831.0047   -7871.5126   -3402.2132    1653.7494    81.628702 
     300    447.86713   -118.01181   0.40523959   -117.60657   -284.15608    4.3536445    4.3536445    4.3536445   -284.15608    12524.066   -4649.1216    -8727.413    1038.9235    2585.6839    2650.5055    82.519939 
     400    532.51317   -118.00171   0.48182911   -117.51988   -1805.4537    4.3565352    4.3565352    4.3565352   -1805.4537    10873.514   -14918.868   -1371.0069   -899.66113    2163.3741    2471.1497    82.684421 
     500    606.56612   -118.01487   0.54883377   -117.46604    3241.0811    4.3434602    4.3434602    4.3434602    3241.0811    12966.805   -3423.2806    179.71902   -4961.2283   -1490.4444   -4648.5227    81.942185 
     600    417.14198    -117.8184   0.37743883   -117.44096   -6624.0408    4.3676102    4.3676102    4.3676102   -6624.0408    5232.8118   -14919.683   -10185.251   -4440.8444   -4043.9712    494.96704    83.316613 
     700     702.7383    -118.0642   0.63585238   -117.42834     6912.165    4.3461621    4.3461621    4.3461621     6912.165    16507.862    2788.6436     1439.989    1507.2813    -2255.673     736.4661    82.095197 
     800    565.06945   -117.94538   0.51128672    -117.4341   -2079.5039    4.3571279    4.3571279    4.3571279   -2079.5039    13982.808   -13857.617   -6363.7032   -1525.0566    4503.9983    1365.5006    82.718173 
     900    408.62401   -117.80747   0.36973159   -117.43774    1063.7306    4.3575882    4.3575882    4.3575882    1063.7306    4264.9148   -1094.7057    20.982836   -7733.5214   -3991.7118    1404.5893    82.744392 
    1000    783.13925   -118.14587   0.70860085   -117.43726   -7707.8741    4.3498635    4.3498635    4.3498635   -7707.8741    738.44069   -10019.497   -13842.566    3049.9281   -270.79794   -4174.8591    82.305126 
    1100    431.39447   -117.83555   0.39033478   -117.44521    5322.3325    4.3585967    4.3585967    4.3585967    5322.3325    28475.781   -6818.0304   -5690.7534   -2480.9598   -2026.1266    1358.6659    82.801854 
    1200     496.6676   -117.89637   0.44939528   -117.44697    5050.5199    4.3504559    4.3504559    4.3504559    5050.5199    17761.799   -8095.0091    5484.7698   -4244.0409    5645.7068    892.53964    82.338757 
    1300    590.95501   -117.98061   0.53470851    -117.4459   -11663.202     4.358702     4.358702     4.358702   -11663.202    3064.1694   -18908.705   -19145.072   -4370.3141   -5501.1133    1939.7027    82.807857 
    1400    336.05767   -117.75006   0.30407204   -117.44599    15533.403    4.3498133    4.3498133    4.3498133    15533.403    49328.946   -6404.3162    3675.5809    847.08024    9812.9436    2311.0567    82.302278 
    1500    622.15305   -118.01298   0.56293716   -117.45005   -5456.1413    4.3559146    4.3559146    4.3559146   -5456.1413    4578.1552   -8515.9268   -12430.652   -2209.9092   -3716.3354   -2769.9735    82.649091 
    1600    541.20174   -117.93915   0.48969071   -117.44946   -13299.778    4.3592897    4.3592897    4.3592897   -13299.778   -5666.9048   -24550.367   -9682.0616    -3423.549    3586.8435     966.7503    82.841355 
    1700    355.78158   -117.76576   0.32191865   -117.44384    20034.111    4.3432318    4.3432318    4.3432318    20034.111    45634.739    8607.1032    5860.4917   -2042.0826   -2074.2282    1085.5579    81.929257 
    1800    667.05422   -118.04303   0.60356468   -117.43946   -20460.029    4.3674996    4.3674996    4.3674996   -20460.029    5289.9637   -33607.461    -33062.59    2614.7511     3056.322    917.37827    83.310288 
    1900    393.03462   -117.79484   0.35562599   -117.43922    9877.2598    4.3460302    4.3460302    4.3460302    9877.2598    21138.093   -3423.6922    11917.379   -6932.9886    2435.6531    4617.8043    82.087726 
    2000    518.49094   -117.91308    0.4691415   -117.44394   -3234.5705    4.3542004    4.3542004    4.3542004   -3234.5705    28032.002   -18986.316   -18749.398    -2220.792   -3652.9268   -917.93107    82.551552 
    2100     500.8544   -117.89622   0.45318359   -117.44303   -11449.968    4.3641426    4.3641426    4.3641426   -11449.968    3379.5703   -20064.657   -17664.818     3520.654     1086.089   -815.39072     83.11833 
    2200    475.80414   -117.86953   0.43051758   -117.43902    12089.116    4.3394018    4.3394018    4.3394018    12089.116    35588.049   -4524.6405    5203.9382   -9151.5552    132.46954    2620.0314    81.712706 
    2300    411.69852   -117.81637   0.37251347   -117.44386   -8130.5488    4.3663508    4.3663508    4.3663508   -8130.5488    18604.241   -28993.651   -14002.236   -953.82423    1839.2076   -1536.2812    83.244565 
    2400     629.8173   -118.01231   0.56987193   -117.44244    68.512009    4.3483192    4.3483192    4.3483192    68.512009     7734.546   -12044.808    4515.7981     319.1211   -5967.4433     839.3932    82.217496 
    2500    370.03608    -117.7839   0.33481642   -117.44909    7053.3921    4.3540715    4.3540715    4.3540715    7053.3921    47604.809    -8469.087   -17975.545   -948.56562    276.00426    126.24488    82.544223 
    2600    521.41935   -117.91822   0.47179118   -117.44643   -11096.908     4.359924     4.359924     4.359924   -11096.908    2795.0233   -31039.169    -5046.579   -2390.7745    1070.3705    -3759.804     82.87752 
    2700    402.45225   -117.80591   0.36414725   -117.44177    19326.979    4.3418022    4.3418022    4.3418022    19326.979    42326.247     1824.114    13830.577   -1047.0515    831.09589    2280.2401    81.848384 
    2800    600.23715   -117.98224   0.54310719   -117.43913   -25318.648    4.3689828    4.3689828    4.3689828   -25318.648   -12175.287   -26719.307   -37061.349    2892.0619    3400.4446   -1529.5587    83.395193 
    2900    296.08401   -117.70636   0.26790304   -117.43845    16539.985    4.3409297    4.3409297    4.3409297    16539.985    35475.662    114.59409    14029.699   -5885.7037    915.33442   -723.66469    81.799049 
    3000    605.54511   -117.99179   0.54790994   -117.44388   -16091.297    4.3615543    4.3615543    4.3615543   -16091.297   -1268.5684   -20608.658   -26396.665   -4563.2098    -2700.472    3189.8112    82.970529 
    3100    357.38297   -117.76684   0.32336762   -117.44347    3741.6672    4.3558125    4.3558125    4.3558125    3741.6672    26270.129   -7382.2635   -7662.8644    6203.2345   -2469.9202   -3029.9741    82.643279 
    3200    570.14232   -117.95246   0.51587676   -117.43659    6517.5291    4.3414812    4.3414812    4.3414812    6517.5291    17475.424   -7507.8906    9585.0543   -4061.3335   -426.30543    1805.2002    81.830228 
    3300     461.6538   -117.85646   0.41771406   -117.43875   -21989.352     4.372601     4.372601     4.372601   -21989.352    5044.2696   -30510.566   -40501.759   -6776.6003    4343.2081    487.57372    83.602557 
    3400    394.14874   -117.79767   0.35663407   -117.44104    21075.808    4.3337392    4.3337392    4.3337392    21075.808     34552.27     31.43871    28643.716     4057.781   -2780.6662   -2911.3631    81.393237 
    3500    580.74903   -117.97522   0.52547393   -117.44975   -20946.231     4.365422     4.365422     4.365422   -20946.231   -10550.933   -31184.463   -21103.296    4610.9464   -929.04631    4620.0669    83.191452 
    3600    404.79146   -117.81331   0.36626382   -117.44705   -6647.8874    4.3531895    4.3531895    4.3531895   -6647.8874    10224.441   -20921.137   -9246.9659   -13278.928    304.11749   -3274.0736     82.49407 
    3700    526.97506     -117.918   0.47681811   -117.44118    7852.1318    4.3383581    4.3383581    4.3383581    7852.1318    16772.405   -4610.8957    11394.886    5470.5612    383.32338    2517.3852    81.653759 
    3800    451.75688   -117.84542   0.40875912   -117.43667   -23036.625    4.3773427    4.3773427    4.3773427   -23036.625     1847.221   -41599.257   -29357.838    950.98911   -456.73865    -1507.681    83.874831 
    3900    522.03996    -117.9026   0.47235273   -117.43024    25303.598    4.3263178    4.3263178    4.3263178    25303.598    37481.006    6659.8656    31769.922   -5161.9511   -2849.1279   -2239.1047    80.975802 
    4000     466.1317   -117.86443   0.42176576   -117.44267   -13047.521     4.368104     4.368104     4.368104   -13047.521    21433.077   -33700.105   -26875.535   -7482.5608   -1123.9099    2644.7034    83.344879 
    4100    508.14807   -117.89958   0.45978306   -117.43979    -2922.311    4.3547189    4.3547189    4.3547189    -2922.311    24873.682   -24686.697   -8953.9172    4486.7024   -3781.2591    -2493.441    82.581049 
    4200    381.38029    -117.7804    0.3450809   -117.43532    29923.376    4.3318813    4.3318813    4.3318813    29923.376    50689.054    4007.5268    35073.546    8777.7594   -736.50064   -479.95313    81.288599 
    4300    680.37423   -118.04869    0.6156169   -117.43308   -35936.224    4.3764435    4.3764435    4.3764435   -35936.224   -21600.772   -45043.703   -41164.197   -7899.4074     3639.986    -1480.885    83.823149 
    4400    306.78444   -117.71404   0.27758501   -117.43645    19464.824     4.334402     4.334402     4.334402    19464.824    37291.987   -947.75019    22050.235    4929.1395    2557.8318   -2023.4597    81.430589 
    4500    484.31327   -117.88448   0.43821683   -117.44626   -10301.867     4.360495     4.360495     4.360495   -10301.867     5995.865   -29310.847   -7590.6176    7504.7235    114.12159    1092.6165    82.910091 
    4600    534.50582   -117.92493    0.4836321    -117.4413   -3750.8771    4.3561921    4.3561921    4.3561921   -3750.8771    1535.1785   -13207.506    419.69591   -7495.2137   -1008.3541    2237.5962    82.664884 
    4700    428.71083   -117.82287   0.38790656   -117.43496    7130.8991    4.3409143    4.3409143    4.3409143    7130.8991    11222.345   -9181.7866    19352.139    3518.2167   -856.10116   -65.966184    81.798177 
    4800    443.20876   -117.83835    0.4010246   -117.43733   -14576.703    4.3655655    4.3655655    4.3655655   -14576.703    11501.677   -35610.081   -19621.704    10195.661    4528.9148   -192.50738    83.199654 
    4900    598.02741    -117.9783   0.54110777   -117.43719    13576.839    4.3412204    4.3412204    4.3412204    13576.839    15419.171   -5667.3726    30978.719    1470.1594   -4696.1988   -3111.9967    81.815486 
    5000     414.5982   -117.81879   0.37513716   -117.44365    4074.2482    4.3570999    4.3570999    4.3570999    4074.2482    38632.118   -5995.0488   -20414.325   -6505.1328    7127.8323   -1021.7046    82.716576 
    5100    553.22408   -117.94358   0.50056878   -117.44301   -12750.271    4.3544618    4.3544618    4.3544618   -12750.271   -13459.587   -28046.397    3255.1709     8551.075   -2714.4479    2478.6148    82.566422 
    5200     397.1574    -117.8015   0.35935636   -117.44215    16430.485    4.3412771    4.3412771    4.3412771    16430.485    33241.174    5524.8856    10525.394    8484.4603    6627.6441   -2785.6017    81.818691 
    5300    619.51717    -117.9984   0.56055216   -117.43785   -14835.496    4.3667925    4.3667925    4.3667925   -14835.496    -17232.52   -26355.301   -918.66674   -4040.5254    263.98028    2622.2089    83.269828 
    5400      500.473   -117.89024   0.45283848    -117.4374    5073.0066    4.3407879    4.3407879    4.3407879    5073.0066    11014.001   -4478.2395    8683.2587    1164.4043   -9418.1089   -1010.2048    81.791033 
    5500    408.42051   -117.81332   0.36954746   -117.44378   -1252.9744    4.3534165    4.3534165    4.3534165   -1252.9744     2700.653   -16698.425    10238.849    12679.957    8684.2961    1369.2853    82.506976 
    5600    552.88673   -117.93796   0.50026353   -117.43769   -4976.0442    4.3631894    4.3631894    4.3631894   -4976.0442   -57.459937   -20825.407    5954.7347     1499.836    -5649.294    810.37249    83.063879 
    5700    686.53704   -118.05254   0.62119314   -117.43134    12853.451    4.3349238    4.3349238    4.3349238    12853.451    28178.986    2707.4863    7673.8817   -4463.1929    6251.9294   -2467.8966        81.46 
    5800    264.58714   -117.68118     0.239404   -117.44178   -119.60781    4.3648975    4.3648975    4.3648975   -119.60781    18114.291   -25001.556    6528.4411    10668.644   -4803.4741    1199.0079    83.161469 
    5900    714.22604   -118.08905   0.64624673    -117.4428    -7745.862    4.3481912    4.3481912    4.3481912    -7745.862   -3028.1642   -18151.838   -2057.5834    6888.2796    2680.5407   -2063.8647    82.210235 
    6000    529.25232   -117.92434   0.47887862   -117.44547    19026.477    4.3407056    4.3407056    4.3407056    19026.477    32570.148    3229.6435    21279.639   -2731.0219   -4269.5394     2161.766    81.786382 
    6100    457.14554   -117.85663   0.41363489   -117.44299   -19144.775     4.371921     4.371921     4.371921   -19144.775   -13249.059   -33824.295    -10360.97    6980.1295   -1460.9911   -1695.7316    83.563556 
    6200    454.69135    -117.8473   0.41141429   -117.43588    11963.587    4.3336259    4.3336259    4.3336259    11963.587     11757.36   -718.48404    24851.885    9769.3593   -469.32528   -436.47882    81.386855 
    6300    550.16603    -117.9355   0.49780179    -117.4377   -4334.3726    4.3576748    4.3576748    4.3576748   -4334.3726   -7167.1254   -15311.706    9475.7133    583.93412   -2479.2098    1773.3704    82.749323 
    6400    576.30638   -117.95937   0.52145412   -117.43792   -10328.433    4.3578411    4.3578411    4.3578411   -10328.433     -10864.9   -16368.446    -3751.952   -967.67815    6901.0993   -2183.1299    82.758799 
    6500    441.59735   -117.83883   0.39956657   -117.43926    9245.9879    4.3349059    4.3349059    4.3349059    9245.9879    8328.5981   -6705.6615    26115.027     13365.54   -7615.4636    1358.2495    81.458989 
    6600    433.22954    -117.8334    0.3919952    -117.4414   -7497.8334    4.3667319    4.3667319    4.3667319   -7497.8334    9906.8006    -29000.82   -3399.4809   -576.32752     3905.064    -3179.814    83.266363 
    6700    709.69846   -118.07983   0.64215008   -117.43768     4463.639    4.3436065    4.3436065    4.3436065     4463.639    11060.574   -5904.5337    8234.8772   -3598.6042   -2603.6206    766.35844    81.950464 
    6800    294.92044   -117.71033   0.26685022   -117.44348    17705.517    4.3451956    4.3451956    4.3451956    17705.517    41493.672   -6564.2819    18187.161    8642.1835    8044.8754    1775.3007    82.040443 
    6900    516.76933   -117.90982   0.46758375   -117.44223   -20569.006    4.3639416    4.3639416    4.3639416   -20569.006    -20105.98   -35296.172   -6304.8668    10044.011   -5016.2022    138.33272    83.106844 
    7000    613.71657    -117.9915   0.55530365    -117.4362    10408.948    4.3353381    4.3353381    4.3353381    10408.948    11242.462    5328.5578    14655.825   -2484.5915     2275.431    384.86366    81.483358 
    7100    425.52558   -117.82456   0.38502449   -117.43954   -7475.4165    4.3638681    4.3638681    4.3638681   -7475.4165    2431.5055   -25061.854    204.09916    2605.5547    6567.4013   -3025.1017    83.102647 
    7200    458.76349   -117.85219   0.41509884   -117.43709   -4473.9546    4.3477876    4.3477876    4.3477876   -4473.9546   -1428.1636   -19863.455    7869.7551    15489.458   -3419.0289    469.65404    82.187345 
    7300    505.70291   -117.89452   0.45757062   -117.43695    4954.4829    4.3433779    4.3433779    4.3433779    4954.4829    1324.0876   -6167.0327    19706.394   -3445.2666    5574.4713   -337.97607    81.937529 
    7400    507.47238   -117.89506   0.45917168   -117.43589   -10852.638    4.3667428    4.3667428    4.3667428   -10852.638   -487.34469   -22789.388   -9281.1807    1427.4141   -9000.8063    798.62868    83.266984 
    7500    549.91762   -117.93472   0.49757702   -117.43714    7385.3881    4.3340634    4.3340634    4.3340634    7385.3881    11626.789   -9044.6558    19574.031    13075.628    6776.8352   -146.31612    81.411507 
    7600      404.841   -117.81131   0.36630864   -117.44501    1160.3784    4.3561473    4.3561473    4.3561473    1160.3784    12637.548   -13815.621    4659.2087    2223.2325   -5601.4457   -1071.0563    82.662337 
    7700    570.86405   -117.95496   0.51652979   -117.43843   -2069.5281    4.3576975    4.3576975    4.3576975   -2069.5281    13275.849    -11604.45   -7879.9833   -4041.2821   -3737.0135    256.48664    82.750616 
    7800    537.72983   -117.92127   0.48654925   -117.43472    12308.726    4.3362357    4.3362357    4.3362357    12308.726    31472.728   -1556.5861    7010.0371     5098.504    4434.5883   -1409.4303    81.533981 
    7900    338.85958   -117.74621   0.30660727    -117.4396    -9922.117    4.3648433    4.3648433    4.3648433    -9922.117   -10488.393   -26933.881    7655.9234    11298.615   -5976.4925    1143.9041    83.158373 
    8000    650.27096   -118.02232   0.58837883   -117.43394   -2864.1274    4.3451563    4.3451563    4.3451563   -2864.1274   -6382.7666   -5330.8493    3121.2336   -3397.0951     5482.176   -430.99791    82.038218 
    8100    451.11883   -117.84442    0.4081818   -117.43623     7125.083    4.3449903    4.3449903    4.3449903     7125.083    16876.165    3349.2203    1149.8642   -3702.6662   -8784.5351    925.98892    82.028813 
    8200    492.83609    -117.8836   0.44592845   -117.43767   -7729.4807    4.3561757    4.3561757    4.3561757   -7729.4807   -16460.729   -19934.309    13206.596    9656.8277    2480.5276   -555.16558    82.663951 
    8300    441.55894   -117.83736   0.39953181   -117.43783   -607.74181    4.3527075    4.3527075    4.3527075   -607.74181    24296.879   -18461.652   -7658.4521   -465.72168    576.96798    396.05148     82.46667 
    8400    596.53616   -117.97713   0.53975845   -117.43737    5267.3047    4.3443023    4.3443023    4.3443023    5267.3047    7961.6709   -1615.9896    9456.2328   -3820.9674   -8900.0369    2682.0443    81.989854 
    8500    405.70066   -117.80738   0.36708648   -117.44029    8520.2099    4.3531064    4.3531064    4.3531064    8520.2099    32459.486   -7606.7087    707.85256    5990.4711    11999.591    1012.0886    82.489344 
    8600    527.54386   -117.91651   0.47733277   -117.43918    -10672.62    4.3548834    4.3548834    4.3548834    -10672.62   -2504.0944   -25585.926   -3927.8399    4239.0341   -4512.7662    1801.4962    82.590407 
    8700    528.54368   -117.91434   0.47823743    -117.4361    11384.594    4.3392092    4.3392092    4.3392092    11384.594    25336.197   -1082.4101    9899.9969   -4151.9856    3679.4826   -1470.5605    81.701824 
    8800    434.66669   -117.83097   0.39329555   -117.43767   -1152.6125    4.3612727    4.3612727    4.3612727   -1152.6125    23212.421   -16176.632   -10493.627   -1868.7812    3602.4977   -920.39642    82.954459 
    8900    628.53862   -118.00357   0.56871495   -117.43485     -3266.67    4.3452374    4.3452374    4.3452374     -3266.67    2652.8824   -6530.8182    -5922.074    8132.8042   -3551.2794   -670.29426    82.042808 
    9000    370.86111   -117.77372   0.33556292   -117.43815    7982.4147    4.3473725    4.3473725    4.3473725    7982.4147    18432.338   -7945.3685    13460.274    1137.7771    11354.471    478.84554     82.16381 
    9100    611.21189   -117.98794   0.55303736    -117.4349   -16171.862    4.3583385    4.3583385    4.3583385   -16171.862   -15616.878   -25600.491   -7298.2162   -10076.446   -5573.0013   -55.436088     82.78714 
    9200    479.59407   -117.86844    0.4339468    -117.4345    3620.8145    4.3424297    4.3424297    4.3424297    3620.8145    9171.3441    5434.8264   -3743.7272    5549.0513    10590.638    130.99097    81.883874 
    9300    442.50043   -117.83772   0.40038369   -117.43734   -4425.5783     4.353425     4.353425     4.353425   -4425.5783   -11184.924   -10391.827     8300.016    3370.9891    6190.8566   -457.81282    82.507459 
    9400    634.94258   -118.00987   0.57450939   -117.43536   -9337.4339       4.3505       4.3505       4.3505   -9337.4339   -4436.2254   -22686.641   -889.43488   -7609.0365   -6391.4684   -520.78008     82.34126 
    9500    370.22047   -117.77434   0.33498327   -117.43935    3541.1909    4.3495187    4.3495187    4.3495187    3541.1909    10843.125   -2760.0222    2540.4698    287.30107    12793.144    403.15112    82.285558 
    9600    609.50941    -117.9903   0.55149692    -117.4388   -5030.4493    4.3508797    4.3508797    4.3508797   -5030.4493   -1574.6983    -11047.99   -2468.6597    5123.9519    -6050.247    -929.4721    82.362825 
    9700    473.67753   -117.86777   0.42859338   -117.43917    2376.4511    4.3531612    4.3531612    4.3531612    2376.4511    13284.781   -12577.685    6422.2575   -2817.7686    6688.1709   -998.70383     82.49246 
    9800    551.97351   -117.93759   0.49943723   -117.43815    3482.7134     4.344788     4.344788     4.344788    3482.7134    3559.5171   -5337.2545    12225.878   -7422.3486   -1513.5562   -1172.9579    82.017357 
    9900    576.27596   -117.96042    0.5214266     -117.439   -1415.5458    4.3514768    4.3514768    4.3514768   -1415.5458    20753.599   -12372.348   -12627.889    3919.3172    2895.7194    1081.2596    82.396736 
   10000    544.27328   -117.93011    0.4924699   -117.43764   -535.46181      4.35357      4.35357      4.35357   -535.46181    6300.6142    -16691.44    8784.4407    5102.2881    4870.9686    2481.4029    82.515702 
   10100    485.74335   -117.87706   0.43951079   -117.43755    11876.573    4.3418218    4.3418218    4.3418218    11876.573    15689.942    883.74506    19056.032   -9878.3702   -9125.9601    300.43285    81.849494 
   10200    575.40682   -117.95833   0.52064019   -117.43769   -8499.0365    4.3563298    4.3563298    4.3563298   -8499.0365    11172.887   -23543.812   -13126.184   -5055.4809    8769.0706    669.44402    82.672726 
   10300    550.27458    -117.9348   0.49790001    -117.4369   -3578.3962    4.3492899    4.3492899    4.3492899   -3578.3962   -8215.4067   -7221.2976    4701.5158    4158.8268   -10356.069   -2242.6229    82.272573 
   10400    428.26741   -117.82632   0.38750535   -117.43881    6205.3615    4.3450667    4.3450667    4.3450667    6205.3615    15934.446   -8596.0728    11277.712   -9198.4023   -1196.3524    1285.2307    82.033141 
   10500    636.09837   -118.01166   0.57555518    -117.4361   -17281.675    4.3568047    4.3568047    4.3568047   -17281.675   -14396.193   -24857.764   -12591.069   -6477.0509    476.78234    936.96239    82.699765 
   10600    442.95636   -117.83863   0.40079623   -117.43784    9768.6619    4.3422322    4.3422322    4.3422322    9768.6619    19987.434    1758.9405    7559.6113      3291.91   -8256.5801    1525.5548    81.872704 
   10700    649.91619   -118.02882   0.58805783   -117.44076    -14526.05    4.3553258    4.3553258    4.3553258    -14526.05   -4594.7581    -23302.76   -15680.632   -4068.2132    6995.6936    408.09354    82.615575 
   10800    390.51641    -117.7949   0.35334746   -117.44156   -483.86118    4.3509161    4.3509161    4.3509161   -483.86118    10557.426    -19498.73    7489.7206   -13897.965   -9264.8683   -2445.9217     82.36489 
   10900    553.14357   -117.93731   0.50049593   -117.43681    8635.0086    4.3397681    4.3397681    4.3397681    8635.0086    12974.727    3624.7164    9305.5819    -2941.096   -271.88924    638.31055    81.733399 
   11000    641.92659    -118.0174   0.58082867   -117.43657   -16576.852    4.3634006    4.3634006    4.3634006   -16576.852    7043.8593   -26959.342   -29815.074    4134.9322    1797.2248    14.767408    83.075941 
   11100    385.88818   -117.78627   0.34915973   -117.43711     13975.84    4.3396932    4.3396932    4.3396932     13975.84    26824.867   -5352.9812    20455.633   -12377.602   -7505.6998    611.72289     81.72917 
   11200     552.9574   -117.93854   0.50032747   -117.43821   -5184.7146    4.3503937    4.3503937    4.3503937   -5184.7146   -3497.0565   -15540.225    3483.1382   -12061.202    3686.0693   -531.64918    82.335225 
   11300    548.47028   -117.93303   0.49626744   -117.43676   -428.02269    4.3552277    4.3552277    4.3552277   -428.02269    26697.867   -9337.9962   -18643.939    3732.9296   -4946.4637   -3373.6818    82.609994 
   11400    490.73361   -117.87964   0.44402609   -117.43561    5404.2285    4.3441619    4.3441619    4.3441619    5404.2285    7970.2932   -8595.6948    16838.087   -4568.7251    6288.0736    2270.5883    81.981908 
   11500    436.01378   -117.83166   0.39451443   -117.43714   -5854.4858      4.35205      4.35205      4.35205   -5854.4858    2367.4151    -21118.98    1188.1075   -8973.9047    1007.3458   -1087.2204    82.429304 
   11600    529.58285   -117.91457   0.47917769    -117.4354    1338.4581    4.3507981    4.3507981    4.3507981    1338.4581    10633.894   -7705.3202    1086.8005    155.70612   -3262.9326    1640.0055    82.358189 
   11700    547.06178   -117.93111   0.49499299   -117.43612   -4083.9303    4.3511094    4.3511094    4.3511094   -4083.9303   -2444.0444   -9506.1065   -301.64003   -3270.9873    8004.6631    1193.2348    82.375872 
   11800    467.65446   -117.86167   0.42314358   -117.43853    2346.9716    4.3421027    4.3421027    4.3421027    2346.9716     11090.67   -7341.4132    3291.6579    -9160.219   -4655.3518   -1837.0109    81.865379 
   11900    376.42776   -117.78062   0.34059975   -117.44002   -6253.8813     4.362509     4.362509     4.362509   -6253.8813   -6719.9702   -24414.275    12372.601   -4366.5022    2416.8666   -1642.6418    83.025022 
   12000    710.36086    -118.0798   0.64274944   -117.43705     1314.118    4.3407389    4.3407389    4.3407389     1314.118    15626.281   -3679.2597   -8004.6674    6044.5169      -2055.3    133.32179    81.788266 
   12100    380.21622    -117.7873   0.34402763   -117.44327    16650.817    4.3440279    4.3440279    4.3440279    16650.817    31000.218   -362.19069    19314.425   -9129.6478    2994.9537     3384.844    81.974321 
   12200    417.20151    -117.8162   0.37749269    -117.4387   -15933.346    4.3667402    4.3667402    4.3667402   -15933.346   -8395.6127   -36143.614   -3260.8123   -11369.204     1641.748   -1500.3501    83.266837 
   12300    598.58059   -117.97074   0.54160829   -117.42913    18698.562    4.3289057    4.3289057    4.3289057    18698.562    26199.607    8160.1361    21735.943    5807.7322    129.94936   -808.18506      81.1212 
   12400    402.82962   -117.80368   0.36448871   -117.43919     654.6585    4.3595242    4.3595242    4.3595242     654.6585    19247.297   -17388.362    105.04028    -924.3832    6254.1249     1254.031    82.854726 
   12500    451.83644   -117.84709    0.4088311   -117.43826   -6301.9291    4.3508399    4.3508399    4.3508399   -6301.9291   -9739.5914   -12364.123    3197.9267   -12358.511   -217.99642    811.99096    82.360565 
   12600     413.5252   -117.81045   0.37416629   -117.43629    12173.411    4.3360607    4.3360607    4.3360607    12173.411    16785.297   -4171.8788    23906.814   -260.10816    1273.6041    613.03165    81.524111 
   12700    547.53146   -117.93225   0.49541797   -117.43683   -13965.391    4.3658162    4.3658162    4.3658162   -13965.391   -7043.4987    -23496.66   -11356.013    5166.1701   -1422.0932   -687.29733    83.213989 
   12800    420.80436    -117.8196   0.38075263   -117.43885    8993.3742     4.337185     4.337185     4.337185    8993.3742    12945.697   -1047.2198    15081.646   -10315.072    835.26615    525.48468    81.587539 
   12900    416.76298   -117.81781    0.3770959   -117.44071   -1292.2615    4.3477471    4.3477471    4.3477471   -1292.2615    1235.4825   -9769.5164    4657.2496   -7251.9079    1484.8053   -3725.7721    82.185051 
   13000    557.11293   -117.94093   0.50408749   -117.43684   -7595.9056    4.3592502    4.3592502    4.3592502   -7595.9056   -3019.7814   -22418.202    2650.2667    5128.4588   -1597.9452    956.28657    82.839104 
   13100    445.46599   -117.83861   0.40306699   -117.43554    16817.191    4.3357881    4.3357881    4.3357881    16817.191    30480.587    10579.289    9391.6975   -3898.0609    9660.7029    1916.0914    81.508735 
   13200    422.15008   -117.82109   0.38197026   -117.43912   -7323.9004    4.3534667    4.3534667    4.3534667   -7323.9004   -634.73184    -23676.58    2339.6101     -9160.07    817.32641    1142.6739    82.509825 
   13300    463.03185   -117.85638   0.41896095   -117.43742   -1192.7071    4.3519216    4.3519216    4.3519216   -1192.7071    2009.2297   -9958.1359    4370.7847    2299.3723    317.05556   -1151.1634    82.422007 
   13400     544.3073   -117.92894   0.49250068   -117.43644    5000.6006    4.3422964    4.3422964    4.3422964    5000.6006    9761.5991   -7945.4988    13185.701    5463.2505   -568.10805   -1596.0349    81.876334 
   13500    389.64666   -117.79261   0.35256049   -117.44005   -4609.4035     4.352185     4.352185     4.352185   -4609.4035    9020.4016    -15631.81   -7216.8017   -8838.7696   -931.37897    3898.9328    82.436973 
   13600    486.16161   -117.87963   0.43988924   -117.43974    -15510.51    4.3502197    4.3502197    4.3502197    -15510.51   -24188.446   -24901.265    2558.1794   -5240.7983    793.29024   -247.08105    82.325348 
   13700    403.24276   -117.80306   0.36486252    -117.4382    6598.3121    4.3437152    4.3437152    4.3437152    6598.3121   -6583.7565   -3458.2517    29836.945    9869.0542   -2905.5399   -287.77501     81.95662 
   13800    582.99434   -117.96529   0.52750553   -117.43779   -11197.382    4.3537346    4.3537346    4.3537346   -11197.382    5562.9882   -22385.064   -16770.069   -7209.2704     1855.459     1197.038    82.525062 
   13900     302.3886   -117.71372   0.27360756   -117.44011    497.18123     4.346208     4.346208     4.346208    497.18123   -17159.195   -11341.312     29992.05   -9944.9114    400.64089    699.88783      82.0978 
   14000    480.67105   -117.87334   0.43492127   -117.43842   -1982.0972    4.3459008    4.3459008    4.3459008   -1982.0972   -11536.165   -12573.504    18163.378     6812.592    3385.5984    2801.1607    82.080393 
   14100    533.83592   -117.92015   0.48302596   -117.43712   -3276.9855    4.3550874    4.3550874    4.3550874   -3276.9855    5333.7571   -16287.296    1122.5828    2366.1743   -6081.4425    1432.4618    82.602012 
   14200    394.41753   -117.79445   0.35687727   -117.43757    10747.893     4.340875     4.340875     4.340875    10747.893    7054.2087    -7445.544    32635.013   -9091.8063   -1577.1681    1108.0293    81.795959 
   14300    464.57473   -117.86026   0.42035697    -117.4399   -5119.1578    4.3507049    4.3507049    4.3507049   -5119.1578    3237.7998   -13766.876   -4828.3975   -1588.0246    1930.0421   -985.21684    82.352894 
   14400    471.31122   -117.86532    0.4264523   -117.43887   -3716.4784    4.3533913    4.3533913    4.3533913   -3716.4784    -6797.522   -16771.576    12419.663    8099.5436    4789.1312   -969.24078    82.505542 
   14500    459.28047   -117.85429   0.41556662   -117.43873    12221.396    4.3371137    4.3371137    4.3371137    12221.396    27015.386    2894.8582    6753.9438   -2352.7486    798.11142    4377.3476    81.583519 
   14600    494.00514   -117.88808   0.44698623   -117.44109   -17874.126    4.3584592    4.3584592    4.3584592   -17874.126   -7761.0458   -31392.078   -14469.255    -7877.065   -2676.0693    5428.3732    82.794019 
   14700    338.18962   -117.74606   0.30600107   -117.44006    1284.3501    4.3460995    4.3460995    4.3460995    1284.3501   -9449.5448   -2419.1794    15721.775    8479.8679    11624.963   -3421.5728    82.091654 
   14800    572.43924   -117.95648   0.51795505   -117.43852   -2726.8563    4.3425274    4.3425274    4.3425274   -2726.8563    1570.8496   -11339.113    1587.6944    3536.1433   -5466.7258    4548.5362      81.8894 
   14900    409.32952   -117.80848   0.37036995   -117.43811   -8631.5341    4.3584227    4.3584227    4.3584227   -8631.5341     2459.694   -20645.696   -7708.6002   -7844.2919    1974.6174    2056.3579     82.79194 
   15000    424.78927   -117.82275   0.38435826    -117.4384     2955.041    4.3395185    4.3395185    4.3395185     2955.041   -3448.5558   -11363.106    23676.785    4663.6446   -1737.3245   -2340.6727      81.7193 
   15100    535.49503   -117.92612   0.48452715   -117.44159    -6312.297     4.349501     4.349501     4.349501    -6312.297    -14496.15   -8894.6178    4453.8768    7277.4378    7849.2069    1850.4282    82.284549 
   15200    389.86532    -117.7938   0.35275833   -117.44104    5718.2446    4.3536951    4.3536951    4.3536951    5718.2446    29737.727   -19927.975    7344.9811   -3965.1713    3039.8026   -3324.8067    82.522814 
   15300    606.00098   -117.98652   0.54832242    -117.4382    3951.1581    4.3404255    4.3404255    4.3404255    3951.1581   -386.13503     -6213.74    18453.349   -2782.2865   -4256.9472    4273.9136    81.770552 
   15400    340.10055   -117.75073   0.30773013     -117.443    1215.2668    4.3550971    4.3550971    4.3550971    1215.2668    13249.095   -20693.778    11090.483    8315.0213    4864.5469   -2796.8873    82.602562 
   15500    491.77461   -117.88627     0.444968    -117.4413    5101.1521    4.3452175    4.3452175    4.3452175    5101.1521    9677.6027   -5556.7414    11182.595    4328.6087   -3372.5131    829.07635    82.041683 
   15600    593.23989   -117.97641   0.53677592   -117.43964     2445.797    4.3442178    4.3442178    4.3442178     2445.797     14591.38   -6668.5344   -585.45507   -5939.8904    5352.9393    2592.1498    81.985072 
   15700    319.20255   -117.72858   0.28882117   -117.43976   -6853.6898    4.3576946    4.3576946    4.3576946   -6853.6898   -6710.0265   -25108.863     11257.82    7001.6296    -2042.042    -3876.322    82.750454 
   15800    571.81146   -117.95399   0.51738702    -117.4366   -7604.5298    4.3400427    4.3400427    4.3400427   -7604.5298   -13121.949   -10576.463    884.82228     10063.91    7884.6202    1621.8007    81.748916 
   15900    411.65325   -117.81183   0.37247251   -117.43936   -722.21634    4.3525505    4.3525505    4.3525505   -722.21634    8092.7726   -8276.0882   -1983.3334   -6323.7965   -2772.1578    1372.5548    82.457745 
   16000    573.00203   -117.95644   0.51846428   -117.43797   -12391.512    4.3500919    4.3500919    4.3500919   -12391.512   -15433.574   -19270.959    -2470.002    1509.5623   -3614.2148     17.18109    82.318094 
   16100    394.62093   -117.79693   0.35706131   -117.43987   -1808.8083    4.3425426    4.3425426    4.3425426   -1808.8083   -6256.9767   -11277.306    12107.858    14467.667    12488.398    618.68397    81.890262 
   16200    479.75009   -117.87362   0.43408796   -117.43953    -5096.481    4.3553594    4.3553594    4.3553594    -5096.481    2847.9217    -20924.45    2787.0852    119.80391   -1915.4015   -1977.7287    82.617491 
   16300    681.47957   -118.05409   0.61661703   -117.43747    395.41376    4.3445911    4.3445911    4.3445911    395.41376     7188.043   -3375.1497    -2626.652   -196.35105   -2517.4689    21.604042    82.006206 
   16400    337.70961    -117.7474   0.30556675   -117.44183    9114.0609     4.347366     4.347366     4.347366    9114.0609    14184.853   -18532.845    31690.175    6437.1926   -45.769911    1835.0029     82.16344 
   16500    583.92762   -117.96924   0.52834998   -117.44089   -7052.8587    4.3527613    4.3527613    4.3527613   -7052.8587   -5194.4562   -19115.227    3151.1076    4745.2641    9537.3199    -4541.079    82.469726 
   16600     601.0506   -117.98302   0.54384322   -117.43918    15310.558    4.3413218    4.3413218    4.3413218    15310.558    33124.909   -2767.4965    15574.262   -1741.1083   -2115.6883    4939.0211    81.821218 
   16700    532.58036   -117.92355   0.48188991   -117.44166    -3397.638    4.3544532    4.3544532    4.3544532    -3397.638   -7748.1107   -19898.022    17453.218    4650.2755   -7402.9505    -577.0058    82.565933 
   16800    442.73639    -117.8422   0.40059719    -117.4416     4726.481    4.3436091    4.3436091    4.3436091     4726.481    7359.3579   -14584.913    21404.998    13013.589    643.49702    5023.5986    81.950611 
   16900     644.9105   -118.02396   0.58352858   -117.44043   -1653.4332    4.3485672    4.3485672    4.3485672   -1653.4332    7596.2173   -11992.855   -563.66246   -2928.1717    6087.8709   -2248.9154    82.231567 
   17000    519.37594   -117.90972   0.46994227   -117.43978   -4683.3917    4.3545695    4.3545695    4.3545695   -4683.3917   -12114.423     -22838.8    20903.048   -551.53006    3177.6453   -373.25089    82.572549 
   17100    437.65581   -117.83778   0.39600018   -117.44178    98.345613    4.3405984    4.3405984    4.3405984    98.345613   -1703.9874   -6391.4816    8390.5058    15515.168   -10272.577    1586.9328    81.780324 
   17200    575.79443   -117.96313    0.5209909   -117.44214   -7202.9553    4.3527818    4.3527818    4.3527818   -7202.9553   -16491.279   -15442.356     10324.77    2651.3799    732.30455    253.50719    82.470894 
   17300    627.59535   -118.00714   0.56786147   -117.43927   -4181.7483    4.3510299    4.3510299    4.3510299   -4181.7483   -7855.4105   -12536.165     7846.331   -1050.8381    2874.7828    2935.0689    82.371356 
   17400    386.90672   -117.79071   0.35008133   -117.44063    1111.7933    4.3413642    4.3413642    4.3413642    1111.7933   -15483.542     -11187.5    30006.421    8985.9252    -6863.874   -411.63915    81.823617 
   17500    612.33738   -117.99665   0.55405573   -117.44259   -12085.105    4.3540437    4.3540437    4.3540437   -12085.105   -14634.845   -20176.635   -1443.8369    6720.5165    1152.7486    1230.7646    82.542638 
   17600    541.20605   -117.93101   0.48969461   -117.44132    7278.5221    4.3501232    4.3501232    4.3501232    7278.5221   -7038.4988   -5911.2111    34785.276   -287.65421    -7038.199    -1531.399    82.319868 
   17700     570.6124   -117.95792   0.51630209   -117.44161    510.32909    4.3381431    4.3381431    4.3381431    510.32909   -2926.9297   -3518.8218    7976.7388    6964.4102    121.85297     1205.836    81.641621 
   17800    394.84735   -117.80128   0.35726618   -117.44401   -7717.2842    4.3583841    4.3583841    4.3583841   -7717.2842   -19722.419   -28040.105    24610.672    13716.353   -2730.1079    95.420167    82.789739 
   17900    588.89482   -117.96972   0.53284441   -117.43688    9448.9415    4.3481766    4.3481766    4.3481766    9448.9415    10795.452   -1769.5617    19320.935   -1718.9702   -6817.4066    640.59286    82.209408 
   18000     694.0117   -118.06325   0.62795637    -117.4353    8657.9518    4.3375176    4.3375176    4.3375176    8657.9518    2322.6005   -3473.8269    27125.082   -2225.9986    6902.5237   -2165.9518    81.606312 
   18100    334.67826   -117.74412   0.30282392    -117.4413   -8826.8264    4.3617464    4.3617464    4.3617464   -8826.8264   -7757.1437   -25832.928    7109.5923    11747.817   -4293.3567   -578.83019    82.981489 
   18200     531.2456   -117.91909   0.48068219   -117.43841    10125.096    4.3425384    4.3425384    4.3425384    10125.096    8169.7191   -12019.732      34225.3    1705.3917    2488.8188    2259.2835    81.890026 
   18300    717.14003   -118.08632   0.64888337   -117.43744     7940.316    4.3430282    4.3430282    4.3430282     7940.316    11488.227   -2700.6048    15033.326   -2630.4633    -7840.464   -2338.7681    81.917737 
   18400    407.31107   -117.80857   0.36854362   -117.44003   -11225.568    4.3587282    4.3587282    4.3587282   -11225.568   -7284.9092   -31118.624    4726.8282    10722.707     -3214.12   -397.50791    82.809349 
   18500    384.76812   -117.78664   0.34814628    -117.4385    -99.53406    4.3409535    4.3409535    4.3409535    -99.53406   -16121.576   -10833.899    26656.873    8316.5295   -2551.6875    1746.6024    81.800395 
   18600    668.70835   -118.04402   0.60506137   -117.43896   -1875.4363     4.347573     4.347573     4.347573   -1875.4363    4810.9508   -15407.585    4970.3252   -4375.0283    2268.8304   -834.50634    82.175179 
   18700    475.90644   -117.87082   0.43061015   -117.44021   -5268.3748    4.3555026    4.3555026    4.3555026   -5268.3748   -11517.031    -21164.72    16876.626     6332.895   -712.42436    1719.7236    82.625642 
   18800    389.52226    -117.7932   0.35244793   -117.44076   -5036.1524     4.342009     4.342009     4.342009   -5036.1524   -17235.761    -12215.62    14342.924    12739.041    -5664.206   -4566.3969    81.860081 
   18900    500.28496   -117.89356   0.45266835   -117.44089   -3548.8031    4.3519842    4.3519842    4.3519842   -3548.8031    -11708.71   -19680.296    20742.597   -1105.2207   -2921.5338    4218.1465    82.425567 
   19000    616.50286   -117.99582   0.55782475   -117.43799   -2280.6946    4.3522264    4.3522264    4.3522264   -2280.6946    6167.1037   -9547.4628   -3461.7246   -873.64122    3526.9776   -1999.3562    82.439329 
   19100    372.50802   -117.77698   0.33705309   -117.43993    10849.448    4.3381878    4.3381878    4.3381878    10849.448   -9051.5945    -3907.605    45507.543     9876.517    912.47752   -979.73453    81.644148 
   19200    492.54574   -117.88822   0.44566573   -117.44256   -14655.088    4.3573011    4.3573011    4.3573011   -14655.088   -13478.532   -21246.811   -9239.9212    3761.3693    -6107.633    1512.4931    82.728038 
   19300    452.93171   -117.84953   0.40982213   -117.43971    12617.022    4.3450689    4.3450689    4.3450689    12617.022    16546.569   -3026.6423     24331.14   -4771.8083    64.602638   -4273.5636    82.033264 
   19400    599.51137   -117.98194   0.54245049   -117.43949    49.937508    4.3442109    4.3442109    4.3442109    49.937508    2056.2247   -12869.201    10962.789    7572.4992    2469.1681    2898.1203     81.98468 
   19500    348.97298   -117.75677   0.31575809   -117.44101   -5195.4007    4.3541373    4.3541373    4.3541373   -5195.4007    4080.4397   -23269.508    3602.8656    7999.6067   -673.89276   -5755.7134    82.547964 
   19600    473.39719   -117.86682   0.42833972   -117.43848   -859.35427    4.3454909    4.3454909    4.3454909   -859.35427   -12937.825   -7434.0018    17793.764   -7337.5389    -10703.41   -2474.9613     82.05717 
   19700    501.50867   -117.89225   0.45377558   -117.43847   -1024.8856    4.3488477    4.3488477    4.3488477   -1024.8856    1340.2125   -13948.863    9533.9935   -940.01048    4137.1024    2300.4943    82.247479 
   19800    436.25637   -117.83475   0.39473393   -117.44002   -3663.4579    4.3485275    4.3485275    4.3485275   -3663.4579   -7229.9367   -22230.975    18470.538    8144.0056     2893.428   -6933.2898    82.229315 
   19900    485.06663    -117.8807   0.43889848    -117.4418   -9353.8807    4.3478264    4.3478264    4.3478264   -9353.8807   -17125.992   -12838.223    1902.5729      408.843   -1103.3706    117.41583    82.189545 
   20000    456.06139   -117.85437   0.41265393   -117.44172   -1309.8999    4.3504344    4.3504344    4.3504344   -1309.8999   -7978.8155   -11993.902    16043.018   -2136.2673   -3762.3695   -429.22579    82.337534 
   20100    486.76027   -117.88057   0.44043092   -117.44014   -3499.4972    4.3502812    4.3502812    4.3502812   -3499.4972    7741.0138   -20291.287    2051.7821    3028.1956    1328.3346   -2814.8395    82.328841 
   20200    405.51648   -117.80855   0.36691983   -117.44163    233.89013     4.344716     4.344716     4.344716    233.89013   -11926.655   -14216.858    26845.183    4795.0096   -3789.4868    2288.8267    82.013277 
   20300    450.11164   -117.84997   0.40727047    -117.4427   -2693.4692    4.3494427    4.3494427    4.3494427   -2693.4692   -5507.4602   -6432.5856    3859.6382   -4926.5138   -6979.5476   -4278.2628    82.281242 
   20400    397.89599   -117.80123   0.36002465    -117.4412    998.23612    4.3518728    4.3518728    4.3518728    998.23612    9151.1324   -13318.918    7162.4939    942.96962    1403.9241    3620.8019    82.419232 
   20500    559.86939   -117.94572   0.50658159   -117.43914   -2760.9812    4.3427255    4.3427255    4.3427255   -2760.9812   -5796.3192   -6933.5041    4446.8798    7923.6225    5114.8924   -402.20504    81.900611 
   20600    360.45164   -117.76693   0.32614422   -117.44079    927.16461    4.3513412    4.3513412    4.3513412    927.16461     2142.848   -9633.4954    10272.141   -4387.2129    1548.9684   -1661.8336    82.389038 
   20700    549.54705   -117.93524   0.49724172     -117.438   -12023.744    4.3542382    4.3542382    4.3542382   -12023.744    -18548.03    -14813.51   -2709.6911   -701.32872   -8704.8375    3322.7331    82.553701 
   20800    236.43469   -117.65275   0.21393108   -117.43881    16547.942    4.3424572    4.3424572    4.3424572    16547.942    14247.208    3597.5247    31799.092    5818.2814    5382.0765   -3044.7953    81.885433 
   20900    649.41633   -118.02574   0.58760554   -117.43814   -12026.701     4.351464     4.351464     4.351464   -12026.701   -12115.511   -17597.915    -6366.676    104.46561    -2623.266    264.62196    82.396008 
   21000    359.46418    -117.7655   0.32525075   -117.44025     650.1191    4.3522346    4.3522346    4.3522346     650.1191   -24827.579   -676.66157    27454.598   -2527.2601    1458.4072   -286.62581    82.439792 
   21100    515.54959   -117.90505    0.4664801   -117.43857   -3361.1335    4.3427058    4.3427058    4.3427058   -3361.1335   -13756.338    1187.0515    2485.8855    972.07656    2648.3274   -2271.9577    81.899493 
   21200    333.52789   -117.74243   0.30178305   -117.44065    7932.9078    4.3501866    4.3501866    4.3501866    7932.9078   -5492.9844   -5812.9515    35104.659    5128.1586   -300.08673   -2385.3307    82.323469 
   21300    615.20435     -117.996   0.55664983   -117.43935    -9096.851    4.3519015    4.3519015    4.3519015    -9096.851   -18284.347   -8388.9816   -617.22465   -2380.2267    2732.6757    -2115.215    82.420863 
   21400    416.32466   -117.81812    0.3766993   -117.44142    2653.0529    4.3419328    4.3419328    4.3419328    2653.0529   -19736.316    12604.296    15091.178   -1279.7179    -13197.74    2015.5504    81.855767 
   21500    476.33217   -117.87241   0.43099536   -117.44142   -8689.4848    4.3536922    4.3536922    4.3536922   -8689.4848   -16303.315   -12613.138    2847.9981    8526.2942    4128.6314   -1226.7229    82.522652 
   21600    472.71955   -117.86708   0.42772658   -117.43936     3249.961    4.3490429    4.3490429    4.3490429     3249.961    175.05867    532.12945     9042.695    -425.7826   -3626.0245   -1325.9592    82.258555 
   21700    603.05829     -117.983   0.54565981   -117.43734    1648.3672    4.3423418    4.3423418    4.3423418    1648.3672   -14447.975   -50.335352    19443.412   -3922.7471   -3132.3162     624.2416    81.878905 
   21800    413.98098   -117.81558   0.37457869     -117.441   -6432.6167    4.3567715    4.3567715    4.3567715   -6432.6167   -11933.521   -10960.003     3595.674     7057.069    1088.2989     5174.408    82.697873 
   21900     539.2968   -117.92666   0.48796707   -117.43869    4677.9595    4.3426867    4.3426867    4.3426867    4677.9595    3332.3623    1644.3021     9057.214     675.0593   -2386.6241   -3850.8456    81.898416 
   22000    595.98396   -117.97734   0.53925881   -117.43808    1253.5368    4.3487774    4.3487774    4.3487774    1253.5368    4187.8585   -14651.683    14224.435   -2787.7255   -2526.2936   -1788.5697    82.243492 
   22100    498.37278   -117.88952   0.45093817   -117.43858    225.68281    4.3521292    4.3521292    4.3521292    225.68281   -6654.8736    -11035.59    18367.512    3730.6337   -2944.6615    2425.7981    82.433803 
   22200    549.48304   -117.93483    0.4971838   -117.43765    2452.6981    4.3444063    4.3444063    4.3444063    2452.6981       1987.4    -4448.734    9819.4283    3489.2937    7057.4091     2095.901    81.995745 
   22300    526.86775    -117.9144   0.47672101   -117.43768   -405.03649    4.3512056    4.3512056    4.3512056   -405.03649    3183.6196   -21563.542    17164.813   -4130.9442   -1041.4325    3163.4798    82.381334 
   22400    582.56149   -117.96781   0.52711388   -117.44069    517.53773     4.344265     4.344265     4.344265    517.53773    6651.2883   -11978.691    6880.0157    1157.7699   -6538.6204   -9169.1934    81.987745 
   22500    557.56874   -117.94855   0.50449991   -117.44405   -7643.4646    4.3509897    4.3509897    4.3509897   -7643.4646   -6557.5795   -20385.814    4012.9996    7445.2685    3600.7696    9175.7296    82.369072 
   22600    466.77514   -117.86427   0.42234795   -117.44192   -5113.0617    4.3517904    4.3517904    4.3517904   -5113.0617   -5934.2958   -18316.433    8911.5437   -554.93685    4863.1385   -4397.9753    82.414552 
   22700    513.54484   -117.90452   0.46466616   -117.43986    9564.7753    4.3378358    4.3378358    4.3378358    9564.7753    6860.7369   -11639.282    33472.871    -7115.389    1428.9916   -6699.1464    81.624272 
   22800    636.63363   -118.01739   0.57603948   -117.44135   -15980.656    4.3600488    4.3600488    4.3600488   -15980.656   -22135.729   -22625.495   -3180.7445    2929.8596   -7662.5568   -55.634583    82.884641 
   22900    462.47735   -117.86017   0.41845923   -117.44171    3710.5757    4.3447478    4.3447478    4.3447478    3710.5757   -129.94606   -10824.786    22086.459    2007.7564    5871.7373   -3585.9551     82.01508 
   23000    605.31622   -117.98839   0.54770283   -117.44069    6155.2998    4.3382107    4.3382107    4.3382107    6155.2998   -1867.3278    532.17846    19801.049   -7893.9302    4138.2772    1189.6074    81.645438 
   23100    425.77285   -117.82519   0.38524822   -117.43994   -3746.6792    4.3629322    4.3629322    4.3629322   -3746.6792   -18475.221   -20901.611    28136.794     3855.501   -1216.6929   -4946.1454     83.04919 
   23200    638.27349   -118.01416   0.57752327   -117.43664    3885.8193    4.3380336    4.3380336    4.3380336    3885.8193   -5293.7002    4436.9011    12514.257     6884.364   -8622.0189    6713.2917    81.635441 
   23300    543.97777    -117.9339   0.49220252    -117.4417   -50.173258    4.3465262    4.3465262    4.3465262   -50.173258   -5771.4145   -12677.628    18298.523   -6194.5995    4483.0452   -1085.4267    82.115831 
   23400    486.22158   -117.88196   0.43994351   -117.44201   -7800.3152    4.3574671    4.3574671    4.3574671   -7800.3152   -19989.375   -1447.4509   -1964.1196   -1978.8265    2272.7563   -3594.1277    82.737489 
   23500    521.34632   -117.91123   0.47172511   -117.43951    8392.2742    4.3389674    4.3389674    4.3389674    8392.2742   -2606.0121   -582.69904    28365.534    7733.2601   -4403.6023   -5124.3506    81.688172 
   23600    601.52871   -117.98423   0.54427582   -117.43995   -8509.1553    4.3525311    4.3525311    4.3525311   -8509.1553   -20834.241   -16393.242    11700.017   -406.17805   -2674.4757    2863.0099    82.456642 
   23700    472.63948   -117.86844   0.42765414   -117.44078    3814.5715    4.3493307    4.3493307    4.3493307    3814.5715   -2094.0547   -9222.1864    22759.955   -7290.6886    1999.4352   -236.05057    82.274884 
   23800    541.29908   -117.93208   0.48977878    -117.4423   -1035.5206    4.3482745    4.3482745    4.3482745   -1035.5206   -16868.324   -6891.7332    20653.496    4765.4926    4198.4345    543.07598    82.214959 
   23900    608.73269   -117.99243   0.55079413   -117.44164   -5027.7942    4.3482528    4.3482528    4.3482528   -5027.7942   -15236.255    -12761.93    12914.803    6050.1699    -7509.804    1965.9033    82.213732 
   24000    536.50937   -117.92692   0.48544495   -117.44148    583.13277    4.3491666    4.3491666    4.3491666    583.13277   -12063.963   -3415.1971    17228.558    -6016.654   -2027.6392   -906.53416    82.265572 
   24100    410.32765   -117.81255   0.37127308   -117.44128    -1358.229    4.3537877    4.3537877    4.3537877    -1358.229   -15345.786   -12481.073    23752.172    431.99576    2312.9523    -1549.489    82.528079 
   24200    484.89867   -117.87857   0.43874651   -117.43983    2379.6585    4.3413618    4.3413618    4.3413618    2379.6585   -17095.263    9518.7141    14715.525     7823.502   -2151.7643   -7813.2035    81.823481 
   24300    479.44846   -117.87418   0.43381504   -117.44037   -5381.0301    4.3544137    4.3544137    4.3544137   -5381.0301   -13846.884   -345.83437   -1950.3723   -1078.6159   -480.72798    3323.9798    82.563682 
   24400    576.72049   -117.96154   0.52182882   -117.43971   -10373.862    4.3514581    4.3514581    4.3514581   -10373.862   -23180.366   -13537.562     5596.343   -3102.0655   -1258.7962     2859.024    82.395675 
   24500    360.54876    -117.7675    0.3262321   -117.44127    14071.123    4.3385438    4.3385438    4.3385438    14071.123   -5776.7638     16658.58    31331.552    10685.053    2486.2772     4377.586    81.664247 
   24600    522.33427   -117.91311   0.47261903   -117.44049   -8878.3222    4.3573489    4.3573489    4.3573489   -8878.3222   -23663.605   -12516.804    9545.4431    3455.8368   -7652.1865   -1347.6665     82.73076 
   24700    464.19898   -117.85775   0.42001699   -117.43774    5344.0271    4.3483903    4.3483903    4.3483903    5344.0271   -15152.742   -5024.8121    36209.636   -4003.0331   -4908.0981   -698.95307    82.221528 
   24800    605.67172   -117.98729    0.5480245   -117.43926   -1723.3825    4.3440071    4.3440071    4.3440071   -1723.3825   -14961.181   -1905.8037    11696.837    9305.7036    193.32563     1074.896    81.973144 
   24900    338.95819   -117.74889   0.30669649    -117.4422    2180.6932     4.356934     4.356934     4.356934    2180.6932   -16324.136   -3381.9485    26248.164    6120.2325   -4206.3376   -1142.3623     82.70713 
   25000    619.49546   -117.99977   0.56053251   -117.43924   -5724.7189    4.3464548    4.3464548    4.3464548   -5724.7189     -11506.9   -5675.6654    8.4086186   -1182.9829   -3495.7188   -1706.2369    82.111789 
   25100    326.62328   -117.73632   0.29553561   -117.44079    13145.442    4.3427413    4.3427413    4.3427413    13145.442   -16165.969    6658.0559    48944.238   -2347.7632    1824.7616     1187.964    81.901503 
   25200    493.74482   -117.88727   0.44675069   -117.44052    -20951.09     4.361005     4.361005     4.361005    -20951.09   -30375.578   -20394.941   -12082.752    3867.3634    1738.6977    4070.9427    82.939186 
   25300    297.62439   -117.70905   0.26929681   -117.43975    13500.367    4.3369711    4.3369711    4.3369711    13500.367   -3600.1534    25354.121    18747.133    1871.1892   -11786.671    939.53672    81.575472 
   25400    582.27192    -117.9664   0.52685187   -117.43955   -9989.6133    4.3498398    4.3498398    4.3498398   -9989.6133    -23683.88    161.76452   -6446.7245   -5781.9166   -6793.1012   -3913.7306    82.303781 
   25500    362.65824   -117.76901   0.32814079   -117.44087   -4664.2711    4.3551492    4.3551492    4.3551492   -4664.2711   -29007.024   -15426.909    30441.119    5210.4036    2050.9444   -3125.9513    82.605526 
   25600    368.47686   -117.77321    0.3334056    -117.4398    5904.1178    4.3389956    4.3389956    4.3389956    5904.1178   -14121.914    15103.908     16730.36    2013.2212   -10449.253    -500.6599    81.689761 
   25700    425.15767   -117.82471   0.38469159   -117.44001   -5866.0871    4.3549383    4.3549383    4.3549383   -5866.0871   -29208.275   -5546.3196    17156.334   -2371.5181    -3338.046   -1415.0922    82.593527 
   25800    594.59403   -117.97615   0.53800118   -117.43815   -6628.2017    4.3496465    4.3496465    4.3496465   -6628.2017   -17414.378   -3176.3438    706.11637     6701.967    700.40478    4225.7277    82.292812 
   25900     493.6159   -117.88663   0.44663404   -117.43999   -5794.1327    4.3469381    4.3469381    4.3469381   -5794.1327   -23289.253   -10109.271    16016.125    5492.1821    3899.1692    3235.6818    82.139182 
   26000    421.09669   -117.82322   0.38101713   -117.44221   -3809.1669    4.3516022    4.3516022    4.3516022   -3809.1669   -29946.187    8302.8483    10215.838   -117.81194   -9139.1775    2612.4538    82.403862 
   26100    414.85695   -117.81697   0.37537129    -117.4416    10689.169    4.3448761    4.3448761    4.3448761    10689.169   -10193.214    15147.866    27112.855   -2110.4803   -5913.7602   -2925.6769    82.022347 
   26200      498.146   -117.89191   0.45073297   -117.44118   -5923.5737    4.3532932    4.3532932    4.3532932   -5923.5737   -22392.261   -15599.316    20220.856    6002.6037    158.48462   -4714.9478    82.499964 
   26300    411.62785   -117.81422   0.37244953   -117.44177    1488.8626    4.3434786    4.3434786    4.3434786    1488.8626   -20655.047    17496.574    7625.0612    3869.3268   -10222.084    2199.0558    81.943225 
   26400    461.77162   -117.86075   0.41782066   -117.44293   -575.27426    4.3474113    4.3474113    4.3474113   -575.27426   -11318.888    15335.275   -5742.2093   -3901.3844   -5934.6758   -1912.8953    82.166006 
   26500    493.13706   -117.88746   0.44620077   -117.44126   -7919.0674    4.3565979    4.3565979    4.3565979   -7919.0674   -22018.875   -20290.369    18552.042    3617.0845    2495.5177     7413.498    82.687988 
   26600    400.46052   -117.80149    0.3623451   -117.43915    18716.216    4.3357399    4.3357399    4.3357399    18716.216   -2690.4698    17470.507    41368.612    2614.4425    2736.2992   -606.76162    81.506018 
   26700    467.98005   -117.86485   0.42343818   -117.44142    -6788.356    4.3580926    4.3580926    4.3580926    -6788.356   -23030.212   -11514.426     14179.57    645.36435   -5078.2815   -1899.9145    82.773125 
   26800    513.34854   -117.90505   0.46448855   -117.44056   -5052.7582    4.3487265    4.3487265    4.3487265   -5052.7582   -13725.961   -6595.3954    5163.0815    5319.1099   -1524.8351   -8119.6202      82.2406 
   26900    593.31561   -117.97607   0.53684444   -117.43923    2307.0371    4.3398094    4.3398094    4.3398094    2307.0371   -9454.1702    937.10152     15438.18    6187.5336   -475.67345   -4532.6732    81.735732 
   27000    497.01493    -117.8879   0.44970955   -117.43819   -13820.721    4.3654435    4.3654435    4.3654435   -13820.721   -29772.732   -15945.732     4256.302   -706.20368   -9284.9611    3064.0316    83.192681 
   27100     470.9573     -117.864   0.42613206   -117.43786    14183.987    4.3351216    4.3351216    4.3351216    14183.987   -2451.7395    20744.643    24259.057    398.64135   -7729.7137   -593.93085    81.471152 
   27200    419.56001   -117.82279   0.37962671   -117.44316    2280.9226    4.3521799    4.3521799    4.3521799    2280.9226   -24827.817   -6726.4227    38397.008    10288.536    1681.5323    5700.9583    82.436684 
   27300     565.8919   -117.94939   0.51203088   -117.43736   -13793.161    4.3588134    4.3588134    4.3588134   -13793.161   -27683.306   -7880.0869   -5816.0885    2834.5993   -3206.2733     2154.819    82.814207 
   27400    527.55025   -117.91017   0.47733855   -117.43283    9435.9723    4.3335605    4.3335605    4.3335605    9435.9723   -1940.4043    20728.628     9519.693   -2737.7603   -9982.5628    2814.7554    81.383166 
   27500     603.5257   -117.98233   0.54608274   -117.43625   -15407.412    4.3587242    4.3587242    4.3587242   -15407.412   -28343.294   -11471.402   -6407.5415    6273.2519    2240.2155    -3798.122    82.809121 
   27600    582.81296   -117.96642   0.52734142   -117.43908    4042.6424    4.3437279    4.3437279    4.3437279    4042.6424   -13458.768   -1921.0072    27507.703   -532.60891    3163.4315   -7696.5086    81.957334 
   27700    497.54405   -117.89088   0.45018832    -117.4407    821.16261    4.3459165    4.3459165    4.3459165    821.16261   -14339.075   -488.03129    17290.595   -2650.6995   -12155.216    3427.7114     82.08128 
   27800    517.26981   -117.90646   0.46803659   -117.43842   -4500.5596    4.3546506    4.3546506    4.3546506   -4500.5596   -23963.953   -13319.022    23781.296     1110.655   -8500.7516   -648.88902    82.577159 
   27900     657.0168   -118.03136    0.5944826   -117.43688     7209.767    4.3407382    4.3407382    4.3407382     7209.767   -3500.0475    15366.161    9763.1878    5231.9143     670.4126    272.35727    81.788222 
   28000    587.37551   -117.97108    0.5314697   -117.43961   -5122.1034     4.354762     4.354762     4.354762   -5122.1034   -14087.003    -14055.64    12776.333    -1049.969   -2508.3249    3680.9896    82.583496 
   28100    556.03077   -117.94111   0.50310832     -117.438   -4014.4267    4.3496073    4.3496073    4.3496073   -4014.4267   -16036.399    9922.9192   -5929.8008   -2942.0819    -11678.79     2943.056    82.290583 
   28200    524.71442   -117.91117   0.47477264    -117.4364    7817.5177    4.3417926    4.3417926    4.3417926    7817.5177   -3737.5439    339.90164    26850.195    10270.316    2484.8928    264.40286    81.847841 
   28300    475.96892   -117.86705   0.43066668   -117.43638   -2712.0528    4.3577118    4.3577118    4.3577118   -2712.0528   -18375.297   -6320.6318     16559.77    917.22045    5904.2796   -4323.6176     82.75143 
   28400    483.54581   -117.87386   0.43752241   -117.43634    4335.4875    4.3421481    4.3421481    4.3421481    4335.4875   -11108.341    3474.4428    20640.361    -4667.973   -6626.1508   -8134.0034    81.867948 
   28500    430.24444   -117.82973   0.38929421   -117.44044    4032.8872    4.3467872    4.3467872    4.3467872    4032.8872   -7757.3049    9895.0741    9960.8926    5237.4859   -3736.5744    1872.4988    82.130628 
   28600      640.175   -118.01562   0.57924379   -117.43638    -13931.53    4.3568935    4.3568935    4.3568935    -13931.53   -18728.877   -18335.373   -4730.3392    2387.4081    4346.3489   -5953.9638    82.704821 
   28700    499.90377   -117.88695   0.45232343   -117.43462    11976.226    4.3358218    4.3358218    4.3358218    11976.226   -3421.9703    27036.799     12313.85   -2474.3107   -5649.3621    492.67517    81.510633 
   28800    557.52448   -117.94316   0.50445987    -117.4387   -6045.7607    4.3524735    4.3524735    4.3524735   -6045.7607   -12750.886   -4660.4626   -725.93331   -507.76798   -8330.7524    3068.9417    82.453367 
   28900    477.98577   -117.87029   0.43249157    -117.4378    3665.5261     4.350719     4.350719     4.350719    3665.5261   -13269.759    3856.8678     20409.47    6085.7115   -3899.7064    181.13101    82.353699 
   29000    588.67591   -117.96905   0.53264634    -117.4364    8503.5702    4.3352491    4.3352491    4.3352491    8503.5702   -6384.1695    4111.8992    27782.981   -5085.6836    698.21973    6725.3913    81.478338 
   29100    451.38024   -117.84811   0.40841833    -117.4397   -2277.8782    4.3546123    4.3546123    4.3546123   -2277.8782   -27216.908   -1332.4829    21715.756   -8772.0611   -4002.1531   -5503.7667    82.574981 
   29200    573.96138   -117.95624   0.51933232    -117.4369   -5078.0769    4.3497602    4.3497602    4.3497602   -5078.0769   -11605.964   -2557.0179    -1071.249    7129.5686   -3182.1468    2772.1839    82.299263 
   29300    545.39655   -117.92993   0.49348626   -117.43644    4194.5849    4.3365394    4.3365394    4.3365394    4194.5849   -10061.484    4904.3763    17740.863   -1322.6539    5731.1336   -3499.1603    81.551114 
   29400    468.13582   -117.86164   0.42357913   -117.43806   -8880.9188    4.3546683    4.3546683    4.3546683   -8880.9188   -25946.162    446.57996   -1143.1738   -10661.911   -4167.5993   -2056.7601    82.578168 
   29500    556.81145   -117.94084   0.50381471   -117.43703     -5182.81    4.3471771    4.3471771    4.3471771     -5182.81   -18945.367    5498.8082   -2101.8707   -1059.0187   -2810.3928    7338.2826     82.15273 
   29600    454.20969   -117.84798   0.41097847     -117.437    9683.9308    4.3399278    4.3399278    4.3399278    9683.9308   -7717.5761    19527.689     17241.68    5720.5068    3706.5893   -1825.7711    81.742422 
   29700    414.36422   -117.81414   0.37492546   -117.43921   -3602.9111    4.3542056    4.3542056    4.3542056   -3602.9111   -24743.513   -12798.366    26733.146   -5855.1899    141.89806    4360.6226    82.551845 
   29800    432.22479   -117.83057   0.39108607   -117.43949    9339.8952    4.3443498    4.3443498    4.3443498    9339.8952   -14630.411    25414.464    17235.633   -6914.1116   -7097.4856   -4425.7693    81.992543 
   29900    629.86773   -118.00725   0.56991756   -117.43734   -745.16801    4.3467084    4.3467084    4.3467084   -745.16801   -22171.625   -2339.7943    22275.915    6668.3005   -2977.2419    1597.9375    82.126159 
   30000     423.8002   -117.82147   0.38346332     -117.438     2069.629    4.3508916    4.3508916    4.3508916     2069.629   -15758.003    18153.504    3813.3861    -4945.124    3929.0431   -1255.9509    82.363502 
   30100     555.1346   -117.93961   0.50229745   -117.43731   -1926.3135    4.3454435    4.3454435    4.3454435   -1926.3135   -9129.5156   -5116.9931    8467.5684   -8312.7756   -2586.9873   -4694.8518    82.054486 
   30200    553.02291   -117.93658   0.50038675    -117.4362    2585.7909    4.3472732    4.3472732    4.3472732    2585.7909   -20168.861    14572.962    13353.271    1890.8883   -3090.3123    1984.3695    82.158181 
   30300    522.09796   -117.91054    0.4724052   -117.43814   -6094.7879    4.3493816    4.3493816    4.3493816   -6094.7879   -25870.189   -361.35204     7947.177    -1397.755    816.07586   -1259.9041    82.277775 
   30400    225.17419   -117.64474   0.20374234     -117.441    6037.8322    4.3473473    4.3473473    4.3473473    6037.8322   -17575.471    1568.2209    34120.746   -11040.351    6171.0978    5171.5275    82.162378 
   30500     551.3346    -117.9361   0.49885913   -117.43724    1036.2438    4.3453507    4.3453507    4.3453507    1036.2438   -14418.265   -2356.2254    19883.221   -6472.6926   -2009.4796   -1615.8326    82.049229 
   30600    459.85088   -117.85291   0.41608274   -117.43683    324.92917    4.3504272    4.3504272    4.3504272    324.92917    -21526.65    7109.6989    15391.738    4925.1051   -433.19245    2062.4282     82.33713 
   30700      441.241   -117.83775   0.39924413   -117.43851   -13103.329    4.3484777    4.3484777    4.3484777   -13103.329   -34598.945   -12270.821    7559.7797    -9950.096    4050.3081    2471.3586    82.226485 
   30800    421.71789   -117.82117   0.38157921   -117.43959    1963.7809    4.3429893    4.3429893    4.3429893    1963.7809   -15674.666     5755.617    15810.392   -10231.971    1329.3248   -1260.4506    81.915534 
   30900    630.27781   -118.00742   0.57028861   -117.43713    -708.3314    4.3484121    4.3484121    4.3484121    -708.3314    -8684.229    6525.8225    33.412254      4625.79   -2149.0257   -5229.7773    82.222767 
   31000    443.90748   -117.84095   0.40165682   -117.43929   -3491.9713    4.3478367    4.3478367    4.3478367   -3491.9713   -29729.842   -5348.8021     24602.73   -9710.8629    -2119.115   -2259.8161     82.19013 
   31100    347.35109   -117.75597   0.31429057   -117.44168   -333.43729     4.343349     4.343349     4.343349   -333.43729   -28254.252    10012.265    17241.675   -9453.2574    5176.7039    1584.0317    81.935893 
   31200    537.95611   -117.92686   0.48675399    -117.4401    2250.7214    4.3464337    4.3464337    4.3464337    2250.7214   -13150.048     2509.685    17392.528    873.79094    2389.3244   -520.63463    82.110592 
   31300    537.68388   -117.92528   0.48650768   -117.43877   -1181.1997     4.348437     4.348437     4.348437   -1181.1997   -8418.1476   -773.73334    5648.2818   -2143.9139   -627.46262    1452.5268    82.224177 
   31400    443.68764   -117.84083   0.40145791   -117.43938   -12206.945    4.3448835    4.3448835    4.3448835   -12206.945   -33671.437   -839.77702   -2109.6201   -8711.7999    5865.6818   -1113.6314    82.022768 
   31500     388.9862   -117.79219   0.35196289   -117.44023   -2827.6466    4.3456598    4.3456598    4.3456598   -2827.6466   -20632.833    10979.175     1170.719   -5157.0385    2340.1272    8301.6365    82.066738 
   31600    592.64386   -117.97582   0.53623662   -117.43959   -4437.7163    4.3481803    4.3481803    4.3481803   -4437.7163   -7136.0855   -8324.3489    2147.2856     6085.261    139.21143   -5097.1859    82.209617 
   31700    428.15248   -117.82939   0.38740136   -117.44199    7203.3393    4.3407486    4.3407486    4.3407486    7203.3393   -7083.4603    16690.707    12002.771    -8892.766    616.82716   -5222.3365    81.788811 
   31800    436.87312   -117.83775   0.39529198   -117.44246   -8010.7992    4.3513281    4.3513281    4.3513281   -8010.7992   -30447.802   -12544.731    18960.136   -8029.1956    1041.5132    978.63685     82.38829 
   31900    372.74297   -117.77658   0.33726567   -117.43932    7421.8027    4.3466863    4.3466863    4.3466863    7421.8027   -10152.593    14707.326    17710.675    8399.0548    1077.7856   -835.08191    82.124909 
   32000    664.72287   -118.03789   0.60145523   -117.43644    1762.9125    4.3403887    4.3403887    4.3403887    1762.9125   -2176.3483    4436.1673    3028.9184   -4559.9253   -930.37544    2544.4735    81.768469 
   32100    393.70586   -117.79468   0.35623334   -117.43844    835.65044    4.3533688    4.3533688    4.3533688    835.65044   -13444.244    294.48623    15656.709   -6091.9961    3688.9569   -2313.2272    82.504263 
   32200    595.12161   -117.97532   0.53847854   -117.43684   -6489.6603    4.3439769    4.3439769    4.3439769   -6489.6603   -16324.357   -607.45895   -2537.1647    4839.5335    2298.5805    3355.5092    81.971433 
   32300    468.76828   -117.86296   0.42415139   -117.43881    2224.5036    4.3449412    4.3449412    4.3449412    2224.5036   -12113.553    14276.834    4510.2301    5191.8472   -801.14095   -7.4340675    82.026035 
   32400    555.69449   -117.94032   0.50280405   -117.43752    -4647.023    4.3505821    4.3505821    4.3505821    -4647.023    -3228.346   -11341.509    628.78555   -1483.9853    2148.7114   -4609.8941    82.345921 
   32500    453.47111   -117.84803   0.41031019   -117.43772    4057.4121    4.3443969    4.3443969    4.3443969    4057.4121   -12297.801    5537.1273     18932.91   -4910.4659    1096.5359     244.0496    81.995212 
   32600    404.91306   -117.80597   0.36637385    -117.4396    -1504.796     4.349491     4.349491     4.349491    -1504.796   -17127.664    2567.2706    10046.006    6312.4716    1699.1443   -3024.0327    82.283981 
   32700    509.22481   -117.89968   0.46075731   -117.43892   -616.90862    4.3464363    4.3464363    4.3464363   -616.90862   -3293.2214    -3969.657    5412.1526     574.3058    -4224.591   -1350.2122    82.110737 
   32800    493.34405   -117.88468   0.44638806   -117.43829     6088.809    4.3454195    4.3454195    4.3454195     6088.809   -5999.7512    10612.427    13653.751   -5062.6032   -37.733136   -1500.3734    82.053125 
   32900    615.97146   -117.99629   0.55734392   -117.43895   -7985.8543    4.3499164    4.3499164    4.3499164   -7985.8543   -15143.712   -7731.9716   -1081.8789    8661.8222    1827.4288    2230.2073    82.308129 
   33000    460.04057   -117.85557   0.41625437   -117.43932    3399.4569    4.3483463    4.3483463    4.3483463    3399.4569   -4814.3959    10968.516    4044.2507    3848.4255   -1718.4556    975.98998    82.219036 
   33100    748.72876   -118.11366   0.67746552   -117.43619   -6760.3639    4.3455904    4.3455904    4.3455904   -6760.3639   -6251.0603   -1280.8635   -12749.168   -1617.1563     545.5668   -5387.6836    82.062808 
   33200    405.54924   -117.80635   0.36694947    -117.4394    11148.315    4.3468223    4.3468223    4.3468223    11148.315   -1725.1604    10258.009    24912.095    5249.4147   -610.31672    755.56102    82.132616 
   33300    581.88074   -117.96563   0.52649792   -117.43914   -6482.5061    4.3496891    4.3496891    4.3496891   -6482.5061   -13914.963   -9381.8499    3849.2943    5512.8009    5390.4775     -1711.91    82.295225 
   33400    444.30918   -117.84048   0.40202028   -117.43846    10262.419    4.3444122    4.3444122    4.3444122    10262.419    1268.8166    12323.285    17195.156   -493.14991   -607.54168   -1951.2957    81.996078 
   33500     599.6768   -117.98091   0.54260017   -117.43831   -6227.4418     4.349615     4.349615     4.349615   -6227.4418   -10224.649   -15518.866     7061.189   -1948.1141   -1059.8709   -1830.1282     82.29102 
   33600    503.55386   -117.89501   0.45562612   -117.43938   -4466.0641    4.3455775    4.3455775    4.3455775   -4466.0641   -15000.607   -4155.3751    5757.7896    10248.494   -1441.9858   -991.12137    82.062075 
[...]
   91300    598.54335   -117.97976    0.5415746   -117.43819   -1527.7236    4.3424269    4.3424269    4.3424269   -1527.7236   -1101.4125    11784.325   -15266.083   -2636.4763   -15897.893   -2214.8379    81.883719 
   91400     652.8802   -118.02774   0.59073973     -117.437   -146.49492    4.3404122    4.3404122    4.3404122   -146.49492   -1051.6689    8207.7214   -7595.5373    3337.3377   -2316.9002    1094.2121    81.769797 
   91500    448.36424    -117.8451   0.40568938   -117.43941    1439.4937    4.3453956    4.3453956    4.3453956    1439.4937    8740.2255    8511.4833   -12933.228   -3842.5995     7110.264    524.52217    82.051772 
   91600     484.4054   -117.87781   0.43830018   -117.43951    1398.3599    4.3430681    4.3430681    4.3430681    1398.3599    5307.1483    11138.384   -12250.452   -3939.1343   -7877.4903    953.57507    81.919993 
   91700    610.36057   -117.98983   0.55226707   -117.43756    6829.5701    4.3388956    4.3388956    4.3388956    6829.5701    11825.742    21141.237   -12478.268     5527.007   -7517.1601    314.44837    81.684113 
   91800    577.80629   -117.96244   0.52281128   -117.43963    -7402.822    4.3490321    4.3490321    4.3490321    -7402.822   -4949.1934    4804.7573    -22064.03   -4056.2088    9747.8302   -6608.3599    82.257944 
   91900    525.05111   -117.91453   0.47507728   -117.43945   -5848.7132    4.3412557    4.3412557    4.3412557   -5848.7132   -5851.0722    109.56614   -11804.634   -9997.0902    2800.9491   -1221.4035    81.817482 
   92000    691.57604   -118.06403   0.62575254   -117.43828   -2114.4519    4.3398261    4.3398261    4.3398261   -2114.4519   -853.39219    3086.8343   -8576.7977    -6391.861   -7888.3334    1206.8409    81.736677 
   92100    718.06561    -118.0867   0.64972085   -117.43698   -12645.795    4.3519166    4.3519166    4.3519166   -12645.795   -4767.4457   -5881.6659   -27288.275    2110.5781    4464.8737    774.53079    82.421726 
   92200    393.90562   -117.79609   0.35641408   -117.43968    6709.2774    4.3388263    4.3388263    4.3388263    6709.2774     16742.97    14500.756   -11115.894   -3185.5915    9853.4575   -4337.8098    81.680201 
   92300    572.28602   -117.95724   0.51781642   -117.43942   -1158.7257    4.3435376    4.3435376    4.3435376   -1158.7257     2734.617    5839.9339   -12050.728   -5259.6802   -3566.2858   -882.94809    81.946566 
   92400    566.80335   -117.95065   0.51285558    -117.4378    5811.5843    4.3476371    4.3476371    4.3476371    5811.5843     13725.17    20022.461   -16312.878    7141.9025   -3613.5659   -609.23709    82.178813 
   92500    500.26236   -117.89212    0.4526479   -117.43947    3.2728091    4.3415335    4.3415335    4.3415335    3.2728091   -6114.3132    24513.009   -18388.877     2960.712     12066.27    924.89429    81.833189 
   92600    450.48529   -117.84896   0.40760856   -117.44135   -1455.8357    4.3407231    4.3407231    4.3407231   -1455.8357   -9263.1207    6821.7085   -1926.0949   -11602.087    2402.6003    1920.8862    81.787372 
   92700    698.37155   -118.06991   0.63190125   -117.43801   -6917.4909     4.349236     4.349236     4.349236   -6917.4909   -8736.9747   -4186.3956   -7829.1024   -10295.519   -4819.1665    2267.7063     82.26951 
   92800    646.95078   -118.02326   0.58537466   -117.43788   -5201.4611    4.3436915    4.3436915    4.3436915   -5201.4611    724.27442    156.09191    -16484.75   -249.13641    11422.206    730.48515    81.955279 
   92900    465.34352   -117.86084    0.4210526   -117.43979    5857.7825    4.3344756    4.3344756    4.3344756    5857.7825     1265.729    19729.528   -3421.9091   -2847.9118    11211.339     -6610.19    81.434738 
   93000    505.61561   -117.89659   0.45749163    -117.4391   -4551.3107    4.3546461    4.3546461    4.3546461   -4551.3107    5847.7694   -7336.3504   -12165.351   -7850.1874   -1080.8323    478.77004    82.576906 
   93100    616.99411   -117.99488   0.55826924   -117.43662    12956.115    4.3363387    4.3363387    4.3363387    12956.115    14697.785    28538.301   -4367.7424     4877.619    3195.0784   -2420.8732    81.539789 
   93200    470.82548   -117.86732   0.42601279   -117.44131    4093.7312    4.3411584    4.3411584    4.3411584    4093.7312    4455.0238    26043.129   -18216.959    2547.7905    14386.361   -2974.9685    81.811977 
   93300    478.11955    -117.8719   0.43261261   -117.43928   -5195.5354    4.3493632    4.3493632    4.3493632   -5195.5354    1780.1184   -1669.1354   -15697.589   -4957.8265    3528.0524   -4013.4347    82.276729 
   93400    671.15198   -118.04356   0.60727241   -117.43629    5560.0365     4.335993     4.335993     4.335993    5560.0365    3293.2382    8918.8997    4467.9715    -11439.31   -4102.6471   -1155.4794    81.520289 
   93500    640.03134   -118.01709   0.57911381   -117.43797   -9777.5918    4.3480312    4.3480312    4.3480312   -9777.5918   -4172.5002   -4898.8606   -20261.414   -3362.9304    10041.418    230.76393    82.201163 
   93600    477.81052    -117.8715     0.432333   -117.43917   -2296.6305    4.3429307    4.3429307    4.3429307   -2296.6305    6740.2715     1413.709   -15043.872    970.18329    5139.2811   -5615.2832    81.912222 
   93700    541.05256    -117.9279   0.48955572   -117.43835   -1844.3507    4.3426156    4.3426156    4.3426156   -1844.3507    8476.0934   -10199.151    -3809.994   -11219.631   -4525.9874    3687.0318    81.894391 
   93800    619.10316   -117.99739   0.56017755   -117.43721    4111.4014    4.3406333    4.3406333    4.3406333    4111.4014    4975.5882    12274.353   -4915.7375    2587.6221    3745.2316    2532.3938    81.782297 
   93900    525.89195   -117.91516   0.47583809   -117.43932   -4879.0054    4.3483491    4.3483491    4.3483491   -4879.0054    -765.3117     8302.245   -22173.949    5242.1509    9282.3696   -1731.3944    82.219193 
   94000    426.63801   -117.82613   0.38603104    -117.4401    845.39813    4.3395181    4.3395181    4.3395181    845.39813   -6735.3497     15402.93   -6131.3861   -5833.2028    1951.9438   -2499.3101    81.719276 
   94100    606.40063   -117.98757   0.54868403   -117.43888    2949.6163    4.3386512    4.3386512    4.3386512    2949.6163    2822.4007     7567.978   -1541.5297   -8655.4719   -5353.4711   -2435.0162     81.67031 
   94200    641.30911   -118.01697   0.58026996    -117.4367   -9241.6609    4.3540893    4.3540893    4.3540893   -9241.6609   -4439.9439    -4351.537   -18933.502   -3483.2885    8034.2136   -1717.1654    82.545231 
   94300    584.14642   -117.96468   0.52854796   -117.43613    6473.5168    4.3318895    4.3318895    4.3318895    6473.5168    7774.2978    11733.205   -86.952694   -2770.5533      8645.91   -5150.9415     81.28906 
   94400    484.92129   -117.87839   0.43876698   -117.43963   -3390.5589    4.3452183    4.3452183    4.3452183   -3390.5589    12812.832   -16342.844   -6641.6647    -11207.65   -5556.0071    451.42997     82.04173 
   94500    622.81436   -118.00185   0.56353553   -117.43832   -1744.8621    4.3483012    4.3483012    4.3483012   -1744.8621    3919.9172   -3831.4167   -5323.0867    108.65973   -490.92071    741.81547    82.216478 
   94600    649.93711   -118.02345   0.58807675   -117.43538    10677.176    4.3359934    4.3359934    4.3359934    10677.176    15136.196    14698.229    2197.1041    8219.5913    2472.5453   -1170.7781    81.520313 
   94700    464.04591     -117.859   0.41987849   -117.43912   -441.97115     4.345584     4.345584     4.345584   -441.97115    6528.7097    3057.8241   -10912.447   -4290.9051    13.696427   -2401.6613    82.062443 
   94800    414.08033   -117.81512   0.37466858   -117.44045    4875.6156    4.3432921    4.3432921    4.3432921    4875.6156    1170.8563    9080.0959    4375.8945   -7812.3944     -5172.34    1347.0401    81.932674 
   94900    693.04857   -118.06419   0.62708491    -117.4371    1038.1985     4.341774     4.341774     4.341774    1038.1985    -4067.674    11916.038   -4733.7681   -5715.1037   -2942.6445    2644.6822    81.846787 
   95000    573.35864   -117.95783   0.51878695   -117.43904    5373.5135    4.3419601    4.3419601    4.3419601    5373.5135    16517.039    7095.3576    -7491.856   -1455.2712     7543.781    125.75912    81.857311 
   95100    441.54201   -117.83982   0.39951649    -117.4403   -6613.7236     4.346724     4.346724     4.346724   -6613.7236   -318.00534   -14097.051    -5426.114   -13140.488   -4609.6993   -2688.7327    82.127043 
   95200    529.80949   -117.91791   0.47938277   -117.43853    732.20065    4.3402814    4.3402814    4.3402814    732.20065    11212.839   -4438.3814   -4577.8556     -7236.85   -6057.3906   -1244.7475    81.762407 
   95300      711.241    -118.0803    0.6435458   -117.43675   -2216.9111    4.3441538    4.3441538    4.3441538   -2216.9111    15607.146   -7398.9691    -14858.91    5619.2528    3746.4704    1447.4206    81.981445 
   95400    618.40552   -117.99856   0.55954631   -117.43902   -8323.3825    4.3445338    4.3445338    4.3445338   -8323.3825   -4236.9019   -15027.966   -5705.2792   -2118.2509   -396.30063   -1256.8836    82.002964 
   95500     426.4078   -117.82757   0.38582274   -117.44175   -3435.9718    4.3396974    4.3396974    4.3396974   -3435.9718   -5470.3231   -1500.9685   -3336.6237   -7812.3095   -8261.1634    -41.37125    81.729404 
   95600    672.38299   -118.04762   0.60838626   -117.43924   -7803.3398     4.347048     4.347048     4.347048   -7803.3398   -1787.3242   -1682.6381   -19940.057   -501.40817   -9930.0051    476.72683    82.145414 
   95700    647.34444   -118.02271   0.58573085   -117.43698    4939.7148    4.3430652    4.3430652    4.3430652    4939.7148    14196.146     8353.624   -7730.6259   -3292.0269    1568.9124   -1355.3537    81.919832 
   95800    436.09433   -117.83455   0.39458732   -117.43996     2247.111      4.34059      4.34059      4.34059     2247.111    14188.826   -277.87122   -7169.6219   -13345.967   -1434.6956   -1925.1784     81.77985 
   95900    386.71147   -117.79283   0.34990467   -117.44293    1018.9795    4.3434642    4.3434642    4.3434642    1018.9795    6815.7509    9557.1818   -13315.994   -6994.7018   -13439.691    213.01748     81.94241 
   96000    630.91092   -118.01018   0.57086146   -117.43932    4788.8711    4.3423178    4.3423178    4.3423178    4788.8711      13113.3    12569.036   -11315.722    3750.7158    974.87413    4788.0622    81.877547 
   96100    677.62287   -118.05195   0.61312741   -117.43882   -7449.5928    4.3452979    4.3452979    4.3452979   -7449.5928     3420.037   -10415.647   -15353.168   -1459.1205    2384.6591    226.97654    82.046237 
   96200    432.84221   -117.83183   0.39164473   -117.44019   -5056.1662    4.3421728    4.3421728    4.3421728   -5056.1662   -11563.882    5242.4075   -8847.0245   -1772.2493    -12111.22    -806.3634    81.869345 
   96300    671.06238   -118.04546   0.60719134   -117.43827   -8601.5802    4.3424795    4.3424795    4.3424795   -8601.5802   -9127.4474    -5599.886   -11077.407     372.9816   -3907.9004    1025.3941    81.886691 
   96400    646.95156    -118.0243   0.58537536   -117.43892    -333.6631    4.3447353    4.3447353    4.3447353    -333.6631    16438.838   -1298.6357   -16141.192    3286.2962    4781.6097    1018.8364    82.014372 
   96500     499.2647   -117.89254   0.45174519   -117.44079    6792.9143    4.3390643    4.3390643    4.3390643    6792.9143    16860.161    11953.376   -8434.7943   -8935.2638   -1500.4218    362.40681    81.693639 
   96600     434.2266   -117.83441   0.39289735   -117.44151    1162.3782    4.3477344    4.3477344    4.3477344    1162.3782    11359.973    5829.8088   -13702.647   -6928.5514   -8980.1275    139.66062    82.184329 
   96700    566.17815   -117.94993   0.51228989   -117.43764    7774.7973    4.3421799    4.3421799    4.3421799    7774.7973    13578.533    21437.302   -11691.444   -2611.0567   -390.51328    2119.2722    81.869742 
   96800    584.10707   -117.96693   0.52851235   -117.43841     1865.112    4.3408918    4.3408918    4.3408918     1865.112    9141.1428    10726.719   -14272.526   -3418.5002    7466.5309   -2038.3355    81.796907 
   96900    509.24847   -117.90054   0.46077872   -117.43976   -6358.6485     4.345851     4.345851     4.345851   -6358.6485   -7765.5344    -1405.732   -9904.6791   -6015.0315   -8277.5129   -5474.1942    82.077571 
   97000    635.12824   -118.01267   0.57467738   -117.43799   -7209.6082    4.3433436    4.3433436    4.3433436   -7209.6082   -11950.778   -2068.3736   -7609.6729   -591.65523   -3713.9025   -1291.6822    81.935586 
   97100    607.63255   -117.98777    0.5497987   -117.43797   -4697.3558    4.3452177    4.3452177    4.3452177   -4697.3558    2761.2035   -2082.9602   -14770.311    6458.2045    12010.649    2146.0935    82.041696 
   97200    534.44862    -117.9226   0.48358034   -117.43902   -1042.0744    4.3410958    4.3410958    4.3410958   -1042.0744    10549.701   -11533.563   -2142.3613   -6884.0795    489.28177   -1423.2989    81.808438 
   97300    497.90362   -117.89004   0.45051366   -117.43953    728.73209    4.3452054    4.3452054    4.3452054    728.73209    5340.1481   -369.91111   -2784.0407    -7092.851   -5807.6189    560.08135       82.041 
   97400     526.1399   -117.91458   0.47606244   -117.43852    3563.9025    4.3449633    4.3449633    4.3449633    3563.9025     15302.62    11433.605   -16044.518   -2401.0973    8083.1165    2659.3421    82.027283 
   97500    491.28038   -117.88214   0.44452081   -117.43762    11128.015    4.3402427    4.3402427    4.3402427    11128.015    13936.939    18876.164    570.94132   -3211.9292    9156.8062     19.40126    81.760217 
   97600    475.08522   -117.86796   0.42986709    -117.4381    1672.1134    4.3457637    4.3457637    4.3457637    1672.1134   -4199.7228    11700.825    -2484.762   -10076.171   -5659.9072    1302.4092    82.072626 
   97700    550.02756   -117.93574   0.49767649   -117.43806    1696.4138    4.3413051    4.3413051    4.3413051    1696.4138    698.34958     14365.35    -9974.458   -5161.3421   -5723.3309    234.42128    81.820274 
   97800    562.22791   -117.94798   0.50871563   -117.43926    2753.7295    4.3423688    4.3423688    4.3423688    2753.7295     2966.819    13930.959   -8636.5899    3958.5127    9596.3073    1038.8718     81.88043 
   97900    570.06331   -117.95517   0.51580526   -117.43936   -1233.7262    4.3430103    4.3430103    4.3430103   -1233.7262    4875.4743   -2809.9794   -5766.6736    1984.0857    3218.2155    -5458.098    81.916727 
   98000    512.38436   -117.90348   0.46361614   -117.43986   -4631.5562    4.3419883    4.3419883    4.3419883   -4631.5562    4621.1776   -11443.713   -7072.1333   -4594.0294   -8601.4682   -4698.1948    81.858905 
   98100      527.138   -117.91599   0.47696554   -117.43902   -4712.5748    4.3440817    4.3440817    4.3440817   -4712.5748   -1068.3449   -4072.7394   -8996.6401   -3948.9618    5422.5805    3112.4853    81.977367 
   98200    598.55945   -117.97931   0.54158917   -117.43772    577.85384    4.3420659    4.3420659    4.3420659    577.85384    11561.574    2886.0403   -12714.053    3393.9508    8216.2124   -1854.1068    81.863298 
   98300    483.21336   -117.87694   0.43722161   -117.43972    115.26268    4.3409372    4.3409372    4.3409372    115.26268   -5500.1806    2934.0411    2911.9275   -7600.7239   -3832.7109    -262.0406    81.799476 
   98400    441.01355   -117.84002   0.39903833   -117.44098    -2266.785    4.3415074    4.3415074    4.3415074    -2266.785   -9687.4708    7735.8927   -4848.7769   -10270.543   -1602.2647   -1459.4686     81.83171 
   98500    499.87321   -117.89136   0.45229579   -117.43906    1138.8748    4.3463215    4.3463215    4.3463215    1138.8748    3882.2734    12335.988   -12801.637    308.90657    6973.6398    1628.5317     82.10423 
   98600    591.86774   -117.97243   0.53553437    -117.4369    5905.0527    4.3385091    4.3385091    4.3385091    5905.0527    7263.1207    14631.627   -4179.5892    3232.7256    2228.3287    3937.4831    81.662288 
   98700    379.58566   -117.78388   0.34345708   -117.44043    3995.6312    4.3394649    4.3394649    4.3394649    3995.6312    4638.4834   -1154.3923    8502.8025   -5726.8392   -6794.7709   -2860.4869    81.716273 
   98800    461.63687    -117.8583   0.41769874    -117.4406   -7151.7911    4.3471039    4.3471039    4.3471039   -7151.7911    587.18935   -4320.3238   -17722.239   -4168.8481    4303.0145      3678.96     82.14858 
   98900    588.22842   -117.96935   0.53224144    -117.4371    5535.4083    4.3403106    4.3403106    4.3403106    5535.4083    16754.428     6013.233   -6161.4365    4056.7998    8682.7195   -1083.1629    81.764058 
   99000    605.21834   -117.98534   0.54761427   -117.43772   -1387.6103    4.3394718    4.3394718    4.3394718   -1387.6103    368.64981   -4266.8527   -264.62807   -466.63177   -5147.2602   -4524.5286    81.716659 
   99100    381.75018   -117.78638   0.34541559   -117.44096   -6964.2754    4.3452884    4.3452884    4.3452884   -6964.2754   -7036.8971    -11757.54   -2098.3888   -6724.3646   -1273.3354   -438.43486    82.045696 
   99200    546.18879   -117.93459   0.49420309   -117.44039   -2813.6757    4.3399759    4.3399759    4.3399759   -2813.6757   -3229.5311    11141.124    -16352.62   -4513.7942    9182.0018    -3980.999    81.745145 
   99300    646.17008   -118.02368   0.58466827   -117.43901    4798.6493    4.3394608    4.3394608    4.3394608    4798.6493      3471.03    11746.486    -821.5686    5543.5295    4134.8312    1629.8613     81.71604 
   99400    422.67583   -117.82367   0.38244598   -117.44122   -4347.8436    4.3474006    4.3474006    4.3474006   -4347.8436   -8356.3812    1345.0544   -6032.2041    1523.4615   -2953.3591   -3131.8808    82.165399 
   99500    389.03813   -117.79293   0.35200987   -117.44092    1369.8815    4.3372712    4.3372712    4.3372712    1369.8815   -8671.0647    13894.906   -1114.1973   -6860.2668    68.953927   -2095.7818    81.592402 
   99600    579.51635   -117.96337   0.52435857   -117.43901     3696.576    4.3418514    4.3418514    4.3418514     3696.576    13150.615     7194.058   -9254.9448    1438.9775    5868.0678     6254.894    81.851167 
   99700    618.92962    -117.9981   0.56002053   -117.43808   -4680.4625    4.3457024    4.3457024    4.3457024   -4680.4625   -8610.7259    701.88333   -6132.5448     3879.151   -530.33366   -61.142171    82.069153 
   99800    415.82832    -117.8177    0.3762502   -117.44145    130.69733    4.3351546    4.3351546    4.3351546    130.69733   -6096.5762   -880.60975     7369.278   -8953.8333   -4208.9862    2194.0457    81.473014 
   99900    474.07753   -117.87082   0.42895531   -117.44187   -1612.8883    4.3440364    4.3440364    4.3440364   -1612.8883    9478.4219    -6348.975   -7968.1118     -6085.71    4483.7863   -973.62156      81.9748 
  100000    649.34384   -118.02573   0.58753995   -117.43819   -2975.1796    4.3463265    4.3463265    4.3463265   -2975.1796    10310.774   -6056.0071   -13180.305     3195.268    1528.8659    -2439.306    82.104516 
Loop time of 22.6146 on 1 procs for 100000 steps with 8 atoms

Pair  time (%) = 7.05061 (31.1772)
Kspce time (%) = 5.5493 (24.5386)
Neigh time (%) = 0 (0)
Comm  time (%) = 1.14458 (5.06123)
Outpt time (%) = 0.0274622 (0.121436)
Other time (%) = 8.84266 (39.1015)

Nlocal:    8 ave 8 max 8 min
Histogram: 1 0 0 0 0 0 0 0 0 0
Nghost:    2189 ave 2189 max 2189 min
Histogram: 1 0 0 0 0 0 0 0 0 0
Neighs:    2056 ave 2056 max 2056 min
Histogram: 1 0 0 0 0 0 0 0 0 0

Total # of neighbors = 2056
Ave neighs/atom = 257
Neighbor list builds = 0
Dangerous builds = 0
unfix 20
unfix 21
print "seeds:1209997"
seeds:1209997
