# ['Ni']

107 atoms
1 atom types

    0.0000    10.8878 xlo xhi
    0.0000    10.8878 ylo yhi
    0.0000    10.8878 zlo zhi

    0.0000    -0.0000    -0.0000 xy xz yz

Atoms

1 1     1.8146     1.8146     0.0000
2 1     1.8146     0.0000     1.8146
3 1     0.0000     1.8146     1.8146
4 1     0.0000     0.0000     3.6293
5 1     1.8146     1.8146     3.6293
6 1     1.8146     0.0000     5.4439
7 1     0.0000     1.8146     5.4439
8 1     0.0000     0.0000     7.2586
9 1     1.8146     1.8146     7.2586
10 1     1.8146     0.0000     9.0732
11 1     0.0000     1.8146     9.0732
12 1     0.0000     3.6293     0.0000
13 1     1.8146     5.4439     0.0000
14 1     1.8146     3.6293     1.8146
15 1     0.0000     5.4439     1.8146
16 1     0.0000     3.6293     3.6293
17 1     1.8146     5.4439     3.6293
18 1     1.8146     3.6293     5.4439
19 1     0.0000     5.4439     5.4439
20 1     0.0000     3.6293     7.2586
21 1     1.8146     5.4439     7.2586
22 1     1.8146     3.6293     9.0732
23 1     0.0000     5.4439     9.0732
24 1     0.0000     7.2586     0.0000
25 1     1.8146     9.0732     0.0000
26 1     1.8146     7.2586     1.8146
27 1     0.0000     9.0732     1.8146
28 1     0.0000     7.2586     3.6293
29 1     1.8146     9.0732     3.6293
30 1     1.8146     7.2586     5.4439
31 1     0.0000     9.0732     5.4439
32 1     0.0000     7.2586     7.2586
33 1     1.8146     9.0732     7.2586
34 1     1.8146     7.2586     9.0732
35 1     0.0000     9.0732     9.0732
36 1     3.6293     0.0000     0.0000
37 1     5.4439     1.8146     0.0000
38 1     5.4439     0.0000     1.8146
39 1     3.6293     1.8146     1.8146
40 1     3.6293     0.0000     3.6293
41 1     5.4439     1.8146     3.6293
42 1     5.4439     0.0000     5.4439
43 1     3.6293     1.8146     5.4439
44 1     3.6293     0.0000     7.2586
45 1     5.4439     1.8146     7.2586
46 1     5.4439     0.0000     9.0732
47 1     3.6293     1.8146     9.0732
48 1     3.6293     3.6293     0.0000
49 1     5.4439     5.4439     0.0000
50 1     5.4439     3.6293     1.8146
51 1     3.6293     5.4439     1.8146
52 1     3.6293     3.6293     3.6293
53 1     5.4439     5.4439     3.6293
54 1     5.4439     3.6293     5.4439
55 1     3.6293     5.4439     5.4439
56 1     3.6293     3.6293     7.2586
57 1     5.4439     5.4439     7.2586
58 1     5.4439     3.6293     9.0732
59 1     3.6293     5.4439     9.0732
60 1     3.6293     7.2586     0.0000
61 1     5.4439     9.0732     0.0000
62 1     5.4439     7.2586     1.8146
63 1     3.6293     9.0732     1.8146
64 1     3.6293     7.2586     3.6293
65 1     5.4439     9.0732     3.6293
66 1     5.4439     7.2586     5.4439
67 1     3.6293     9.0732     5.4439
68 1     3.6293     7.2586     7.2586
69 1     5.4439     9.0732     7.2586
70 1     5.4439     7.2586     9.0732
71 1     3.6293     9.0732     9.0732
72 1     7.2586     0.0000     0.0000
73 1     9.0732     1.8146     0.0000
74 1     9.0732     0.0000     1.8146
75 1     7.2586     1.8146     1.8146
76 1     7.2586     0.0000     3.6293
77 1     9.0732     1.8146     3.6293
78 1     9.0732     0.0000     5.4439
79 1     7.2586     1.8146     5.4439
80 1     7.2586     0.0000     7.2586
81 1     9.0732     1.8146     7.2586
82 1     9.0732     0.0000     9.0732
83 1     7.2586     1.8146     9.0732
84 1     7.2586     3.6293     0.0000
85 1     9.0732     5.4439     0.0000
86 1     9.0732     3.6293     1.8146
87 1     7.2586     5.4439     1.8146
88 1     7.2586     3.6293     3.6293
89 1     9.0732     5.4439     3.6293
90 1     9.0732     3.6293     5.4439
91 1     7.2586     5.4439     5.4439
92 1     7.2586     3.6293     7.2586
93 1     9.0732     5.4439     7.2586
94 1     9.0732     3.6293     9.0732
95 1     7.2586     5.4439     9.0732
96 1     7.2586     7.2586     0.0000
97 1     9.0732     9.0732     0.0000
98 1     9.0732     7.2586     1.8146
99 1     7.2586     9.0732     1.8146
100 1     7.2586     7.2586     3.6293
101 1     9.0732     9.0732     3.6293
102 1     9.0732     7.2586     5.4439
103 1     7.2586     9.0732     5.4439
104 1     7.2586     7.2586     7.2586
105 1     9.0732     9.0732     7.2586
106 1     9.0732     7.2586     9.0732
107 1     7.2586     9.0732     9.0732
