LAMMPS (11 Aug 2017)
# ---- initialize simulations
clear
units metal
dimension 3
boundary p p p
atom_style atomic
atom_modify map array
# ---- create atoms
read_data /home/sullberg/repos/pypospack/dev/cluster_sampling/dev__cluster_sampling/rank_1/Ni_fcc_100_unit.lmps_min_all/lammps.structure
  triclinic box = (0 0 0) to (3.5167 3.5167 3.5167) with tilt (0 -0 0)
  1 by 1 by 1 MPI processor grid
  reading atoms ...
  4 atoms
# ---- define interatomic potential
include potential.mod
mass 1 58.6934

group Ni type 1
4 atoms in group Ni

pair_style eam/alloy
pair_coeff * * /home/sullberg/repos/pypospack/dev/cluster_sampling/dev__cluster_sampling/rank_1/Ni_fcc_100_unit.lmps_min_all/Ni.eam.alloy Ni

neighbor 1.0 bin
neigh_modify every 1 delay 0 check yes
# ---- define settings
compute eng all pe/atom
compute eatoms all reduce sum c_eng
# ---- run minimization
reset_timestep 0
fix 1 all box/relax aniso 0.0 vmax 0.001
thermo 10
thermo_style custom step pe xhi xlo yhi ylo zhi xy xz yz press pxx pyy pzz pxy pxz pyz c_eatoms
min_style cg
minimize 1e-25 1e-25 5000 10000
Neighbor list info ...
  update every 1 steps, delay 0 steps, check yes
  max neighbors/atom: 2000, page size: 100000
  master list distance cutoff = 5.64464
  ghost atom cutoff = 5.64464
  binsize = 2.82232, bins = 2 2 2
  1 neighbor lists, perpetual/occasional/extra = 1 0 0
  (1) pair eam/alloy, perpetual
      attributes: half, newton on
      pair build: half/bin/newton/tri
      stencil: half/bin/3d/newton/tri
      bin: standard
Per MPI rank memory allocation (min/avg/max) = 4.211 | 4.211 | 4.211 Mbytes
Step PotEng Xhi Xlo Yhi Ylo Zhi Xy Xz Yz Press Pxx Pyy Pzz Pxy Pxz Pyz c_eatoms 
       0   -19.826745       3.5167            0       3.5167            0       3.5167            0           -0            0   -317814.69   -317814.69   -317814.69   -317814.69 -3.8342983e-13 -1.5976243e-11 -1.2908804e-11   -19.826745 
      10   -20.069547    3.4991165    0.0175835    3.4991165    0.0175835    3.4991165            0           -0            0   -282960.34   -282960.34   -282960.34   -282960.34 -3.0559556e-11 -5.1108224e-11 -4.0307001e-11   -20.069547 
      20   -20.276435     3.481533     0.035167     3.481533     0.035167     3.481533            0           -0            0   -238924.58   -238924.58   -238924.58   -238924.58 -1.6295499e-12 -3.0146673e-11 -6.5181996e-12   -20.276435 
      30   -20.441016    3.4639495    0.0527505    3.4639495    0.0527505    3.4639495            0           -0            0   -184142.44   -184142.44   -184142.44   -184142.44 -6.3017614e-11 -1.2323445e-11 -1.6804697e-12   -20.441016 
      40   -20.556072     3.446366     0.070334     3.446366     0.070334     3.446366            0           -0            0   -116800.57   -116800.57   -116800.57   -116800.57 -2.0224555e-12 8.9565888e-12 6.3562888e-12   -20.556072 
      50   -20.613455    3.4287825    0.0879175    3.4287825    0.0879175    3.4287825            0           -0            0   -34798.319   -34798.319   -34798.319   -34798.319 -1.1925698e-12 -2.3851396e-12 1.3356782e-10   -20.613455 
      60   -20.618265    3.4222282  0.094471828    3.4222282  0.094471828    3.4222282            0           -0            0 5.598521e-08 5.6297952e-08 5.561163e-08 5.6046049e-08 -3.0167967e-12 -4.2235154e-12 5.7319137e-12   -20.618265 
      65   -20.618265    3.4222282  0.094471828    3.4222282  0.094471828    3.4222282            0           -0            0 -1.5797959e-10 -5.7319137e-11 -2.1147745e-10 -2.0514218e-10 5.1285544e-12 -6.9386324e-12 -4.2235154e-12   -20.618265 
Loop time of 0.00132012 on 1 procs for 65 steps with 4 atoms

44.2% CPU use with 1 MPI tasks x no OpenMP threads

Minimization stats:
  Stopping criterion = energy tolerance
  Energy initial, next-to-last, final = 
        -19.8267447563     -20.6182650588     -20.6182650588
  Force two-norm initial, final = 14.9427 8.12286e-15
  Force max component initial, final = 8.62719 5.14034e-15
  Final line search alpha, max atom move = 1 5.14034e-15
  Iterations, force evaluations = 65 77

MPI task timing breakdown:
Section |  min time  |  avg time  |  max time  |%varavg| %total
---------------------------------------------------------------
Pair    | 0.00067639 | 0.00067639 | 0.00067639 |   0.0 | 51.24
Neigh   | 0          | 0          | 0          |   0.0 |  0.00
Comm    | 0.00013256 | 0.00013256 | 0.00013256 |   0.0 | 10.04
Output  | 6.1512e-05 | 6.1512e-05 | 6.1512e-05 |   0.0 |  4.66
Modify  | 0          | 0          | 0          |   0.0 |  0.00
Other   |            | 0.0004497  |            |       | 34.06

Nlocal:    4 ave 4 max 4 min
Histogram: 1 0 0 0 0 0 0 0 0 0
Nghost:    360 ave 360 max 360 min
Histogram: 1 0 0 0 0 0 0 0 0 0
Neighs:    156 ave 156 max 156 min
Histogram: 1 0 0 0 0 0 0 0 0 0

Total # of neighbors = 156
Ave neighs/atom = 39
Neighbor list builds = 0
Dangerous builds = 0
# ---- define output variables ----
variable natoms equal "count(all)"
variable tot_energy equal "c_eatoms"
variable a11 equal "xhi-xlo"
variable a22 equal "yhi-ylo"
variable a33 equal "zhi-zlo"
variable tilt_xy equal "xy"
variable tilt_xz equal "xz"
variable tilt_yz equal "yz"
variable tot_press equal "press"
variable press_xx equal "pxx"
variable press_yy equal "pyy"
variable press_zz equal "pzz"
variable press_xy equal "pxy"
variable press_xz equal "pxz"
variable press_yz equal "pyz"

# ---- output ----
print "pypospack:output_section:begin"
pypospack:output_section:begin
print "tot_energy = ${tot_energy}"
tot_energy = -20.6182650588136
print "num_atoms = ${natoms}"
num_atoms = 4
print "a11 = ${a11}"
a11 = 3.32775634472285
print "a22 = ${a22}"
a22 = 3.32775634472285
print "a33 = ${a33}"
a33 = 3.32775634472285
print "a12 = ${tilt_xy}"
a12 = 0
print "a13 = ${tilt_xz}"
a13 = -0
print "a23 = ${tilt_yz}"
a23 = 0
print "tot_press = ${tot_press}"
tot_press = -1.57979587123801e-10
print "pxx = ${press_xx}"
pxx = -5.73191372759814e-11
print "pyy = ${press_yy}"
pyy = -2.11477448581384e-10
print "pzz = ${press_zz}"
pzz = -2.05142175514039e-10
print "pxy = ${press_xy}"
pxy = 5.12855438785097e-12
print "pxz = ${press_xz}"
pxz = -6.93863240709248e-12
print "pyz = ${press_yz}"
pyz = -4.22351537823021e-12
print "pypospack:output_section:done"
pypospack:output_section:done
print "pypospack:lammps_sim:done"
pypospack:lammps_sim:done
Total wall time: 0:00:00
