# ['Al']

20 atoms
1 atom types

    0.0000     3.9344 xlo xhi
    0.0000     3.9344 ylo yhi
    0.0000    39.3440 zlo zhi

    0.0000    -0.0000     0.0000 xy xz yz

Atoms

1 1     0.0000     0.0000     0.0000
2 1     1.9672     1.9672     0.0000
3 1     1.9672     0.0000     1.9672
4 1     0.0000     1.9672     1.9672
5 1     0.0000     0.0000     3.9344
6 1     1.9672     1.9672     3.9344
7 1     1.9672     0.0000     5.9016
8 1     0.0000     1.9672     5.9016
9 1     0.0000     0.0000     7.8688
10 1     1.9672     1.9672     7.8688
11 1     1.9672     0.0000     9.8360
12 1     0.0000     1.9672     9.8360
13 1     0.0000     0.0000    11.8032
14 1     1.9672     1.9672    11.8032
15 1     1.9672     0.0000    13.7704
16 1     0.0000     1.9672    13.7704
17 1     0.0000     0.0000    15.7376
18 1     1.9672     1.9672    15.7376
19 1     1.9672     0.0000    17.7048
20 1     0.0000     1.9672    17.7048
