    2    2    1    1
  0.9563318E+01  0.3001819E-09  0.3001820E-09  0.3001819E-09  0.5000000E-15
  1.000000000000000E-004
  CAR 
 automatically generated by pyflamestk   
      8     10     16
 
  0.1250000E+00  0.1250000E+00  0.1250000E+00  0.3125000E-01
    1      -13.572958   1.000000
    2        2.468584   1.000000
    3        3.315186   1.000000
    4        3.315187   1.000000
    5        8.833731   0.000000
    6       17.412292   0.000000
    7       19.428832   0.000000
    8       19.428835   0.000000
    9       23.679187   0.000000
   10       23.679190   0.000000
   11       25.017697   0.000000
   12       27.455101   0.000000
   13       28.886160   0.000000
   14       28.886163   0.000000
   15       39.150566   0.000000
   16       41.052827   0.000000
 
  0.3750000E+00  0.1250000E+00  0.1250000E+00  0.9375000E-01
    1      -12.913927   1.000000
    2        0.296130   1.000000
    3        2.453482   1.000000
    4        3.016849   1.000000
    5       11.249991   0.000000
    6       15.350564   0.000000
    7       18.762695   0.000000
    8       20.430446   0.000000
    9       22.251030   0.000000
   10       24.481818   0.000000
   11       26.600305   0.000000
   12       31.261366   0.000000
   13       32.535189   0.000000
   14       33.410365   0.000000
   15       35.780868   0.000000
   16       39.074234   0.000000
 
 -0.3750000E+00  0.1250000E+00  0.1250000E+00  0.9375000E-01
    1      -12.472857   1.000000
    2       -0.837738   1.000000
    3        2.302349   1.000000
    4        2.677183   1.000000
    5       11.837219   0.000000
    6       15.561444   0.000000
    7       18.052084   0.000000
    8       19.868294   0.000000
    9       23.858331   0.000000
   10       26.108026   0.000000
   11       26.204097   0.000000
   12       32.487818   0.000000
   13       33.083926   0.000000
   14       33.429346   0.000000
   15       36.010787   0.000000
   16       37.721658   0.000000
 
 -0.1250000E+00  0.1250000E+00  0.1250000E+00  0.9375000E-01
    1      -13.206037   1.000000
    2        1.185165   1.000000
    3        2.944471   1.000000
    4        2.948341   1.000000
    5       10.422418   0.000000
    6       15.591412   0.000000
    7       19.556784   0.000000
    8       20.037419   0.000000
    9       21.212816   0.000000
   10       25.058667   0.000000
   11       27.057944   0.000000
   12       30.155940   0.000000
   13       30.440719   0.000000
   14       31.193972   0.000000
   15       37.415986   0.000000
   16       39.178059   0.000000
 
  0.3750000E+00  0.3750000E+00  0.1250000E+00  0.9375000E-01
    1      -12.675923   1.000000
    2        0.109709   1.000000
    3        2.253012   1.000000
    4        2.486177   1.000000
    5       12.353000   0.000000
    6       13.994981   0.000000
    7       17.306430   0.000000
    8       20.936287   0.000000
    9       21.393303   0.000000
   10       27.239301   0.000000
   11       30.345144   0.000000
   12       30.613940   0.000000
   13       32.527393   0.000000
   14       35.019178   0.000000
   15       36.672250   0.000000
   16       38.088419   0.000000
 
 -0.3750000E+00  0.3750000E+00  0.1250000E+00  0.1875000E+00
    1      -12.259716   1.000000
    2       -0.008606   1.000000
    3        0.991887   1.000000
    4        2.074463   1.000000
    5       13.867144   0.000000
    6       14.905778   0.000000
    7       15.697700   0.000000
    8       19.711152   0.000000
    9       23.156714   0.000000
   10       26.609917   0.000000
   11       30.173247   0.000000
   12       31.595618   0.000000
   13       32.863720   0.000000
   14       36.537937   0.000000
   15       39.109356   0.000000
   16       41.328746   0.000000
 
 -0.1250000E+00  0.3750000E+00  0.1250000E+00  0.1875000E+00
    1      -12.518667   1.000000
    2       -0.211921   1.000000
    3        1.734806   1.000000
    4        2.575516   1.000000
    5       12.711003   0.000000
    6       14.904840   0.000000
    7       17.078809   0.000000
    8       20.274205   0.000000
    9       22.843628   0.000000
   10       25.518102   0.000000
   11       29.053005   0.000000
   12       31.844731   0.000000
   13       32.426474   0.000000
   14       35.091184   0.000000
   15       35.734120   0.000000
   16       41.235681   0.000000
 
 -0.3750000E+00 -0.3750000E+00  0.1250000E+00  0.9375000E-01
    1      -12.296442   1.000000
    2       -0.373215   1.000000
    3        1.734581   1.000000
    4        2.191537   1.000000
    5       12.941496   0.000000
    6       13.624066   0.000000
    7       16.148371   0.000000
    8       21.647255   0.000000
    9       21.658216   0.000000
   10       29.126955   0.000000
   11       29.558639   0.000000
   12       32.141470   0.000000
   13       32.856056   0.000000
   14       38.004913   0.000000
   15       38.386587   0.000000
   16       41.317561   0.000000
 
  0.3750000E+00  0.3750000E+00  0.3750000E+00  0.3125000E-01
    1      -12.712187   1.000000
    2       -0.567202   1.000000
    3        2.872511   1.000000
    4        2.872512   1.000000
    5       11.047403   0.000000
    6       15.566809   0.000000
    7       19.663899   0.000000
    8       19.663902   0.000000
    9       24.253277   0.000000
   10       24.593189   0.000000
   11       24.593192   0.000000
   12       32.107863   0.000000
   13       33.427760   0.000000
   14       33.427762   0.000000
   15       37.041665   0.000000
   16       37.041671   0.000000
 
 -0.3750000E+00  0.3750000E+00  0.3750000E+00  0.9375000E-01
    1      -12.344084   1.000000
    2       -0.250788   1.000000
    3        1.097894   1.000000
    4        2.545096   1.000000
    5       13.189981   0.000000
    6       15.363962   0.000000
    7       16.270048   0.000000
    8       20.586016   0.000000
    9       22.669799   0.000000
   10       25.694307   0.000000
   11       29.273210   0.000000
   12       31.815021   0.000000
   13       32.237776   0.000000
   14       35.576572   0.000000
   15       37.461241   0.000000
   16       40.335041   0.000000
