LAMMPS (11 Aug 2017)
Reading data file ...
  triclinic box = (0 0 0) to (3.5127 2.5145 25.1453) with tilt (0 0 0)
  1 by 1 by 1 MPI processor grid
  reading atoms ...
  10 atoms
10 atoms in group Ni
Neighbor list info ...
  update every 1 steps, delay 0 steps, check yes
  max neighbors/atom: 2000, page size: 100000
  master list distance cutoff = 11
  ghost atom cutoff = 11
  binsize = 5.5, bins = 1 1 5
  1 neighbor lists, perpetual/occasional/extra = 1 0 0
  (1) pair eam/alloy, perpetual
      attributes: half, newton on
      pair build: half/bin/newton/tri
      stencil: half/bin/3d/newton/tri
      bin: standard
Setting up cg style minimization ...
  Unit style    : metal
  Current step  : 0
Per MPI rank memory allocation (min/avg/max) = 4.341 | 4.341 | 4.341 Mbytes
Step PotEng Lx Ly Lz Xy Xz Yz Press Pxx Pyy Pzz Pxy Pxz Pyz c_eatoms 
       0   -42.231998       3.5127       2.5145      25.1453            0            0            0   -36416.773   -43776.918   -40140.099   -25333.301 -0.00095518827    1.1762451  -0.51998975   -42.231998 
       1   -42.263389       3.5127       2.5145      25.1453            0            0            0   -29199.475   -36038.886   -34387.263   -17172.276 -9.3186083e-06  -0.37599793  -0.23786258   -42.263389 
       2   -42.274761       3.5127       2.5145      25.1453            0            0            0   -24744.945   -31554.111   -31289.295   -11391.428 0.00096662987    2.9781394  0.047528734   -42.274761 
       3   -42.286991       3.5127       2.5145      25.1453            0            0            0   -18389.238   -25590.549   -27138.061    -2439.103 -0.00054103832   -4.5212827   0.10026682   -42.286991 
       4   -42.288231       3.5127       2.5145      25.1453            0            0            0   -17658.826   -24973.564   -26715.816   -1287.0986 -5.0774601e-05    3.3638273 -0.00095886521   -42.288231 
       5    -42.28831       3.5127       2.5145      25.1453            0            0            0   -17340.992    -24712.88   -26529.541   -780.55539 7.8898162e-05   -3.7291883 -0.047099273    -42.28831 
       6   -42.288338       3.5127       2.5145      25.1453            0            0            0   -17081.192   -24478.167   -26367.198   -398.21123 3.3648734e-05    5.1473846 -0.079000084   -42.288338 
       7   -42.288361       3.5127       2.5145      25.1453            0            0            0   -16836.221   -24232.767   -26196.817    -79.07909 -3.0956393e-05   -0.7893755 -0.090768346   -42.288361 
       8   -42.288363       3.5127       2.5145      25.1453            0            0            0   -16790.332   -24183.451   -26160.863   -26.681964 -1.3596854e-06   0.14259148 -0.079959113   -42.288363 
       9   -42.288363       3.5127       2.5145      25.1453            0            0            0     -16781.2    -24174.32    -26154.19   -15.088306 -9.7965669e-08   0.27948214 -0.067891018   -42.288363 
      10   -42.288363       3.5127       2.5145      25.1453            0            0            0   -16779.231   -24172.563   -26152.954   -12.176992 -4.5207071e-07  0.079659737 -0.061648255   -42.288363 
      11   -42.288364       3.5127       2.5145      25.1453            0            0            0   -16773.916   -24167.801   -26149.667   -4.2800627 -1.6334877e-07  0.065179478  -0.04218581   -42.288364 
      12   -42.288364       3.5127       2.5145      25.1453            0            0            0   -16771.348   -24165.195    -26147.84   -1.0091616 -1.1293423e-07  0.040402968 -0.038469682   -42.288364 
      13   -42.288364       3.5127       2.5145      25.1453            0            0            0   -16770.874   -24164.717   -26147.489  -0.41754473 -1.0062183e-07  0.028875449 -0.041021998   -42.288364 
      14   -42.288364       3.5127       2.5145      25.1453            0            0            0   -16770.732   -24164.576   -26147.387  -0.23083354 -1.1546301e-07  0.045684412 -0.042700039   -42.288364 
      15   -42.288364       3.5127       2.5145      25.1453            0            0            0   -16770.701   -24164.546   -26147.368  -0.18833051 -1.220479e-07  0.052610061 -0.043857403   -42.288364 
      16   -42.288364       3.5127       2.5145      25.1453            0            0            0   -16770.643   -24164.489   -26147.328  -0.11282435 -1.2084108e-07  0.060545439 -0.044408721   -42.288364 
      17   -42.288364       3.5127       2.5145      25.1453            0            0            0   -16770.595   -24164.445   -26147.297  -0.04425522 -1.0738195e-07  0.059959298 -0.043092743   -42.288364 
      18   -42.288364       3.5127       2.5145      25.1453            0            0            0   -16770.574   -24164.427   -26147.284 -0.011726847 -9.6584582e-08  0.053490026  -0.04176756   -42.288364 
      19   -42.288364       3.5127       2.5145      25.1453            0            0            0   -16770.549   -24164.404   -26147.268  0.024795545 -7.3489034e-08  0.038863444 -0.038834776   -42.288364 
      20   -42.288364       3.5127       2.5145      25.1453            0            0            0   -16770.541   -24164.394   -26147.261   0.03210508 -5.8547059e-08   0.02889233 -0.037106047   -42.288364 
      21   -42.288364       3.5127       2.5145      25.1453            0            0            0   -16770.536   -24164.389   -26147.257  0.038323732 -3.5509644e-08  0.015927815 -0.034740055   -42.288364 
      22   -42.288364       3.5127       2.5145      25.1453            0            0            0   -16770.541   -24164.395   -26147.261   0.03239138 4.0775295e-09 -0.0048335594 -0.029618296   -42.288364 
      23   -42.288364       3.5127       2.5145      25.1453            0            0            0   -16770.564   -24164.417   -26147.277  0.002705268 2.6772294e-08 -0.020091215 -0.024854137   -42.288364 
      24   -42.288364       3.5127       2.5145      25.1453            0            0            0   -16770.565   -24164.418   -26147.277 -0.00026746343 2.8933402e-08 -0.022165932 -0.023549661   -42.288364 
      25   -42.288364       3.5127       2.5145      25.1453            0            0            0   -16770.565   -24164.417   -26147.277 -0.0017524185 2.7774389e-08 -0.022689388 -0.021804013   -42.288364 
      26   -42.288364       3.5127       2.5145      25.1453            0            0            0    -16770.57   -24164.422   -26147.281 -0.0078534408 2.2882479e-08 -0.023079197 -0.019924085   -42.288364 
      27   -42.288364       3.5127       2.5145      25.1453            0            0            0   -16770.583   -24164.435    -26147.29  -0.02386454 1.3056818e-08 -0.019874706 -0.016371449   -42.288364 
      28   -42.288364       3.5127       2.5145      25.1453            0            0            0   -16770.583   -24164.434   -26147.289 -0.025377728  8.89745e-09 -0.017085682 -0.013933728   -42.288364 
      29   -42.288364       3.5127       2.5145      25.1453            0            0            0   -16770.571   -24164.423   -26147.281 -0.0091327829 3.8496169e-09 -0.012499798 -0.009436347   -42.288364 
      30   -42.288364       3.5127       2.5145      25.1453            0            0            0   -16770.572   -24164.424   -26147.282 -0.010546076 3.8145012e-09 -0.011637262 -0.0091822297   -42.288364 
      31   -42.288364       3.5127       2.5145      25.1453            0            0            0   -16770.573   -24164.425   -26147.283 -0.010410028 3.3978999e-09 -0.010709885 -0.0083670768   -42.288364 
      32   -42.288364       3.5127       2.5145      25.1453            0            0            0    -16770.56   -24164.413   -26147.274 0.0066478871 1.9576646e-09 -0.0068050024 -0.0060854992   -42.288364 
      33   -42.288364       3.5127       2.5145      25.1453            0            0            0    -16770.56   -24164.413   -26147.274 0.0066147293 1.7275914e-09 -0.0058401033 -0.005888542   -42.288364 
      34   -42.288364       3.5127       2.5145      25.1453            0            0            0   -16770.561   -24164.414   -26147.275 0.0054414724 1.3648275e-09 -0.0048960753 -0.0056702028   -42.288364 
      35   -42.288364       3.5127       2.5145      25.1453            0            0            0   -16770.566   -24164.418   -26147.278 -0.0014505975 6.3068806e-10 -0.0024699175 -0.0045418603   -42.288364 
      36   -42.288364       3.5127       2.5145      25.1453            0            0            0   -16770.567    -24164.42   -26147.279 -0.0030472204 3.0626221e-10 -0.0010810107 -0.0041724048   -42.288364 
      37   -42.288364       3.5127       2.5145      25.1453            0            0            0   -16770.569   -24164.421    -26147.28 -0.0057068875 -2.8737555e-10 0.0011564455 -0.0040794352   -42.288364 
      38   -42.288364       3.5127       2.5145      25.1453            0            0            0   -16770.569   -24164.421    -26147.28 -0.0055964771 -4.2148008e-10 0.0022353624 -0.0040176445   -42.288364 
      39   -42.288364       3.5127       2.5145      25.1453            0            0            0   -16770.567    -24164.42   -26147.279 -0.0019156235 -5.4705326e-10 0.0033703963 -0.0035697507   -42.288364 
      40   -42.288364       3.5127       2.5145      25.1453            0            0            0   -16770.563   -24164.416   -26147.276 0.0023975177 -5.7263541e-10 0.0041586387 -0.0028327464   -42.288364 
      41   -42.288364       3.5127       2.5145      25.1453            0            0            0   -16770.563   -24164.416   -26147.276 0.0019985475 -3.6637644e-10 0.0033080191 -0.0023166495   -42.288364 
      42   -42.288364       3.5127       2.5145      25.1453            0            0            0   -16770.564   -24164.416   -26147.277  0.001455823 -2.807938e-10 0.0030877867 -0.0021843244   -42.288364 
      43   -42.288364       3.5127       2.5145      25.1453            0            0            0   -16770.565   -24164.418   -26147.278 -0.00048899349 -1.6863716e-10 0.0020502098 -0.0017677922   -42.288364 
      44   -42.288364       3.5127       2.5145      25.1453            0            0            0   -16770.566   -24164.419   -26147.278 -0.0014543315 -1.3458902e-10 0.0012725966 -0.0015433562   -42.288364 
      45   -42.288364       3.5127       2.5145      25.1453            0            0            0   -16770.566   -24164.419   -26147.278 -0.001738042 -2.4650435e-11 0.0006286515 -0.0013680753   -42.288364 
      46   -42.288364       3.5127       2.5145      25.1453            0            0            0   -16770.566   -24164.418   -26147.278 -0.0014856919 -4.312697e-11 0.00054091752 -0.0012910363   -42.288364 
      47   -42.288364       3.5127       2.5145      25.1453            0            0            0   -16770.565   -24164.418   -26147.278 -0.00060705569 6.3497447e-11 0.00025042276 -0.0010954538   -42.288364 
      48   -42.288364       3.5127       2.5145      25.1453            0            0            0   -16770.565   -24164.417   -26147.277 3.9299787e-07 -7.2248444e-12 4.4499263e-05 -0.0010585789   -42.288364 
Loop time of 0.013468 on 1 procs for 48 steps with 10 atoms

97.8% CPU use with 1 MPI tasks x no OpenMP threads

Minimization stats:
  Stopping criterion = energy tolerance
  Energy initial, next-to-last, final = 
        -42.2319979939     -42.2883635064     -42.2883635064
  Force two-norm initial, final = 0.574481 5.66156e-08
  Force max component initial, final = 0.397083 2.98348e-08
  Final line search alpha, max atom move = 1 2.98348e-08
  Iterations, force evaluations = 48 95

MPI task timing breakdown:
Section |  min time  |  avg time  |  max time  |%varavg| %total
---------------------------------------------------------------
Pair    | 0.01198    | 0.01198    | 0.01198    |   0.0 | 88.95
Neigh   | 0          | 0          | 0          |   0.0 |  0.00
Comm    | 0.00062871 | 0.00062871 | 0.00062871 |   0.0 |  4.67
Output  | 0.00066257 | 0.00066257 | 0.00066257 |   0.0 |  4.92
Modify  | 0          | 0          | 0          |   0.0 |  0.00
Other   |            | 0.0001965  |            |       |  1.46

Nlocal:    10 ave 10 max 10 min
Histogram: 1 0 0 0 0 0 0 0 0 0
Nghost:    1357 ave 1357 max 1357 min
Histogram: 1 0 0 0 0 0 0 0 0 0
Neighs:    1766 ave 1766 max 1766 min
Histogram: 1 0 0 0 0 0 0 0 0 0

Total # of neighbors = 1766
Ave neighs/atom = 176.6
Neighbor list builds = 0
Dangerous builds = 0
pypospack:output_section:begin
tot_energy = -42.2883635064225
num_atoms = 10
a11 = 3.5127
a22 = 2.5145
a33 = 25.1453
a12 = 0
a13 = 0
a23 = 0
tot_press = -16770.5649136491
pxx = -24164.4174828454
pyy = -26147.277258495
pzz = 3.92997868384923e-07
pxy = -7.22484440108046e-12
pxz = 4.44992625749936e-05
pyz = -0.00105857894913269
pypospack:output_section:done
pypospack:lammps_sim:done
Total wall time: 0:00:00
