LAMMPS (10 Feb 2015)
Reading data file ...
  triclinic box = (0 0 0) to (4.2565 4.2565 4.2565) with tilt (0 0 0)
  1 by 1 by 1 MPI processor grid
  reading atoms ...
  8 atoms
4 atoms in group Mg
4 atoms in group O
Setting atom values ...
  4 settings made for charge
Setting atom values ...
  4 settings made for charge
PPPM initialization ...
  G vector (1/distance) = 0.352172
  grid = 8 8 8
  stencil order = 5
  estimated absolute RMS force accuracy = 3.68665e-05
  estimated relative force accuracy = 2.56024e-06
  using double precision FFTs
  3d grid and FFT values/proc = 3375 512
Neighbor list info ...
  1 neighbor list requests
  update every 1 steps, delay 0 steps, check yes
  master list distance cutoff = 11
Setting up minimization ...
Memory usage per processor = 4.06549 Mbytes
Step PotEng Lx Ly Lz Xy Xz Yz Press Pxx Pyy Pzz Pxy Pxz Pyz eatoms 
       0   -101.30442       4.2565       4.2565       4.2565            0            0            0    88329.967    88329.967    88329.967    88329.967 -1.1961844e-11 -2.4099438e-10 5.9240466e-12   -101.30442 
      10    -101.3918     4.299065     4.299065     4.299065            0            0            0    35693.934    35693.934    35693.934    35693.934 1.4632835e-11 -2.3788485e-11 -3.8066587e-11    -101.3918 
      20   -101.41159    4.3315082    4.3315082    4.3315082            0            0            0   -5.9294003   -5.9294003   -5.9294003   -5.9294003 1.7198652e-10 1.1926792e-10 -5.3176444e-11   -101.41159 
Loop time of 0.0141129 on 1 procs for 20 steps with 8 atoms

Minimization stats:
  Stopping criterion = linesearch alpha is zero
  Energy initial, next-to-last, final = 
        -101.304424021     -101.411593199     -101.411593199
  Force two-norm initial, final = 12.7549 0.00088671
  Force max component initial, final = 12.7549 0.000886651
  Final line search alpha, max atom move = 0.015625 1.38539e-05
  Iterations, force evaluations = 20 34

Pair  time (%) = 0.00387073 (27.4268)
Kspce time (%) = 0.00241899 (17.1403)
Neigh time (%) = 0 (0)
Comm  time (%) = 0.000421762 (2.98848)
Outpt time (%) = 1.3113e-05 (0.0929148)
Other time (%) = 0.00738835 (52.3516)

Nlocal:    8 ave 8 max 8 min
Histogram: 1 0 0 0 0 0 0 0 0 0
Nghost:    2189 ave 2189 max 2189 min
Histogram: 1 0 0 0 0 0 0 0 0 0
Neighs:    2344 ave 2344 max 2344 min
Histogram: 1 0 0 0 0 0 0 0 0 0

Total # of neighbors = 2344
Ave neighs/atom = 293
Neighbor list builds = 0
Dangerous builds = 0
pypospack:output_section:begin
tot_energy = -101.411593198701
num_atoms = 8
xx = 4.33150823558717
yy = 4.33150823558717
zz = 4.33150823558717
xy = 0
xz = 0
yz = 0
tot_press = -5.92940031006952
pxx = -5.92940030994687
pyy = -5.92940031012476
pzz = -5.92940031013695
pxy = 1.71986520125442e-10
pxz = 1.19267916823708e-10
pyz = -5.31764436793611e-11
pypospack:output_section:done
pypospack:lammps_sim:done
PPPM initialization ...
  G vector (1/distance) = 0.351443
  grid = 8 8 8
  stencil order = 5
  estimated absolute RMS force accuracy = 3.81088e-05
  estimated relative force accuracy = 2.64651e-06
  using double precision FFTs
  3d grid and FFT values/proc = 3375 512
Setting up run ...
Memory usage per processor = 3.06549 Mbytes
Step Temp PotEng KinEng TotEng Press Lx Ly Lz Press Pxx Pyy Pzz Pxy Pxz Pyz Volume 
       0         1900    -101.4116    1.7191599   -99.692444    22587.595    4.3315082    4.3315082    4.3315082    22587.595    14598.675    15293.995    37870.115    4028.1216   -3764.8209   -789.29835      81.2676 
     100    690.40868   -100.11958   0.62469629   -99.494885    22270.885    4.3655136    4.3655136    4.3655136    22270.885   -28827.717    31173.354    64467.018    1201.9694    18447.226    1933.0867     83.19669 
     200    1505.2192   -100.39535    1.3619539   -99.033399   -8986.0094    4.4280769    4.4280769    4.4280769   -8986.0094   -47886.987    -40142.06    61071.019    11274.248     -20476.1   -5417.9932    86.825134 
     300    1208.5523   -99.708969    1.0935235   -98.615446   -44507.852    4.4533125    4.4533125    4.4533125   -44507.852   -100864.46   -43762.269     11103.18   -2597.0699    30978.938   -4829.6635    88.318057 
     400    2329.7076   -100.33952    2.1079684   -98.231556   -11488.828    4.4288165    4.4288165    4.4288165   -11488.828   -7603.3241   -18557.965   -8305.1957   -7887.4107    5440.1257     9137.302    86.868647 
     500    1541.5542   -99.420133    1.3948307   -98.025302    11455.549    4.4202716    4.4202716    4.4202716    11455.549   -33275.267    9325.1185    58316.795    18933.519    21436.157   -6999.4309    86.366805 
     600    2271.5328   -99.982414    2.0553306   -97.927084   -7425.0612      4.43471      4.43471      4.43471   -7425.0612   -13982.769    503.46968   -8795.8843   -13368.581    16372.126   -6260.9848    87.215904 
     700    1987.7486   -99.699336    1.7985567   -97.900779   -16154.488    4.4648776    4.4648776    4.4648776   -16154.488    5578.3865   -11063.651   -42978.199   -206.60902    140.31231   -4878.5084    89.007924 
     800    2434.0266   -100.03656    2.2023584     -97.8342   -39107.246    4.4713865    4.4713865    4.4713865   -39107.246   -13258.877   -42636.868   -61425.995    1146.3231    5070.9179    10744.431    89.397758 
     900    1734.6338   -99.381327    1.5695331   -97.811793    33403.098    4.4349066    4.4349066    4.4349066    33403.098    23357.162    52793.375    24058.756    17180.775    2844.4875   -11484.174    87.227499 
    1000     1978.714    -99.61658     1.790382   -97.826198    30671.967    4.4142568    4.4142568    4.4142568    30671.967    53844.817   -4461.9921    42633.076   -2859.9183    24981.167    15728.306    86.014723 
    1100    1843.6987   -99.563208    1.6682173   -97.894991   -827.38283     4.430274     4.430274     4.430274   -827.38283    21783.676   -1003.5374   -23262.287    19624.052    9557.6093   -7475.8837    86.954442 
    1200    1765.1279    -99.49237    1.5971248   -97.895245    12502.386    4.4548272    4.4548272    4.4548272    12502.386    48937.403   -13856.747    2426.5028   -15239.793    14776.643    1654.0536    88.408207 
    1300    2443.4237   -100.06174    2.2108611   -97.850877   -70841.737    4.4611428    4.4611428    4.4611428   -70841.737   -81294.178   -66882.565   -64348.467    2752.5462    2744.1898    9953.1207    88.784751 
    1400    1626.9555   -99.306893    1.4721036    -97.83479    33623.538     4.436474     4.436474     4.436474    33623.538     85658.24     37065.74   -21853.366    13602.429    7063.6805   -16840.229    87.320022 
    1500    1484.5055   -99.183289    1.3432118   -97.840078    38503.557    4.4226072    4.4226072    4.4226072    38503.557    45284.666     59968.95    10257.054    3644.7252   -20341.033    9664.7116    86.503783 
    1600    2321.8802   -99.974988     2.100886   -97.874102   -16425.449    4.4426488    4.4426488    4.4426488   -16425.449   -8041.5961   -32126.409   -9108.3436    25129.439     14130.79    5071.9088    87.685131 
    1700    1397.6405   -99.150759    1.2646145   -97.886144   -15321.297    4.4661678    4.4661678    4.4661678   -15321.297     14333.82   -75046.831    14749.121     5258.708   -42893.843   -18525.341    89.085107 
    1800    2128.5736   -99.784347    1.9259781   -97.858369     -39259.3    4.4491037    4.4491037    4.4491037     -39259.3   -28210.681   -50320.896   -39246.324   -4017.7064    34690.806    4421.9355    88.067886 
    1900    2099.7055   -99.747402    1.8998576   -97.847544    16543.211     4.427656     4.427656     4.427656    16543.211    84169.976    -38206.25    3665.9052    5548.6362   -19426.176    4736.0426    86.800379 
    2000    1406.4154   -99.149097    1.2725542   -97.876542    18886.484    4.4182985    4.4182985    4.4182985    18886.484   -12410.494    -19869.01    88938.955    19537.967    17493.399   -8515.3851    86.251205 
    2100    2068.1786    -99.79637    1.8713315   -97.925039    13937.626     4.427781     4.427781     4.427781    13937.626    86860.489   -48354.324    3306.7134     1775.389   -2894.8839   -11410.517     86.80773 
    2200    2094.0759   -99.815188    1.8947639   -97.920424   -15712.953    4.4442227    4.4442227    4.4442227   -15712.953   -26608.407   -34525.094    13994.643   -6458.9645    7368.9573    6088.2118    87.778355 
    2300    1222.8481   -99.009694    1.1064586   -97.903235    20797.348    4.4390007    4.4390007    4.4390007    20797.348    29638.764   -46185.557    78938.836    13215.268    4518.2384   -5142.5803    87.469297 
    2400    2903.6403   -100.50023    2.6272748   -97.872952   -38227.934    4.4316679    4.4316679    4.4316679   -38227.934    -16627.13   -62748.577   -35308.094    15458.762    16598.267    -13465.98    87.036539 
    2500    706.70256   -98.546952   0.63943932   -97.907512    28730.721    4.4254164    4.4254164    4.4254164    28730.721    10849.433   -11673.812    87016.543    26201.369    18569.639    3093.2965     86.66873 
    2600    3051.7491   -100.66143    2.7612867   -97.900144   -23330.544    4.4305385    4.4305385    4.4305385   -23330.544   -10647.873   -55578.287   -3765.4731    2184.3127    9310.0363   -13365.806    86.970015 
    2700    1056.4021   -98.883923   0.95585481   -97.928069    1165.8703    4.4404001    4.4404001    4.4404001    1165.8703   -9332.8037   -29720.236    42550.651    23089.816    2147.1875    17165.344    87.552049 
    2800    2225.9621   -99.908021    2.0140973   -97.893923    21554.247    4.4356952    4.4356952    4.4356952    21554.247    20450.239   -60731.077    104943.58     6354.885    9947.1493   -9997.1926    87.274043 
    2900    1941.6636   -99.661364     1.756858   -97.904506   -21881.893    4.4428152    4.4428152    4.4428152   -21881.893   -45165.912   -1247.8901   -19231.877    3741.5576    21608.687    12447.201    87.694981 
    3000    2240.7437   -99.913515    2.0274719   -97.886043    6810.6164    4.4532937    4.4532937    4.4532937    6810.6164    33054.735   -68784.723    56161.837   -3865.8366    6214.2882     11667.63    88.316938 
    3100     1986.792   -99.670783    1.7976911   -97.873092   -54801.357    4.4495772    4.4495772    4.4495772   -54801.357   -55226.732   -41723.023   -67454.315    2761.3326    28388.507   -3839.5373    88.096008 
    3200     1861.767   -99.544608    1.6845659   -97.860042    27098.039    4.4290728    4.4290728    4.4290728    27098.039    146534.62   -58807.469   -6433.0299   -6137.3318   -18570.479   -2986.2343    86.883729 
    3300    1950.6882     -99.6846    1.7650237   -97.919577     -4907.11    4.4316862    4.4316862    4.4316862     -4907.11    53854.448   -13322.748    -55253.03   -3730.5349    14735.239   -3391.4185    87.037622 
    3400    1834.5912   -99.605898    1.6599767   -97.945921   -10444.747    4.4249175    4.4249175    4.4249175   -10444.747   -27126.247   -51808.313     47600.32   -25215.296   -11687.798     6875.776    86.639419 
    3500    2652.7002   -100.34012    2.4002189   -97.939901   -11588.925     4.423612     4.423612     4.423612   -11588.925     281.6282   -26006.242   -9042.1628    -283.1511    7740.5961   -8552.5269    86.562755 
    3600    1546.3606   -99.372315    1.3991795   -97.973136    -24943.56    4.4337517    4.4337517    4.4337517    -24943.56    11847.966   -64982.773   -21695.874   -7726.3257    34504.121   -20033.597    87.159376 
    3700    1690.7494    -99.46938    1.5298256   -97.939555     49060.29       4.4254       4.4254       4.4254     49060.29    140456.96   -40405.502    47129.413    5717.4146   -21082.865     3658.702    86.667763 
    3800    1976.5383    -99.72769    1.7884134   -97.939277   -6068.9498    4.4409763    4.4409763    4.4409763   -6068.9498    27422.415   -70878.129    25248.864   -14234.776    23644.868   -4173.9532    87.586136 
    3900    1861.9337   -99.607942    1.6847167   -97.923225   -44357.919    4.4401593    4.4401593    4.4401593   -44357.919   -41469.559   -66864.058   -24740.141    15486.972   -40332.953    18449.136    87.537803 
    4000     2261.417   -99.948909    2.0461776   -97.902731    21077.686    4.4143116    4.4143116    4.4143116    21077.686    76329.893   -32948.209    19851.373   -12828.862   -2849.5673   -5205.8945    86.017923 
    4100    1373.3661   -99.175234    1.2426505   -97.932583    32897.913    4.4071287    4.4071287    4.4071287    32897.913    45821.599   -17326.339     70198.48    15965.475   -28396.023    2420.0296    85.598706 
    4200    2239.9223    -99.97864    2.0267287   -97.951911   -13621.709    4.4385292    4.4385292    4.4385292   -13621.709    16409.014   -17873.791    -39400.35     7417.365   -8409.5125   -623.18661    87.441428 
    4300    1864.4895   -99.588252    1.6870293   -97.901223   -46358.971    4.4597471    4.4597471    4.4597471   -46358.971   -90362.822   -43857.809   -4856.2804    17451.073   -7918.6857   -520.41993    88.701442 
    4400    2040.6855   -99.668987    1.8464551   -97.822531   -58.452938    4.4584348    4.4584348    4.4584348   -58.452938    3798.7865    19420.449   -23394.594   -16504.996   -15429.012    8371.0651    88.623163 
    4500    1783.6894   -99.424457    1.6139197   -97.810538   -26713.843    4.4515784    4.4515784    4.4515784   -26713.843      16273.7   -54368.241   -42046.989    -677.9512     -10160.2   -8399.9573    88.214928 
    4600    2098.5369   -99.730839    1.8988003   -97.832039    7814.1011    4.4372277    4.4372277    4.4372277    7814.1011    6107.1612    31974.121   -14638.979   -15473.331   -396.65007    15214.655     87.36453 
    4700     1797.545   -99.506133    1.6264565   -97.879676   -7902.1694    4.4375123    4.4375123    4.4375123   -7902.1694   -15415.992   -23657.868    15367.351   -4435.2216    -3208.382    17905.721     87.38134 
    4800    1744.9641     -99.4696    1.5788802    -97.89072    8150.5068    4.4212138    4.4212138    4.4212138    8150.5068   -25840.715    23699.791    26592.445    -7778.485    7194.7085   -6520.5127     86.42205 
    4900    2015.6987   -99.712239    1.8238466   -97.888393     2431.935    4.4264958    4.4264958    4.4264958     2431.935    26785.212    2661.7695   -22151.177   -5044.5181   -29875.205   -3582.2746    86.732163 
    5000    1308.6697   -99.093221    1.1841119   -97.909109   -21046.117    4.4330415    4.4330415    4.4330415   -21046.117   -41795.465    18912.969   -40255.855    -29197.33    5115.1497    5315.1609    87.117496 
    5100    2203.0986   -99.881886    1.9934099   -97.888476    2246.0077    4.4337518    4.4337518    4.4337518    2246.0077     9819.745   -20875.216    17793.494    6628.2301   -3991.8943   -5421.0613    87.159381 
    5200    1593.9153   -99.344321    1.4422081   -97.902112   -23007.452    4.4497975    4.4497975    4.4497975   -23007.452   -48325.029    4664.5081   -25361.837   -21096.879   -21330.994    -1752.099    88.109098 
    5300    2404.2471   -100.03317    2.1754133   -97.857752   -26926.091    4.4514519    4.4514519    4.4514519   -26926.091   -26507.997   -51631.238   -2639.0383   -4443.6953   -5547.3461    4282.5661    88.207405 
    5400    1644.5613   -99.335336    1.4880336   -97.847303     19029.97    4.4383002    4.4383002    4.4383002     19029.97    1745.3945    7251.3807    48093.136   -16015.022   -5778.0745   -13896.241    87.427896 
    5500    1878.7099   -99.541967    1.6998962   -97.842071   -3695.0908     4.434197     4.434197     4.434197   -3695.0908    17628.425   -27723.629   -990.06873   -10147.527   -11207.035   -15670.339    87.185638 
    5600    2012.6424   -99.663741    1.8210812    -97.84266   -2153.6161    4.4300262    4.4300262    4.4300262   -2153.6161    29845.726     -24794.7   -11511.875    8885.9275   -2079.7452    13094.148    86.939852 
    5700    1708.6761   -99.403384     1.546046   -97.857337    6922.5047      4.43761      4.43761      4.43761    6922.5047   -20002.651    63892.323   -23122.158   -14294.467   -6730.3794    11885.002    87.387111 
    5800     2035.474   -99.707516    1.8417397   -97.865776   -27800.911    4.4414963    4.4414963    4.4414963   -27800.911   -12206.684   -34739.596   -36456.454    4043.9314    10375.303    10205.143    87.616903 
    5900    1952.7031   -99.636126    1.7668468    -97.86928    7393.8244    4.4310404    4.4310404    4.4310404    7393.8244    15050.741   -28898.067    36028.799    6692.0046    3044.2626   -9130.8784    86.999575 
    6000    1867.0263   -99.572773    1.6893246   -97.883449   -6735.8928    4.4462719    4.4462719    4.4462719   -6735.8928   -38532.958   -16337.206    34662.486    2855.2653    20365.744   -8318.0703    87.899835 
    6100    1970.7311   -99.634625    1.7831589   -97.851466   -23144.842     4.453314     4.453314     4.453314   -23144.842   -25966.748   -47129.782    3662.0052   -15447.892    752.31711   -23949.302    88.318146 
    6200    1950.3857    -99.59412      1.76475    -97.82937   -13422.775    4.4373661    4.4373661    4.4373661   -13422.775   -12184.341   -11582.462   -16501.523   -6202.5583    8627.3576   -19555.986    87.372708 
    6300    1669.7533    -99.33885    1.5108279   -97.828023    20194.511    4.4189735    4.4189735    4.4189735    20194.511    29264.032    20726.919    10592.582    21070.126    -13118.12   -8206.9017    86.290741 
    6400    2176.6626   -99.834686    1.9694901   -97.865196      214.914    4.4301197    4.4301197    4.4301197      214.914    -28303.98   -23855.279    52804.001   -24325.255    11622.962    -18401.71    86.945355 
    6500    1717.3692    -99.43572    1.5539117   -97.881808    17778.722     4.433671     4.433671     4.433671    17778.722   -28396.694     10722.15    71010.709     3711.093    4979.5223   -11611.972    87.154614 
    6600    1801.3742   -99.522423    1.6299212   -97.892502    15473.464    4.4296086    4.4296086    4.4296086    15473.464    5313.6658   -29180.661    70287.388   -15599.459    6228.4491   -19313.324    86.915266 
    6700    2440.9178   -100.11475    2.2085937   -97.906158   -18633.955     4.436225     4.436225     4.436225   -18633.955   -5667.7486    -40194.96   -10039.158    21105.195    1489.8901   -14239.412    87.305319 
    6800    1374.0127   -99.163828    1.2432356   -97.920593    17633.467    4.4306451    4.4306451    4.4306451    17633.467   -33881.549   -20454.568    107236.52   -26670.611    19103.105    16142.616    86.976291 
    6900    2327.6583    -100.0139    2.1061142    -97.90779   -10670.825    4.4321131    4.4321131    4.4321131   -10670.825    -54908.78   -4402.4877    27298.793    3586.9822   -31304.796   -11542.187    87.062776 
    7000    2010.3925   -99.703697    1.8190454   -97.884652   -37900.947     4.451798     4.451798     4.451798   -37900.947    -54047.61   -75247.321    15592.091   -32342.376   -16270.813   -12582.345    88.227984 
    7100    2214.6559   -99.829816    2.0038672   -97.825949   -11668.134    4.4636857    4.4636857    4.4636857   -11668.134   -18808.528   -6749.5961   -9446.2768   -2220.1831   -3128.6114   -1918.2793    88.936664 
    7200    1440.5584   -99.107626    1.3034475   -97.804178    6221.4503    4.4502304    4.4502304    4.4502304    6221.4503   -15919.457    1859.6776    32724.131   -40447.861    11951.349    7165.7731    88.134811 
    7300    2236.2543   -99.833064    2.0234099   -97.809654   -9746.8397    4.4235244    4.4235244    4.4235244   -9746.8397     276.3357    33637.084   -63153.939    16088.229   -15878.454   -9434.0306    86.557616 
    7400    1976.7128   -99.636966    1.7885712   -97.848394    24040.601    4.4062665    4.4062665    4.4062665    24040.601    29904.448    17526.768    24690.587   -23905.294    567.71726   -29087.948    85.548475 
    7500    1344.5423   -99.148272    1.2165701   -97.931702    39176.112    4.4351378    4.4351378    4.4351378    39176.112    57191.308    58632.646    1704.3806   -12554.189     -34179.5    12903.319    87.241147 
    7600     1844.848   -99.557399    1.6692572   -97.888142   -18145.668     4.468783     4.468783     4.468783   -18145.668    5396.0236   -57489.317   -2343.7107   -21323.213   -9147.7749   -1649.1092    89.241691 
    7700    1085.8622   -98.819565   0.98251095   -97.837054    21152.124    4.4546812    4.4546812    4.4546812    21152.124     97445.53    7738.4983   -41727.656   -2482.4322   -54583.463    8372.4194    88.399517 
    7800    1982.1883   -99.598758    1.7935256   -97.805232    16092.539    4.4288646    4.4288646    4.4288646    16092.539    27847.666   -3344.6929    23774.645    7770.1776    -6965.673   -2785.6359    86.871478 
    7900    2146.4593   -99.795301    1.9421615    -97.85314    3062.1686    4.4135913    4.4135913    4.4135913    3062.1686    45950.282    10263.975   -47027.751    13554.276   -55204.443    6653.4351    85.975822 
    8000    1976.7917   -99.686131    1.7886427   -97.897489    21302.063    4.4261101    4.4261101    4.4261101    21302.063    29024.187    33069.893    1812.1108    8117.7617    7340.9691   -16545.628    86.709494 
    8100    1444.8723   -99.215017    1.3073508   -97.907666    4655.0609     4.453763     4.453763     4.453763    4655.0609    14003.433   -2046.9182    2008.6682   -4995.4715   -24109.113    -16838.28    88.344862 
    8200    2263.1737   -99.873198    2.0477671   -97.825431   -42817.627      4.46106      4.46106      4.46106   -42817.627   -62212.749   -16226.496   -50013.637     1353.076   -9155.3564   -17057.354    88.779805 
    8300    1893.6571   -99.505653    1.7134208   -97.792233   -895.56607    4.4344061    4.4344061    4.4344061   -895.56607   -30450.917   -30690.899    58455.118    -12667.98   -28909.598   -13550.613    87.197971 
    8400    1848.4139   -99.507551    1.6724837   -97.835067   -5107.4025    4.4212252    4.4212252    4.4212252   -5107.4025   -9703.5567   -42086.828    36468.177   -4853.4763    1011.4499    11405.591    86.422718 
    8500    2313.9443   -99.966886    2.0937054   -97.873181   -22383.575    4.4306685    4.4306685    4.4306685   -22383.575   -16095.253   -18055.943   -32999.528    2027.5236   -35185.725    8657.0633    86.977671 
    8600    1818.1565   -99.519596    1.6451063   -97.874489   -3781.7488    4.4416547    4.4416547    4.4416547   -3781.7488   -25005.601   -10490.312    24150.667    17833.565    12208.798   -13954.361    87.626282 
    8700    1520.8804   -99.233401    1.3761245   -97.857276    -5428.487    4.4487073    4.4487073    4.4487073    -5428.487   -2609.4647   -3495.2259    -10180.77    5088.3389   -31158.391   -38617.285    88.044351 
    8800    2549.1188   -100.12607    2.3064963   -97.819573   -23622.831    4.4458616    4.4458616    4.4458616   -23622.831   -37008.125   -29109.052   -4751.3143   -14424.969     9070.188   -14653.366      87.8755 
    8900    2066.1901   -99.703934    1.8695322   -97.834402   -33411.002    4.4398331    4.4398331    4.4398331   -33411.002   -50835.775   -26440.545   -22956.687   -16882.022   -34391.381    6391.0524    87.518515 
    9000    2327.0327   -99.943086    2.1055481   -97.837538    8105.6761    4.4154053    4.4154053    4.4154053    8105.6761   -3509.2821    8327.5596    19498.751    6692.6061    1685.9037   -7680.7271    86.081873 
    9100    1479.6623   -99.218752    1.3388295   -97.879923    43498.029    4.4152894    4.4152894    4.4152894    43498.029    17948.072    72468.328    40077.686    30500.811   -32591.828   -10410.361    86.075098 
    9200    1916.7483   -99.627902    1.7343141   -97.893588   -6114.2186    4.4394106    4.4394106    4.4394106   -6114.2186   -18458.382   -775.86594    891.59254    19668.027    15254.203   -10077.094    87.493533 
    9300    1582.1644    -99.29318    1.4315756   -97.861604   -7930.2218    4.4492309    4.4492309    4.4492309   -7930.2218   -39473.899    22361.071   -6677.8374   -5176.1274    -42223.08      1718.54    88.075441 
    9400      2505.45   -100.08612    2.2669838   -97.819131   -52903.769    4.4557819    4.4557819    4.4557819   -52903.769     -63975.8     -53693.3   -41042.207    23462.341    3253.8884   -17147.956     88.46506 
    9500    1938.7797   -99.556435    1.7542486   -97.802187   -16546.753     4.452491     4.452491     4.452491   -16546.753   -27763.067   -24304.544    2427.3532    5504.5488   -15902.466    17320.906     88.26919 
    9600    1893.0328   -99.508258    1.7128559   -97.795402    29535.875    4.4302531    4.4302531    4.4302531    29535.875    42367.012   -17405.946     63646.56    19876.747   -256.82797   -13775.408    86.953209 
    9700    1559.6209   -99.267196    1.4111777   -97.856018    20594.095    4.4268942    4.4268942    4.4268942    20594.095   -62463.774   -3892.5604    128138.62    14542.271   -14986.069     10529.44    86.755585 
    9800    2337.7273   -99.998639    2.1152248   -97.883414   -10140.009    4.4344296    4.4344296    4.4344296   -10140.009   -44312.418   -20186.496    34078.888    22179.792    7758.3144   -11779.968    87.199361 
    9900    1516.9903    -99.25905    1.3726047   -97.886445    18136.673    4.4509487    4.4509487    4.4509487    18136.673   -5240.2209   -4316.0691    63966.308    14708.147   -30294.025    15806.627    88.177496 
   10000    1675.0938   -99.375155    1.5156601   -97.859494   -13718.281    4.4662593    4.4662593    4.4662593   -13718.281   -31548.713    24916.296   -34522.424     18204.15   -12332.904   -8795.2562    89.090581 
   10100    993.91857   -98.704812   0.89931841   -97.805493    31910.649    4.4483439    4.4483439    4.4483439    31910.649   -43713.559    85873.662    53571.844    13595.383    -21643.89    17404.533    88.022779 
   10200    1894.1569   -99.501264     1.713873   -97.787391    33742.578    4.4186591    4.4186591    4.4186591    33742.578    52531.525    35641.649    13054.558    12995.962   -8042.3631    545.43297    86.272325 
   10300    2401.8103    -100.0133    2.1732084   -97.840096    3967.9479    4.4304366    4.4304366    4.4304366    3967.9479   -23196.104    7247.8407    27852.107    6586.0093    -1749.587   -5349.2204    86.964014 
   10400    1730.4305   -99.442989    1.5657299   -97.877259    5338.2987    4.4568026    4.4568026    4.4568026    5338.2987     -10375.6    37763.491   -11372.995    24967.604   -20935.436   -4442.1275     88.52587 
   10500    2141.1219   -99.770521    1.9373321   -97.833188    -22641.24    4.4828724    4.4828724    4.4828724    -22641.24    10805.786   -10213.608   -68515.899    15371.436    1368.4296   -20066.464    90.088455 
   10600    1698.8006   -99.311112    1.5371105   -97.774001   -55323.484    4.4733108    4.4733108    4.4733108   -55323.484   -77675.185   -31077.074   -57218.192    9650.2598   -34462.587   -16385.267    89.513229 
   10700    2077.5384   -99.625027    1.8798004   -97.745226    15985.389    4.4122397    4.4122397    4.4122397    15985.389    12548.076    13569.175    21838.915   -7445.4976   -8988.1695   -23458.129    85.896862 
   10800    1323.1909    -99.00688    1.1972509   -97.809629    39890.002      4.39278      4.39278      4.39278    39890.002   -17545.196    68904.555    68310.648    2762.0104   -2202.3391   -2106.4555     84.76535 
   10900    1888.9256   -99.631614    1.7091396   -97.922474   -2465.6526    4.4143345    4.4143345    4.4143345   -2465.6526   -25190.813    -18414.63    36208.485   -16794.473   -10828.204   -13317.683    86.019263 
   11000    2350.4692   -100.05873     2.126754   -97.931976    -31955.71    4.4517716    4.4517716    4.4517716    -31955.71    -95118.95    10344.904   -11093.084    12039.907    13307.274    3838.1302     88.22641 
   11100    1809.4235   -99.529503    1.6372044   -97.892299   -17963.901    4.4516393    4.4516393    4.4516393   -17963.901   -53987.942   -57511.951    57608.189   -16909.682   -1521.1085    2291.2774    88.218549 
   11200    2042.2247   -99.717544    1.8478478   -97.869696    17288.904     4.416062     4.416062     4.416062    17288.904   -48671.894    91786.989    8751.6181     8871.155    7721.6749    19957.044    86.120292 
   11300    1878.3611   -99.594117    1.6995806   -97.894537    1071.7146    4.4052693    4.4052693    4.4052693    1071.7146   -16260.489   -11555.775    31031.408   -6726.4732    4836.9155   -1227.8902    85.490408 
   11400    1502.6618   -99.278987      1.35964   -97.919347    27535.054    4.4117411    4.4117411    4.4117411    27535.054   -54888.816    70435.147     67058.83   -418.54831    19385.534   -19899.601    85.867743 
   11500    2160.1688   -99.892203    1.9545661   -97.937637   -4776.1249    4.4169204    4.4169204    4.4169204   -4776.1249    531.62037    14999.198   -29859.193   -23337.741    143.06599   -7633.1844    86.170523 
   11600     1152.619   -98.987245    1.0429139   -97.944332     4453.157    4.4346791    4.4346791    4.4346791     4453.157   -41112.991    55149.757   -677.29436     23655.73    13726.372   -21118.604    87.214081 
   11700    2570.1084   -100.21169    2.3254881     -97.8862   -34725.759    4.4335523    4.4335523    4.4335523   -34725.759     -80950.6     31615.09   -54841.768    7804.4107   -34604.193   -25545.079    87.147613 
   11800    1687.3682   -99.408366    1.5267663     -97.8816    3718.1768    4.4140373    4.4140373    4.4140373    3718.1768   -35010.668    25879.919     20285.28    19425.722    20736.771   -16587.002    86.001888 
   11900    2653.8445   -100.29592    2.4012543   -97.894669   -23674.014    4.4195505    4.4195505    4.4195505   -23674.014    -78779.59    30385.504   -22627.956    1759.8906   -8609.7565   -30494.408    86.324544 
   12000    2539.3116   -100.19595    2.2976225   -97.898332    -31536.61    4.4387752    4.4387752    4.4387752    -31536.61   -45786.162    -9789.018    -39034.65    1135.7872    12322.846   -17681.358    87.455967 
   12100    2303.2354   -99.953416    2.0840158     -97.8694   -60831.662    4.4533941    4.4533941    4.4533941   -60831.662   -89187.808   -47303.521   -46003.658   -23773.335    -21668.58   -33858.749    88.322912 
   12200    2330.5234   -99.925973    2.1087065   -97.817267    -6889.549    4.4564979    4.4564979    4.4564979    -6889.549    15293.756    21044.305   -57006.708    15245.386    4626.7746   -11290.065    88.507712 
   12300     1465.044   -99.118224    1.3256026   -97.792622    6422.5545    4.4707625    4.4707625    4.4707625    6422.5545   -41074.708   -13536.879    73879.251    -6228.953   -19916.727    23318.427    89.360339 
   12400     1604.893   -99.184592    1.4521409   -97.732451    33486.776    4.4771165    4.4771165    4.4771165    33486.776   -46189.526    17975.861    128673.99    19624.226      6838.85    47736.699    89.741883 
   12500    1766.4085   -99.341433    1.5982835    -97.74315   -9484.0792    4.4551388    4.4551388    4.4551388   -9484.0792   -24766.524   -20712.995    17027.281   -32020.148   -4313.3698   -14322.068     88.42676 
   12600    2585.7678   -100.07733     2.339657   -97.737676   -23365.693    4.4330986    4.4330986    4.4330986   -23365.693    8677.5928   -38715.564   -40059.107    12973.064    -1338.327    -7228.774    87.120864 
   12700    2187.3033   -99.787597     1.979118   -97.808479   -412.03801    4.4264094    4.4264094    4.4264094   -412.03801   -18591.056   -5962.9496    23317.891   -38732.566    9657.3406   -28614.453    86.727083 
   12800    1465.3098   -99.182518    1.3258431   -97.856675    6253.1965    4.4387449    4.4387449    4.4387449    6253.1965    19118.178   -19984.731    19626.142     31164.66    8951.1867    10419.439    87.454179 
   12900    1919.3624   -99.570438    1.7366794   -97.833758    -9150.091    4.4421052    4.4421052    4.4421052    -9150.091   -32404.184    27119.317   -22165.406    -26442.06   -16695.184   -1603.6924    87.652943 
   13000    1859.5652   -99.517511    1.6825736   -97.834937   -11132.812    4.4329632    4.4329632    4.4329632   -11132.812    7678.6665   -32525.229   -8551.8736     19234.16   -782.73429    228.74453    87.112883 
   13100    1826.6495   -99.496384    1.6527908   -97.843593    19996.656    4.4118299    4.4118299    4.4118299    19996.656    78966.759    29416.502   -48393.293   -8139.6575   -9239.8262   -12348.296    85.872928 
   13200    1908.3977   -99.599611    1.7267583   -97.872853    19320.582     4.401599     4.401599     4.401599    19320.582   -12788.228    40251.666    30498.308    26323.762    3856.3774   -14723.956    85.276906 
   13300    1978.8877   -99.681874    1.7905392   -97.891335   -18847.641    4.4255711    4.4255711    4.4255711   -18847.641    28912.292   -4775.7079   -80679.508   -21026.178   -38918.652   -19256.087     86.67782 
   13400    1798.7393   -99.498869    1.6275371   -97.871332   -19341.374    4.4298717    4.4298717    4.4298717   -19341.374    -28941.41   -22594.554   -6488.1573    36237.877    -5037.644   -2109.1894    86.930755 
   13500    2211.4798   -99.845283    2.0009934    -97.84429    7290.0619    4.4237033    4.4237033    4.4237033    7290.0619    -794.2956    27569.652   -4905.1703    -1653.363   -9172.3879    23320.785    86.568117 
   13600    1318.4513   -99.064172    1.1929624    -97.87121    7991.8682    4.4165894    4.4165894    4.4165894    7991.8682    -6626.572    13024.981    17577.195    34828.277    16993.093   -3256.1658    86.151147 
   13700    2261.3047   -99.908754     2.046076   -97.862678    5155.3853    4.4186689    4.4186689    4.4186689    5155.3853    21371.443    28992.018   -34897.305   -6643.7826    4215.9942    14330.282      86.2729 
   13800     1657.454   -99.372632    1.4996992   -97.872933   -37111.831    4.4114089    4.4114089    4.4114089   -37111.831   -11438.065   -36261.905   -63635.524    27431.654    8826.5965   -13659.829    85.848351 
   13900    2333.3518   -99.970816    2.1112657    -97.85955    19123.778    4.4056367    4.4056367    4.4056367    19123.778    19868.036    61855.393   -24352.094   -2340.7933    18489.391    23087.422    85.511797 
   14000    1256.7904   -99.030125    1.1371704   -97.892954    -26185.35    4.4236287    4.4236287    4.4236287    -26185.35    8934.1996   -39786.655   -47703.594    11945.502   -1757.1455     4155.808    86.563739 
   14100    2254.6792   -99.894184    2.0400811   -97.854103    24037.492    4.4282405    4.4282405    4.4282405    24037.492   -16871.679     68210.43    20773.725    -20782.37   -9261.8847    26992.592    86.834755 
   14200    1401.6426   -99.133678    1.2682357   -97.865443   -16189.258    4.4413208    4.4413208    4.4413208   -16189.258    7123.6887   -34077.646   -21613.817    37178.334    11923.263   -7502.5797    87.606518 
   14300    1832.7895   -99.478551    1.6583464   -97.820205   -2284.6698    4.4340975    4.4340975    4.4340975   -2284.6698    3379.4507    18705.913   -28939.373   -10914.106    3881.4661    424.09136    87.179768 
   14400    1321.6568    -98.99934    1.1958629   -97.803477    36329.229    4.4165601    4.4165601    4.4165601    36329.229    24033.399     79931.78    5022.5075    24992.178    28193.087    617.32369    86.149436 
   14500    2243.8758   -99.851882     2.030306   -97.821576    4051.5192    4.4266035    4.4266035    4.4266035    4051.5192    6895.4363    24465.487   -19206.366   -10584.329    6546.7617    5832.9807    86.738491 
   14600    1652.3932   -99.337973    1.4951201   -97.842853   -28179.596     4.431428     4.431428     4.431428   -28179.596   -26333.128   -29993.952   -28211.709    8366.0238    2750.4898   -17623.338    87.022408 
   14700    2722.0385   -100.30325    2.4629576   -97.840294    185.20081    4.4198202    4.4198202    4.4198202    185.20081    37206.473    3782.3926   -40433.263   -226.08171    -5043.291    16923.175    86.340351 
   14800    1448.6087   -99.182352    1.3107316    -97.87162   -26130.927    4.4173783    4.4173783    4.4173783   -26130.927    10448.599   -40619.522   -48221.857   -899.62278    11930.773   -22521.622    86.197325 
   14900    2633.1247   -100.23751    2.3825065   -97.855003   -8266.5904    4.4087617    4.4087617    4.4087617   -8266.5904   -14856.237    6950.6101   -16894.144    12630.634    5758.5338    -18458.99    85.693892 
   15000    1186.4689   -98.984502     1.073542    -97.91096    20732.195     4.415233     4.415233     4.415233    20732.195    19058.458    34125.806    9012.3215    1383.3591   -5558.0012     18922.76    86.071801 
   15100    2231.1582   -99.931524    2.0187988   -97.912725   -27934.982    4.4399813    4.4399813    4.4399813   -27934.982   -1809.1061   -42673.755   -39322.085    7321.0662   -21565.526   -9032.6001    87.527279 
   15200     1714.258   -99.427548    1.5510966   -97.876451   -13647.139    4.4447004    4.4447004    4.4447004   -13647.139    1393.9939   -8711.1703   -33624.241   -2904.6456   -18147.751   -2352.2215    87.806666 
   15300    1973.7861   -99.624906    1.7859231   -97.838983    6114.4908    4.4309469    4.4309469    4.4309469    6114.4908    71596.613   -26385.254   -26867.887    10801.221    4706.6506   -27665.884    86.994068 
   15400    2255.3915   -99.879935    2.0407256    -97.83921   -15920.046    4.4161002    4.4161002    4.4161002   -15920.046   -5909.6648   -23949.333   -17901.142      14656.7   -24487.461    15473.373    86.122526 
   15500    1278.5212   -99.034977    1.1568328   -97.878144    43770.353      4.40244      4.40244      4.40244    43770.353    25887.579    41633.364    63790.117   -9231.7674   -22776.255   -28255.898    85.325796 
   15600    2560.7975    -100.2179    2.3170634   -97.900839   -15630.074    4.4226067    4.4226067    4.4226067   -15630.074   -24199.094    2051.5677   -24742.695    2449.4109   -5239.8335     13843.86    86.503755 
   15700    1351.5456   -99.145793    1.2229069   -97.922886   -20708.705    4.4354523    4.4354523    4.4354523   -20708.705    1598.2534   -39127.058   -24597.311    3988.0571    5162.2554   -42314.311    87.259707 
   15800    2142.5152   -99.813246    1.9385928   -97.874653    13809.642    4.4258349    4.4258349    4.4258349    13809.642    -29542.65    44773.374    26198.203   -3714.1774    -9709.963    4909.9667    86.693319 
   15900     1239.468    -99.01007    1.1214967   -97.888573   -22756.772    4.4134535    4.4134535    4.4134535   -22756.772   -13183.152    10771.607    -65858.77   -4809.5045    13677.056   -50828.589    85.967771 
   16000    2461.9779   -100.11394    2.2276493   -97.886289    8872.1635    4.4147739    4.4147739    4.4147739    8872.1635    2233.0567    63758.504   -39375.071   -4596.0151   -14094.279    17503.941    86.044951 
   16100    1429.5917   -99.206272    1.2935247   -97.912748   -48879.912    4.4367814    4.4367814    4.4367814   -48879.912   -22731.116   -30703.479    -93205.14    2803.3204    14640.518   -53853.108    87.338174 
   16200    1961.4131   -99.643675    1.7747278   -97.868947    11251.694    4.4344463    4.4344463    4.4344463    11251.694    -51283.49    42025.158    43013.412      11308.8    18854.534    5206.3992    87.200342 
   16300    1700.4372   -99.405848    1.5385914   -97.867257   -2739.9563    4.4195692    4.4195692    4.4195692   -2739.9563    59027.182   -13516.251     -53730.8   -2707.1075    10903.479   -41197.112    86.325641 
   16400    2234.6939   -99.895782     2.021998   -97.873784   -19549.013    4.4044859    4.4044859    4.4044859   -19549.013   -27362.348   -25758.595   -5526.0978    27493.973    5013.8224    18804.225    85.444805 
   16500    1947.7799   -99.671296    1.7623922   -97.908904    11504.127    4.3960359    4.3960359    4.3960359    11504.127    22680.396   -7890.6249     19722.61   -9012.7661    3527.9649   -43864.835    84.953972 
   16600    1670.2902   -99.463148    1.5113137   -97.951834    935.68991    4.4231789    4.4231789    4.4231789    935.68991    37482.764   -21809.267   -12866.427    18048.934    11559.428    8218.7751    86.537336 
   16700    1355.6045   -99.150966    1.2265795   -97.924386   -17607.724     4.438269     4.438269     4.438269   -17607.724    12695.131   -62783.056   -2735.2475    5562.0044   -6498.3931   -30675.043    87.426053 
   16800    2176.9216   -99.842058    1.9697244   -97.872333    11228.083     4.434806     4.434806     4.434806    11228.083    85997.251   -31013.694   -21299.309    7476.2058   -24697.457   -1916.0788    87.221567 
   16900    1519.8742   -99.238699    1.3752141   -97.863485   -1718.9547     4.419832     4.419832     4.419832   -1718.9547    36305.968   -31817.923   -9644.9096    15367.154    5846.6818   -22826.753    86.341044 
   17000    2406.6977   -100.03216    2.1776307   -97.854532    9317.0852    4.4081257    4.4081257    4.4081257    9317.0852    64146.254    1414.4404   -37609.439   -12929.839    -16451.17   -11112.621    85.656815 
   17100    1473.8277   -99.230776    1.3335503   -97.897226    18673.146    4.4044536    4.4044536    4.4044536    18673.146    102875.57    -13780.89   -33075.243   -15138.922   -6240.3565    -35164.76    85.442928 
   17200     2065.754   -99.781807    1.8691377    -97.91267   -619.66806    4.4062754    4.4062754    4.4062754   -619.66806    23064.314    -18811.39   -6111.9283   -8813.0983     2494.289   -4602.1907    85.548998 
   17300    2323.7317   -100.03526    2.1025612   -97.932698   -16665.774    4.4235881    4.4235881    4.4235881   -16665.774   -10084.585    -1355.466   -38557.271   -13665.435   -23642.491   -13791.505    86.561354 
   17400    1403.8603   -99.187198    1.2702423   -97.916956   -18082.769    4.4324035    4.4324035    4.4324035   -18082.769    19828.995    -37449.94   -36627.361   -3022.9798    7837.3749    -28184.97    87.079891 
   17500    2307.9469   -99.981285    2.0882788   -97.893006     4347.005    4.4198579    4.4198579    4.4198579     4347.005    16936.149    20643.896    -24539.03   -5248.8648    -14091.84    4680.7152    86.342558 
   17600    1595.5735   -99.351122    1.4437085   -97.907413   -10230.791    4.4213546    4.4213546    4.4213546   -10230.791    46975.255   -16690.447    -60977.18    1938.0027    3486.9553   -44146.957    86.430306 
   17700    1968.9675   -99.688586    1.7815632   -97.907023    6107.0231    4.4218357    4.4218357    4.4218357    6107.0231    29725.206    18902.909   -30307.046    9627.7694    12771.561   -5049.4791    86.458519 
   17800    1236.8097   -99.034168    1.1190914   -97.915077   -13350.146    4.4201093    4.4201093    4.4201093   -13350.146    38826.896   -68386.682   -10490.653    48949.219    9695.0747   -22335.383    86.357295 
   17900    2691.1264   -100.31798    2.4349877   -97.882988   -3513.7919    4.4174396    4.4174396    4.4174396   -3513.7919    26145.126   -10882.534   -25803.967   -25291.964    6224.1555   -5982.2097    86.200915 
   18000    1207.8458   -98.989301    1.0928843   -97.896417    21476.964    4.4305201    4.4305201    4.4305201    21476.964    64260.012   -4182.3698    4353.2508    21737.531    6361.0815   -19330.874    86.968931 
   18100    2432.9612   -100.05522    2.2013944   -97.853822    7032.1832    4.4418881    4.4418881    4.4418881    7032.1832    15894.377    3410.6727    1791.4997   -19161.977    12450.568   -5165.1558    87.640096 
   18200    1216.7045   -98.966935    1.1008998   -97.866036   -2751.5142    4.4338258    4.4338258    4.4338258   -2751.5142    12775.659    24655.703   -45685.904    16028.408    14431.737   -41534.208    87.163743 
   18300    2687.8117   -100.27912    2.4319885   -97.847135   -18057.568     4.407654     4.407654     4.407654   -18057.568   -17700.996   -31047.212   -5424.4944   -25574.459   -17933.216   -640.57014     85.62932 
   18400    1320.9734   -99.088858    1.1952445   -97.893614    22974.476    4.3995903    4.3995903    4.3995903    22974.476    37955.553    50836.136   -19868.261     19385.03    18120.299   -9598.1911    85.160204 
   18500    2247.6682   -99.952169    2.0337374   -97.918432   -20859.697    4.4216031    4.4216031    4.4216031   -20859.697   -11163.975   -55466.557    4051.4419   -22807.789   -18114.414   -9878.6335     86.44488 
   18600    1299.0287    -99.10638    1.1753885   -97.930992    8721.5592    4.4372016    4.4372016    4.4372016    8721.5592   -5687.4537    43355.302    -11503.17    33531.192    1593.6664    13510.848    87.362991 
   18700    2111.1222   -99.796399    1.9101878   -97.886211   -28453.436    4.4477597    4.4477597    4.4477597   -28453.436   -18168.599   -28713.003   -38478.707   -10136.248    -6610.722   -23579.973    87.988099 
   18800    2204.2025   -99.847644    1.9944087   -97.853235   -23932.243    4.4232394    4.4232394    4.4232394   -23932.243   -17228.676   -14407.778   -40160.275    -7841.273    11657.987    3220.7301    86.540888 
   18900    2307.8766    -99.92067    2.0882153   -97.832454    33724.441    4.3930596    4.3930596    4.3930596    33724.441    46928.838    67652.764    -13408.28     25988.52    5440.1432   -26850.182    84.781537 
   19000    1831.5571   -99.545594    1.6572313   -97.888363   -18670.067    4.4183108    4.4183108    4.4183108   -18670.067   -58893.794    28382.584   -25498.992   -15140.534    12856.709    17861.761    86.251923 
   19100    1956.9845   -99.651559    1.7707207   -97.880838   -17067.198    4.4422378    4.4422378    4.4422378   -17067.198    -331.6347   -9323.1123   -41546.847    19819.167   -6946.2637    -37445.77    87.660798 
   19200    2085.1964   -99.739822    1.8867296   -97.853093   -36168.672     4.434004     4.434004     4.434004   -36168.672   -56382.523     25714.37   -77837.864   -12470.436    2977.1432    24849.104    87.174256 
   19300    2062.8274   -99.714332    1.8664896   -97.847843    -38480.03    4.4031919    4.4031919    4.4031919    -38480.03   -43206.643    -47243.51   -24989.938    42957.332    2456.7176   -42698.187    85.369521 
   19400    2219.8893   -99.897823    2.0086025    -97.88922    12462.355    4.4012405    4.4012405    4.4012405    12462.355   -29076.189    97737.749   -31274.495   -11723.629     9014.159    8657.3752    85.256066 
   19500    1389.8079   -99.166854    1.2575274   -97.909326   -12713.963    4.4170423    4.4170423    4.4170423   -12713.963   -22141.449    -36755.11    20754.671    27705.446    4150.5918   -40887.908    86.177656 
   19600    1917.6756    -99.62196    1.7351532   -97.886806    35424.866    4.4197624    4.4197624    4.4197624    35424.866    10137.509    54821.841    41315.248   -28607.874    20670.542    8420.9572     86.33696 
   19700     1521.342   -99.257169    1.3765422   -97.880627   -35044.363    4.4355601    4.4355601    4.4355601   -35044.363   -45073.961   -27918.241   -32140.886    8310.9969   -11174.729   -11026.663     87.26607 
   19800     2430.234   -100.04033    2.1989268   -97.841406   -8272.1285    4.4274214    4.4274214    4.4274214   -8272.1285   -56662.863   -29862.741    61709.219   -1102.6553    29335.751   -2213.9839     86.78658 
   19900    1581.4163   -99.284887    1.4308987   -97.853989   -12512.611    4.4265743    4.4265743    4.4265743   -12512.611    26476.918   -66054.706    2039.9551    9015.6898    4180.1106   -17110.535    86.736774 
   20000    2258.1784   -99.879593    2.0432472   -97.836346   -6861.6051    4.4359353    4.4359353    4.4359353   -6861.6051   -13603.367   -65456.588     58475.14    -2170.536    17273.056    14874.401    87.288215 
   20100    1375.1064    -99.08061    1.2442252   -97.836384   -3645.8495    4.4290898    4.4290898    4.4290898   -3645.8495    33305.301   -33138.008   -11104.841   -2404.7631     6711.199   -34089.116    86.884728 
   20200    2198.3441   -99.810806     1.989108   -97.821698    12055.627    4.4140726    4.4140726    4.4140726    12055.627   -55229.982    84859.354      6537.51   -22008.783   -11447.739    2886.8269    86.003951 
   20300    1651.1694   -99.351723    1.4940128    -97.85771    18024.032    4.4038379    4.4038379    4.4038379    18024.032    3264.7464   -27948.227    78755.577    9062.3556   -80.680198   -54691.131      85.4071 
   20400    2342.9065   -99.996606    2.1199111   -97.876695   -595.79933    4.4078846    4.4078846    4.4078846   -595.79933   -51021.289    1230.9651    48002.926   -10127.307   -10230.979    10017.425    85.642759 
   20500    1555.7019   -99.321113    1.4076317   -97.913482    9827.1241    4.4274599    4.4274599    4.4274599    9827.1241   -22497.746    26536.855    25442.264    3578.0622    8130.5076   -48065.643    86.788843 
   20600    2283.3977   -99.934625    2.0660662   -97.868559   -51479.427    4.4461303    4.4461303    4.4461303   -51479.427   -44860.954   -29471.394   -80105.935    5189.7665    513.61898    9388.9799    87.891437 
   20700    1193.1757    -98.93406    1.0796104    -97.85445    10919.851    4.4151527    4.4151527    4.4151527    10919.851    44611.917   -29279.656    17427.292   -162.49197    8747.5725   -57800.067    86.067101 
   20800    2670.8686   -100.24991     2.416658   -97.833247    3496.1995    4.3828537    4.3828537    4.3828537    3496.1995   -4332.6992    15251.118   -429.82017   -5187.8999     10327.37    19124.841    84.192021 
   20900    1132.3674   -98.922568    1.0245898   -97.897978     8523.402    4.3910476    4.3910476    4.3910476     8523.402    32309.585   -14185.963     7446.584   -91.276895     9583.766   -69970.111    84.665104 
   21000    2398.4283   -100.09359    2.1701484   -97.923444   -13837.941    4.4183891    4.4183891    4.4183891   -13837.941   -1136.4265    7128.3353   -47505.732    7061.8841    8545.9458    25015.653    86.256508 
   21100    1495.4874   -99.247258    1.3531485   -97.894109   -42798.942    4.4402546    4.4402546    4.4402546   -42798.942   -24786.947     -48001.3    -55608.58    -1721.889    26786.797   -42377.994     87.54344 
   21200    1705.3813   -99.392563    1.5430648   -97.849498    12150.406    4.4187595    4.4187595    4.4187595    12150.406   -17770.648    5006.2552     49215.61    3265.0233   -9035.7183     4723.276    86.278205 
   21300     2140.968   -99.787965    1.9371929   -97.850773   -16638.992    4.3957853    4.3957853    4.3957853   -16638.992     49962.06   -25956.943   -73922.094   -7043.2186    17288.817   -35116.847    84.939447 
   21400    1322.2836   -99.077449      1.19643   -97.881019    33426.883    4.4001945    4.4001945    4.4001945    33426.883    9131.7939    28650.325    62498.531   -8688.8799   -5113.9391    -7734.328    85.195298 
   21500    1782.2852   -99.530624    1.6126491   -97.917974    11952.356    4.4183894    4.4183894    4.4183894    11952.356     61488.92     20213.63   -45845.481   -12651.977    8261.0885   -21320.271    86.256524 
   21600    2072.6156   -99.746053    1.8753461   -97.870707   -48639.358    4.4512647    4.4512647    4.4512647   -48639.358    922.09816   -85014.325   -61825.849   -2471.4805   -7536.3313   -20198.878    88.196276 
   21700    1367.0883    -99.08516    1.2369703    -97.84819   -21797.845    4.4325503    4.4325503    4.4325503   -21797.845     1854.036   -50397.454   -16850.117   -934.68179    18221.098   -8520.6419    87.088544 
   21800    2682.1908   -100.24304    2.4269026    -97.81614    29074.853    4.3790174    4.3790174    4.3790174    29074.853    17786.691    23875.087    45562.781   -2811.6736   -7065.0418   -11600.527    83.971135 
   21900    1917.6421   -99.615381    1.7351229   -97.880258    4645.8317     4.373716     4.373716     4.373716    4645.8317    28879.791   -42710.461    27768.165   -4737.3434   -19.835387   -5087.4164    83.666527 
   22000    1867.8477   -99.622138    1.6900678    -97.93207    18804.208    4.4060047    4.4060047    4.4060047    18804.208     -8234.46   -23569.164    88216.248    11260.663    9208.7455   -17865.868    85.533229 
   22100    1713.8195   -99.473021    1.5506999   -97.922321   -33354.901    4.4282393    4.4282393    4.4282393   -33354.901   -8773.1729   -44630.786   -46660.744   -22417.038    11560.472   -18543.934    86.834689 
   22200    2344.7111   -100.00621    2.1215439    -97.88467   -23952.091    4.4111777    4.4111777    4.4111777   -23952.091   -44066.932   -19316.056   -8473.2851     17296.58   -4266.5297     24816.56    85.834854 
   22300    1603.7592   -99.323618     1.451115   -97.872503    6658.2395    4.3860827    4.3860827    4.3860827    6658.2395    25072.608   -21415.011    16317.122   -44037.792    2342.5554   -25918.878    84.378239 
   22400    2413.0258   -100.07359    2.1833564   -97.890236    23497.743    4.3834389    4.3834389    4.3834389    23497.743    47097.518    35165.243   -11769.532    27328.316    16100.852    24909.894    84.225749 
   22500    1415.9568   -99.203292    1.2811875   -97.922104    -21451.86    4.4140573    4.4140573    4.4140573    -21451.86   -14056.759   -62801.575    12502.753   -68482.457   -14498.805   -19564.509    86.003059 
   22600    2084.2386   -99.760652    1.8858629   -97.874789   -11972.613    4.4283075    4.4283075    4.4283075   -11972.613   -6507.2859    5981.2201   -35391.773    17656.832    31249.705    7808.3427    86.838697 
   22700    1410.1157   -99.140803    1.2759023   -97.864901   -17640.622    4.4140671    4.4140671    4.4140671   -17640.622    10631.522   -56515.255   -7038.1329   -56845.036   -10591.973   -22749.474    86.003632 
   22800    2091.8806    -99.76633    1.8927775   -97.873552    44995.823    4.3803015    4.3803015    4.3803015    44995.823     60602.08    27468.732    46916.658    3160.4386    28883.436     6948.253    84.045025 
   22900    1782.4464   -99.542396     1.612795   -97.929601    11516.148    4.3706801    4.3706801    4.3706801    11516.148     4316.114    11758.401    18473.928   -53642.676   -11317.837   -4040.8415    83.492421 
   23000    1932.1342    -99.72691    1.7482357   -97.978674    5270.4637    4.3928326    4.3928326    4.3928326    5270.4637    21569.641   -10098.681    4340.4309   -429.26704    14675.438    12736.106    84.768394 
   23100    1736.9842   -99.518981    1.5716598   -97.947322   -17328.251     4.428496     4.428496     4.428496   -17328.251    -67546.84    31523.572   -15961.484   -15108.794    11204.523    2788.9199    86.849787 
   23200    1719.5564   -99.440283    1.5558908   -97.884393   -5019.3363    4.4371676    4.4371676    4.4371676   -5019.3363    12328.563   -14377.889   -13008.684   -2899.2778    10243.014   -10185.368     87.36098 
   23300    1593.4472   -99.294711    1.4417846   -97.852926    6751.5357    4.4118584    4.4118584    4.4118584    6751.5357   -12336.582    27502.186    5089.0036   -26200.577   -1199.1837    26124.797    85.874594 
   23400    2197.4487    -99.83196    1.9882978   -97.843663    4605.8379    4.3753383    4.3753383    4.3753383    4605.8379     9481.354     5609.666   -1273.5063   -3121.7582   -47.234251   -54214.795     83.75966 
   23500    2014.7792    -99.70628    1.8230146   -97.883265    22588.055     4.373922     4.373922     4.373922    22588.055    16849.405     12515.32    38399.442    18651.064    1509.6335    38384.111    83.678351 
   23600    1773.1403   -99.527231    1.6043746   -97.922856   -18830.081    4.4109892    4.4109892    4.4109892   -18830.081    44310.908   -50856.849   -49944.303   -32670.472    23520.954   -40599.498    85.823846 
   23700    2050.2414   -99.750813    1.8551015   -97.895712   -11385.507    4.4249749    4.4249749    4.4249749   -11385.507     1547.146   -8388.1618   -27315.505    27987.306    24575.874    13475.743    86.642792 
   23800      1497.21   -99.233606    1.3547071   -97.878899   -8307.8928    4.4134525    4.4134525    4.4134525   -8307.8928    77514.619   -75276.752   -27161.545     -8066.57    10780.476   -46548.686    85.967714 
   23900    2696.8049   -100.28491    2.4401257   -97.844787   -13789.794     4.404813     4.404813     4.404813   -13789.794     4324.201    5878.1682    -51571.75    22706.978    28621.498    18003.075    85.463843 
   24000    1483.5228   -99.214637    1.3423226   -97.872314   -16943.821    4.4067092    4.4067092    4.4067092   -16943.821    26788.127   -67297.872   -10321.718    3900.9324   -5014.8452   -63192.298    85.574264 
   24100    2360.7042   -100.00514    2.1360147   -97.869127    3885.1043    4.4122671    4.4122671    4.4122671    3885.1043   -242.68624   -2759.4382    14657.437   -17286.246    4524.1898    11103.046    85.898459 
   24200    1606.0741   -99.336689    1.4532096   -97.883479   -16566.853    4.4090591    4.4090591    4.4090591   -16566.853    93825.631   -78224.767   -65301.423    27469.194   -12618.857   -77108.319    85.711238 
   24300    2223.9004     -99.8842    2.0122318   -97.871968   -2867.2349    4.3967575    4.3967575    4.3967575   -2867.2349   -4105.4491   -24469.259    19973.004   -28121.689    8906.0831    22889.018    84.995812 
   24400    1837.6872   -99.541644     1.662778   -97.878866   -7971.4005    4.4053374    4.4053374    4.4053374   -7971.4005    53804.113   -37305.648   -40412.667    10205.189    -5256.001     -70931.9     85.49437 
   24500    2044.4012   -99.702406    1.8498171   -97.852588   -7271.1751     4.408544     4.408544     4.408544   -7271.1751   -40690.624   -14908.691    33785.789   -5544.9035   -116.78969    19770.913      85.6812 
   24600    2226.5431   -99.870956     2.014623   -97.856333   -8156.4234    4.4027501    4.4027501    4.4027501   -8156.4234    147.97606   -9871.7773   -14745.469    6938.3395    11159.804   -39438.278    85.343828 
   24700    1446.2945   -99.165299    1.3086377   -97.856661   -9464.6348    4.4009202    4.4009202    4.4009202   -9464.6348    25173.264   -63837.988     10270.82   -13972.409     7916.648   -15880.847    85.237458 
   24800    2364.5034    -99.99611    2.1394524   -97.856657   -6285.4019    4.3902259    4.3902259    4.3902259   -6285.4019    25644.066   -11381.418   -33118.853    8196.1016   -1659.4095   -26394.091    84.617581 
   24900    1790.7663   -99.498079     1.620323   -97.877756     481.0811     4.391342     4.391342     4.391342     481.0811    12.153788   -40349.621    41780.711   -35027.269    2608.4927   -2699.7543    84.682132 
   25000    1926.5521   -99.633973    1.7431848   -97.890788   -9333.2729    4.3993369    4.3993369    4.3993369   -9333.2729    19540.397   -40768.201   -6772.0148    33923.917    5870.6516   -29468.395    85.145493 
   25100    2019.8691   -99.721261      1.82762   -97.893641   -24710.385     4.399611     4.399611     4.399611   -24710.385   -9913.7412   -45542.286   -18675.129   -45467.863   -565.34493    10200.317    85.161411 
   25200    1721.0604   -99.434184    1.5572516   -97.876933    1174.1571    4.3969846    4.3969846    4.3969846    1174.1571    26433.579   -28135.354    5224.2463    24994.822     146.6226   -44148.654    85.008987 
   25300    2130.6634   -99.802637     1.927869   -97.874768   -2610.3735    4.3978629    4.3978629    4.3978629   -2610.3735   -20668.538   -4004.0684    16841.486     -20531.2    4859.6666    18322.479    85.059935 
   25400    1862.4262   -99.552397    1.6851624   -97.867235    6582.9328    4.4069412    4.4069412    4.4069412    6582.9328    11989.625    -1742.045    9501.2185    3245.5151    2844.8275   -41443.326    85.587781 
   25500    1472.3283   -99.209759    1.3321936   -97.877565    7372.0472    4.4014552    4.4014552    4.4014552    7372.0472    9524.5034    31550.734   -18959.096   -10146.913    5303.9936    27765.003    85.268548 
   25600    2491.6155   -100.13967     2.254466   -97.885206   -25807.231    4.3860736    4.3860736    4.3860736   -25807.231   -26040.116   -33713.977   -17667.601   -6042.9327    3345.7037   -40190.907    84.377714 
   25700    1285.7445   -99.073309    1.1633686    -97.90994    29092.007    4.3781353    4.3781353    4.3781353    29092.007     12981.74     93811.31   -19517.028    -2868.501    4941.0551    26800.906      83.9204 
   25800    2640.4858    -100.3126     2.389167   -97.923436    -9155.787    4.3946119    4.3946119    4.3946119    -9155.787   -2561.9116   -734.17597   -24171.273   -5591.5534    889.78578    -26641.31    84.871445 
   25900    1205.3176   -99.012274    1.0905967   -97.921678   -18562.905    4.4090201    4.4090201    4.4090201   -18562.905   -39914.743    24959.037    -40733.01    21887.354    1136.9261     27681.95    85.708961 
   26000    2528.7574   -100.16531    2.2880728   -97.877234    14249.666    4.4043772    4.4043772    4.4043772    14249.666    20128.988    21187.532    1432.4765   -2656.8256   -9528.4368    2124.5152    85.438483 
   26100     1235.889   -99.015114    1.1182584   -97.896856    2727.9452    4.3807762    4.3807762    4.3807762    2727.9452   -12625.647    23447.291   -2637.8087    3017.8936   -1191.6137    17071.502     84.07235 
   26200    2584.2876   -100.23135    2.3383178   -97.893033    5252.5709    4.3693489    4.3693489    4.3693489    5252.5709    43364.185   -25873.905   -1732.5673    20165.133    11668.434     5640.085    83.416159 
   26300    1928.3163   -99.676956    1.7447811   -97.932174   -8315.2722    4.3882086    4.3882086    4.3882086   -8315.2722    26111.741   -21096.306   -29961.252   -10314.716   -21092.704     5832.688     84.50099 
   26400     1808.568   -99.545558    1.6364303   -97.909127   -27020.476    4.4167688    4.4167688    4.4167688   -27020.476   -10560.156   -46909.015   -23592.257    17974.987    6550.8582   -9522.6485    86.161648 
   26500    2308.5979   -99.978473    2.0888679   -97.889606   -20900.552    4.4020625    4.4020625    4.4020625   -20900.552    16212.233   -28587.588   -50326.301    -4141.886   -737.92937   -33866.062    85.303847 
   26600    1578.1065   -99.302288     1.427904   -97.874384    19263.939    4.3702896    4.3702896    4.3702896    19263.939    29405.019    58153.442   -29766.645    13805.974    17333.013   -2376.6887    83.470046 
   26700    2066.0022   -99.774018    1.8693622   -97.904656   -475.10177    4.3833705    4.3833705    4.3833705   -475.10177    24118.531    2110.5805   -27654.417    9288.4663   -902.51404   -51417.461    84.221806 
   26800    1769.4588   -99.521805    1.6010435   -97.920761    11464.478    4.3949077    4.3949077    4.3949077    11464.478    13263.304    74847.958   -53717.827    10109.521    23414.164    -19951.97    84.888582 
   26900    1718.5421    -99.46965     1.554973   -97.914677   -25432.007    4.4094844    4.4094844    4.4094844   -25432.007     28960.23   -36567.759   -68688.493    18934.762   -12423.633   -13706.493     85.73604 
   27000     1918.326   -99.623727    1.7357417   -97.887985   -8732.1556    4.4060135    4.4060135    4.4060135   -8732.1556   -45932.303    79007.217    -59271.38    -4758.904    32974.687   -24653.955    85.533742 
   27100    1836.4246   -99.551781    1.6616355   -97.890145   -10391.258    4.3891386    4.3891386    4.3891386   -10391.258     3177.887   -22647.518   -11704.144    1304.3686    604.17808   -21276.511    84.554728 
   27200    2026.0197    -99.73246    1.8331852   -97.899275    9957.0623    4.3828249    4.3828249    4.3828249    9957.0623     21470.57    33027.681   -24627.064   -3250.3494    11831.628     6698.825    84.190359 
   27300    1793.4452   -99.545986    1.6227469   -97.923239    832.51795    4.3917625    4.3917625    4.3917625    832.51795    13770.906   -15679.204    4405.8519    667.77554    3416.5724   -44006.016    84.706459 
   27400    2265.5413   -99.964656    2.0499094   -97.914747   -21294.878     4.411239     4.411239     4.411239   -21294.878    -18815.13   -23302.977   -21766.528   -9954.7871    4361.9869    20075.241    85.838429 
   27500    1419.9509   -99.187522    1.2848014    -97.90272    18323.199    4.4044898    4.4044898    4.4044898    18323.199    41376.302   -12597.068    26190.362   -5367.7984    26742.499   -51061.877    85.445034 
   27600    2641.0779   -100.27729    2.3897028   -97.887592   -14896.282    4.4023676    4.4023676    4.4023676   -14896.282   -8590.4996    -25284.31   -10814.036   -2100.1838   -8527.7836     26407.09    85.321584 
   27700    1432.2299   -99.204071    1.2959117   -97.908159   -2888.8593    4.3965553    4.3965553    4.3965553   -2888.8593   -24893.081   -7669.8153    23896.318   -23277.013    10842.677   -33239.163    84.984091 
   27800    2780.1264   -100.42361    2.5155168   -97.908093   -14454.497    4.3974166    4.3974166    4.3974166   -14454.497   -47751.623   -16830.318     21218.45    11781.323   -530.37374    12292.786    85.034044 
   27900     1304.812   -99.122089    1.1806214   -97.941468   -15050.947    4.4005093    4.4005093    4.4005093   -15050.947   -22050.057   -52846.629    29743.845   -21024.408    4745.1133   -45367.679    85.213586 
   28000    2266.8374   -99.989234    2.0510821   -97.938152   -23338.762    4.3977897    4.3977897    4.3977897   -23338.762   -52508.405   -29401.121    11893.238    20405.559    11959.616   -3809.5638     85.05569 
   28100    2032.8634   -99.780098    1.8393775    -97.94072    7838.9024    4.3866006    4.3866006    4.3866006    7838.9024   -30521.988   -13000.101    67038.797   -4250.5239    5352.7383   -22540.666     84.40813 
   28200    1562.3624   -99.367594    1.4136583   -97.953936   -12373.091    4.3984906    4.3984906    4.3984906   -12373.091    8945.2532   -28204.027   -17860.498    516.21447    32259.468   -12187.056    85.096367 
   28300    2109.0853   -99.839755    1.9083447    -97.93141   -14833.314    4.4168659    4.4168659    4.4168659   -14833.314    4321.5735   -18982.226   -29839.288    18912.313   -13240.748    5030.3273    86.167331 
   28400    1278.1634   -99.067561    1.1565091   -97.911052    9963.8248    4.4157511    4.4157511    4.4157511    9963.8248    41425.839    36165.249   -47699.615    7594.9078    29198.889   -30978.283    86.102102 
   28500    2024.1675   -99.714815    1.8315093   -97.883306    84.546418    4.4075875    4.4075875    4.4075875    84.546418    70378.167   -30411.417   -39713.111    12193.801   -18626.634    25839.932    85.625442 
   28600    1503.5582   -99.242132    1.3604511   -97.881681    24389.484    4.3972962    4.3972962    4.3972962    24389.484     83598.86    20591.646   -31022.055    3672.2329    23014.253   -9302.2851    85.027058 
   28700    1793.5136   -99.525404    1.6228088   -97.902595   -5031.0282    4.3956601    4.3956601    4.3956601   -5031.0282     12208.98   -7635.9713   -19666.094   -14138.592   -9744.2951    21924.557    84.932188 
   28800    2216.7165   -99.908108    2.0057317   -97.902376    15562.287    4.3985681    4.3985681    4.3985681    15562.287    36591.462    34189.255   -24093.854    13440.655    19153.609   -18512.115    85.100865 
   28900    1593.8338     -99.3669    1.4421344   -97.924766   -41175.952    4.4017969    4.4017969    4.4017969   -41175.952   -39385.687   -52600.015   -31542.153    -49870.17   -4023.7115    30181.893    85.288409 
   29000    2420.9925   -100.09482    2.1905648   -97.904256    9286.4542    4.3968923    4.3968923    4.3968923    9286.4542    16558.962     46642.41   -35342.009    11600.635    30.325655   -17023.038     85.00363 
   29100    1515.6182   -99.283643    1.3713632   -97.912279   -23574.434    4.4015431    4.4015431    4.4015431   -23574.434    5228.4938   -45001.958   -30949.837   -33706.237   -10975.597    39910.358    85.273652 
   29200    2264.6478   -99.938145    2.0491009   -97.889045    6386.2225    4.4101672    4.4101672    4.4101672    6386.2225    6849.8182     59352.37   -47043.521    19449.793    15237.917   -19218.779    85.775878 
   29300    1619.1489   -99.354637    1.4650399   -97.889597   -32866.852    4.4121303    4.4121303    4.4121303   -32866.852   -25258.162   -18132.441   -55209.954   -38558.167    3191.2684    41224.015    85.890472 
   29400    2603.8539   -100.24259    2.3560218   -97.886571   -4530.0335     4.400467     4.400467     4.400467   -4530.0335   -23704.515    956.54941    9157.8654    8971.7177    6254.0037   -16121.455    85.211125 
   29500    1477.9568   -99.254674    1.3372863   -97.917387    29225.412      4.39078      4.39078      4.39078    29225.412    76808.692   -8643.5173    19511.062   -45947.892   -4767.8491    38894.174    84.649626 
   29600     2807.458   -100.45357     2.540247   -97.913327   -10308.674    4.4169086    4.4169086    4.4169086   -10308.674    27755.287   -30119.103   -28562.206   -264.48925    7477.6733     3910.922    86.169831 
   29700    1234.9652   -99.007737    1.1174225   -97.890314   -19287.475    4.4429275    4.4429275    4.4429275   -19287.475   -2304.7083   -88436.355     32878.64   -30383.854   -14585.099    31824.138    87.701632 
   29800    2214.2287    -99.82272    2.0034807    -97.81924    274.18469    4.4366905    4.4366905    4.4366905    274.18469    42810.588   -37516.703   -4471.3308    -10569.18   -16383.521    3986.7643    87.332801 
   29900    1112.3166   -98.828912    1.0064474   -97.822465    24813.702    4.4086265    4.4086265    4.4086265    24813.702    96180.841    -53128.62    31388.884    -44618.92   -37035.281    28307.724    85.686008 
   30000    2068.2428   -99.699229    1.8713896   -97.827839     43567.99    4.4058158    4.4058158    4.4058158     43567.99    99781.263     8932.129    21990.579   -9959.9747     -21132.8   -14474.116    85.522226 
   30100    1135.1172   -98.909632    1.0270779   -97.882554    19390.389    4.4147866    4.4147866    4.4147866    19390.389    41681.134    13238.527    3251.5058   -42400.154   -34072.641    17610.585    86.045693 
   30200    1994.8692   -99.676908    1.8049995   -97.871909    30268.178    4.4342731    4.4342731    4.4342731    30268.178     106175.4    18762.366   -34133.227    -22233.76   -14463.953   -13448.723    87.190128 
   30300    1385.1923   -99.115697    1.2533511   -97.862346   -4168.8706    4.4338261    4.4338261    4.4338261   -4168.8706    73979.699   -19031.629   -67454.683    -49189.65   -14095.751    34083.463    87.163764 
   30400     2056.636   -99.685618    1.8608875   -97.824731    20526.129    4.4183781    4.4183781    4.4183781    20526.129    63644.258    67298.538   -69364.408   -18618.753    34203.248     -3526.73    86.255867 
   30500    1125.2357   -98.862784    1.0181369   -97.844647    33083.206    4.4108349    4.4108349    4.4108349    33083.206    76323.256    43432.959   -20506.597   -40532.662   -20403.813     23848.24    85.814842 
   30600    2209.2623   -99.864861     1.998987   -97.865874    19712.208    4.4213836    4.4213836    4.4213836    19712.208    40892.494    70371.867   -52127.736   -7297.5835    7392.0984   -13308.252    86.432006 
   30700     1051.909    -98.82343   0.95178938   -97.871641   -35045.736    4.4453728    4.4453728    4.4453728   -35045.736    9741.4735   -56304.276   -58574.406   -53221.924   -9890.4575    30984.498    87.846519 
   30800    2530.2756   -100.12373    2.2894465   -97.834279   -24412.294    4.4356546    4.4356546    4.4356546   -24412.294   -10988.237    2846.1254   -65094.771   -1975.8458    10468.427    11.824888    87.271648 
   30900    1367.8961   -99.071555    1.2377012   -97.833854     5064.745    4.4143578    4.4143578    4.4143578     5064.745    16340.962    13823.759   -14970.486   -19583.417    8627.1013    32801.913    86.020628 
   31000    2246.8567   -99.875409    2.0330032   -97.842406     29748.41    4.4168833    4.4168833    4.4168833     29748.41     103835.3   -13441.365   -1148.7027     10448.97    32704.525   -12472.351    86.168348 
   31100    1226.8753     -98.9805    1.1101025   -97.870397    16245.793    4.4282727    4.4282727    4.4282727    16245.793    74547.554   -52241.675    26431.501   -63.390612    10782.316    23761.686    86.836651 
   31200     2017.696   -99.693421    1.8256537   -97.867767   -18465.357    4.4321383    4.4321383    4.4321383   -18465.357    18080.911   -16387.253   -57089.729    16800.115   -1686.1131   -40011.012    87.064259 
   31300    2247.6961   -99.897493    2.0337626   -97.863731   -5647.4863    4.4112508    4.4112508    4.4112508   -5647.4863    39719.509   -24431.594   -32230.375    3119.7651     12385.33    19831.425     85.83912 
   31400    1461.2496   -99.195066    1.3221694   -97.872897    60773.833    4.3910374    4.3910374    4.3910374    60773.833    135902.43    41353.986    5065.0823   -6240.0861   -13751.312   -35743.531    84.664512 
   31500    1656.9004   -99.392006    1.4991983   -97.892807    29554.806     4.412488     4.412488     4.412488    29554.806   -7795.9905    30220.361    66240.046    20736.051   -15895.691    23766.103    85.911364 
   31600    1332.0691   -99.090904    1.2052841    -97.88562   -12566.682    4.4279952    4.4279952    4.4279952   -12566.682   -9832.0216    62076.268   -89944.293   -16801.971   -33772.479   -37466.992    86.820326 
   31700    2471.2297   -100.09049    2.2360206   -97.854465   -4864.4563    4.4272993    4.4272993    4.4272993   -4864.4563   -18180.564    49734.464   -46147.268    45480.331    17074.424     10352.33    86.779402 
   31800    1191.5966   -98.957548    1.0781816   -97.879367   -15316.491    4.4260493    4.4260493    4.4260493   -15316.491   -32759.638    22243.658   -35433.493   -18997.883   -15539.685    -53964.79    86.705919 
   31900    2179.4583   -99.829848    1.9720197   -97.857828     15285.19    4.4169678    4.4169678    4.4169678     15285.19   -25449.155    34182.561    37122.165    33551.265    2587.3444   -3319.5828    86.173294 
   32000    1457.9071     -99.1864    1.3191449   -97.867255    12337.313    4.4204112    4.4204112    4.4204112    12337.313   -25588.365    32038.485     30561.82   -25204.091   -8062.3446   -53325.732    86.374988 
   32100    2013.2729   -99.668295    1.8216517   -97.846644    9191.3659    4.4415168    4.4415168    4.4415168    9191.3659   -22346.339    50911.515   -991.07794    4789.1607   -12866.704    8120.7009    87.618119 
   32200    1177.9213    -98.89983     1.065808   -97.834022   -1307.5843    4.4484267    4.4484267    4.4484267   -1307.5843   -27465.344   -956.83499    24499.426   -22305.993   -11400.765   -51392.392    88.027691 
   32300    2118.3081   -99.722704    1.9166897   -97.806014    20290.687    4.4208728    4.4208728    4.4208728    20290.687   -13309.713    72958.112    1223.6624    9685.8042    19151.541    8026.4551     86.40205 
   32400    1681.2441   -99.347931     1.521225   -97.826706    17039.974    4.4015594    4.4015594    4.4015594    17039.974    25927.115    14940.118    10252.689   -17604.945   -6331.6534   -42992.351      85.2746 
   32500    1823.8386   -99.522629    1.6502475   -97.872381    17941.207    4.4074418    4.4074418    4.4074418    17941.207   -13972.545    18824.318    48971.848   -9008.2809   -6004.7949    11918.047    85.616954 
   32600     2275.148   -99.949983    2.0586017   -97.891382   -28607.608    4.4252796    4.4252796    4.4252796   -28607.608     -25723.8     -32274.7   -27824.323   -16204.363   -2185.8598   -21105.621    86.660692 
   32700    1972.1713   -99.642404    1.7844621   -97.857941   -29186.202    4.4407751    4.4407751    4.4407751   -29186.202   -41602.403    43038.847   -88995.049   -15505.323   -2039.2766    20793.759    87.574234 
   32800    2260.3404   -99.863103    2.0452035   -97.817899   -21082.855    4.4355074    4.4355074    4.4355074   -21082.855    -29531.67    1708.7447   -35425.639    -22696.83   -428.88097   -12440.143    87.262956 
   32900    1808.3008   -99.445151    1.6361886   -97.808963    9909.0833       4.4143       4.4143       4.4143    9909.0833    89238.723   -20040.562   -39470.911    8675.6267   -32979.489    44687.328    86.017243 
   33000    1650.4679   -99.317562     1.493378   -97.824184    25309.068    4.4113172    4.4113172    4.4113172    25309.068    55415.864    6620.9813    13890.359   -8936.4094   -14048.699    5785.9172    85.842994 
   33100    1434.8488   -99.147097    1.2982813   -97.848815    14200.824     4.420035     4.420035     4.420035    14200.824    92623.733   -21325.881    -28695.38    15543.898   -20720.632    39996.132    86.352942 
   33200    1967.0144    -99.61121    1.7797959   -97.831414   -19393.391    4.4299061    4.4299061    4.4299061   -19393.391    163.70971   -56391.912   -1951.9703   -4798.2776   -6534.0418   -13182.467    86.932777 
   33300     2254.044   -99.871253    2.0395064   -97.831747   -44128.184    4.4295035    4.4295035    4.4295035   -44128.184   -33108.922   -21018.237   -78257.392    11317.164   -8369.1976    32060.632    86.909081 
   33400    2351.0112   -99.948022    2.1272443   -97.820778   -26603.005    4.4157375    4.4157375    4.4157375   -26603.005   -50445.062   -20836.897   -8527.0547   -8865.3318     20356.65    341.14624    86.101307 
   33500    2103.3611    -99.74624    1.9031654   -97.843074   -7157.0962    4.4008285    4.4008285    4.4008285   -7157.0962   -28679.083    54890.451   -47682.656    2395.4689   -16719.137    13550.946    85.232129 
   33600    1662.8698   -99.389523    1.5045995   -97.884924    -8609.018    4.4038835    4.4038835    4.4038835    -8609.018   -55537.596    57359.991   -27649.449   -24489.886    31530.834    17763.908    85.409754 
   33700    2510.1938    -100.1646    2.2712761   -97.893327   -32197.545     4.404353     4.404353     4.404353   -32197.545   -59557.175   -19978.153   -17057.307    4586.1951   -21495.955   -2258.7683     85.43707 
   33800      1810.55   -99.545736    1.6382237   -97.907512    4428.6335    4.4061105    4.4061105    4.4061105    4428.6335   -45157.751    107771.62   -49327.972   -8390.1891    41074.195    16229.378    85.539388 
   33900    2083.2285   -99.783575    1.8849489   -97.898626   -25578.296    4.4162538    4.4162538    4.4162538   -25578.296   -69318.033    7980.5539   -15397.408    9418.7174   -24192.779    9955.3819    86.131511 
   34000    1787.5132   -99.520112    1.6173795   -97.902733   -743.86124    4.4066894    4.4066894    4.4066894   -743.86124   -22883.213    69087.257   -48435.627   -7990.9767    40032.388   -15409.055    85.573111 
   34100    2245.7395   -99.928589    2.0319923   -97.896597    30540.824    4.3920892    4.3920892    4.3920892    30540.824   -14923.766    73923.342    32622.896    6285.1643    -16678.63     25533.04    84.725369 
   34200    1457.8391   -99.251294    1.3190835    -97.93221   -23611.475    4.3998997    4.3998997    4.3998997   -23611.475    -91896.09    28758.596   -7696.9297    6417.0229    35525.752    -14897.85    85.178176 
   34300    2303.8024   -100.00773    2.0845288   -97.923198    9859.5989    4.4062316    4.4062316    4.4062316    9859.5989   -16607.857    23335.676    22850.977   -10343.752   -22953.356    30314.903    85.546442 
   34400    1427.3007   -99.235423    1.2914516   -97.943971    11601.926    4.4076723    4.4076723    4.4076723    11601.926    -71183.52    99343.175    6646.1223     22569.15    41290.594    12080.878    85.630382 
   34500    1175.4698   -98.996386    1.0635898   -97.932796    29322.367    4.4138717    4.4138717    4.4138717    29322.367    11816.473    16988.408    59162.218    566.91401   -15675.876    36072.081    85.992212 
   34600    2289.3086   -99.954678    2.0714145   -97.883263   -3446.3818      4.42484      4.42484      4.42484   -3446.3818   -35333.558   -17125.932    42120.345    10112.214    11553.354   -4488.7495    86.634866 
   34700    1270.1181   -99.011007    1.1492295   -97.861777   -25444.744    4.4336515    4.4336515    4.4336515   -25444.744   -42941.745   -17175.964   -16216.523   -17745.777   -35158.851   -1423.6754    87.153468 
   34800    2296.0223   -99.919228    2.0774893   -97.841739   -948.71948    4.4091565    4.4091565    4.4091565   -948.71948    16785.007   -43902.504    24271.338    5086.7506    6101.8041    19349.006    85.716919 
   34900    1936.5375   -99.608493    1.7522198   -97.856273    -10618.76    4.3975823    4.3975823    4.3975823    -10618.76   -40091.183    22372.888   -14137.984   -9687.2025   -2814.3095   -12296.469    85.043657 
   35000    1504.8184   -99.261517    1.3615913   -97.899926    6644.2205    4.4021236    4.4021236    4.4021236    6644.2205    59588.483   -8414.0947   -31241.726    9142.2678   -14224.629    9796.4111    85.307399 
[...]
   91200    2605.5008   -100.23545    2.3575119   -97.877941    15748.176    4.3833308    4.3833308    4.3833308    15748.176    2312.7888     38925.76    6005.9807    28422.305    2797.0604    19306.872    84.219514 
   91300    1189.0637   -98.989087    1.0758898   -97.913197   -22506.725    4.3749844    4.3749844    4.3749844   -22506.725    20627.746    -69894.63   -18253.292   -18404.163    -8508.978   -74781.407     83.73934 
   91400    2480.0922   -100.15602    2.2440396   -97.911982    28753.764    4.3767226    4.3767226    4.3767226    28753.764    22259.059    77622.087   -13619.855    11981.662   -5263.9515    16734.622    83.839187 
   91500    1590.8356   -99.379717    1.4394215   -97.940296   -431.37201    4.3914398    4.3914398    4.3914398   -431.37201    25636.935   -19318.504   -7612.5472   -5525.5216    1450.5572   -77556.098    84.687792 
   91600    2327.0165   -100.01527    2.1055334   -97.909734   -4104.1476    4.4033952    4.4033952    4.4033952   -4104.1476   -21130.066    19137.541   -10319.918   -9794.8197    2885.5302    39183.579    85.381344 
   91700      1527.28   -99.272694     1.381915   -97.890779   -6631.1764    4.3935072    4.3935072    4.3935072   -6631.1764    91944.107   -24808.505   -87029.131   -3873.9436    10231.409   -92964.233    84.807453 
   91800    2614.6735   -100.21089    2.3658116   -97.845081    13573.026    4.3901944    4.3901944    4.3901944    13573.026     46822.63   -1540.8474   -4562.7057   -16663.244   -14054.144    23406.203    84.615758 
   91900    1205.3365   -98.951626    1.0906138   -97.861012    10335.784    4.3908458    4.3908458    4.3908458    10335.784    92172.109    24273.883    -85438.64   -4819.2995   -9151.0973   -70759.364    84.653427 
   92000    2051.4674   -99.694613    1.8562108   -97.838402    13801.566    4.3943512    4.3943512    4.3943512    13801.566    84960.408   -12635.435   -30920.275   -23009.632   -6946.1386   -21743.006    84.856341 
   92100    2244.6931    -99.87161    2.0310455   -97.840565    2965.3451     4.403971     4.403971     4.403971    2965.3451    59592.833    6281.5521    -56978.35    6264.5604    403.98522   -5281.2069    85.414846 
   92200     1226.609    -98.94839    1.1098616   -97.838529   -29891.356    4.4121915    4.4121915    4.4121915   -29891.356    -10694.05   -49346.125   -29633.892   -7995.9176    8538.6463    -79771.37    85.894047 
   92300    3326.9576   -100.80679    3.0103011    -97.79649   -17997.387     4.401371     4.401371     4.401371   -17997.387   -22986.984   -23888.815   -7116.3612    10562.557    1110.5842    26832.599    85.263651 
   92400    865.37098   -98.624631   0.78300585   -97.841625   -29245.082    4.4002544    4.4002544    4.4002544   -29245.082    11298.843   -67352.034   -31682.055   -23866.984    701.50198   -102894.14    85.198775 
   92500    3364.5617   -100.85134    3.0443262   -97.807011   -9688.8957    4.3977506    4.3977506    4.3977506   -9688.8957   -46553.785    13188.439    4298.6582    28952.135    6633.5622    40929.958    85.053423 
   92600    1202.0322   -98.953213     1.087624   -97.865589   -10727.736    4.3856655    4.3856655    4.3856655   -10727.736    31230.387   -35251.735   -28161.861   -33973.709   -5455.9427   -89003.839    84.354159 
   92700    3041.2645   -100.60957    2.7518001    -97.85777    9173.5202    4.3894555    4.3894555    4.3894555    9173.5202   -20376.014    30669.829    17226.745    11144.254     10153.33    40449.207    84.573042 
   92800    1228.7056    -99.00002    1.1117587   -97.888261   -31382.883    4.3968789    4.3968789    4.3968789   -31382.883    15810.373   -62105.663   -47853.358   -29617.428   -10206.702   -82493.144    85.002852 
   92900    2529.4014   -100.14396    2.2886555   -97.855308     10936.91    4.4038933    4.4038933    4.4038933     10936.91    11605.122    32930.424   -11724.817   -42.149137    3367.1654    31784.755    85.410324 
   93000      1271.15   -99.008951    1.1501632   -97.858788    -33172.58    4.4009499    4.4009499    4.4009499    -33172.58    45642.851   -105489.58   -39671.016   -24707.342    5147.5982   -78784.316     85.23918 
   93100    2685.1445   -100.24938    2.4295752   -97.819805   -1394.2345    4.3786713    4.3786713    4.3786713   -1394.2345    1727.1566   -14100.802    8190.9423   -501.71639    27109.483    15216.322    83.951222 
   93200     1541.457   -99.247078    1.3947426   -97.852335   -31357.749    4.3823472    4.3823472    4.3823472   -31357.749    17166.808   -91741.555   -19498.502   -36513.548   -19476.988   -58543.056    84.162832 
   93300    2239.6811    -99.87999    2.0265105   -97.853479   -17045.472     4.389991     4.389991     4.389991   -17045.472   -17272.426   -40869.686    7005.6948   -5205.5754    6812.2029   -20265.448    84.603997 
   93400    1892.2352   -99.586663    1.7121342   -97.874529   -34530.072    4.4037564    4.4037564    4.4037564   -34530.072    -630.7407    -91860.25   -11099.226   -17572.856    8339.4057   -20710.289    85.402359 
   93500    2056.5264   -99.721133    1.8607883   -97.860345   -2538.8216    4.3932102    4.3932102    4.3932102   -2538.8216    260.62503    -32855.13     24978.04   -12399.583    5646.2539   -45790.156    84.790257 
   93600    2010.2441   -99.676444    1.8189111   -97.857533    33855.976     4.379085     4.379085     4.379085    33855.976     34371.26    22116.503    45080.165    2805.4135     177.7121    -1814.084    83.975021 
   93700    1599.1508   -99.313712    1.4469453   -97.866766   -16193.177    4.3885531    4.3885531    4.3885531   -16193.177    7929.7702     -38629.4   -17879.901   -6206.9957   -9483.0744   -84426.221    84.520891 
   93800    2364.8063   -100.00502    2.1397264    -97.86529     24606.47    4.3882117    4.3882117    4.3882117     24606.47   -87.587756    47368.267    26538.732    22939.063    10117.365    1588.8613    84.501171 
   93900    894.85496   -98.706494   0.80968357    -97.89681   -10063.989    4.3987655    4.3987655    4.3987655   -10063.989    84446.663   -43048.869   -71589.761   -6414.0413    14121.412   -107600.27     85.11232 
   94000    2576.2672   -100.15623    2.3310607   -97.825167    4342.5013    4.4066725    4.4066725    4.4066725    4342.5013    17893.063    26486.062   -31351.621     2978.987   -17392.018    29111.044    85.572125 
   94100    1415.2288   -99.110119    1.2805288    -97.82959   -25200.855     4.408814     4.408814     4.408814   -25200.855    8679.6696   -39184.817   -45097.418    19125.415    15531.286   -92333.171    85.696943 
   94200    2292.3332   -99.887426    2.0741513   -97.813275   -26139.697    4.4030004    4.4030004    4.4030004   -26139.697   -3089.4681   -35952.735   -39376.888   -12857.575   -13102.871   -12100.396    85.358381 
   94300    1818.7534   -99.477834    1.6456463   -97.832187   -11749.642    4.3718061    4.3718061    4.3718061   -11749.642     3391.882   -15855.937   -22784.871    9471.7934    1775.7821   -54581.595     83.55697 
   94400     1881.664   -99.558443    1.7025691   -97.855874    12067.524     4.369473     4.369473     4.369473    12067.524    85441.212    -44796.65   -4441.9889   -1672.5192    15962.413   -55177.724    83.423263 
   94500    1893.2109   -99.571056     1.713017   -97.858039     13530.02    4.3924308    4.3924308    4.3924308     13530.02    7014.7606    4905.5812    28669.717    6143.1306   -4417.7187   -8442.9159    84.745138 
   94600    1371.2889   -99.111276     1.240771   -97.870505   -21610.354    4.4010504    4.4010504    4.4010504   -21610.354    26615.275   -30121.558   -61324.779    9437.6079     24894.18   -84288.191    85.245024 
   94700     3175.413   -100.70803    2.8731804   -97.834851   -9488.9979    4.3942497    4.3942497    4.3942497   -9488.9979   -23315.895    -17198.55    12047.451   -13042.359   -6678.5006    25980.692    84.850459 
   94800    1110.5784   -98.870209    1.0048747   -97.865334    5186.1531    4.3736503    4.3736503    4.3736503    5186.1531    30701.598    22868.951    -38012.09    10622.915    10602.469   -119147.02    83.662758 
   94900    2857.6311   -100.44264    2.5856447   -97.856995     18629.94     4.374817     4.374817     4.374817     18629.94   -17707.318    12788.502    60808.637    -37083.64    15602.451    30404.206    83.729728 
   95000    1189.3459   -98.971816    1.0761451   -97.895671    5458.7226    4.3872309    4.3872309    4.3872309    5458.7226    106880.74   -27361.787   -63142.784    18156.885    1967.7204   -90354.847    84.444524 
   95100    2046.7188   -99.706214    1.8519142   -97.854299    5379.9629    4.4087194    4.4087194    4.4087194    5379.9629    28923.988    6515.7417   -19299.841   -10590.777    11540.178    11831.763    85.691426 
   95200    1451.3542    -99.15423    1.3132158   -97.841014   -36888.986    4.4087179    4.4087179    4.4087179   -36888.986    33988.607   -76990.446   -67665.119   -11232.417   -4139.4016   -84557.402     85.69134 
   95300    1916.5009   -99.546897    1.7340903   -97.812807     29952.01    4.3741757    4.3741757    4.3741757     29952.01    34945.077    62877.086   -7966.1326   -5665.8021    3132.2517   -53430.529    83.692911 
   95400    2690.6673   -100.25798    2.4345723   -97.823412   -1077.2076    4.3697692    4.3697692    4.3697692   -1077.2076    1463.0956    419.35425   -5114.0727   -16110.827   -2799.6517   -1325.0835    83.440229 
   95500    1022.5314   -98.796101   0.92520786   -97.870893   -9695.0831    4.3868399    4.3868399    4.3868399   -9695.0831    63274.902   -14562.395   -77797.757   -4311.9482   -14512.501   -104269.74    84.421943 
   95600    3101.0169   -100.63283    2.8058653   -97.826961    7448.0571     4.409239     4.409239     4.409239    7448.0571   -4583.9731   -8148.0773    35076.222   -2355.3435    24761.261    38289.006     85.72173 
   95700    1082.8131   -98.818206   0.97975204   -97.838454   -52818.928    4.4182515    4.4182515    4.4182515   -52818.928    26833.676   -79146.997   -106143.46   -8826.7094   -25724.851   -99185.903    86.248452 
   95800    2473.4957   -100.04444    2.2380709   -97.806366    17159.876    4.3839402    4.3839402    4.3839402    17159.876   -685.15403    21330.526    30834.257    8460.0575   -4131.2926   -11447.626    84.254649 
   95900    1751.6641   -99.423637    1.5849425   -97.838695    28715.586    4.3607572    4.3607572    4.3607572    28715.586    56357.104   -4496.6034    34286.256   -1469.9233   -711.82675   -70703.086    82.925047 
   96000    1713.3998   -99.428905    1.5503202   -97.878585    23121.732    4.3689549    4.3689549    4.3689549    23121.732    51253.955   -24692.417    42803.658   -6725.6196   -22153.637   -62684.824     83.39359 
   96100    1980.9963   -99.689083    1.7924471   -97.896636   -115.87874    4.3970544    4.3970544    4.3970544   -115.87874    -2232.895    27582.613   -25697.354     6073.057    10035.532   -25914.616    85.013034 
   96200    1378.5274   -99.138739    1.2473206   -97.891419   -22151.435    4.4025257    4.4025257    4.4025257   -22151.435    5447.9378    20748.082   -92650.324   -2355.0668   -15289.016   -79809.923    85.330775 
   96300    2901.0752   -100.46155    2.6249538   -97.836594    25229.086    4.3878484    4.3878484    4.3878484    25229.086   -10956.788    84089.734    2554.3105    26855.206     19944.65    14648.129    84.480185 
   96400    885.14077   -98.656367   0.80089397   -97.855473   -8050.4862    4.3980014    4.3980014    4.3980014   -8050.4862    38513.373   -44874.571   -17790.261    3852.3704   -14378.926   -129836.91    85.067974 
   96500    2646.6875   -100.18659    2.3947785   -97.791812    8969.2876    4.4114509    4.4114509    4.4114509    8969.2876   -22731.491   -32502.618    82141.971    40.362595   -9314.7574    29251.916      85.8508 
   96600    1117.5092    -98.85051    1.0111458   -97.839364   -28415.133    4.4060466    4.4060466    4.4060466   -28415.133    50396.467   -85858.505   -49783.362   -3706.7491   -12547.648   -110503.73    85.535669 
   96700    2222.6563   -99.830871    2.0111062   -97.819765    31129.691    4.3746689    4.3746689    4.3746689    31129.691    48381.967    32690.903    12316.201   -2354.4195   -120.04555   -28238.824    83.721225 
   96800    2268.3032   -99.893467    2.0524084   -97.841059    4373.9135    4.3717033    4.3717033    4.3717033    4373.9135    49900.913    780.53427   -37559.707   -21248.548   -17304.245   -30615.094    83.551074 
   96900    1082.9851   -98.852354   0.97990768   -97.872446   -11631.398    4.4040673    4.4040673    4.4040673   -11631.398    78748.421   -12801.013    -100841.6   -516.92882   -11742.536   -97399.012    85.420449 
   97000    3089.0712   -100.58129    2.7950566   -97.786235   -23482.127    4.4295841    4.4295841    4.4295841   -23482.127   -32496.186   -30669.641   -7280.5552    3320.5477    6137.8255    31531.713    86.913826 
   97100    825.79832   -98.538759   0.74719968   -97.791559   -25355.896     4.421652     4.421652     4.421652   -25355.896    12235.581   -28935.272   -59367.996    5517.1553    958.09743   -133893.88    86.447746 
   97200    2734.2455   -100.23864    2.4740028   -97.764639    15949.688    4.3815028    4.3815028    4.3815028    15949.688    17422.724    4928.9457    25497.394    4152.4853   -5876.0852    1340.7555    84.114194 
   97300    1486.5787   -99.149718    1.3450877   -97.804631     42611.06    4.3534296    4.3534296    4.3534296     42611.06    61952.993    29557.454    36322.733   -6808.1597   -431.30891   -70233.345    82.507717 
   97400    1396.8041    -99.11986    1.2638577   -97.856003    -2690.772    4.3787565    4.3787565    4.3787565    -2690.772     62280.52   -10632.247   -59720.589   -459.01526   -16884.864   -87141.145    83.956127 
   97500    2993.6269   -100.53975    2.7086965   -97.831052   -19301.421    4.4091069    4.4091069    4.4091069   -19301.421    -24317.59   -3761.7996   -29824.873    12183.169    4323.2471    11690.773    85.714025 
   97600    929.58863   -98.671329   0.84111133   -97.830218    -66221.75    4.4306081    4.4306081    4.4306081    -66221.75    41589.453   -110585.21   -129669.49   -9145.3163   -16743.111   -135828.28    86.974114 
   97700    2988.2999   -100.46739    2.7038765   -97.763514    24189.034    4.3978607    4.3978607    4.3978607    24189.034   -24526.182    63790.432    33302.853    6373.3096    12708.717    23277.908    85.059809 
   97800    1363.3805   -99.033487    1.2336153   -97.799871   -3988.3673    4.3606372    4.3606372    4.3606372   -3988.3673    75345.273   -41291.225    -46019.15   -9224.9135   -13689.178   -120582.64    82.918201 
   97900    2265.7714   -99.869979    2.0501176   -97.819862    23022.714    4.3642947    4.3642947    4.3642947    23022.714    35154.965    33980.295   -67.118109    3529.5196   -1509.8012   -37150.918    83.127022 
   98000      1509.54   -99.252482    1.3658635   -97.886619   -1533.2917    4.3921063    4.3921063    4.3921063   -1533.2917    13615.208   -36369.541    18154.458   -8399.9483   -17760.137    -40813.65    84.726355 
   98100    1507.1491   -99.236012    1.3637002   -97.872312   -39252.915    4.4041721    4.4041721    4.4041721   -39252.915    15468.116   -71251.856   -61975.004   -7601.8538   -2789.0298   -87867.664    85.426546 
   98200     2743.675   -100.31268    2.4825348   -97.830142    1975.2973    4.3907088    4.3907088    4.3907088    1975.2973   -25984.972    -18426.95    50337.814    9745.6281    8534.3385    4728.5969    84.645506 
   98300    1056.2957   -98.824489   0.95575851   -97.868731   -11493.308    4.3735658    4.3735658    4.3735658   -11493.308    51937.793   -20878.797   -65538.918   -3893.8384   -5760.7975   -132523.96    83.657907 
   98400    3112.8432   -100.65458     2.816566   -97.838016    32940.781    4.3698046    4.3698046    4.3698046    32940.781   -33460.335    93511.021    38771.658   -7884.7079    10143.331     32561.26    83.442261 
   98500    835.01986   -98.664185   0.75554351   -97.908641   -49601.883    4.3921087    4.3921087    4.3921087   -49601.883    68934.998   -98915.345    -118825.3   -17245.722   -7880.4742   -142006.13    84.726492 
   98600    2496.3181   -100.10152    2.2587211   -97.842798     26039.22     4.391943     4.391943     4.391943     26039.22   -8238.3311    87956.391   -1600.3987    1223.0825     13513.14    -2847.193    84.716906 
   98700    1742.0356   -99.420791    1.5762304    -97.84456    11985.181     4.387086     4.387086     4.387086    11985.181    26476.508   -21302.069    30781.105   -16636.524   -448.10287   -68537.755    84.436156 
   98800    1159.1635   -98.889518    1.0488355   -97.840683   -10089.582     4.376524     4.376524     4.376524   -10089.582     74116.04   -51699.014   -52685.771   -613.91486    15930.152    -96576.62    83.827777 
   98900    3253.1415   -100.73843    2.9435108   -97.794924    18246.828    4.3648338    4.3648338    4.3648338    18246.828    1623.2105    14367.965    38749.309   -9387.3021   -9588.4842    24592.937    83.157827 
   99000    613.35263   -98.412706   0.55497435   -97.857732   -27499.612    4.3931394    4.3931394    4.3931394   -27499.612    69022.092   -45617.985   -105902.94   -3956.0215    7353.8149    -147682.8     84.78616 
   99100     2990.378   -100.50361    2.7057568   -97.797855    3826.2983    4.3991332    4.3991332    4.3991332    3826.2983   -30684.488   -3082.9084    45246.291   -8560.1416   -2243.5471    24893.098    85.133668 
   99200    1349.8037   -99.067702    1.2213308   -97.846371   -9654.1031    4.3864629    4.3864629    4.3864629   -9654.1031    14235.481   -39542.569   -3655.2213   -8944.7335   -4184.6537    -95269.13    84.400181 
   99300    2237.7926   -99.871303    2.0248018   -97.846502    19444.586    4.3763429    4.3763429    4.3763429    19444.586    27658.362    32309.504    -1634.109    5295.5878    3204.4154   -17390.191    83.817369 
   99400    1750.1196   -99.471571     1.583545   -97.888026    23715.258    4.3787121    4.3787121    4.3787121    23715.258    10686.446   -40092.208    100551.53   -4061.5796    3169.5388   -47479.033    83.953573 
   99500    1970.7538   -99.669263    1.7831795   -97.886083   -40814.325     4.394181     4.394181     4.394181   -40814.325    10139.801   -62834.763   -69748.013    5876.8691    6506.3139   -63189.381    84.846481 
   99600    2184.7543   -99.844541    1.9768116    -97.86773    29218.676    4.3840065    4.3840065    4.3840065    29218.676    54638.893   -12252.775     45269.91   -10401.898    204.05263    328.93391    84.258468 
   99700    1287.5104   -99.047575    1.1649664   -97.882608   -37387.497    4.3945267    4.3945267    4.3945267   -37387.497    84477.814   -103421.02   -93219.285    5914.8389    -3324.958   -106925.87    84.866507 
   99800    2378.4355   -99.994778    2.1520584    -97.84272    5542.1892    4.3873372    4.3873372    4.3873372    5542.1892    2535.8193    31380.098    -17289.35    12533.305    5367.8671    17277.226    84.450662 
   99900    1178.6438   -98.946478    1.0664617   -97.880017   -2733.1167    4.3749145    4.3749145    4.3749145   -2733.1167    22696.385   -25825.162   -5070.5731   -14683.848   -11546.006   -94934.707    83.735327 
  100000    2977.0485   -100.56297    2.6936961   -97.869277     12730.68    4.3882266    4.3882266    4.3882266     12730.68   -4237.7721    17382.226    25047.585     11683.62   -3028.5311    26892.832    84.502029 
Loop time of 21.9483 on 1 procs for 100000 steps with 8 atoms

Pair  time (%) = 6.71251 (30.5833)
Kspce time (%) = 5.33923 (24.3264)
Neigh time (%) = 0.254382 (1.15901)
Comm  time (%) = 0.929077 (4.23303)
Outpt time (%) = 0.0259807 (0.118373)
Other time (%) = 8.68708 (39.5798)

Nlocal:    8 ave 8 max 8 min
Histogram: 1 0 0 0 0 0 0 0 0 0
Nghost:    1720 ave 1720 max 1720 min
Histogram: 1 0 0 0 0 0 0 0 0 0
Neighs:    2090 ave 2090 max 2090 min
Histogram: 1 0 0 0 0 0 0 0 0 0

Total # of neighbors = 2090
Ave neighs/atom = 261.25
Neighbor list builds = 3301
Dangerous builds = 0
seeds:8503691
