# ['Ni']

28 atoms
1 atom types

    0.0000     2.4822 xlo xhi
    0.0000     4.2994 ylo yhi
    0.0000    28.3744 zlo zhi

    0.0000     0.0000     0.0000 xy xz yz

Atoms

1 1     0.0000     0.0000     0.0000
2 1     1.2411     2.1497     0.0000
3 1     1.2411     0.7166     2.0268
4 1     0.0000     2.8662     2.0268
5 1     0.0000     1.4331     4.0535
6 1     1.2411     3.5828     4.0535
7 1     0.0000     0.0000     6.0802
8 1     1.2411     2.1497     6.0802
9 1     1.2411     0.7166     8.1070
10 1     0.0000     2.8662     8.1070
11 1     0.0000     1.4331    10.1337
12 1     1.2411     3.5828    10.1337
13 1     0.0000     0.0000    12.1604
14 1     1.2411     2.1497    12.1604
15 1     0.0000     1.4331    14.1872
16 1     1.2411     3.5828    14.1872
17 1     0.0000     0.0000    16.2139
18 1     1.2411     2.1497    16.2139
19 1     1.2411     0.7166    18.2407
20 1     0.0000     2.8662    18.2407
21 1     0.0000     1.4331    20.2674
22 1     1.2411     3.5828    20.2674
23 1     0.0000     0.0000    22.2941
24 1     1.2411     2.1497    22.2941
25 1     1.2411     0.7166    24.3209
26 1     0.0000     2.8662    24.3209
27 1     0.0000     1.4331    26.3476
28 1     1.2411     3.5828    26.3476
