# ['Ni']

10 atoms
1 atom types

    0.0000     3.5197 xlo xhi
    0.0000     2.5195 ylo yhi
    0.0000    25.1952 zlo zhi

    0.0000     0.0000     0.0000 xy xz yz

Atoms

1 1     0.0000     0.0000     0.0000
2 1     1.7598     1.2598     1.2598
3 1     0.0000     0.0000     2.5195
4 1     1.7598     1.2598     3.7793
5 1     0.0000     0.0000     5.0390
6 1     1.7598     1.2598     6.2988
7 1     0.0000     0.0000     7.5586
8 1     1.7598     1.2598     8.8183
9 1     0.0000     0.0000    10.0781
10 1     1.7598     1.2598    11.3378
