# ['Ni']

28 atoms
1 atom types

    0.0000     2.4708 xlo xhi
    0.0000     4.2795 ylo yhi
    0.0000    28.2433 zlo zhi

    0.0000     0.0000     0.0000 xy xz yz

Atoms

1 1     0.0000     0.0000     0.0000
2 1     1.2354     2.1398     0.0000
3 1     1.2354     0.7133     2.0174
4 1     0.0000     2.8530     2.0174
5 1     0.0000     1.4265     4.0348
6 1     1.2354     3.5663     4.0348
7 1     0.0000     0.0000     6.0522
8 1     1.2354     2.1398     6.0522
9 1     1.2354     0.7133     8.0695
10 1     0.0000     2.8530     8.0695
11 1     0.0000     1.4265    10.0869
12 1     1.2354     3.5663    10.0869
13 1     0.0000     0.0000    12.1043
14 1     1.2354     2.1398    12.1043
15 1     0.0000     1.4265    14.1217
16 1     1.2354     3.5663    14.1217
17 1     0.0000     0.0000    16.1391
18 1     1.2354     2.1398    16.1391
19 1     1.2354     0.7133    18.1564
20 1     0.0000     2.8530    18.1564
21 1     0.0000     1.4265    20.1738
22 1     1.2354     3.5663    20.1738
23 1     0.0000     0.0000    22.1912
24 1     1.2354     2.1398    22.1912
25 1     1.2354     0.7133    24.2086
26 1     0.0000     2.8530    24.2086
27 1     0.0000     1.4265    26.2260
28 1     1.2354     3.5663    26.2260
