LAMMPS (31 Mar 2017)
Reading data file ...
  triclinic box = (0 0 0) to (5.43 5.43 5.43) with tilt (0 0 0)
  1 by 1 by 1 MPI processor grid
  reading atoms ...
  8 atoms
8 atoms in group Si
Neighbor list info ...
  update every 1 steps, delay 0 steps, check yes
  max neighbors/atom: 2000, page size: 100000
  master list distance cutoff = 4.77118
  ghost atom cutoff = 4.77118
  binsize = 2.38559, bins = 3 3 3
  1 neighbor lists, perpetual/occasional/extra = 1 0 0
  (1) pair sw, perpetual
      attributes: full, newton on
      pair build: full/bin/atomonly
      stencil: full/bin/3d
      bin: standard
Setting up cg style minimization ...
  Unit style    : metal
Per MPI rank memory allocation (min/avg/max) = 3.812 | 3.812 | 3.812 Mbytes
Step Temp PotEng Press Pxx Pyy Pzz Pxy Pxz Pyz Lx Ly Lz Volume 
       0            0   -34.692786    532.56802    532.56802    532.56802    532.56802 -3.4719321e-14 3.4719313e-14 2.6039485e-14         5.43         5.43         5.43    160.10301 
       1            0   -34.692797    227.98084    227.98084    227.98084    227.98084 -2.7143505e-11 -2.7186266e-11 -2.7186266e-11     5.430543     5.430543     5.430543    160.15104 
       2            0     -34.6928 -0.016514738 -0.016514738 -0.016514738 -0.016514738 1.1811457e-10 1.1681348e-10 1.1681348e-10    5.4309498    5.4309498    5.4309498    160.18704 
       3            0     -34.6928 -7.8798022e-08 -7.8796721e-08 -7.8796721e-08 -7.8800624e-08 1.5438016e-10 1.5307908e-10 1.5307908e-10    5.4309498    5.4309498    5.4309498    160.18703 
Loop time of 0.000337124 on 1 procs for 3 steps with 8 atoms

0.0% CPU use with 1 MPI tasks x no OpenMP threads

Minimization stats:
  Stopping criterion = force tolerance
  Energy initial, next-to-last, final = 
        -34.6927860387     -34.6927999993     -34.6927999993
  Force two-norm initial, final = 0.0921775 1.36433e-11
  Force max component initial, final = 0.0532187 7.87718e-12
  Final line search alpha, max atom move = 1 7.87718e-12
  Iterations, force evaluations = 3 5

MPI task timing breakdown:
Section |  min time  |  avg time  |  max time  |%varavg| %total
---------------------------------------------------------------
Pair    | 0.00018597 | 0.00018597 | 0.00018597 |   0.0 | 55.16
Neigh   | 0          | 0          | 0          |   0.0 |  0.00
Comm    | 1.7405e-05 | 1.7405e-05 | 1.7405e-05 |   0.0 |  5.16
Output  | 4.1962e-05 | 4.1962e-05 | 4.1962e-05 |   0.0 | 12.45
Modify  | 0          | 0          | 0          |   0.0 |  0.00
Other   |            | 9.179e-05  |            |       | 27.23

Nlocal:    8 ave 8 max 8 min
Histogram: 1 0 0 0 0 0 0 0 0 0
Nghost:    162 ave 162 max 162 min
Histogram: 1 0 0 0 0 0 0 0 0 0
Neighs:    0 ave 0 max 0 min
Histogram: 1 0 0 0 0 0 0 0 0 0
FullNghs:  224 ave 224 max 224 min
Histogram: 1 0 0 0 0 0 0 0 0 0

Total # of neighbors = 224
Ave neighs/atom = 28
Neighbor list builds = 0
Dangerous builds = 0
System init for write_restart ...
Reading restart file ...
  restart file = 31 Mar 2017, LAMMPS = 31 Mar 2017
  triclinic box = (-0.000474889 -0.000474889 -0.000474889) to (5.43047 5.43047 5.43047) with tilt (0 0 0)
  1 by 1 by 1 MPI processor grid
  8 atoms
8 atoms in group Si
Changing box ...
  triclinic box = (-0.000474889 -0.000474889 -0.000474889) to (5.43047 5.43047 5.43047) with tilt (0 0 0)
Neighbor list info ...
  update every 1 steps, delay 0 steps, check yes
  max neighbors/atom: 2000, page size: 100000
  master list distance cutoff = 4.77118
  ghost atom cutoff = 4.77118
  binsize = 2.38559, bins = 3 3 3
  1 neighbor lists, perpetual/occasional/extra = 1 0 0
  (1) pair sw, perpetual
      attributes: full, newton on
      pair build: full/bin/atomonly
      stencil: full/bin/3d
      bin: standard
Setting up cg style minimization ...
  Unit style    : metal
Per MPI rank memory allocation (min/avg/max) = 3.812 | 3.812 | 3.812 Mbytes
Step Temp PotEng Press Pxx Pyy Pzz Pxy Pxz Pyz Lx Ly Lz Volume 
       3            0     -34.6928    1.0142306    1.5142464   0.76422263   0.76422263 1.7051922e-10 1.0749599e-10 2.1402675e-10    5.4309443    5.4309498    5.4309498    160.18687 
       4            0     -34.6928    1.0142306    1.5142464   0.76422263   0.76422263 1.3847207e-10 7.6749976e-11 -8.9760943e-11    5.4309443    5.4309498    5.4309498    160.18687 
Loop time of 0.000135899 on 1 procs for 1 steps with 8 atoms

0.0% CPU use with 1 MPI tasks x no OpenMP threads

Minimization stats:
  Stopping criterion = force tolerance
  Energy initial, next-to-last, final = 
        -34.6927999993     -34.6927999993     -34.6927999993
  Force two-norm initial, final = 3.39188e-14 2.51419e-14
  Force max component initial, final = 1.44632e-14 1.27626e-14
  Final line search alpha, max atom move = 1 1.27626e-14
  Iterations, force evaluations = 1 2

MPI task timing breakdown:
Section |  min time  |  avg time  |  max time  |%varavg| %total
---------------------------------------------------------------
Pair    | 9.6083e-05 | 9.6083e-05 | 9.6083e-05 |   0.0 | 70.70
Neigh   | 0          | 0          | 0          |   0.0 |  0.00
Comm    | 8.5831e-06 | 8.5831e-06 | 8.5831e-06 |   0.0 |  6.32
Output  | 0          | 0          | 0          |   0.0 |  0.00
Modify  | 0          | 0          | 0          |   0.0 |  0.00
Other   |            | 3.123e-05  |            |       | 22.98

Nlocal:    8 ave 8 max 8 min
Histogram: 1 0 0 0 0 0 0 0 0 0
Nghost:    162 ave 162 max 162 min
Histogram: 1 0 0 0 0 0 0 0 0 0
Neighs:    0 ave 0 max 0 min
Histogram: 1 0 0 0 0 0 0 0 0 0
FullNghs:  224 ave 224 max 224 min
Histogram: 1 0 0 0 0 0 0 0 0 0

Total # of neighbors = 224
Ave neighs/atom = 28
Neighbor list builds = 0
Dangerous builds = 0
Reading restart file ...
  restart file = 31 Mar 2017, LAMMPS = 31 Mar 2017
  triclinic box = (-0.000474889 -0.000474889 -0.000474889) to (5.43047 5.43047 5.43047) with tilt (0 0 0)
  1 by 1 by 1 MPI processor grid
  8 atoms
8 atoms in group Si
Changing box ...
  triclinic box = (-0.000474889 -0.000474889 -0.000474889) to (5.43048 5.43047 5.43047) with tilt (0 0 0)
Neighbor list info ...
  update every 1 steps, delay 0 steps, check yes
  max neighbors/atom: 2000, page size: 100000
  master list distance cutoff = 4.77118
  ghost atom cutoff = 4.77118
  binsize = 2.38559, bins = 3 3 3
  1 neighbor lists, perpetual/occasional/extra = 1 0 0
  (1) pair sw, perpetual
      attributes: full, newton on
      pair build: full/bin/atomonly
      stencil: full/bin/3d
      bin: standard
Setting up cg style minimization ...
  Unit style    : metal
Per MPI rank memory allocation (min/avg/max) = 3.812 | 3.812 | 3.812 Mbytes
Step Temp PotEng Press Pxx Pyy Pzz Pxy Pxz Pyz Lx Ly Lz Volume 
       3            0     -34.6928   -1.0142271   -1.5142432  -0.76421906  -0.76421906 1.6846151e-10 1.6976257e-10 2.1652154e-10    5.4309552    5.4309498    5.4309498    160.18719 
       4            0     -34.6928   -1.0142271   -1.5142432  -0.76421906  -0.76421906 1.2061134e-10 1.1670803e-10 1.084809e-10    5.4309552    5.4309498    5.4309498    160.18719 
Loop time of 0.000132084 on 1 procs for 1 steps with 8 atoms

0.0% CPU use with 1 MPI tasks x no OpenMP threads

Minimization stats:
  Stopping criterion = force tolerance
  Energy initial, next-to-last, final = 
        -34.6927999993     -34.6927999993     -34.6927999993
  Force two-norm initial, final = 3.40959e-14 2.98932e-14
  Force max component initial, final = 1.40158e-14 1.60488e-14
  Final line search alpha, max atom move = 1 1.60488e-14
  Iterations, force evaluations = 1 2

MPI task timing breakdown:
Section |  min time  |  avg time  |  max time  |%varavg| %total
---------------------------------------------------------------
Pair    | 9.4175e-05 | 9.4175e-05 | 9.4175e-05 |   0.0 | 71.30
Neigh   | 0          | 0          | 0          |   0.0 |  0.00
Comm    | 9.0599e-06 | 9.0599e-06 | 9.0599e-06 |   0.0 |  6.86
Output  | 0          | 0          | 0          |   0.0 |  0.00
Modify  | 0          | 0          | 0          |   0.0 |  0.00
Other   |            | 2.885e-05  |            |       | 21.84

Nlocal:    8 ave 8 max 8 min
Histogram: 1 0 0 0 0 0 0 0 0 0
Nghost:    162 ave 162 max 162 min
Histogram: 1 0 0 0 0 0 0 0 0 0
Neighs:    0 ave 0 max 0 min
Histogram: 1 0 0 0 0 0 0 0 0 0
FullNghs:  224 ave 224 max 224 min
Histogram: 1 0 0 0 0 0 0 0 0 0

Total # of neighbors = 224
Ave neighs/atom = 28
Neighbor list builds = 0
Dangerous builds = 0
Reading restart file ...
  restart file = 31 Mar 2017, LAMMPS = 31 Mar 2017
  triclinic box = (-0.000474889 -0.000474889 -0.000474889) to (5.43047 5.43047 5.43047) with tilt (0 0 0)
  1 by 1 by 1 MPI processor grid
  8 atoms
8 atoms in group Si
Changing box ...
  triclinic box = (-0.000474889 -0.000474889 -0.000474889) to (5.43047 5.43047 5.43047) with tilt (0 0 0)
Neighbor list info ...
  update every 1 steps, delay 0 steps, check yes
  max neighbors/atom: 2000, page size: 100000
  master list distance cutoff = 4.77118
  ghost atom cutoff = 4.77118
  binsize = 2.38559, bins = 3 3 3
  1 neighbor lists, perpetual/occasional/extra = 1 0 0
  (1) pair sw, perpetual
      attributes: full, newton on
      pair build: full/bin/atomonly
      stencil: full/bin/3d
      bin: standard
Setting up cg style minimization ...
  Unit style    : metal
Per MPI rank memory allocation (min/avg/max) = 3.812 | 3.812 | 3.812 Mbytes
Step Temp PotEng Press Pxx Pyy Pzz Pxy Pxz Pyz Lx Ly Lz Volume 
       3            0     -34.6928    1.0142306   0.76422263    1.5142464   0.76422263 1.7051921e-10 2.140267e-10 1.0749596e-10    5.4309498    5.4309443    5.4309498    160.18687 
       4            0     -34.6928    1.0142306   0.76422263    1.5142464   0.76422263 1.3847217e-10 -8.976107e-11 7.6749943e-11    5.4309498    5.4309443    5.4309498    160.18687 
Loop time of 0.000140905 on 1 procs for 1 steps with 8 atoms

709.7% CPU use with 1 MPI tasks x no OpenMP threads

Minimization stats:
  Stopping criterion = force tolerance
  Energy initial, next-to-last, final = 
        -34.6927999993     -34.6927999993     -34.6927999993
  Force two-norm initial, final = 3.39188e-14 2.51419e-14
  Force max component initial, final = 1.44632e-14 1.27626e-14
  Final line search alpha, max atom move = 1 1.27626e-14
  Iterations, force evaluations = 1 2

MPI task timing breakdown:
Section |  min time  |  avg time  |  max time  |%varavg| %total
---------------------------------------------------------------
Pair    | 0.000103   | 0.000103   | 0.000103   |   0.0 | 73.10
Neigh   | 0          | 0          | 0          |   0.0 |  0.00
Comm    | 1.0967e-05 | 1.0967e-05 | 1.0967e-05 |   0.0 |  7.78
Output  | 0          | 0          | 0          |   0.0 |  0.00
Modify  | 0          | 0          | 0          |   0.0 |  0.00
Other   |            | 2.694e-05  |            |       | 19.12

Nlocal:    8 ave 8 max 8 min
Histogram: 1 0 0 0 0 0 0 0 0 0
Nghost:    162 ave 162 max 162 min
Histogram: 1 0 0 0 0 0 0 0 0 0
Neighs:    0 ave 0 max 0 min
Histogram: 1 0 0 0 0 0 0 0 0 0
FullNghs:  224 ave 224 max 224 min
Histogram: 1 0 0 0 0 0 0 0 0 0

Total # of neighbors = 224
Ave neighs/atom = 28
Neighbor list builds = 0
Dangerous builds = 0
Reading restart file ...
  restart file = 31 Mar 2017, LAMMPS = 31 Mar 2017
  triclinic box = (-0.000474889 -0.000474889 -0.000474889) to (5.43047 5.43047 5.43047) with tilt (0 0 0)
  1 by 1 by 1 MPI processor grid
  8 atoms
8 atoms in group Si
Changing box ...
  triclinic box = (-0.000474889 -0.000474889 -0.000474889) to (5.43047 5.43048 5.43047) with tilt (0 0 0)
Neighbor list info ...
  update every 1 steps, delay 0 steps, check yes
  max neighbors/atom: 2000, page size: 100000
  master list distance cutoff = 4.77118
  ghost atom cutoff = 4.77118
  binsize = 2.38559, bins = 3 3 3
  1 neighbor lists, perpetual/occasional/extra = 1 0 0
  (1) pair sw, perpetual
      attributes: full, newton on
      pair build: full/bin/atomonly
      stencil: full/bin/3d
      bin: standard
Setting up cg style minimization ...
  Unit style    : metal
Per MPI rank memory allocation (min/avg/max) = 3.812 | 3.812 | 3.812 Mbytes
Step Temp PotEng Press Pxx Pyy Pzz Pxy Pxz Pyz Lx Ly Lz Volume 
       3            0     -34.6928   -1.0142271  -0.76421906   -1.5142432  -0.76421906 1.6846171e-10 2.1652142e-10 1.6976252e-10    5.4309498    5.4309552    5.4309498    160.18719 
       4            0     -34.6928   -1.0142271  -0.76421906   -1.5142432  -0.76421906 1.206113e-10 1.0848092e-10 1.167081e-10    5.4309498    5.4309552    5.4309498    160.18719 
Loop time of 0.000133991 on 1 procs for 1 steps with 8 atoms

0.0% CPU use with 1 MPI tasks x no OpenMP threads

Minimization stats:
  Stopping criterion = force tolerance
  Energy initial, next-to-last, final = 
        -34.6927999993     -34.6927999993     -34.6927999993
  Force two-norm initial, final = 3.40959e-14 2.98932e-14
  Force max component initial, final = 1.40158e-14 1.60488e-14
  Final line search alpha, max atom move = 1 1.60488e-14
  Iterations, force evaluations = 1 2

MPI task timing breakdown:
Section |  min time  |  avg time  |  max time  |%varavg| %total
---------------------------------------------------------------
Pair    | 9.5129e-05 | 9.5129e-05 | 9.5129e-05 |   0.0 | 71.00
Neigh   | 0          | 0          | 0          |   0.0 |  0.00
Comm    | 1.0014e-05 | 1.0014e-05 | 1.0014e-05 |   0.0 |  7.47
Output  | 0          | 0          | 0          |   0.0 |  0.00
Modify  | 0          | 0          | 0          |   0.0 |  0.00
Other   |            | 2.885e-05  |            |       | 21.53

Nlocal:    8 ave 8 max 8 min
Histogram: 1 0 0 0 0 0 0 0 0 0
Nghost:    162 ave 162 max 162 min
Histogram: 1 0 0 0 0 0 0 0 0 0
Neighs:    0 ave 0 max 0 min
Histogram: 1 0 0 0 0 0 0 0 0 0
FullNghs:  224 ave 224 max 224 min
Histogram: 1 0 0 0 0 0 0 0 0 0

Total # of neighbors = 224
Ave neighs/atom = 28
Neighbor list builds = 0
Dangerous builds = 0
Reading restart file ...
  restart file = 31 Mar 2017, LAMMPS = 31 Mar 2017
  triclinic box = (-0.000474889 -0.000474889 -0.000474889) to (5.43047 5.43047 5.43047) with tilt (0 0 0)
  1 by 1 by 1 MPI processor grid
  8 atoms
8 atoms in group Si
Changing box ...
  triclinic box = (-0.000474889 -0.000474889 -0.000474889) to (5.43047 5.43047 5.43047) with tilt (0 0 0)
Neighbor list info ...
  update every 1 steps, delay 0 steps, check yes
  max neighbors/atom: 2000, page size: 100000
  master list distance cutoff = 4.77118
  ghost atom cutoff = 4.77118
  binsize = 2.38559, bins = 3 3 3
  1 neighbor lists, perpetual/occasional/extra = 1 0 0
  (1) pair sw, perpetual
      attributes: full, newton on
      pair build: full/bin/atomonly
      stencil: full/bin/3d
      bin: standard
Setting up cg style minimization ...
  Unit style    : metal
Per MPI rank memory allocation (min/avg/max) = 3.812 | 3.812 | 3.812 Mbytes
Step Temp PotEng Press Pxx Pyy Pzz Pxy Pxz Pyz Lx Ly Lz Volume 
       3            0     -34.6928    1.0142306   0.76422263   0.76422263    1.5142464 1.8414144e-10 1.3868228e-10 1.3868223e-10    5.4309498    5.4309498    5.4309443    160.18687 
       4            0     -34.6928    1.0142306   0.76422263   0.76422263    1.5142464 -5.5762153e-11 1.0923741e-10 1.0923749e-10    5.4309498    5.4309498    5.4309443    160.18687 
Loop time of 0.000143051 on 1 procs for 1 steps with 8 atoms

699.1% CPU use with 1 MPI tasks x no OpenMP threads

Minimization stats:
  Stopping criterion = force tolerance
  Energy initial, next-to-last, final = 
        -34.6927999993     -34.6927999993     -34.6927999993
  Force two-norm initial, final = 3.3038e-14 2.18824e-14
  Force max component initial, final = 1.43195e-14 1.02026e-14
  Final line search alpha, max atom move = 1 1.02026e-14
  Iterations, force evaluations = 1 2

MPI task timing breakdown:
Section |  min time  |  avg time  |  max time  |%varavg| %total
---------------------------------------------------------------
Pair    | 9.5129e-05 | 9.5129e-05 | 9.5129e-05 |   0.0 | 66.50
Neigh   | 0          | 0          | 0          |   0.0 |  0.00
Comm    | 1.1921e-05 | 1.1921e-05 | 1.1921e-05 |   0.0 |  8.33
Output  | 0          | 0          | 0          |   0.0 |  0.00
Modify  | 0          | 0          | 0          |   0.0 |  0.00
Other   |            | 3.6e-05    |            |       | 25.17

Nlocal:    8 ave 8 max 8 min
Histogram: 1 0 0 0 0 0 0 0 0 0
Nghost:    162 ave 162 max 162 min
Histogram: 1 0 0 0 0 0 0 0 0 0
Neighs:    0 ave 0 max 0 min
Histogram: 1 0 0 0 0 0 0 0 0 0
FullNghs:  224 ave 224 max 224 min
Histogram: 1 0 0 0 0 0 0 0 0 0

Total # of neighbors = 224
Ave neighs/atom = 28
Neighbor list builds = 0
Dangerous builds = 0
Reading restart file ...
  restart file = 31 Mar 2017, LAMMPS = 31 Mar 2017
  triclinic box = (-0.000474889 -0.000474889 -0.000474889) to (5.43047 5.43047 5.43047) with tilt (0 0 0)
  1 by 1 by 1 MPI processor grid
  8 atoms
8 atoms in group Si
Changing box ...
  triclinic box = (-0.000474889 -0.000474889 -0.000474889) to (5.43047 5.43047 5.43048) with tilt (0 0 0)
Neighbor list info ...
  update every 1 steps, delay 0 steps, check yes
  max neighbors/atom: 2000, page size: 100000
  master list distance cutoff = 4.77118
  ghost atom cutoff = 4.77118
  binsize = 2.38559, bins = 3 3 3
  1 neighbor lists, perpetual/occasional/extra = 1 0 0
  (1) pair sw, perpetual
      attributes: full, newton on
      pair build: full/bin/atomonly
      stencil: full/bin/3d
      bin: standard
Setting up cg style minimization ...
  Unit style    : metal
Per MPI rank memory allocation (min/avg/max) = 3.812 | 3.812 | 3.812 Mbytes
Step Temp PotEng Press Pxx Pyy Pzz Pxy Pxz Pyz Lx Ly Lz Volume 
       3            0     -34.6928   -1.0142271  -0.76421906  -0.76421906   -1.5142432 2.4575608e-10 1.379258e-10 1.3792587e-10    5.4309498    5.4309498    5.4309552    160.18719 
       4            0     -34.6928   -1.0142271  -0.76421906  -0.76421906   -1.5142432 -1.2300321e-10 1.2147202e-10 1.2147207e-10    5.4309498    5.4309498    5.4309552    160.18719 
Loop time of 0.000132084 on 1 procs for 1 steps with 8 atoms

0.0% CPU use with 1 MPI tasks x no OpenMP threads

Minimization stats:
  Stopping criterion = force tolerance
  Energy initial, next-to-last, final = 
        -34.6927999993     -34.6927999993     -34.6927999993
  Force two-norm initial, final = 3.4083e-14 2.55194e-14
  Force max component initial, final = 1.42553e-14 1.05612e-14
  Final line search alpha, max atom move = 1 1.05612e-14
  Iterations, force evaluations = 1 2

MPI task timing breakdown:
Section |  min time  |  avg time  |  max time  |%varavg| %total
---------------------------------------------------------------
Pair    | 9.3222e-05 | 9.3222e-05 | 9.3222e-05 |   0.0 | 70.58
Neigh   | 0          | 0          | 0          |   0.0 |  0.00
Comm    | 1.0014e-05 | 1.0014e-05 | 1.0014e-05 |   0.0 |  7.58
Output  | 0          | 0          | 0          |   0.0 |  0.00
Modify  | 0          | 0          | 0          |   0.0 |  0.00
Other   |            | 2.885e-05  |            |       | 21.84

Nlocal:    8 ave 8 max 8 min
Histogram: 1 0 0 0 0 0 0 0 0 0
Nghost:    162 ave 162 max 162 min
Histogram: 1 0 0 0 0 0 0 0 0 0
Neighs:    0 ave 0 max 0 min
Histogram: 1 0 0 0 0 0 0 0 0 0
FullNghs:  224 ave 224 max 224 min
Histogram: 1 0 0 0 0 0 0 0 0 0

Total # of neighbors = 224
Ave neighs/atom = 28
Neighbor list builds = 0
Dangerous builds = 0
Reading restart file ...
  restart file = 31 Mar 2017, LAMMPS = 31 Mar 2017
  triclinic box = (-0.000474889 -0.000474889 -0.000474889) to (5.43047 5.43047 5.43047) with tilt (0 0 0)
  1 by 1 by 1 MPI processor grid
  8 atoms
8 atoms in group Si
Changing box ...
  triclinic box = (-0.000474889 -0.000474889 -0.000474889) to (5.43047 5.43047 5.43047) with tilt (0 0 -5.43095e-06)
Neighbor list info ...
  update every 1 steps, delay 0 steps, check yes
  max neighbors/atom: 2000, page size: 100000
  master list distance cutoff = 4.77118
  ghost atom cutoff = 4.77118
  binsize = 2.38559, bins = 3 3 3
  1 neighbor lists, perpetual/occasional/extra = 1 0 0
  (1) pair sw, perpetual
      attributes: full, newton on
      pair build: full/bin/atomonly
      stencil: full/bin/3d
      bin: standard
Setting up cg style minimization ...
  Unit style    : metal
Per MPI rank memory allocation (min/avg/max) = 3.812 | 3.812 | 3.812 Mbytes
Step Temp PotEng Press Pxx Pyy Pzz Pxy Pxz Pyz Lx Ly Lz Volume 
       3            0     -34.6928 3.0349289e-07 5.8416555e-07 -7.4689991e-07 1.073213e-06 1.6997329e-10 5.2614689e-11    1.0975648    5.4309498    5.4309498    5.4309498    160.18703 
       4            0     -34.6928 -2.5984548e-07 -2.2163058e-07 -6.559487e-07 9.8042817e-08 1.1584761e-11 3.3012953e-11   0.56449337    5.4309498    5.4309498    5.4309498    160.18703 
Loop time of 0.000155926 on 1 procs for 1 steps with 8 atoms

0.0% CPU use with 1 MPI tasks x no OpenMP threads

Minimization stats:
  Stopping criterion = force tolerance
  Energy initial, next-to-last, final = 
        -34.6927999993     -34.6927999993     -34.6927999993
  Force two-norm initial, final = 4.41321e-05 2.42442e-14
  Force max component initial, final = 1.56031e-05 9.37203e-15
  Final line search alpha, max atom move = 1 9.37203e-15
  Iterations, force evaluations = 1 2

MPI task timing breakdown:
Section |  min time  |  avg time  |  max time  |%varavg| %total
---------------------------------------------------------------
Pair    | 9.4891e-05 | 9.4891e-05 | 9.4891e-05 |   0.0 | 60.86
Neigh   | 0          | 0          | 0          |   0.0 |  0.00
Comm    | 9.2983e-06 | 9.2983e-06 | 9.2983e-06 |   0.0 |  5.96
Output  | 0          | 0          | 0          |   0.0 |  0.00
Modify  | 0          | 0          | 0          |   0.0 |  0.00
Other   |            | 5.174e-05  |            |       | 33.18

Nlocal:    8 ave 8 max 8 min
Histogram: 1 0 0 0 0 0 0 0 0 0
Nghost:    162 ave 162 max 162 min
Histogram: 1 0 0 0 0 0 0 0 0 0
Neighs:    0 ave 0 max 0 min
Histogram: 1 0 0 0 0 0 0 0 0 0
FullNghs:  224 ave 224 max 224 min
Histogram: 1 0 0 0 0 0 0 0 0 0

Total # of neighbors = 224
Ave neighs/atom = 28
Neighbor list builds = 0
Dangerous builds = 0
Reading restart file ...
  restart file = 31 Mar 2017, LAMMPS = 31 Mar 2017
  triclinic box = (-0.000474889 -0.000474889 -0.000474889) to (5.43047 5.43047 5.43047) with tilt (0 0 0)
  1 by 1 by 1 MPI processor grid
  8 atoms
8 atoms in group Si
Changing box ...
  triclinic box = (-0.000474889 -0.000474889 -0.000474889) to (5.43047 5.43047 5.43047) with tilt (0 0 5.43095e-06)
Neighbor list info ...
  update every 1 steps, delay 0 steps, check yes
  max neighbors/atom: 2000, page size: 100000
  master list distance cutoff = 4.77118
  ghost atom cutoff = 4.77118
  binsize = 2.38559, bins = 3 3 3
  1 neighbor lists, perpetual/occasional/extra = 1 0 0
  (1) pair sw, perpetual
      attributes: full, newton on
      pair build: full/bin/atomonly
      stencil: full/bin/3d
      bin: standard
Setting up cg style minimization ...
  Unit style    : metal
Per MPI rank memory allocation (min/avg/max) = 3.812 | 3.812 | 3.812 Mbytes
Step Temp PotEng Press Pxx Pyy Pzz Pxy Pxz Pyz Lx Ly Lz Volume 
       3            0     -34.6928 3.034956e-07 5.8416891e-07 -7.4690045e-07 1.0732184e-06  2.31379e-10 5.8234542e-10   -1.0975648    5.4309498    5.4309498    5.4309498    160.18703 
       4            0     -34.6928 -2.5986173e-07 -2.2167739e-07 -6.5594868e-07 9.8040885e-08 1.5257651e-11 2.3419224e-10  -0.56449337    5.4309498    5.4309498    5.4309498    160.18703 
Loop time of 0.000133038 on 1 procs for 1 steps with 8 atoms

0.0% CPU use with 1 MPI tasks x no OpenMP threads

Minimization stats:
  Stopping criterion = force tolerance
  Energy initial, next-to-last, final = 
        -34.6927999993     -34.6927999993     -34.6927999993
  Force two-norm initial, final = 4.41321e-05 4.57384e-14
  Force max component initial, final = 1.56031e-05 2.45066e-14
  Final line search alpha, max atom move = 1 2.45066e-14
  Iterations, force evaluations = 1 2

MPI task timing breakdown:
Section |  min time  |  avg time  |  max time  |%varavg| %total
---------------------------------------------------------------
Pair    | 9.3937e-05 | 9.3937e-05 | 9.3937e-05 |   0.0 | 70.61
Neigh   | 0          | 0          | 0          |   0.0 |  0.00
Comm    | 9.0599e-06 | 9.0599e-06 | 9.0599e-06 |   0.0 |  6.81
Output  | 0          | 0          | 0          |   0.0 |  0.00
Modify  | 0          | 0          | 0          |   0.0 |  0.00
Other   |            | 3.004e-05  |            |       | 22.58

Nlocal:    8 ave 8 max 8 min
Histogram: 1 0 0 0 0 0 0 0 0 0
Nghost:    162 ave 162 max 162 min
Histogram: 1 0 0 0 0 0 0 0 0 0
Neighs:    0 ave 0 max 0 min
Histogram: 1 0 0 0 0 0 0 0 0 0
FullNghs:  224 ave 224 max 224 min
Histogram: 1 0 0 0 0 0 0 0 0 0

Total # of neighbors = 224
Ave neighs/atom = 28
Neighbor list builds = 0
Dangerous builds = 0
Reading restart file ...
  restart file = 31 Mar 2017, LAMMPS = 31 Mar 2017
  triclinic box = (-0.000474889 -0.000474889 -0.000474889) to (5.43047 5.43047 5.43047) with tilt (0 0 0)
  1 by 1 by 1 MPI processor grid
  8 atoms
8 atoms in group Si
Changing box ...
  triclinic box = (-0.000474889 -0.000474889 -0.000474889) to (5.43047 5.43047 5.43047) with tilt (0 -5.43095e-06 0)
Neighbor list info ...
  update every 1 steps, delay 0 steps, check yes
  max neighbors/atom: 2000, page size: 100000
  master list distance cutoff = 4.77118
  ghost atom cutoff = 4.77118
  binsize = 2.38559, bins = 3 3 3
  1 neighbor lists, perpetual/occasional/extra = 1 0 0
  (1) pair sw, perpetual
      attributes: full, newton on
      pair build: full/bin/atomonly
      stencil: full/bin/3d
      bin: standard
Setting up cg style minimization ...
  Unit style    : metal
Per MPI rank memory allocation (min/avg/max) = 3.812 | 3.812 | 3.812 Mbytes
Step Temp PotEng Press Pxx Pyy Pzz Pxy Pxz Pyz Lx Ly Lz Volume 
       3            0     -34.6928 3.0349289e-07 -7.4689991e-07 5.8416555e-07 1.073213e-06 1.6997351e-10    1.0975648 5.2614884e-11    5.4309498    5.4309498    5.4309498    160.18703 
       4            0     -34.6928 -2.5986173e-07 -6.5595648e-07 -2.2165788e-07 9.8029176e-08 3.9938821e-11   0.56449337 7.2426138e-11    5.4309498    5.4309498    5.4309498    160.18703 
Loop time of 0.000133038 on 1 procs for 1 steps with 8 atoms

0.0% CPU use with 1 MPI tasks x no OpenMP threads

Minimization stats:
  Stopping criterion = force tolerance
  Energy initial, next-to-last, final = 
        -34.6927999993     -34.6927999993     -34.6927999993
  Force two-norm initial, final = 4.41321e-05 2.37879e-14
  Force max component initial, final = 1.56031e-05 1.09993e-14
  Final line search alpha, max atom move = 1 1.09993e-14
  Iterations, force evaluations = 1 2

MPI task timing breakdown:
Section |  min time  |  avg time  |  max time  |%varavg| %total
---------------------------------------------------------------
Pair    | 9.5129e-05 | 9.5129e-05 | 9.5129e-05 |   0.0 | 71.51
Neigh   | 0          | 0          | 0          |   0.0 |  0.00
Comm    | 9.0599e-06 | 9.0599e-06 | 9.0599e-06 |   0.0 |  6.81
Output  | 0          | 0          | 0          |   0.0 |  0.00
Modify  | 0          | 0          | 0          |   0.0 |  0.00
Other   |            | 2.885e-05  |            |       | 21.68

Nlocal:    8 ave 8 max 8 min
Histogram: 1 0 0 0 0 0 0 0 0 0
Nghost:    162 ave 162 max 162 min
Histogram: 1 0 0 0 0 0 0 0 0 0
Neighs:    0 ave 0 max 0 min
Histogram: 1 0 0 0 0 0 0 0 0 0
FullNghs:  224 ave 224 max 224 min
Histogram: 1 0 0 0 0 0 0 0 0 0

Total # of neighbors = 224
Ave neighs/atom = 28
Neighbor list builds = 0
Dangerous builds = 0
Reading restart file ...
  restart file = 31 Mar 2017, LAMMPS = 31 Mar 2017
  triclinic box = (-0.000474889 -0.000474889 -0.000474889) to (5.43047 5.43047 5.43047) with tilt (0 0 0)
  1 by 1 by 1 MPI processor grid
  8 atoms
8 atoms in group Si
Changing box ...
  triclinic box = (-0.000474889 -0.000474889 -0.000474889) to (5.43047 5.43047 5.43047) with tilt (0 5.43095e-06 0)
Neighbor list info ...
  update every 1 steps, delay 0 steps, check yes
  max neighbors/atom: 2000, page size: 100000
  master list distance cutoff = 4.77118
  ghost atom cutoff = 4.77118
  binsize = 2.38559, bins = 3 3 3
  1 neighbor lists, perpetual/occasional/extra = 1 0 0
  (1) pair sw, perpetual
      attributes: full, newton on
      pair build: full/bin/atomonly
      stencil: full/bin/3d
      bin: standard
Setting up cg style minimization ...
  Unit style    : metal
Per MPI rank memory allocation (min/avg/max) = 3.812 | 3.812 | 3.812 Mbytes
Step Temp PotEng Press Pxx Pyy Pzz Pxy Pxz Pyz Lx Ly Lz Volume 
       3            0     -34.6928 3.0343063e-07 -7.4696543e-07 5.8410393e-07 1.0731534e-06 1.6640425e-10   -1.0975648 6.473203e-10    5.4309498    5.4309498    5.4309498    160.18703 
       4            0     -34.6928 -2.5998356e-07 -6.5607831e-07 -2.2179337e-07 9.792101e-08 5.7798576e-11  -0.56449337 2.1156807e-10    5.4309498    5.4309498    5.4309498    160.18703 
Loop time of 0.000135899 on 1 procs for 1 steps with 8 atoms

0.0% CPU use with 1 MPI tasks x no OpenMP threads

Minimization stats:
  Stopping criterion = force tolerance
  Energy initial, next-to-last, final = 
        -34.6927999993     -34.6927999993     -34.6927999993
  Force two-norm initial, final = 4.41321e-05 4.46195e-14
  Force max component initial, final = 1.56031e-05 2.46264e-14
  Final line search alpha, max atom move = 1 2.46264e-14
  Iterations, force evaluations = 1 2

MPI task timing breakdown:
Section |  min time  |  avg time  |  max time  |%varavg| %total
---------------------------------------------------------------
Pair    | 9.5129e-05 | 9.5129e-05 | 9.5129e-05 |   0.0 | 70.00
Neigh   | 0          | 0          | 0          |   0.0 |  0.00
Comm    | 8.5831e-06 | 8.5831e-06 | 8.5831e-06 |   0.0 |  6.32
Output  | 0          | 0          | 0          |   0.0 |  0.00
Modify  | 0          | 0          | 0          |   0.0 |  0.00
Other   |            | 3.219e-05  |            |       | 23.68

Nlocal:    8 ave 8 max 8 min
Histogram: 1 0 0 0 0 0 0 0 0 0
Nghost:    162 ave 162 max 162 min
Histogram: 1 0 0 0 0 0 0 0 0 0
Neighs:    0 ave 0 max 0 min
Histogram: 1 0 0 0 0 0 0 0 0 0
FullNghs:  224 ave 224 max 224 min
Histogram: 1 0 0 0 0 0 0 0 0 0

Total # of neighbors = 224
Ave neighs/atom = 28
Neighbor list builds = 0
Dangerous builds = 0
Reading restart file ...
  restart file = 31 Mar 2017, LAMMPS = 31 Mar 2017
  triclinic box = (-0.000474889 -0.000474889 -0.000474889) to (5.43047 5.43047 5.43047) with tilt (0 0 0)
  1 by 1 by 1 MPI processor grid
  8 atoms
8 atoms in group Si
Changing box ...
  triclinic box = (-0.000474889 -0.000474889 -0.000474889) to (5.43047 5.43047 5.43047) with tilt (-5.43095e-06 0 0)
Neighbor list info ...
  update every 1 steps, delay 0 steps, check yes
  max neighbors/atom: 2000, page size: 100000
  master list distance cutoff = 4.77118
  ghost atom cutoff = 4.77118
  binsize = 2.38559, bins = 3 3 3
  1 neighbor lists, perpetual/occasional/extra = 1 0 0
  (1) pair sw, perpetual
      attributes: full, newton on
      pair build: full/bin/atomonly
      stencil: full/bin/3d
      bin: standard
Setting up cg style minimization ...
  Unit style    : metal
Per MPI rank memory allocation (min/avg/max) = 3.812 | 3.812 | 3.812 Mbytes
Step Temp PotEng Press Pxx Pyy Pzz Pxy Pxz Pyz Lx Ly Lz Volume 
       3            0     -34.6928 3.0352538e-07 -7.4686222e-07 1.0732371e-06 5.8420129e-07    1.0975648 1.3618492e-10 2.0777985e-11    5.4309498    5.4309498    5.4309498    160.18703 
       4            0     -34.6928 -2.5986173e-07 -6.5596169e-07 9.8035681e-08 -2.2165918e-07   0.56449337 3.5385077e-11 1.3003473e-10    5.4309498    5.4309498    5.4309498    160.18703 
Loop time of 0.000130892 on 1 procs for 1 steps with 8 atoms

0.0% CPU use with 1 MPI tasks x no OpenMP threads

Minimization stats:
  Stopping criterion = force tolerance
  Energy initial, next-to-last, final = 
        -34.6927999993     -34.6927999993     -34.6927999993
  Force two-norm initial, final = 4.41321e-05 2.6617e-14
  Force max component initial, final = 1.56031e-05 1.33839e-14
  Final line search alpha, max atom move = 1 1.33839e-14
  Iterations, force evaluations = 1 2

MPI task timing breakdown:
Section |  min time  |  avg time  |  max time  |%varavg| %total
---------------------------------------------------------------
Pair    | 9.2983e-05 | 9.2983e-05 | 9.2983e-05 |   0.0 | 71.04
Neigh   | 0          | 0          | 0          |   0.0 |  0.00
Comm    | 8.8215e-06 | 8.8215e-06 | 8.8215e-06 |   0.0 |  6.74
Output  | 0          | 0          | 0          |   0.0 |  0.00
Modify  | 0          | 0          | 0          |   0.0 |  0.00
Other   |            | 2.909e-05  |            |       | 22.22

Nlocal:    8 ave 8 max 8 min
Histogram: 1 0 0 0 0 0 0 0 0 0
Nghost:    162 ave 162 max 162 min
Histogram: 1 0 0 0 0 0 0 0 0 0
Neighs:    0 ave 0 max 0 min
Histogram: 1 0 0 0 0 0 0 0 0 0
FullNghs:  224 ave 224 max 224 min
Histogram: 1 0 0 0 0 0 0 0 0 0

Total # of neighbors = 224
Ave neighs/atom = 28
Neighbor list builds = 0
Dangerous builds = 0
Reading restart file ...
  restart file = 31 Mar 2017, LAMMPS = 31 Mar 2017
  triclinic box = (-0.000474889 -0.000474889 -0.000474889) to (5.43047 5.43047 5.43047) with tilt (0 0 0)
  1 by 1 by 1 MPI processor grid
  8 atoms
8 atoms in group Si
Changing box ...
  triclinic box = (-0.000474889 -0.000474889 -0.000474889) to (5.43047 5.43047 5.43047) with tilt (5.43095e-06 0 0)
Neighbor list info ...
  update every 1 steps, delay 0 steps, check yes
  max neighbors/atom: 2000, page size: 100000
  master list distance cutoff = 4.77118
  ghost atom cutoff = 4.77118
  binsize = 2.38559, bins = 3 3 3
  1 neighbor lists, perpetual/occasional/extra = 1 0 0
  (1) pair sw, perpetual
      attributes: full, newton on
      pair build: full/bin/atomonly
      stencil: full/bin/3d
      bin: standard
Setting up cg style minimization ...
  Unit style    : metal
Per MPI rank memory allocation (min/avg/max) = 3.812 | 3.812 | 3.812 Mbytes
Step Temp PotEng Press Pxx Pyy Pzz Pxy Pxz Pyz Lx Ly Lz Volume 
       3            0     -34.6928 3.0342792e-07 -7.4696553e-07 1.0731416e-06 5.8410773e-07   -1.0975648 1.7171358e-10 6.4461297e-10    5.4309498    5.4309498    5.4309498    160.18703 
       4            0     -34.6928 -2.6001875e-07 -6.5611285e-07 9.7888417e-08 -2.2183181e-07  -0.56449337 1.5908421e-11 3.4543973e-11    5.4309498    5.4309498    5.4309498    160.18703 
Loop time of 0.000130892 on 1 procs for 1 steps with 8 atoms

0.0% CPU use with 1 MPI tasks x no OpenMP threads

Minimization stats:
  Stopping criterion = force tolerance
  Energy initial, next-to-last, final = 
        -34.6927999993     -34.6927999993     -34.6927999993
  Force two-norm initial, final = 4.41321e-05 4.02037e-14
  Force max component initial, final = 1.56031e-05 2.34048e-14
  Final line search alpha, max atom move = 1 2.34048e-14
  Iterations, force evaluations = 1 2

MPI task timing breakdown:
Section |  min time  |  avg time  |  max time  |%varavg| %total
---------------------------------------------------------------
Pair    | 9.203e-05  | 9.203e-05  | 9.203e-05  |   0.0 | 70.31
Neigh   | 0          | 0          | 0          |   0.0 |  0.00
Comm    | 1.0967e-05 | 1.0967e-05 | 1.0967e-05 |   0.0 |  8.38
Output  | 0          | 0          | 0          |   0.0 |  0.00
Modify  | 0          | 0          | 0          |   0.0 |  0.00
Other   |            | 2.789e-05  |            |       | 21.31

Nlocal:    8 ave 8 max 8 min
Histogram: 1 0 0 0 0 0 0 0 0 0
Nghost:    162 ave 162 max 162 min
Histogram: 1 0 0 0 0 0 0 0 0 0
Neighs:    0 ave 0 max 0 min
Histogram: 1 0 0 0 0 0 0 0 0 0
FullNghs:  224 ave 224 max 224 min
Histogram: 1 0 0 0 0 0 0 0 0 0

Total # of neighbors = 224
Ave neighs/atom = 28
Neighbor list builds = 0
Dangerous builds = 0
c11 = 151.424479264361 GPa
c22 = 151.424479264361 GPa
c33 = 151.424479262703 GPa
c12 = 76.4220842955868 GPa
c13 = 76.4220842948559 GPa
c23 = 76.4220842948559 GPa
c44 = 56.4493367380455 GPa
c55 = 56.4493367451443 GPa
c66 = 56.4493367369742 GPa
c14 = -3.78557018219397e-09 GPa
c15 = 2.04673535186379e-09 GPa
c16 = 4.22569757225221e-09 GPa
c24 = -9.99449525093888e-10 GPa
c25 = -1.56882587759858e-09 GPa
c26 = 4.12812055663189e-09 GPa
c34 = -2.57573391506153e-10 GPa
c35 = 2.39828711447093e-09 GPa
c36 = 5.99690554144462e-09 GPa
c45 = -8.50803050852051e-09 GPa
c46 = 2.29544658701375e-09 GPa
c56 = 4.04225249773125e-11 GPa
lammps_sim_done
Total wall time: 0:00:00
