# ['Si']

215 atoms
1 atom types

    0.0000    88.5066 xlo xhi
    0.0000    88.5066 ylo yhi
    0.0000    88.5066 zlo zhi

    0.0000     0.0000     0.0000 xy xz yz

Atoms

1 1     7.3755     7.3755     7.3755
2 1     0.0000    14.7511    14.7511
3 1     7.3755    22.1267    22.1267
4 1    14.7511     0.0000    14.7511
5 1    22.1267     7.3755    22.1267
6 1    14.7511    14.7511     0.0000
7 1    22.1267    22.1267     7.3755
8 1     0.0000     0.0000    29.5022
9 1     7.3755     7.3755    36.8778
10 1     0.0000    14.7511    44.2533
11 1     7.3755    22.1267    51.6288
12 1    14.7511     0.0000    44.2533
13 1    22.1267     7.3755    51.6288
14 1    14.7511    14.7511    29.5022
15 1    22.1267    22.1267    36.8778
16 1     0.0000     0.0000    59.0045
17 1     7.3755     7.3755    66.3800
18 1     0.0000    14.7511    73.7555
19 1     7.3755    22.1267    81.1311
20 1    14.7511     0.0000    73.7555
21 1    22.1267     7.3755    81.1311
22 1    14.7511    14.7511    59.0045
23 1    22.1267    22.1267    66.3800
24 1     0.0000    29.5022     0.0000
25 1     7.3755    36.8778     7.3755
26 1     0.0000    44.2533    14.7511
27 1     7.3755    51.6288    22.1267
28 1    14.7511    29.5022    14.7511
29 1    22.1267    36.8778    22.1267
30 1    14.7511    44.2533     0.0000
31 1    22.1267    51.6288     7.3755
32 1     0.0000    29.5022    29.5022
33 1     7.3755    36.8778    36.8778
34 1     0.0000    44.2533    44.2533
35 1     7.3755    51.6288    51.6288
36 1    14.7511    29.5022    44.2533
37 1    22.1267    36.8778    51.6288
38 1    14.7511    44.2533    29.5022
39 1    22.1267    51.6288    36.8778
40 1     0.0000    29.5022    59.0045
41 1     7.3755    36.8778    66.3800
42 1     0.0000    44.2533    73.7555
43 1     7.3755    51.6288    81.1311
44 1    14.7511    29.5022    73.7555
45 1    22.1267    36.8778    81.1311
46 1    14.7511    44.2533    59.0045
47 1    22.1267    51.6288    66.3800
48 1     0.0000    59.0045     0.0000
49 1     7.3755    66.3800     7.3755
50 1     0.0000    73.7555    14.7511
51 1     7.3755    81.1311    22.1267
52 1    14.7511    59.0045    14.7511
53 1    22.1267    66.3800    22.1267
54 1    14.7511    73.7555     0.0000
55 1    22.1267    81.1311     7.3755
56 1     0.0000    59.0045    29.5022
57 1     7.3755    66.3800    36.8778
58 1     0.0000    73.7555    44.2533
59 1     7.3755    81.1311    51.6288
60 1    14.7511    59.0045    44.2533
61 1    22.1267    66.3800    51.6288
62 1    14.7511    73.7555    29.5022
63 1    22.1267    81.1311    36.8778
64 1     0.0000    59.0045    59.0045
65 1     7.3755    66.3800    66.3800
66 1     0.0000    73.7555    73.7555
67 1     7.3755    81.1311    81.1311
68 1    14.7511    59.0045    73.7555
69 1    22.1267    66.3800    81.1311
70 1    14.7511    73.7555    59.0045
71 1    22.1267    81.1311    66.3800
72 1    29.5022     0.0000     0.0000
73 1    36.8778     7.3755     7.3755
74 1    29.5022    14.7511    14.7511
75 1    36.8778    22.1267    22.1267
76 1    44.2533     0.0000    14.7511
77 1    51.6288     7.3755    22.1267
78 1    44.2533    14.7511     0.0000
79 1    51.6288    22.1267     7.3755
80 1    29.5022     0.0000    29.5022
81 1    36.8778     7.3755    36.8778
82 1    29.5022    14.7511    44.2533
83 1    36.8778    22.1267    51.6288
84 1    44.2533     0.0000    44.2533
85 1    51.6288     7.3755    51.6288
86 1    44.2533    14.7511    29.5022
87 1    51.6288    22.1267    36.8778
88 1    29.5022     0.0000    59.0045
89 1    36.8778     7.3755    66.3800
90 1    29.5022    14.7511    73.7555
91 1    36.8778    22.1267    81.1311
92 1    44.2533     0.0000    73.7555
93 1    51.6288     7.3755    81.1311
94 1    44.2533    14.7511    59.0045
95 1    51.6288    22.1267    66.3800
96 1    29.5022    29.5022     0.0000
97 1    36.8778    36.8778     7.3755
98 1    29.5022    44.2533    14.7511
99 1    36.8778    51.6288    22.1267
100 1    44.2533    29.5022    14.7511
101 1    51.6288    36.8778    22.1267
102 1    44.2533    44.2533     0.0000
103 1    51.6288    51.6288     7.3755
104 1    29.5022    29.5022    29.5022
105 1    36.8778    36.8778    36.8778
106 1    29.5022    44.2533    44.2533
107 1    36.8778    51.6288    51.6288
108 1    44.2533    29.5022    44.2533
109 1    51.6288    36.8778    51.6288
110 1    44.2533    44.2533    29.5022
111 1    51.6288    51.6288    36.8778
112 1    29.5022    29.5022    59.0045
113 1    36.8778    36.8778    66.3800
114 1    29.5022    44.2533    73.7555
115 1    36.8778    51.6288    81.1311
116 1    44.2533    29.5022    73.7555
117 1    51.6288    36.8778    81.1311
118 1    44.2533    44.2533    59.0045
119 1    51.6288    51.6288    66.3800
120 1    29.5022    59.0045     0.0000
121 1    36.8778    66.3800     7.3755
122 1    29.5022    73.7555    14.7511
123 1    36.8778    81.1311    22.1267
124 1    44.2533    59.0045    14.7511
125 1    51.6288    66.3800    22.1267
126 1    44.2533    73.7555     0.0000
127 1    51.6288    81.1311     7.3755
128 1    29.5022    59.0045    29.5022
129 1    36.8778    66.3800    36.8778
130 1    29.5022    73.7555    44.2533
131 1    36.8778    81.1311    51.6288
132 1    44.2533    59.0045    44.2533
133 1    51.6288    66.3800    51.6288
134 1    44.2533    73.7555    29.5022
135 1    51.6288    81.1311    36.8778
136 1    29.5022    59.0045    59.0045
137 1    36.8778    66.3800    66.3800
138 1    29.5022    73.7555    73.7555
139 1    36.8778    81.1311    81.1311
140 1    44.2533    59.0045    73.7555
141 1    51.6288    66.3800    81.1311
142 1    44.2533    73.7555    59.0045
143 1    51.6288    81.1311    66.3800
144 1    59.0045     0.0000     0.0000
145 1    66.3800     7.3755     7.3755
146 1    59.0045    14.7511    14.7511
147 1    66.3800    22.1267    22.1267
148 1    73.7555     0.0000    14.7511
149 1    81.1311     7.3755    22.1267
150 1    73.7555    14.7511     0.0000
151 1    81.1311    22.1267     7.3755
152 1    59.0045     0.0000    29.5022
153 1    66.3800     7.3755    36.8778
154 1    59.0045    14.7511    44.2533
155 1    66.3800    22.1267    51.6288
156 1    73.7555     0.0000    44.2533
157 1    81.1311     7.3755    51.6288
158 1    73.7555    14.7511    29.5022
159 1    81.1311    22.1267    36.8778
160 1    59.0045     0.0000    59.0045
161 1    66.3800     7.3755    66.3800
162 1    59.0045    14.7511    73.7555
163 1    66.3800    22.1267    81.1311
164 1    73.7555     0.0000    73.7555
165 1    81.1311     7.3755    81.1311
166 1    73.7555    14.7511    59.0045
167 1    81.1311    22.1267    66.3800
168 1    59.0045    29.5022     0.0000
169 1    66.3800    36.8778     7.3755
170 1    59.0045    44.2533    14.7511
171 1    66.3800    51.6288    22.1267
172 1    73.7555    29.5022    14.7511
173 1    81.1311    36.8778    22.1267
174 1    73.7555    44.2533     0.0000
175 1    81.1311    51.6288     7.3755
176 1    59.0045    29.5022    29.5022
177 1    66.3800    36.8778    36.8778
178 1    59.0045    44.2533    44.2533
179 1    66.3800    51.6288    51.6288
180 1    73.7555    29.5022    44.2533
181 1    81.1311    36.8778    51.6288
182 1    73.7555    44.2533    29.5022
183 1    81.1311    51.6288    36.8778
184 1    59.0045    29.5022    59.0045
185 1    66.3800    36.8778    66.3800
186 1    59.0045    44.2533    73.7555
187 1    66.3800    51.6288    81.1311
188 1    73.7555    29.5022    73.7555
189 1    81.1311    36.8778    81.1311
190 1    73.7555    44.2533    59.0045
191 1    81.1311    51.6288    66.3800
192 1    59.0045    59.0045     0.0000
193 1    66.3800    66.3800     7.3755
194 1    59.0045    73.7555    14.7511
195 1    66.3800    81.1311    22.1267
196 1    73.7555    59.0045    14.7511
197 1    81.1311    66.3800    22.1267
198 1    73.7555    73.7555     0.0000
199 1    81.1311    81.1311     7.3755
200 1    59.0045    59.0045    29.5022
201 1    66.3800    66.3800    36.8778
202 1    59.0045    73.7555    44.2533
203 1    66.3800    81.1311    51.6288
204 1    73.7555    59.0045    44.2533
205 1    81.1311    66.3800    51.6288
206 1    73.7555    73.7555    29.5022
207 1    81.1311    81.1311    36.8778
208 1    59.0045    59.0045    59.0045
209 1    66.3800    66.3800    66.3800
210 1    59.0045    73.7555    73.7555
211 1    66.3800    81.1311    81.1311
212 1    73.7555    59.0045    73.7555
213 1    81.1311    66.3800    81.1311
214 1    73.7555    73.7555    59.0045
215 1    81.1311    81.1311    66.3800
