LAMMPS (11 Aug 2017)
Reading data file ...
  triclinic box = (0 0 0) to (3.4851 2.4947 2.4947) with tilt (0 0 0)
  1 by 1 by 1 MPI processor grid
  reading atoms ...
  2 atoms
2 atoms in group Ni
Neighbor list info ...
  update every 1 steps, delay 0 steps, check yes
  max neighbors/atom: 2000, page size: 100000
  master list distance cutoff = 5.64464
  ghost atom cutoff = 5.64464
  binsize = 2.82232, bins = 2 1 1
  1 neighbor lists, perpetual/occasional/extra = 1 0 0
  (1) pair eam/alloy, perpetual
      attributes: half, newton on
      pair build: half/bin/newton/tri
      stencil: half/bin/3d/newton/tri
      bin: standard
Setting up cg style minimization ...
  Unit style    : metal
  Current step  : 0
WARNING: Energy due to 3 extra global DOFs will be included in minimizer energies
Per MPI rank memory allocation (min/avg/max) = 4.229 | 4.229 | 4.229 Mbytes
Step PotEng Xhi Xlo Yhi Ylo Zhi Xy Xz Yz Press Pxx Pyy Pzz Pxy Pxz Pyz c_eatoms 
       0  -0.50784035       3.4851            0       2.4947            0       2.4947            0            0            0    367648.95    370426.51    366260.17    366260.17 -0.0031701017 -0.0031701019 0.0013253845  -0.50784035 
      10  -0.64743168    3.5025255   -0.0174255    2.5070319 -0.012331932    2.5070319            0            0            0    319326.22    321812.21    318083.22    318083.22 -0.0027591621 -0.0027591621 0.0011802385  -0.64743168 
      20  -0.77091424     3.519951    -0.034851    2.5193609 -0.024660942    2.5193609            0            0            0    276661.23    278881.02    275551.34    275551.34 -0.002404656 -0.0024046562  0.001053573  -0.77091424 
      30  -0.87983533    3.5373765   -0.0522765    2.5316869 -0.036986879    2.5316869            0            0            0    239021.68    240998.49    238033.27    238033.27 -0.0020863114 -0.0020863113 0.00093624445  -0.87983533 
      40   -0.9756059     3.554802    -0.069702    2.5440096 -0.049309587    2.5440096            0            0            0    205846.48    207601.58    204968.94    204968.94 -0.0018067588 -0.0018067588 0.00083097916   -0.9756059 
      50   -1.0595127    3.5722275   -0.0871275    2.5563289 -0.061628908    2.5563289            0            0            0    176637.64    178190.48    175861.22    175861.22 -0.0015659269 -0.001565927 0.00073912292   -1.0595127 
      60   -1.1327296     3.589653    -0.104553    2.5686447 -0.073944681    2.5686447            0            0            0    150952.97    152321.37    150268.76    150268.76 -0.0013501954 -0.0013501954 0.00065417639   -1.1327296 
      70   -1.1963273    3.6070785   -0.1219785    2.5809567 -0.086256748    2.5809567            0            0            0    128399.69    129599.99    127799.55    127799.55 -0.0011611577 -0.0011611577 0.00057803313   -1.1963273 
      80    -1.251265     3.624504    -0.139404    2.5932634 -0.098563401    2.5932634            0            0            0    108386.05    109557.21    107800.47    107800.47 -0.00099779035 -0.00099779036 0.00050044444    -1.251265 
      90   -1.2979488    3.6419295   -0.1568295     2.605516  -0.11081605     2.605516            0            0            0    89804.541    91029.926    89191.849    89191.849 -0.00085079803 -0.00085079802 0.00043866673   -1.2979488 
     100   -1.3369729     3.659355    -0.174255     2.617741  -0.12304101     2.617741            0            0            0    73260.211    74358.932    72710.851    72710.851 -0.00072354362 -0.00072354362 0.00038440686   -1.3369729 
     110   -1.3690726    3.6767805   -0.1916805    2.6299406  -0.13524061    2.6299406            0            0            0    58694.663    59677.089     58203.45     58203.45 -0.00060910398 -0.00060910394 0.00033400276   -1.3690726 
     120   -1.3949158     3.694206    -0.209106    2.6421066   -0.1474066    2.6421066            0            0            0    45891.657    46767.072     45453.95     45453.95 -0.00050938671 -0.00050938671 0.00028936124   -1.3949158 
     130   -1.4151132    3.7116315   -0.2265315    2.6542258  -0.15952584    2.6542258            0            0            0    34660.049    35436.619    34271.764    34271.764 -0.00041910344 -0.00041910344 0.00024753673   -1.4151132 
     140    -1.430225     3.729057    -0.243957    2.6662755  -0.17157551    2.6662755            0            0            0    24832.368    25516.985    24490.059    24490.059 -0.00033901917 -0.0003390192 0.00020967439    -1.430225 
     150   -1.4407681    3.7464825   -0.2613825    2.6782104  -0.18351042    2.6782104            0            0            0    16265.845    16863.649    15966.943    15966.943 -0.00026526038 -0.00026526034 0.00017366267   -1.4407681 
     160   -1.4472281     3.763908    -0.278808    2.6899186  -0.19521856    2.6899186            0            0            0    8852.5814    9365.3126    8596.2158    8596.2158 -0.00019404129 -0.00019404129 0.00013747673   -1.4472281 
     170    -1.450097    3.7813335   -0.2962335    2.7009454  -0.20624545    2.7009454            0            0            0    2597.3665    3014.1467    2388.9765    2388.9765 -0.00011459161 -0.0001145916 9.4331999e-05    -1.450097 
     180   -1.4504322     3.797809  -0.31270895    2.7030444  -0.20834439    2.7030444            0            0            0   -31.396243    50.663146   -72.425938   -72.425938 7.0757929e-08 7.0769097e-08 1.7082542e-06   -1.4504322 
     190   -1.4504337    3.7999845   -0.3148845    2.7021759  -0.20747589    2.7021759            0            0            0 -3.2196688e-07 -6.875051e-07 -1.3920767e-07 -1.3918788e-07 -4.9464572e-12 -1.579675e-11 -6.3825254e-12   -1.4504337 
     192   -1.4504337    3.7999845   -0.3148845    2.7021759  -0.20747589    2.7021759            0            0            0 1.4934445e-10 1.7214868e-10 1.4504289e-10 1.3084177e-10 1.5956314e-13 1.5956314e-13 -1.4201119e-11   -1.4504337 
Loop time of 0.00240517 on 1 procs for 192 steps with 2 atoms

100.0% CPU use with 1 MPI tasks x no OpenMP threads

Minimization stats:
  Stopping criterion = energy tolerance
  Energy initial, next-to-last, final = 
       -0.507840346644     -1.45043373643     -1.45043373643
  Force two-norm initial, final = 8.62068 4.83939e-15
  Force max component initial, final = 5.01468 3.17023e-15
  Final line search alpha, max atom move = 1 3.17023e-15
  Iterations, force evaluations = 192 204

MPI task timing breakdown:
Section |  min time  |  avg time  |  max time  |%varavg| %total
---------------------------------------------------------------
Pair    | 0.00095677 | 0.00095677 | 0.00095677 |   0.0 | 39.78
Neigh   | 1.0967e-05 | 1.0967e-05 | 1.0967e-05 |   0.0 |  0.46
Comm    | 0.00030589 | 0.00030589 | 0.00030589 |   0.0 | 12.72
Output  | 0.00019908 | 0.00019908 | 0.00019908 |   0.0 |  8.28
Modify  | 0          | 0          | 0          |   0.0 |  0.00
Other   |            | 0.0009325  |            |       | 38.77

Nlocal:    2 ave 2 max 2 min
Histogram: 1 0 0 0 0 0 0 0 0 0
Nghost:    217 ave 217 max 217 min
Histogram: 1 0 0 0 0 0 0 0 0 0
Neighs:    54 ave 54 max 54 min
Histogram: 1 0 0 0 0 0 0 0 0 0

Total # of neighbors = 54
Ave neighs/atom = 27
Neighbor list builds = 1
Dangerous builds = 0
pypospack:output_section:begin
tot_energy = -1.45043373642848
num_atoms = 2
a11 = 4.11486899946731
a22 = 2.90965177321764
a33 = 2.90965177321764
a12 = 0
a13 = 0
a23 = 0
tot_press = 1.49344447010986e-10
pxx = 1.72148678558317e-10
pyy = 1.45042890797831e-10
pzz = 1.30841771676811e-10
pxy = 1.59563136191233e-13
pxz = 1.59563136191233e-13
pyz = -1.42011191210197e-11
pypospack:output_section:done
pypospack:lammps_sim:done
Total wall time: 0:00:00
