# ['Ni']

18 atoms
1 atom types

    0.0000     2.4781 xlo xhi
    0.0000     4.2923 ylo yhi
    0.0000    36.4153 zlo zhi

    0.0000     0.0000    -0.0004 xy xz yz

Atoms

1 1     0.0000     0.0000     0.0000
2 1     1.2391     0.7154     2.0231
3 1     0.0000     1.4308     4.0461
4 1     1.2391     2.1462     0.0000
5 1     0.0000     2.8615     2.0231
6 1     1.2391     3.5769     4.0461
7 1     0.0000     0.0000     6.0692
8 1     1.2391     0.7154     8.0923
9 1     0.0000     1.4308    10.1154
10 1     1.2391     2.1462     6.0692
11 1     0.0000     2.8615     8.0923
12 1     1.2391     3.5769    10.1154
13 1     0.0000     0.0000    12.1384
14 1     1.2391     0.7154    14.1615
15 1     0.0000     1.4308    16.1846
16 1     1.2391     2.1462    12.1384
17 1     0.0000     2.8615    14.1615
18 1     1.2391     3.5769    16.1846
