# ['Ni']

20 atoms
1 atom types

    0.0000     3.3874 xlo xhi
    0.0000     3.3874 ylo yhi
    0.0000    33.8743 zlo zhi

    0.0000    -0.0000     0.0000 xy xz yz

Atoms

1 1     0.0000     0.0000     0.0000
2 1     1.6937     1.6937     0.0000
3 1     1.6937     0.0000     1.6937
4 1     0.0000     1.6937     1.6937
5 1     0.0000     0.0000     3.3874
6 1     1.6937     1.6937     3.3874
7 1     1.6937     0.0000     5.0811
8 1     0.0000     1.6937     5.0811
9 1     0.0000     0.0000     6.7749
10 1     1.6937     1.6937     6.7749
11 1     1.6937     0.0000     8.4686
12 1     0.0000     1.6937     8.4686
13 1     0.0000     0.0000    10.1623
14 1     1.6937     1.6937    10.1623
15 1     1.6937     0.0000    11.8560
16 1     0.0000     1.6937    11.8560
17 1     0.0000     0.0000    13.5497
18 1     1.6937     1.6937    13.5497
19 1     1.6937     0.0000    15.2434
20 1     0.0000     1.6937    15.2434
