LAMMPS (11 Aug 2017)
# ---- initialize simulations
clear
units metal
dimension 3
boundary p p p
atom_style atomic
atom_modify map array
# ---- create atoms
read_data /ufrc/phillpot/eragasa/pareto_optimization_3.5NN/rank_5/Ni_fcc_100_s.lmps_min_pos/lammps.structure
  triclinic box = (0 0 0) to (3.3874 3.3874 33.8743) with tilt (0 -0 0)
  1 by 1 by 1 MPI processor grid
  reading atoms ...
  20 atoms
# ---- define interatomic potential
include potential.mod
mass 1 58.6934

group Ni type 1
20 atoms in group Ni

pair_style eam/alloy
pair_coeff * * /ufrc/phillpot/eragasa/pareto_optimization_3.5NN/rank_5/Ni_fcc_100_s.lmps_min_pos/Ni.eam.alloy Ni

neighbor 1.0 bin
neigh_modify every 1 delay 0 check yes
# ---- define settings
compute eng all pe/atom
compute eatoms all reduce sum c_eng

# ---- run minimization
reset_timestep 0
thermo 1
thermo_style custom step pe lx ly lz xy xz yz press pxx pyy pzz pxy pxz pyz c_eatoms
min_style cg
minimize 1e-20 1e-20 1000 100000
Neighbor list info ...
  update every 1 steps, delay 0 steps, check yes
  max neighbors/atom: 2000, page size: 100000
  master list distance cutoff = 5.64464
  ghost atom cutoff = 5.64464
  binsize = 2.82232, bins = 2 2 13
  1 neighbor lists, perpetual/occasional/extra = 1 0 0
  (1) pair eam/alloy, perpetual
      attributes: half, newton on
      pair build: half/bin/newton/tri
      stencil: half/bin/3d/newton/tri
      bin: standard
Per MPI rank memory allocation (min/avg/max) = 4.207 | 4.207 | 4.207 Mbytes
Step PotEng Lx Ly Lz Xy Xz Yz Press Pxx Pyy Pzz Pxy Pxz Pyz c_eatoms 
       0   -89.114159       3.3874       3.3874      33.8743            0           -0            0   -8039.7979   -11408.855   -11408.855   -1301.6828 1.7161236e-12 6.0064325e-13 1.5731133e-13   -89.114159 
       1   -89.114589       3.3874       3.3874      33.8743            0           -0            0   -8019.9914   -11376.706   -11376.706    -1306.563 -2.4597771e-12 5.4915955e-12 7.4365355e-12   -89.114589 
       2   -89.114778       3.3874       3.3874      33.8743            0           -0            0   -7685.2166   -11082.752   -11082.752    -890.1464 -1.1440824e-12 7.8655664e-12 1.1297814e-12   -89.114778 
       3   -89.114825       3.3874       3.3874      33.8743            0           -0            0    -7552.985   -10965.685   -10965.685   -727.58464 -4.0042884e-13 7.1219129e-12 4.3904162e-12   -89.114825 
       4   -89.114848       3.3874       3.3874      33.8743            0           -0            0   -7449.9445   -10872.577   -10872.577   -604.68026 2.2881648e-13 4.318911e-12 9.1526591e-12   -89.114848 
       5   -89.114898       3.3874       3.3874      33.8743            0           -0            0    -7113.054   -10569.068   -10569.068   -201.02499 -4.0042884e-12 1.0325344e-11 3.0175173e-12   -89.114898 
       6   -89.114913       3.3874       3.3874      33.8743            0           -0            0   -6969.6047   -10444.659   -10444.659    -19.49609 9.3242715e-12 -1.8248114e-11 1.0597063e-11   -89.114913 
       7   -89.114913       3.3874       3.3874      33.8743            0           -0            0   -6965.4613   -10441.127   -10441.127   -14.129094 4.5191254e-12 -4.9481563e-12 -1.6717904e-11   -89.114913 
       8   -89.114913       3.3874       3.3874      33.8743            0           -0            0   -6961.9611   -10438.045   -10438.045   -9.7931925 1.2756519e-11 1.3957805e-11 -4.5763296e-13   -89.114913 
       9   -89.114913       3.3874       3.3874      33.8743            0           -0            0   -6960.9184   -10437.064   -10437.064   -8.6261036 -1.3271356e-11 -3.0318183e-12 -1.0811579e-11   -89.114913 
      10   -89.114913       3.3874       3.3874      33.8743            0           -0            0   -6959.5083   -10435.839   -10435.839   -6.8475698 -1.1326416e-11 2.4311751e-12 -5.5774016e-12   -89.114913 
      11   -89.114913       3.3874       3.3874      33.8743            0           -0            0   -6958.0399   -10434.536   -10434.536   -5.0487493 -1.2298886e-11 -6.692882e-12 -4.1759007e-12   -89.114913 
      12   -89.114913       3.3874       3.3874      33.8743            0           -0            0   -6956.4036   -10433.052   -10433.052   -3.1073545 -4.5791898e-11 -6.235249e-12 8.9238426e-12   -89.114913 
      13   -89.114913       3.3874       3.3874      33.8743            0           -0            0   -6955.3456   -10432.104   -10432.104   -1.8298141 -1.0525558e-11 -2.7486579e-11 1.2570605e-11   -89.114913 
      14   -89.114913       3.3874       3.3874      33.8743            0           -0            0    -6954.676   -10431.524   -10431.524  -0.97912169 8.5806179e-12 3.6810851e-11 7.3221273e-12   -89.114913 
      15   -89.114913       3.3874       3.3874      33.8743            0           -0            0   -6954.2413   -10431.128   -10431.128  -0.46857274 1.3500172e-11 2.3167668e-12 2.5012501e-11   -89.114913 
      16   -89.114913       3.3874       3.3874      33.8743            0           -0            0   -6953.8976   -10430.822   -10430.822 -0.049495388 -7.3793314e-12 -7.7797602e-12 -4.0614925e-12   -89.114913 
      17   -89.114913       3.3874       3.3874      33.8743            0           -0            0   -6953.8847   -10430.811   -10430.811 -0.032031063 5.8920243e-12 1.7590267e-11 3.0604204e-12   -89.114913 
      18   -89.114913       3.3874       3.3874      33.8743            0           -0            0   -6953.8938    -10430.82    -10430.82 -0.042053834 -1.415802e-11 -1.3156947e-11 5.5917027e-12   -89.114913 
      19   -89.114913       3.3874       3.3874      33.8743            0           -0            0   -6953.9001   -10430.825   -10430.825 -0.050692793 4.7193398e-12 -2.3110464e-11 1.3972106e-11   -89.114913 
      20   -89.114913       3.3874       3.3874      33.8743            0           -0            0   -6953.8991   -10430.824   -10430.824 -0.049724729 -8.7236282e-12 -1.332856e-11 1.3528774e-11   -89.114913 
      21   -89.114913       3.3874       3.3874      33.8743            0           -0            0   -6953.8859   -10430.812   -10430.812 -0.033606633 1.235609e-11 8.8094344e-12 -9.9535168e-12   -89.114913 
      22   -89.114913       3.3874       3.3874      33.8743            0           -0            0   -6953.8586   -10430.788   -10430.788 -0.00013519568 2.0393269e-11 2.8258835e-11 2.2938852e-11   -89.114913 
      23   -89.114913       3.3874       3.3874      33.8743            0           -0            0   -6953.8584   -10430.788   -10430.788 -6.5662133e-05 1.8305318e-12 -1.2956733e-11 9.9535168e-12   -89.114913 
      24   -89.114913       3.3874       3.3874      33.8743            0           -0            0   -6953.8586   -10430.788   -10430.788 -0.00031739364 1.3643182e-11 -1.6017153e-12 -3.4322472e-12   -89.114913 
      25   -89.114913       3.3874       3.3874      33.8743            0           -0            0   -6953.8586   -10430.788   -10430.788 -0.00035377705 -1.8019298e-12 2.485519e-11 1.6317475e-11   -89.114913 
      26   -89.114913       3.3874       3.3874      33.8743            0           -0            0   -6953.8587   -10430.788   -10430.788 -0.00043970391 -1.069717e-11 1.6875215e-12 7.1076118e-12   -89.114913 
      27   -89.114913       3.3874       3.3874      33.8743            0           -0            0   -6953.8587   -10430.788   -10430.788 -0.00045487459 -1.1440824e-12 8.0371788e-12 1.6732205e-11   -89.114913 
      28   -89.114913       3.3874       3.3874      33.8743            0           -0            0   -6953.8587   -10430.788   -10430.788 -0.00037859342 1.3786193e-11 2.1194126e-11 1.3299958e-12   -89.114913 
      29   -89.114913       3.3874       3.3874      33.8743            0           -0            0   -6953.8585   -10430.788   -10430.788 -0.00023865657 1.9621013e-11 -1.0039323e-11 -4.8766512e-12   -89.114913 
      30   -89.114913       3.3874       3.3874      33.8743            0           -0            0   -6953.8585   -10430.788   -10430.788 -0.00017809288 2.0250258e-11 -1.0039323e-11 -1.8977467e-11   -89.114913 
      31   -89.114913       3.3874       3.3874      33.8743            0           -0            0   -6953.8584   -10430.788   -10430.788 -0.00010562446 -4.7479419e-12 4.6335337e-12 -9.5530879e-12   -89.114913 
      32   -89.114913       3.3874       3.3874      33.8743            0           -0            0   -6953.8584   -10430.788   -10430.788 -1.7479915e-05 7.3507293e-12 -1.1841253e-11 -4.5334265e-12   -89.114913 
      33   -89.114913       3.3874       3.3874      33.8743            0           -0            0   -6953.8584   -10430.788   -10430.788 -1.4570407e-05 5.6346058e-12 4.4047172e-12 6.8501933e-12   -89.114913 
      34   -89.114913       3.3874       3.3874      33.8743            0           -0            0   -6953.8584   -10430.788   -10430.788 -4.3061983e-06 -5.0339625e-12 8.5806179e-14 -7.7511582e-12   -89.114913 
      35   -89.114913       3.3874       3.3874      33.8743            0           -0            0   -6953.8584   -10430.788   -10430.788 -2.8135574e-06 1.0096527e-11            0 6.707183e-12   -89.114913 
      36   -89.114913       3.3874       3.3874      33.8743            0           -0            0   -6953.8584   -10430.788   -10430.788 -2.7227504e-06 -4.6335337e-12 4.2045028e-12 2.2309607e-12   -89.114913 
      37   -89.114913       3.3874       3.3874      33.8743            0           -0            0   -6953.8584   -10430.788   -10430.788 -2.6611619e-06 -1.4558448e-11 -4.4047172e-12 1.041115e-11   -89.114913 
      38   -89.114913       3.3874       3.3874      33.8743            0           -0            0   -6953.8584   -10430.788   -10430.788 -1.5282113e-06 2.514121e-11 2.2309607e-11 -1.0525558e-11   -89.114913 
      39   -89.114913       3.3874       3.3874      33.8743            0           -0            0   -6953.8584   -10430.788   -10430.788 -5.0157933e-07 2.276724e-11 2.888808e-12 -1.9778324e-11   -89.114913 
      40   -89.114913       3.3874       3.3874      33.8743            0           -0            0   -6953.8584   -10430.788   -10430.788 -1.7261252e-07 -1.9764023e-11 1.3700387e-11 5.3199831e-12   -89.114913 
      41   -89.114913       3.3874       3.3874      33.8743            0           -0            0   -6953.8584   -10430.788   -10430.788 -1.1307493e-07 5.4057893e-12 5.1483707e-12 -3.0075066e-11   -89.114913 
      42   -89.114913       3.3874       3.3874      33.8743            0           -0            0   -6953.8584   -10430.788   -10430.788 -2.4727396e-08 -1.1097599e-11 6.206647e-12 -3.6367519e-11   -89.114913 
Loop time of 0.0505619 on 1 procs for 42 steps with 20 atoms

7.3% CPU use with 1 MPI tasks x no OpenMP threads

Minimization stats:
  Stopping criterion = energy tolerance
  Energy initial, next-to-last, final = 
        -89.1141592329     -89.1149131345     -89.1149131345
  Force two-norm initial, final = 0.109836 1.96164e-12
  Force max component initial, final = 0.0402387 1.01729e-12
  Final line search alpha, max atom move = 1 1.01729e-12
  Iterations, force evaluations = 42 84

MPI task timing breakdown:
Section |  min time  |  avg time  |  max time  |%varavg| %total
---------------------------------------------------------------
Pair    | 0.0030112  | 0.0030112  | 0.0030112  |   0.0 |  5.96
Neigh   | 0          | 0          | 0          |   0.0 |  0.00
Comm    | 0.00024819 | 0.00024819 | 0.00024819 |   0.0 |  0.49
Output  | 0.047169   | 0.047169   | 0.047169   |   0.0 | 93.29
Modify  | 0          | 0          | 0          |   0.0 |  0.00
Other   |            | 0.0001338  |            |       |  0.26

Nlocal:    20 ave 20 max 20 min
Histogram: 1 0 0 0 0 0 0 0 0 0
Nghost:    547 ave 547 max 547 min
Histogram: 1 0 0 0 0 0 0 0 0 0
Neighs:    688 ave 688 max 688 min
Histogram: 1 0 0 0 0 0 0 0 0 0

Total # of neighbors = 688
Ave neighs/atom = 34.4
Neighbor list builds = 0
Dangerous builds = 0

# ---- define output variables ----
variable natoms equal "count(all)"
variable tot_energy equal "c_eatoms"
variable a11 equal "xhi-xlo"
variable a22 equal "yhi-ylo"
variable a33 equal "zhi-zlo"
variable tilt_xy equal "xy"
variable tilt_xz equal "xz"
variable tilt_yz equal "yz"
variable tot_press equal "press"
variable press_xx equal "pxx"
variable press_yy equal "pyy"
variable press_zz equal "pzz"
variable press_xy equal "pxy"
variable press_xz equal "pxz"
variable press_yz equal "pyz"

# ---- output ----
print "pypospack:output_section:begin"
pypospack:output_section:begin
print "tot_energy = ${tot_energy}"
tot_energy = -89.1149131344522
print "num_atoms = ${natoms}"
num_atoms = 20
print "a11 = ${a11}"
a11 = 3.3874
print "a22 = ${a22}"
a22 = 3.3874
print "a33 = ${a33}"
a33 = 33.8743
print "a12 = ${tilt_xy}"
a12 = 0
print "a13 = ${tilt_xz}"
a13 = -0
print "a23 = ${tilt_yz}"
a23 = 0
print "tot_press = ${tot_press}"
tot_press = -6953.8583521631
print "pxx = ${press_xx}"
pxx = -10430.7875282323
print "pyy = ${press_yy}"
pyy = -10430.7875282323
print "pzz = ${press_zz}"
pzz = -2.47273958734027e-08
print "pxy = ${press_xy}"
pxy = -1.10975991621828e-11
print "pxz = ${press_xz}"
pxz = 6.2066469541074e-12
print "pyz = ${press_yz}"
pyz = -3.63675189039058e-11
print "pypospack:output_section:done"
pypospack:output_section:done
print "pypospack:lammps_sim:done"
pypospack:lammps_sim:done
Total wall time: 0:00:00
