 vasp.5.4.1 24Jun15 (build Jun 05 2017 10:38:15) complex                        
  
 executed on           IFC91_ompi date 2017.10.21  22:43:13
 running on   16 total cores
 distrk:  each k-point on   16 cores,    1 groups
 distr:  one band on NCORES_PER_BAND=   1 cores,   16 groups


--------------------------------------------------------------------------------------------------------


 INCAR:
 POTCAR:    PAW_PBE Mg 13Apr2007                  
 POTCAR:    PAW_PBE O_h 06Feb2004                 

 ----------------------------------------------------------------------------- 
|                                                                             |
|           W    W    AA    RRRRR   N    N  II  N    N   GGGG   !!!           |
|           W    W   A  A   R    R  NN   N  II  NN   N  G    G  !!!           |
|           W    W  A    A  R    R  N N  N  II  N N  N  G       !!!           |
|           W WW W  AAAAAA  RRRRR   N  N N  II  N  N N  G  GGG   !            |
|           WW  WW  A    A  R   R   N   NN  II  N   NN  G    G                |
|           W    W  A    A  R    R  N    N  II  N    N   GGGG   !!!           |
|                                                                             |
|      For optimal performance we recommend to set                            |
|        NCORE= 4 - approx SQRT( number of cores)                             |
|      NCORE specifies how many cores store one orbital (NPAR=cpu/NCORE).     |
|      This setting can  greatly improve the performance of VASP for DFT.     |
|      The default, NPAR=number of cores might be grossly inefficient         |
|      on modern multi-core architectures or massively parallel machines.     |
|      Do your own testing !!!!                                               |
|      Unfortunately you need to use the default for GW and RPA calculations. |
|      (for HF NCORE is supported but not extensively tested yet)             |
|                                                                             |
 ----------------------------------------------------------------------------- 

 POTCAR:    PAW_PBE Mg 13Apr2007                  
   VRHFIN =Mg: s2p0                                                             
   LEXCH  = PE                                                                  
   EATOM  =    23.0369 eV,    1.6932 Ry                                         
                                                                                
   TITEL  = PAW_PBE Mg 13Apr2007                                                
   LULTRA =        F    use ultrasoft PP ?                                      
   IUNSCR =        1    unscreen: 0-lin 1-nonlin 2-no                           
   RPACOR =    1.500    partial core radius                                     
   POMASS =   24.305; ZVAL   =    2.000    mass and valenz                      
   RCORE  =    2.000    outmost cutoff radius                                   
   RWIGS  =    2.880; RWIGS  =    1.524    wigner-seitz radius (au A)           
   ENMAX  =  126.143; ENMIN  =   94.607 eV                                      
   RCLOC  =    1.506    cutoff for local pot                                    
   LCOR   =        T    correct aug charges                                     
   LPAW   =        T    paw PP                                                  
   EAUG   =  454.734                                                            
   DEXC   =     .000                                                            
   RMAX   =    4.105    core radius for proj-oper                               
   RAUG   =    1.300    factor for augmentation sphere                          
   RDEP   =    2.025    radius for radial grids                                 
   QCUT   =   -3.045; QGAM   =    6.090    optimization parameters              
                                                                                
   Description                                                                  
     l     E      TYP  RCUT    TYP  RCUT                                        
     0   .000     23  2.000                                                     
     0  2.000     23  2.000                                                     
     1   .100     23  2.000                                                     
     1  2.000     23  2.000                                                     
     2   .000     23  2.000                                                     
  local pseudopotential read in
  partial core-charges read in
  atomic valenz-charges read in
  non local Contribution for L=           0  read in
    real space projection operators read in
  non local Contribution for L=           0  read in
    real space projection operators read in
  non local Contribution for L=           1  read in
    real space projection operators read in
  non local Contribution for L=           1  read in
    real space projection operators read in
  non local Contribution for L=           2  read in
    real space projection operators read in
    PAW grid and wavefunctions read in
 
   number of l-projection  operators is LMAX  =           5
   number of lm-projection operators is LMMAX =          13
 
 POTCAR:    PAW_PBE O_h 06Feb2004                 
   VRHFIN =O: s2p4                                                              
   LEXCH  = PE                                                                  
   EATOM  =   432.3788 eV,   31.7789 Ry                                         
                                                                                
   TITEL  = PAW_PBE O_h 06Feb2004                                               
   LULTRA =        F    use ultrasoft PP ?                                      
   IUNSCR =        1    unscreen: 0-lin 1-nonlin 2-no                           
   RPACOR =     .800    partial core radius                                     
   POMASS =   16.000; ZVAL   =    6.000    mass and valenz                      
   RCORE  =    1.100    outmost cutoff radius                                   
   RWIGS  =    1.400; RWIGS  =     .741    wigner-seitz radius (au A)           
   ENMAX  =  700.000; ENMIN  =  500.000 eV                                      
   ICORE  =        2    local potential                                         
   LCOR   =        T    correct aug charges                                     
   LPAW   =        T    paw PP                                                  
   EAUG   =  888.804                                                            
   DEXC   =     .000                                                            
   RMAX   =    1.666    core radius for proj-oper                               
   RAUG   =    1.300    factor for augmentation sphere                          
   RDEP   =    1.125    radius for radial grids                                 
   QCUT   =   -7.501; QGAM   =   15.002    optimization parameters              
                                                                                
   Description                                                                  
     l     E      TYP  RCUT    TYP  RCUT                                        
     0   .000     23  1.100                                                     
     0   .000     23  1.100                                                     
     1   .000     23  1.100                                                     
     1   .000     23  1.100                                                     
     2   .000      7  1.100                                                     
  local pseudopotential read in
  partial core-charges read in
  atomic valenz-charges read in
  non local Contribution for L=           0  read in
    real space projection operators read in
  non local Contribution for L=           0  read in
    real space projection operators read in
  non local Contribution for L=           1  read in
    real space projection operators read in
  non local Contribution for L=           1  read in
    real space projection operators read in
    PAW grid and wavefunctions read in
 
   number of l-projection  operators is LMAX  =           4
   number of lm-projection operators is LMMAX =           8
 
  PAW_PBE Mg 13Apr2007                  :
 energy of atom  1       EATOM=  -23.0369
 kinetic energy error for atom=    0.0000 (will be added to EATOM!!)
  PAW_PBE O_h 06Feb2004                 :
 energy of atom  2       EATOM= -432.3788
 kinetic energy error for atom=    0.0170 (will be added to EATOM!!)
 
 
 POSCAR: Mg1 O1                                  
  positions in direct lattice
  No initial velocities read in
 exchange correlation table for  LEXCH =        8
   RHO(1)=    0.500       N(1)  =     2000
   RHO(2)=  100.500       N(2)  =     4000
 


--------------------------------------------------------------------------------------------------------


 ion  position               nearest neighbor table
   1  0.000  0.000  0.000-   2 2.13   2 2.13   2 2.13   2 2.13   2 2.13   2 2.13
   2  0.500  0.500  0.500-   1 2.13   1 2.13   1 2.13   1 2.13   1 2.13   1 2.13
 
  LATTYP: Found a face centered cubic cell.
 ALAT       =     4.2564834762
  
  Lattice vectors:
  
 A1 = (   3.0097880000,   0.0000000000,   0.0000000000)
 A2 = (   1.5048940000,   2.6065530000,   0.0000000000)
 A3 = (   1.5048940000,   0.8688510000,   2.4574820000)


Analysis of symmetry for initial positions (statically):
=====================================================================
 Subroutine PRICEL returns:
 Original cell was already a primitive cell.
 

 Routine SETGRP: Setting up the symmetry group for a 
 face centered cubic supercell.


 Subroutine GETGRP returns: Found 48 space group operations
 (whereof 48 operations were pure point group operations)
 out of a pool of 48 trial point group operations.


The static configuration has the point symmetry O_h .


Analysis of symmetry for dynamics (positions and initial velocities):
=====================================================================
 Subroutine PRICEL returns:
 Original cell was already a primitive cell.
 

 Routine SETGRP: Setting up the symmetry group for a 
 face centered cubic supercell.


 Subroutine GETGRP returns: Found 48 space group operations
 (whereof 48 operations were pure point group operations)
 out of a pool of 48 trial point group operations.


The dynamic configuration has the point symmetry O_h .


 Subroutine INISYM returns: Found 48 space group operations
 (whereof 48 operations are pure point group operations),
 and found     1 'primitive' translations

 
 
 KPOINTS: Automatic Mesh                          

Automatic generation of k-mesh.
Space group operators:
 irot       det(A)        alpha          n_x          n_y          n_z        tau_x        tau_y        tau_z
    1     1.000000     0.000000     1.000000     0.000000     0.000000     0.000000     0.000000     0.000000
    2    -1.000000     0.000000     1.000000     0.000000     0.000000     0.000000     0.000000     0.000000
    3     1.000000   120.000000    -0.816497    -0.471404    -0.333333     0.000000     0.000000     0.000000
    4    -1.000000   120.000000    -0.816497    -0.471404    -0.333333     0.000000     0.000000     0.000000
    5     1.000000   120.000000     0.816497     0.471405     0.333333     0.000000     0.000000     0.000000
    6    -1.000000   120.000000     0.816497     0.471405     0.333333     0.000000     0.000000     0.000000
    7     1.000000    90.000000    -0.707107    -0.408248     0.577350     0.000000     0.000000     0.000000
    8    -1.000000    90.000000    -0.707107    -0.408248     0.577350     0.000000     0.000000     0.000000
    9     1.000000   180.000000     1.000000    -0.000000     0.000000     0.000000     0.000000     0.000000
   10    -1.000000   180.000000     1.000000    -0.000000     0.000000     0.000000     0.000000     0.000000
   11     1.000000    90.000000     0.707107    -0.408248     0.577350     0.000000     0.000000     0.000000
   12    -1.000000    90.000000     0.707107    -0.408248     0.577350     0.000000     0.000000     0.000000
   13     1.000000   180.000000     0.707107     0.408248    -0.577350     0.000000     0.000000     0.000000
   14    -1.000000   180.000000     0.707107     0.408248    -0.577350     0.000000     0.000000     0.000000
   15     1.000000   120.000000     0.816497    -0.471405    -0.333333     0.000000     0.000000     0.000000
   16    -1.000000   120.000000     0.816497    -0.471405    -0.333333     0.000000     0.000000     0.000000
   17     1.000000   120.000000     0.000000    -0.942809     0.333333     0.000000     0.000000     0.000000
   18    -1.000000   120.000000     0.000000    -0.942809     0.333333     0.000000     0.000000     0.000000
   19     1.000000    90.000000     0.707107     0.408248    -0.577350     0.000000     0.000000     0.000000
   20    -1.000000    90.000000     0.707107     0.408248    -0.577350     0.000000     0.000000     0.000000
   21     1.000000    90.000000    -0.000000    -0.816497    -0.577350     0.000000     0.000000     0.000000
   22    -1.000000    90.000000    -0.000000    -0.816497    -0.577350     0.000000     0.000000     0.000000
   23     1.000000   180.000000     0.500000     0.866025    -0.000000     0.000000     0.000000     0.000000
   24    -1.000000   180.000000     0.500000     0.866025    -0.000000     0.000000     0.000000     0.000000
   25     1.000000   120.000000     0.000000     0.942809    -0.333333     0.000000     0.000000     0.000000
   26    -1.000000   120.000000     0.000000     0.942809    -0.333333     0.000000     0.000000     0.000000
   27     1.000000   120.000000     0.000000     0.000000    -1.000000     0.000000     0.000000     0.000000
   28    -1.000000   120.000000     0.000000     0.000000    -1.000000     0.000000     0.000000     0.000000
   29     1.000000   180.000000     0.000000    -0.816497    -0.577350     0.000000     0.000000     0.000000
   30    -1.000000   180.000000     0.000000    -0.816497    -0.577350     0.000000     0.000000     0.000000
   31     1.000000    90.000000    -0.707107     0.408248    -0.577350     0.000000     0.000000     0.000000
   32    -1.000000    90.000000    -0.707107     0.408248    -0.577350     0.000000     0.000000     0.000000
   33     1.000000   180.000000     0.500000     0.288675     0.816497     0.000000     0.000000     0.000000
   34    -1.000000   180.000000     0.500000     0.288675     0.816497     0.000000     0.000000     0.000000
   35     1.000000    90.000000    -0.000000     0.816497     0.577350     0.000000     0.000000     0.000000
   36    -1.000000    90.000000    -0.000000     0.816497     0.577350     0.000000     0.000000     0.000000
   37     1.000000   120.000000    -0.816497     0.471404     0.333333     0.000000     0.000000     0.000000
   38    -1.000000   120.000000    -0.816497     0.471404     0.333333     0.000000     0.000000     0.000000
   39     1.000000   180.000000    -0.707107     0.408248    -0.577350     0.000000     0.000000     0.000000
   40    -1.000000   180.000000    -0.707107     0.408248    -0.577350     0.000000     0.000000     0.000000
   41     1.000000   120.000000     0.000000     0.000000     1.000000     0.000000     0.000000     0.000000
   42    -1.000000   120.000000     0.000000     0.000000     1.000000     0.000000     0.000000     0.000000
   43     1.000000   180.000000     0.000000    -0.577350     0.816497     0.000000     0.000000     0.000000
   44    -1.000000   180.000000     0.000000    -0.577350     0.816497     0.000000     0.000000     0.000000
   45     1.000000   180.000000    -0.500000     0.866025    -0.000000     0.000000     0.000000     0.000000
   46    -1.000000   180.000000    -0.500000     0.866025    -0.000000     0.000000     0.000000     0.000000
   47     1.000000   180.000000    -0.500000     0.288675     0.816497     0.000000     0.000000     0.000000
   48    -1.000000   180.000000    -0.500000     0.288675     0.816497     0.000000     0.000000     0.000000
 
 Subroutine IBZKPT returns following result:
 ===========================================
 
 Found     10 irreducible k-points:
 
 Following reciprocal coordinates:
            Coordinates               Weight
  0.125000  0.125000  0.125000     96.000000
  0.375000  0.125000  0.125000    288.000000
 -0.375000  0.125000  0.125000    288.000000
 -0.125000  0.125000  0.125000    288.000000
  0.375000  0.375000  0.125000    288.000000
 -0.375000  0.375000  0.125000    576.000000
 -0.125000  0.375000  0.125000    576.000000
 -0.375000 -0.375000  0.125000    288.000000
  0.375000  0.375000  0.375000     96.000000
 -0.375000  0.375000  0.375000    288.000000
 
 Following cartesian coordinates:
            Coordinates               Weight
  0.041531  0.023978  0.016955     96.000000
  0.124593 -0.023978 -0.016955    288.000000
 -0.124593  0.119890  0.084775    288.000000
 -0.041531  0.071934  0.050865    288.000000
  0.124593  0.071934 -0.050865    288.000000
 -0.124593  0.215802  0.050865    576.000000
 -0.041531  0.167846  0.016955    576.000000
 -0.124593 -0.071934  0.152595    288.000000
  0.124593  0.071934  0.050865     96.000000
 -0.124593  0.215802  0.152595    288.000000
 


--------------------------------------------------------------------------------------------------------




 Dimension of arrays:
   k-points           NKPTS =     10   k-points in BZ     NKDIM =     10   number of bands    NBANDS=     16
   number of dos      NEDOS =    301   number of ions     NIONS =      2
   non local maximal  LDIM  =      5   non local SUM 2l+1 LMDIM =     13
   total plane-waves  NPLWV =  32768
   max r-space proj   IRMAX =      1   max aug-charges    IRDMAX=  17825
   dimension x,y,z NGX =    32 NGY =   32 NGZ =   32
   dimension x,y,z NGXF=    40 NGYF=   40 NGZF=   40
   support grid    NGXF=    40 NGYF=   40 NGZF=   40
   ions per type =               1   1
 NGX,Y,Z   is equivalent  to a cutoff of  17.68, 17.68, 17.68 a.u.
 NGXF,Y,Z  is equivalent  to a cutoff of  22.09, 22.09, 22.09 a.u.


 I would recommend the setting:
   dimension x,y,z NGX =    32 NGY =   32 NGZ =   32
 SYSTEM =  automatically generated by pyflamestk   
 POSCAR =  Mg1 O1                                  

 Startparameter for this run:
   NWRITE =      2    write-flag & timer
   PREC   = high      normal or accurate (medium, high low for compatibility)
   ISTART =      0    job   : 0-new  1-cont  2-samecut
   ICHARG =      0    charge: 1-file 2-atom 10-const
   ISPIN  =      1    spin polarized calculation?
   LNONCOLLINEAR =      F non collinear calculations
   LSORBIT =      F    spin-orbit coupling
   INIWAV =      1    electr: 0-lowe 1-rand  2-diag
   LASPH  =      F    aspherical Exc in radial PAW
   METAGGA=      F    non-selfconsistent MetaGGA calc.

 Electronic Relaxation 1
   ENCUT  = 1050.0 eV  77.17 Ry    8.78 a.u.   7.95  7.95  7.95*2*pi/ulx,y,z
   ENINI  = 1050.0     initial cutoff
   ENAUG  =  888.8 eV  augmentation charge cutoff
   NELM   =     40;   NELMIN=  2; NELMDL= -5     # of ELM steps 
   EDIFF  = 0.1E-05   stopping-criterion for ELM
   LREAL  =      F    real-space projection
   NLSPLINE    = F    spline interpolate recip. space projectors
   LCOMPAT=      F    compatible to vasp.4.4
   GGA_COMPAT  = T    GGA compatible to vasp.4.4-vasp.4.6
   LMAXPAW     = -100 max onsite density
   LMAXMIX     =    2 max onsite mixed and CHGCAR
   VOSKOWN=      0    Vosko Wilk Nusair interpolation
   ROPT   =    0.00000   0.00000
 Ionic relaxation
   EDIFFG = 0.1E-04   stopping-criterion for IOM
   NSW    =      0    number of steps for IOM
   NBLOCK =      1;   KBLOCK =      1    inner block; outer block 
   IBRION =     -1    ionic relax: 0-MD 1-quasi-New 2-CG
   NFREE  =      0    steps in history (QN), initial steepest desc. (CG)
   ISIF   =      2    stress and relaxation
   IWAVPR =     10    prediction:  0-non 1-charg 2-wave 3-comb
   ISYM   =      2    0-nonsym 1-usesym 2-fastsym
   LCORR  =      T    Harris-Foulkes like correction to forces

   POTIM  = 0.5000    time-step for ionic-motion
   TEIN   =    0.0    initial temperature
   TEBEG  =    0.0;   TEEND  =   0.0 temperature during run
   SMASS  =  -3.00    Nose mass-parameter (am)
   estimated Nose-frequenzy (Omega)   =  0.10E-29 period in steps =****** mass=  -0.207E-27a.u.
   SCALEE = 1.0000    scale energy and forces
   NPACO  =    256;   APACO  = 16.0  distance and # of slots for P.C.
   PSTRESS=    0.0 pullay stress

  Mass of Ions in am
   POMASS =  24.30 16.00
  Ionic Valenz
   ZVAL   =   2.00  6.00
  Atomic Wigner-Seitz radii
   RWIGS  =  -1.00 -1.00
  virtual crystal weights 
   VCA    =   1.00  1.00
   NELECT =       8.0000    total number of electrons
   NUPDOWN=      -1.0000    fix difference up-down

 DOS related values:
   EMIN   =  10.00;   EMAX   =-10.00  energy-range for DOS
   EFERMI =   0.00
   ISMEAR =     0;   SIGMA  =   0.05  broadening in eV -4-tet -1-fermi 0-gaus

 Electronic relaxation 2 (details)
   IALGO  =     38    algorithm
   LDIAG  =      T    sub-space diagonalisation (order eigenvalues)
   LSUBROT=      F    optimize rotation matrix (better conditioning)
   TURBO    =      0    0=normal 1=particle mesh
   IRESTART =      0    0=no restart 2=restart with 2 vectors
   NREBOOT  =      0    no. of reboots
   NMIN     =      0    reboot dimension
   EREF     =   0.00    reference energy to select bands
   IMIX   =      4    mixing-type and parameters
     AMIX     =   0.40;   BMIX     =  1.00
     AMIX_MAG =   1.60;   BMIX_MAG =  1.00
     AMIN     =   0.10
     WC   =   100.;   INIMIX=   1;  MIXPRE=   1;  MAXMIX= -45

 Intra band minimization:
   WEIMIN = 0.0000     energy-eigenvalue tresh-hold
   EBREAK =  0.16E-07  absolut break condition
   DEPER  =   0.30     relativ break condition  

   TIME   =   0.40     timestep for ELM

  volume/ion in A,a.u.               =       9.64        65.05
  Fermi-wavevector in a.u.,A,eV,Ry     =   1.221070  2.307488 20.286449  1.491012
  Thomas-Fermi vector in A             =   2.356265
 
 Write flags
   LWAVE  =      F    write WAVECAR
   LCHARG =      F    write CHGCAR
   LVTOT  =      F    write LOCPOT, total local potential
   LVHAR  =      F    write LOCPOT, Hartree potential only
   LELF   =      F    write electronic localiz. function (ELF)
   LORBIT =      0    0 simple, 1 ext, 2 COOP (PROOUT)


 Dipole corrections
   LMONO  =      F    monopole corrections only (constant potential shift)
   LDIPOL =      F    correct potential (dipole corrections)
   IDIPOL =      0    1-x, 2-y, 3-z, 4-all directions 
   EPSILON=  1.0000000 bulk dielectric constant

 Exchange correlation treatment:
   GGA     =    --    GGA type
   LEXCH   =     8    internal setting for exchange type
   VOSKOWN=      0    Vosko Wilk Nusair interpolation
   LHFCALC =     F    Hartree Fock is set to
   LHFONE  =     F    Hartree Fock one center treatment
   AEXX    =    0.0000 exact exchange contribution

 Linear response parameters
   LEPSILON=     F    determine dielectric tensor
   LRPA    =     F    only Hartree local field effects (RPA)
   LNABLA  =     F    use nabla operator in PAW spheres
   LVEL    =     F    velocity operator in full k-point grid
   LINTERFAST=   F  fast interpolation
   KINTER  =     0    interpolate to denser k-point grid
   CSHIFT  =0.1000    complex shift for real part using Kramers Kronig
   OMEGAMAX=  -1.0    maximum frequency
   DEG_THRESHOLD= 0.2000000E-02 threshold for treating states as degnerate
   RTIME   =    0.100 relaxation time in fs

 Orbital magnetization related:
   ORBITALMAG=     F  switch on orbital magnetization
   LCHIMAG   =     F  perturbation theory with respect to B field
   DQ        =  0.001000  dq finite difference perturbation B field



--------------------------------------------------------------------------------------------------------


 Static calculation
 charge density and potential will be updated during run
 non-spin polarized calculation
 Variant of blocked Davidson
 Davidson routine will perform the subspace rotation
 perform sub-space diagonalisation
    after iterative eigenvector-optimisation
 modified Broyden-mixing scheme, WC =      100.0
 initial mixing is a Kerker type mixing with AMIX =  0.4000 and BMIX =      1.0000
 Hartree-type preconditioning will be used
 using additional bands           12
 reciprocal scheme for non local part
 use partial core corrections
 calculate Harris-corrections to forces 
   (improved forces if not selfconsistent)
 use gradient corrections 
 use of overlap-Matrix (Vanderbilt PP)
 Gauss-broadening in eV      SIGMA  =   0.05


--------------------------------------------------------------------------------------------------------


  energy-cutoff  :     1050.00
  volume of cell :       19.28
      direct lattice vectors                 reciprocal lattice vectors
     3.009788000  0.000000000  0.000000000     0.332249315 -0.191824221 -0.135640193
     1.504894000  2.606553000  0.000000000     0.000000000  0.383648443 -0.135640193
     1.504894000  0.868851000  2.457482000     0.000000000  0.000000000  0.406920580

  length of vectors
     3.009788000  3.009788114  3.009788330     0.406920632  0.406920619  0.406920580


 
 k-points in units of 2pi/SCALE and weight: Automatic Mesh                          
   0.04153116  0.02397803  0.01695502       0.031
   0.12459349 -0.02397803 -0.01695502       0.094
  -0.12459349  0.11989014  0.08477512       0.094
  -0.04153116  0.07193408  0.05086507       0.094
   0.12459349  0.07193408 -0.05086507       0.094
  -0.12459349  0.21580225  0.05086507       0.188
  -0.04153116  0.16784619  0.01695502       0.188
  -0.12459349 -0.07193408  0.15259522       0.094
   0.12459349  0.07193408  0.05086507       0.031
  -0.12459349  0.21580225  0.15259522       0.094
 
 k-points in reciprocal lattice and weights: Automatic Mesh                          
   0.12500000  0.12500000  0.12500000       0.031
   0.37500000  0.12500000  0.12500000       0.094
  -0.37500000  0.12500000  0.12500000       0.094
  -0.12500000  0.12500000  0.12500000       0.094
   0.37500000  0.37500000  0.12500000       0.094
  -0.37500000  0.37500000  0.12500000       0.188
  -0.12500000  0.37500000  0.12500000       0.188
  -0.37500000 -0.37500000  0.12500000       0.094
   0.37500000  0.37500000  0.37500000       0.031
  -0.37500000  0.37500000  0.37500000       0.094
 
 position of ions in fractional coordinates (direct lattice) 
   0.00000000  0.00000000  0.00000000
   0.50000000  0.50000000  0.50000000
 
 position of ions in cartesian coordinates  (Angst):
   0.00000000  0.00000000  0.00000000
   3.00978800  1.73770200  1.22874100
 


--------------------------------------------------------------------------------------------------------


 k-point  1 :   0.1250 0.1250 0.1250  plane waves:    1462
 k-point  2 :   0.3750 0.1250 0.1250  plane waves:    1481
 k-point  3 :  -0.3750 0.1250 0.1250  plane waves:    1491
 k-point  4 :  -0.1250 0.1250 0.1250  plane waves:    1485
 k-point  5 :   0.3750 0.3750 0.1250  plane waves:    1494
 k-point  6 :  -0.3750 0.3750 0.1250  plane waves:    1500
 k-point  7 :  -0.1250 0.3750 0.1250  plane waves:    1491
 k-point  8 :  -0.3750-0.3750 0.1250  plane waves:    1495
 k-point  9 :   0.3750 0.3750 0.3750  plane waves:    1483
 k-point 10 :  -0.3750 0.3750 0.3750  plane waves:    1493

 maximum and minimum number of plane-waves per node :      1500     1462

 maximum number of plane-waves:      1500
 maximum index in each direction: 
   IXMAX=    8   IYMAX=    8   IZMAX=    7
   IXMIN=   -8   IYMIN=   -8   IZMIN=   -8

 WARNING: aliasing errors must be expected set NGX to  34 to avoid them
 WARNING: aliasing errors must be expected set NGY to  34 to avoid them
 NGZ is ok and might be reduce to  32
 aliasing errors are usually negligible using standard VASP settings
 and one can safely disregard these warnings

 serial   3D FFT for wavefunctions
 parallel 3D FFT for charge:
    minimum data exchange during FFTs selected (reduces bandwidth)


 total amount of memory used by VASP on root node    35362. kBytes
========================================================================

   base      :      30000. kBytes
   nonl-proj :       3176. kBytes
   fftplans  :        320. kBytes
   grid      :       1605. kBytes
   one-center:         16. kBytes
   wavefun   :        245. kBytes
 
     INWAV:  cpu time    0.0000: real time    0.0001
 Broyden mixing: mesh for mixing (old mesh)
   NGX = 15   NGY = 15   NGZ = 15
  (NGX  = 40   NGY  = 40   NGZ  = 40)
  gives a total of   3375 points

 charge density for first step will be calculated from the start-wavefunctions


--------------------------------------------------------------------------------------------------------


 Maximum index for augmentation-charges         1435 (set IRDMAX)


--------------------------------------------------------------------------------------------------------


 initial charge from wavefunction
 First call to EWALD:  gamma=   0.661
 Maximum number of real-space cells 3x 3x 3
 Maximum number of reciprocal cells 3x 3x 3

 FEWALD executed in parallel
    FEWALD:  cpu time    0.0010: real time    0.0015


----------------------------------------- Iteration    1(   1)  ---------------------------------------


    POTLOK:  cpu time    0.0050: real time    0.0055
    SETDIJ:  cpu time    0.0030: real time    0.0027
     EDDAV:  cpu time    0.0550: real time    0.0550
       DOS:  cpu time    0.0000: real time    0.0002
    --------------------------------------------
      LOOP:  cpu time    0.0670: real time    0.0693

 eigenvalue-minimisations  :   336
 total energy-change (2. order) :-0.2411715E+03  (-0.1129522E+04)
 number of electron       7.9999999 magnetization 
 augmentation part       -0.9732816 magnetization 

 Free energy of the ion-electron system (eV)
  ---------------------------------------------------
  alpha Z        PSCENC =        15.79325893
  Ewald energy   TEWEN  =      -354.45312954
  -Hartree energ DENC   =       -40.83415517
  -exchange      EXHF   =         0.00000000
  -V(xc)+E(xc)   XCENC  =       -28.66987748
  PAW double counting   =    173620.82591817  -173566.94375457
  entropy T*S    EENTRO =        -0.00000000
  eigenvalues    EBANDS =      -342.28847290
  atomic energy  EATOM  =       455.39873264
  Solvation  Ediel_sol  =         0.00000000
  ---------------------------------------------------
  free energy    TOTEN  =      -241.17147991 eV

  energy without entropy =     -241.17147991  energy(sigma->0) =     -241.17147991


--------------------------------------------------------------------------------------------------------




----------------------------------------- Iteration    1(   2)  ---------------------------------------


     EDDAV:  cpu time    0.0830: real time    0.0826
       DOS:  cpu time    0.0000: real time    0.0001
    --------------------------------------------
      LOOP:  cpu time    0.0830: real time    0.0861

 eigenvalue-minimisations  :   496
 total energy-change (2. order) :-0.7976193E+02  (-0.7976193E+02)
 number of electron       7.9999999 magnetization 
 augmentation part       -0.9732816 magnetization 

 Free energy of the ion-electron system (eV)
  ---------------------------------------------------
  alpha Z        PSCENC =        15.79325893
  Ewald energy   TEWEN  =      -354.45312954
  -Hartree energ DENC   =       -40.83415517
  -exchange      EXHF   =         0.00000000
  -V(xc)+E(xc)   XCENC  =       -28.66987748
  PAW double counting   =    173620.82591817  -173566.94375457
  entropy T*S    EENTRO =        -0.00000000
  eigenvalues    EBANDS =      -422.05040128
  atomic energy  EATOM  =       455.39873264
  Solvation  Ediel_sol  =         0.00000000
  ---------------------------------------------------
  free energy    TOTEN  =      -320.93340829 eV

  energy without entropy =     -320.93340829  energy(sigma->0) =     -320.93340829


--------------------------------------------------------------------------------------------------------




----------------------------------------- Iteration    1(   3)  ---------------------------------------


     EDDAV:  cpu time    0.0610: real time    0.0608
       DOS:  cpu time    0.0000: real time    0.0001
    --------------------------------------------
      LOOP:  cpu time    0.0610: real time    0.0645

 eigenvalue-minimisations  :   368
 total energy-change (2. order) :-0.3276455E+00  (-0.3276455E+00)
 number of electron       7.9999999 magnetization 
 augmentation part       -0.9732816 magnetization 

 Free energy of the ion-electron system (eV)
  ---------------------------------------------------
  alpha Z        PSCENC =        15.79325893
  Ewald energy   TEWEN  =      -354.45312954
  -Hartree energ DENC   =       -40.83415517
  -exchange      EXHF   =         0.00000000
  -V(xc)+E(xc)   XCENC  =       -28.66987748
  PAW double counting   =    173620.82591817  -173566.94375457
  entropy T*S    EENTRO =        -0.00000000
  eigenvalues    EBANDS =      -422.37804678
  atomic energy  EATOM  =       455.39873264
  Solvation  Ediel_sol  =         0.00000000
  ---------------------------------------------------
  free energy    TOTEN  =      -321.26105379 eV

  energy without entropy =     -321.26105379  energy(sigma->0) =     -321.26105379


--------------------------------------------------------------------------------------------------------




----------------------------------------- Iteration    1(   4)  ---------------------------------------


     EDDAV:  cpu time    0.1040: real time    0.1047
       DOS:  cpu time    0.0010: real time    0.0001
    --------------------------------------------
      LOOP:  cpu time    0.1050: real time    0.1092

 eigenvalue-minimisations  :   592
 total energy-change (2. order) :-0.1047068E-02  (-0.1047068E-02)
 number of electron       7.9999999 magnetization 
 augmentation part       -0.9732816 magnetization 

 Free energy of the ion-electron system (eV)
  ---------------------------------------------------
  alpha Z        PSCENC =        15.79325893
  Ewald energy   TEWEN  =      -354.45312954
  -Hartree energ DENC   =       -40.83415517
  -exchange      EXHF   =         0.00000000
  -V(xc)+E(xc)   XCENC  =       -28.66987748
  PAW double counting   =    173620.82591817  -173566.94375457
  entropy T*S    EENTRO =        -0.00000000
  eigenvalues    EBANDS =      -422.37909384
  atomic energy  EATOM  =       455.39873264
  Solvation  Ediel_sol  =         0.00000000
  ---------------------------------------------------
  free energy    TOTEN  =      -321.26210086 eV

  energy without entropy =     -321.26210086  energy(sigma->0) =     -321.26210086


--------------------------------------------------------------------------------------------------------




----------------------------------------- Iteration    1(   5)  ---------------------------------------


     EDDAV:  cpu time    0.0600: real time    0.0606
       DOS:  cpu time    0.0000: real time    0.0001
    CHARGE:  cpu time    0.0130: real time    0.0126
    MIXING:  cpu time    0.0000: real time    0.0003
    --------------------------------------------
      LOOP:  cpu time    0.0730: real time    0.0773

 eigenvalue-minimisations  :   368
 total energy-change (2. order) :-0.8829375E-07  (-0.8829401E-07)
 number of electron       7.9999984 magnetization 
 augmentation part        0.6074476 magnetization 

 Broyden mixing:
  rms(total) = 0.98029E+01    rms(broyden)= 0.97752E+01
  rms(prec ) = 0.29511E+02
  weight for this iteration     100.00

 Free energy of the ion-electron system (eV)
  ---------------------------------------------------
  alpha Z        PSCENC =        15.79325893
  Ewald energy   TEWEN  =      -354.45312954
  -Hartree energ DENC   =       -40.83415517
  -exchange      EXHF   =         0.00000000
  -V(xc)+E(xc)   XCENC  =       -28.66987748
  PAW double counting   =    173620.82591817  -173566.94375457
  entropy T*S    EENTRO =        -0.00000000
  eigenvalues    EBANDS =      -422.37909393
  atomic energy  EATOM  =       455.39873264
  Solvation  Ediel_sol  =         0.00000000
  ---------------------------------------------------
  free energy    TOTEN  =      -321.26210094 eV

  energy without entropy =     -321.26210094  energy(sigma->0) =     -321.26210094


--------------------------------------------------------------------------------------------------------




----------------------------------------- Iteration    1(   6)  ---------------------------------------


    POTLOK:  cpu time    0.0040: real time    0.0047
    SETDIJ:  cpu time    0.0030: real time    0.0025
     EDDAV:  cpu time    0.0510: real time    0.0512
       DOS:  cpu time    0.0000: real time    0.0001
    CHARGE:  cpu time    0.0110: real time    0.0112
    MIXING:  cpu time    0.0000: real time    0.0003
    --------------------------------------------
      LOOP:  cpu time    0.0700: real time    0.0739

 eigenvalue-minimisations  :   320
 total energy-change (2. order) : 0.2492973E+03  (-0.2844876E+02)
 number of electron       7.9999993 magnetization 
 augmentation part        0.2584142 magnetization 

 Broyden mixing:
  rms(total) = 0.43341E+01    rms(broyden)= 0.43311E+01
  rms(prec ) = 0.13860E+02
  weight for this iteration     100.00

 eigenvalues of (default mixing * dielectric matrix)
  average eigenvalue GAMMA=   1.5034
  1.5034

 Free energy of the ion-electron system (eV)
  ---------------------------------------------------
  alpha Z        PSCENC =        15.79325893
  Ewald energy   TEWEN  =      -354.45312954
  -Hartree energ DENC   =       -69.92000669
  -exchange      EXHF   =         0.00000000
  -V(xc)+E(xc)   XCENC  =       -25.44040244
  PAW double counting   =    429960.85128657  -429911.06595439
  entropy T*S    EENTRO =        -0.00000000
  eigenvalues    EBANDS =      -143.12853663
  atomic energy  EATOM  =       455.39873264
  Solvation  Ediel_sol  =         0.00000000
  ---------------------------------------------------
  free energy    TOTEN  =       -71.96475153 eV

  energy without entropy =      -71.96475153  energy(sigma->0) =      -71.96475153


--------------------------------------------------------------------------------------------------------




----------------------------------------- Iteration    1(   7)  ---------------------------------------


    POTLOK:  cpu time    0.0040: real time    0.0044
    SETDIJ:  cpu time    0.0030: real time    0.0025
     EDDAV:  cpu time    0.0820: real time    0.0822
       DOS:  cpu time    0.0000: real time    0.0001
    CHARGE:  cpu time    0.0120: real time    0.0123
    MIXING:  cpu time    0.0010: real time    0.0003
    --------------------------------------------
      LOOP:  cpu time    0.1030: real time    0.1056

 eigenvalue-minimisations  :   496
 total energy-change (2. order) : 0.4835744E+02  (-0.4018324E+02)
 number of electron       8.0000001 magnetization 
 augmentation part       -0.0164962 magnetization 

 Broyden mixing:
  rms(total) = 0.27133E+01    rms(broyden)= 0.27117E+01
  rms(prec ) = 0.72091E+01
  weight for this iteration     100.00

 eigenvalues of (default mixing * dielectric matrix)
  average eigenvalue GAMMA=   1.3427
  1.3427  1.3427

 Free energy of the ion-electron system (eV)
  ---------------------------------------------------
  alpha Z        PSCENC =        15.79325893
  Ewald energy   TEWEN  =      -354.45312954
  -Hartree energ DENC   =      -180.79319825
  -exchange      EXHF   =         0.00000000
  -V(xc)+E(xc)   XCENC  =       -18.56157435
  PAW double counting   =     59837.21549665   -59789.05099707
  entropy T*S    EENTRO =        -0.00000000
  eigenvalues    EBANDS =        10.84410037
  atomic energy  EATOM  =       455.39873264
  Solvation  Ediel_sol  =         0.00000000
  ---------------------------------------------------
  free energy    TOTEN  =       -23.60731061 eV

  energy without entropy =      -23.60731061  energy(sigma->0) =      -23.60731061


--------------------------------------------------------------------------------------------------------




----------------------------------------- Iteration    1(   8)  ---------------------------------------


    POTLOK:  cpu time    0.0040: real time    0.0047
    SETDIJ:  cpu time    0.0030: real time    0.0025
     EDDAV:  cpu time    0.0540: real time    0.0541
       DOS:  cpu time    0.0000: real time    0.0001
    CHARGE:  cpu time    0.0120: real time    0.0122
    MIXING:  cpu time    0.0010: real time    0.0003
    --------------------------------------------
      LOOP:  cpu time    0.0740: real time    0.0776

 eigenvalue-minimisations  :   336
 total energy-change (2. order) : 0.2373639E+01  (-0.1827320E+02)
 number of electron       7.9999996 magnetization 
 augmentation part        0.1469221 magnetization 

 Broyden mixing:
  rms(total) = 0.17355E+01    rms(broyden)= 0.17354E+01
  rms(prec ) = 0.60100E+01
  weight for this iteration     100.00

 eigenvalues of (default mixing * dielectric matrix)
  average eigenvalue GAMMA=   1.5643
  2.5866  1.3474  0.7590

 Free energy of the ion-electron system (eV)
  ---------------------------------------------------
  alpha Z        PSCENC =        15.79325893
  Ewald energy   TEWEN  =      -354.45312954
  -Hartree energ DENC   =      -101.78516312
  -exchange      EXHF   =         0.00000000
  -V(xc)+E(xc)   XCENC  =       -23.82245000
  PAW double counting   =     71758.78011831   -71708.77071201
  entropy T*S    EENTRO =        -0.00000000
  eigenvalues    EBANDS =       -62.37432724
  atomic energy  EATOM  =       455.39873264
  Solvation  Ediel_sol  =         0.00000000
  ---------------------------------------------------
  free energy    TOTEN  =       -21.23367201 eV

  energy without entropy =      -21.23367201  energy(sigma->0) =      -21.23367201


--------------------------------------------------------------------------------------------------------




----------------------------------------- Iteration    1(   9)  ---------------------------------------


    POTLOK:  cpu time    0.0040: real time    0.0045
    SETDIJ:  cpu time    0.0030: real time    0.0025
     EDDAV:  cpu time    0.0510: real time    0.0510
       DOS:  cpu time    0.0000: real time    0.0001
    CHARGE:  cpu time    0.0110: real time    0.0114
    MIXING:  cpu time    0.0010: real time    0.0003
    --------------------------------------------
      LOOP:  cpu time    0.0700: real time    0.0738

 eigenvalue-minimisations  :   320
 total energy-change (2. order) : 0.9238540E+01  (-0.2984850E+01)
 number of electron       7.9999998 magnetization 
 augmentation part        0.0824546 magnetization 

 Broyden mixing:
  rms(total) = 0.27851E+00    rms(broyden)= 0.27833E+00
  rms(prec ) = 0.78360E+00
  weight for this iteration     100.00

 eigenvalues of (default mixing * dielectric matrix)
  average eigenvalue GAMMA=   1.4904
  2.5714  1.3208  1.3208  0.7484

 Free energy of the ion-electron system (eV)
  ---------------------------------------------------
  alpha Z        PSCENC =        15.79325893
  Ewald energy   TEWEN  =      -354.45312954
  -Hartree energ DENC   =      -137.56484811
  -exchange      EXHF   =         0.00000000
  -V(xc)+E(xc)   XCENC  =       -20.98524165
  PAW double counting   =      1202.71595000    -1152.19841420
  entropy T*S    EENTRO =        -0.00000000
  eigenvalues    EBANDS =       -20.70144014
  atomic energy  EATOM  =       455.39873264
  Solvation  Ediel_sol  =         0.00000000
  ---------------------------------------------------
  free energy    TOTEN  =       -11.99513207 eV

  energy without entropy =      -11.99513207  energy(sigma->0) =      -11.99513207


--------------------------------------------------------------------------------------------------------




----------------------------------------- Iteration    1(  10)  ---------------------------------------


    POTLOK:  cpu time    0.0040: real time    0.0045
    SETDIJ:  cpu time    0.0030: real time    0.0025
     EDDAV:  cpu time    0.0690: real time    0.0693
       DOS:  cpu time    0.0000: real time    0.0001
    CHARGE:  cpu time    0.0130: real time    0.0132
    MIXING:  cpu time    0.0010: real time    0.0003
    --------------------------------------------
      LOOP:  cpu time    0.0900: real time    0.0936

 eigenvalue-minimisations  :   416
 total energy-change (2. order) :-0.6380212E-03  (-0.2732053E+00)
 number of electron       7.9999999 magnetization 
 augmentation part        0.0601191 magnetization 

 Broyden mixing:
  rms(total) = 0.21177E+00    rms(broyden)= 0.21162E+00
  rms(prec ) = 0.66482E+00
  weight for this iteration     100.00

 eigenvalues of (default mixing * dielectric matrix)
  average eigenvalue GAMMA=   1.6446
  2.7247  2.5469  1.2241  0.8955  0.8321

 Free energy of the ion-electron system (eV)
  ---------------------------------------------------
  alpha Z        PSCENC =        15.79325893
  Ewald energy   TEWEN  =      -354.45312954
  -Hartree energ DENC   =      -145.74634212
  -exchange      EXHF   =         0.00000000
  -V(xc)+E(xc)   XCENC  =       -20.45519925
  PAW double counting   =       883.03774058     -832.72550672
  entropy T*S    EENTRO =        -0.00000000
  eigenvalues    EBANDS =       -12.84532462
  atomic energy  EATOM  =       455.39873264
  Solvation  Ediel_sol  =         0.00000000
  ---------------------------------------------------
  free energy    TOTEN  =       -11.99577009 eV

  energy without entropy =      -11.99577009  energy(sigma->0) =      -11.99577009


--------------------------------------------------------------------------------------------------------




----------------------------------------- Iteration    1(  11)  ---------------------------------------


    POTLOK:  cpu time    0.0050: real time    0.0048
    SETDIJ:  cpu time    0.0020: real time    0.0026
     EDDAV:  cpu time    0.0630: real time    0.0626
       DOS:  cpu time    0.0000: real time    0.0001
    CHARGE:  cpu time    0.0120: real time    0.0118
    MIXING:  cpu time    0.0000: real time    0.0004
    --------------------------------------------
      LOOP:  cpu time    0.0820: real time    0.0860

 eigenvalue-minimisations  :   384
 total energy-change (2. order) : 0.7275898E-01  (-0.8105492E-01)
 number of electron       7.9999999 magnetization 
 augmentation part        0.0720920 magnetization 

 Broyden mixing:
  rms(total) = 0.39939E-01    rms(broyden)= 0.39897E-01
  rms(prec ) = 0.14592E+00
  weight for this iteration     100.00

 eigenvalues of (default mixing * dielectric matrix)
  average eigenvalue GAMMA=   1.5755
  2.8896  2.5345  1.3224  0.8375  0.9346  0.9346

 Free energy of the ion-electron system (eV)
  ---------------------------------------------------
  alpha Z        PSCENC =        15.79325893
  Ewald energy   TEWEN  =      -354.45312954
  -Hartree energ DENC   =      -140.77472340
  -exchange      EXHF   =         0.00000000
  -V(xc)+E(xc)   XCENC  =       -20.75547273
  PAW double counting   =       668.20820530     -617.81455651
  entropy T*S    EENTRO =        -0.00000000
  eigenvalues    EBANDS =       -17.52532581
  atomic energy  EATOM  =       455.39873264
  Solvation  Ediel_sol  =         0.00000000
  ---------------------------------------------------
  free energy    TOTEN  =       -11.92301111 eV

  energy without entropy =      -11.92301111  energy(sigma->0) =      -11.92301111


--------------------------------------------------------------------------------------------------------




----------------------------------------- Iteration    1(  12)  ---------------------------------------


    POTLOK:  cpu time    0.0050: real time    0.0047
    SETDIJ:  cpu time    0.0030: real time    0.0025
     EDDAV:  cpu time    0.0620: real time    0.0631
       DOS:  cpu time    0.0010: real time    0.0001
    CHARGE:  cpu time    0.0120: real time    0.0124
    MIXING:  cpu time    0.0000: real time    0.0004
    --------------------------------------------
      LOOP:  cpu time    0.0830: real time    0.0869

 eigenvalue-minimisations  :   384
 total energy-change (2. order) : 0.3522530E-02  (-0.3201167E-02)
 number of electron       7.9999999 magnetization 
 augmentation part        0.0700740 magnetization 

 Broyden mixing:
  rms(total) = 0.22387E-02    rms(broyden)= 0.22319E-02
  rms(prec ) = 0.75515E-02
  weight for this iteration     100.00

 eigenvalues of (default mixing * dielectric matrix)
  average eigenvalue GAMMA=   1.5199
  2.8646  2.5334  1.4343  1.1838  0.8231  0.8231  0.9772

 Free energy of the ion-electron system (eV)
  ---------------------------------------------------
  alpha Z        PSCENC =        15.79325893
  Ewald energy   TEWEN  =      -354.45312954
  -Hartree energ DENC   =      -141.76332805
  -exchange      EXHF   =         0.00000000
  -V(xc)+E(xc)   XCENC  =       -20.68044674
  PAW double counting   =       596.30964324     -545.93218344
  entropy T*S    EENTRO =        -0.00000000
  eigenvalues    EBANDS =       -16.59203563
  atomic energy  EATOM  =       455.39873264
  Solvation  Ediel_sol  =         0.00000000
  ---------------------------------------------------
  free energy    TOTEN  =       -11.91948858 eV

  energy without entropy =      -11.91948858  energy(sigma->0) =      -11.91948858


--------------------------------------------------------------------------------------------------------




----------------------------------------- Iteration    1(  13)  ---------------------------------------


    POTLOK:  cpu time    0.0050: real time    0.0048
    SETDIJ:  cpu time    0.0020: real time    0.0026
     EDDAV:  cpu time    0.0690: real time    0.0695
       DOS:  cpu time    0.0010: real time    0.0001
    CHARGE:  cpu time    0.0120: real time    0.0126
    MIXING:  cpu time    0.0010: real time    0.0004
    --------------------------------------------
      LOOP:  cpu time    0.0910: real time    0.0938

 eigenvalue-minimisations  :   416
 total energy-change (2. order) :-0.6704691E-04  (-0.8197828E-04)
 number of electron       7.9999999 magnetization 
 augmentation part        0.0697213 magnetization 

 Broyden mixing:
  rms(total) = 0.52097E-02    rms(broyden)= 0.52083E-02
  rms(prec ) = 0.14543E-01
  weight for this iteration     100.00

 eigenvalues of (default mixing * dielectric matrix)
  average eigenvalue GAMMA=   1.6864
  3.3447  2.6890  2.5256  1.2916  0.8847  0.8847  0.8846  0.9865

 Free energy of the ion-electron system (eV)
  ---------------------------------------------------
  alpha Z        PSCENC =        15.79325893
  Ewald energy   TEWEN  =      -354.45312954
  -Hartree energ DENC   =      -141.87526536
  -exchange      EXHF   =         0.00000000
  -V(xc)+E(xc)   XCENC  =       -20.67394720
  PAW double counting   =       614.57280122     -564.19776424
  entropy T*S    EENTRO =        -0.00000000
  eigenvalues    EBANDS =       -16.48424208
  atomic energy  EATOM  =       455.39873264
  Solvation  Ediel_sol  =         0.00000000
  ---------------------------------------------------
  free energy    TOTEN  =       -11.91955563 eV

  energy without entropy =      -11.91955563  energy(sigma->0) =      -11.91955563


--------------------------------------------------------------------------------------------------------




----------------------------------------- Iteration    1(  14)  ---------------------------------------


    POTLOK:  cpu time    0.0050: real time    0.0047
    SETDIJ:  cpu time    0.0020: real time    0.0025
     EDDAV:  cpu time    0.0710: real time    0.0715
       DOS:  cpu time    0.0010: real time    0.0001
    CHARGE:  cpu time    0.0120: real time    0.0123
    MIXING:  cpu time    0.0000: real time    0.0004
    --------------------------------------------
      LOOP:  cpu time    0.0910: real time    0.0953

 eigenvalue-minimisations  :   432
 total energy-change (2. order) : 0.3455019E-04  (-0.3583662E-04)
 number of electron       7.9999999 magnetization 
 augmentation part        0.0700053 magnetization 

 Broyden mixing:
  rms(total) = 0.12733E-02    rms(broyden)= 0.12719E-02
  rms(prec ) = 0.32501E-02
  weight for this iteration     100.00

 eigenvalues of (default mixing * dielectric matrix)
  average eigenvalue GAMMA=   1.5768
  2.9905  2.6797  2.5207  1.1989  1.1989  0.8791  0.8791  0.8974  0.9468

 Free energy of the ion-electron system (eV)
  ---------------------------------------------------
  alpha Z        PSCENC =        15.79325893
  Ewald energy   TEWEN  =      -354.45312954
  -Hartree energ DENC   =      -141.79655547
  -exchange      EXHF   =         0.00000000
  -V(xc)+E(xc)   XCENC  =       -20.67866235
  PAW double counting   =       632.40390585     -582.02657399
  entropy T*S    EENTRO =        -0.00000000
  eigenvalues    EBANDS =       -16.56049716
  atomic energy  EATOM  =       455.39873264
  Solvation  Ediel_sol  =         0.00000000
  ---------------------------------------------------
  free energy    TOTEN  =       -11.91952108 eV

  energy without entropy =      -11.91952108  energy(sigma->0) =      -11.91952108


--------------------------------------------------------------------------------------------------------




----------------------------------------- Iteration    1(  15)  ---------------------------------------


    POTLOK:  cpu time    0.0050: real time    0.0047
    SETDIJ:  cpu time    0.0030: real time    0.0026
     EDDAV:  cpu time    0.0560: real time    0.0566
       DOS:  cpu time    0.0000: real time    0.0001
    CHARGE:  cpu time    0.0120: real time    0.0118
    MIXING:  cpu time    0.0010: real time    0.0005
    --------------------------------------------
      LOOP:  cpu time    0.0770: real time    0.0805

 eigenvalue-minimisations  :   352
 total energy-change (2. order) : 0.1002198E-05  (-0.2179252E-05)
 number of electron       7.9999999 magnetization 
 augmentation part        0.0699436 magnetization 

 Broyden mixing:
  rms(total) = 0.32464E-03    rms(broyden)= 0.32455E-03
  rms(prec ) = 0.12113E-02
  weight for this iteration     100.00

 eigenvalues of (default mixing * dielectric matrix)
  average eigenvalue GAMMA=   1.6818
  3.2310  2.7982  2.5166  2.4012  1.2893  0.8826  0.8826  1.0172  0.8786  0.9210

 Free energy of the ion-electron system (eV)
  ---------------------------------------------------
  alpha Z        PSCENC =        15.79325893
  Ewald energy   TEWEN  =      -354.45312954
  -Hartree energ DENC   =      -141.81685412
  -exchange      EXHF   =         0.00000000
  -V(xc)+E(xc)   XCENC  =       -20.67767478
  PAW double counting   =       629.66117519     -579.28439721
  entropy T*S    EENTRO =        -0.00000000
  eigenvalues    EBANDS =       -16.54063120
  atomic energy  EATOM  =       455.39873264
  Solvation  Ediel_sol  =         0.00000000
  ---------------------------------------------------
  free energy    TOTEN  =       -11.91952008 eV

  energy without entropy =      -11.91952008  energy(sigma->0) =      -11.91952008


--------------------------------------------------------------------------------------------------------




----------------------------------------- Iteration    1(  16)  ---------------------------------------


    POTLOK:  cpu time    0.0050: real time    0.0047
    SETDIJ:  cpu time    0.0030: real time    0.0026
     EDDAV:  cpu time    0.0320: real time    0.0328
       DOS:  cpu time    0.0000: real time    0.0001
    --------------------------------------------
      LOOP:  cpu time    0.0400: real time    0.0441

 eigenvalue-minimisations  :   176
 total energy-change (2. order) : 0.5174695E-07  (-0.7073624E-07)
 number of electron       7.9999999 magnetization 
 augmentation part        0.0699436 magnetization 

 Free energy of the ion-electron system (eV)
  ---------------------------------------------------
  alpha Z        PSCENC =        15.79325893
  Ewald energy   TEWEN  =      -354.45312954
  -Hartree energ DENC   =      -141.81194435
  -exchange      EXHF   =         0.00000000
  -V(xc)+E(xc)   XCENC  =       -20.67808540
  PAW double counting   =       627.62320436     -577.24637876
  entropy T*S    EENTRO =        -0.00000000
  eigenvalues    EBANDS =       -16.54517792
  atomic energy  EATOM  =       455.39873264
  Solvation  Ediel_sol  =         0.00000000
  ---------------------------------------------------
  free energy    TOTEN  =       -11.91952002 eV

  energy without entropy =      -11.91952002  energy(sigma->0) =      -11.91952002


--------------------------------------------------------------------------------------------------------




 average (electrostatic) potential at core
  the test charge radii are     1.0714  0.5955
  (the norm of the test charge is              1.0000)
       1 -34.9640       2-108.5186
 
 
 
 E-fermi :   3.5472     XC(G=0): -10.9349     alpha+bet :-13.1194


 k-point     1 :       0.1250    0.1250    0.1250
  band No.  band energies     occupation 
      1     -13.5968      2.00000
      2       2.4103      2.00000
      3       3.2556      2.00000
      4       3.2556      2.00000
      5       8.6989      0.00000
      6      17.3083      0.00000
      7      19.3176      0.00000
      8      19.3176      0.00000
      9      23.5296      0.00000
     10      23.5296      0.00000
     11      24.8621      0.00000
     12      27.2578      0.00000
     13      28.6799      0.00000
     14      28.6799      0.00000
     15      38.8917      0.00000
     16      40.7985      0.00000

 k-point     2 :       0.3750    0.1250    0.1250
  band No.  band energies     occupation 
      1     -12.9477      2.00000
      2       0.2546      2.00000
      3       2.4020      2.00000
      4       2.9619      2.00000
      5      11.1173      0.00000
      6      15.2393      0.00000
      7      18.6167      0.00000
      8      20.2906      0.00000
      9      22.1140      0.00000
     10      24.3292      0.00000
     11      26.4076      0.00000
     12      31.0596      0.00000
     13      32.3137      0.00000
     14      33.2064      0.00000
     15      35.5737      0.00000
     16      38.8453      0.00000

 k-point     3 :      -0.3750    0.1250    0.1250
  band No.  band energies     occupation 
      1     -12.5140      2.00000
      2      -0.8667      2.00000
      3       2.2532      2.00000
      4       2.6251      2.00000
      5      11.7228      0.00000
      6      15.4168      0.00000
      7      17.9100      0.00000
      8      19.7209      0.00000
      9      23.6974      0.00000
     10      25.9465      0.00000
     11      26.0234      0.00000
     12      32.2853      0.00000
     13      32.8701      0.00000
     14      33.2391      0.00000
     15      35.7933      0.00000
     16      37.5018      0.00000

 k-point     4 :      -0.1250    0.1250    0.1250
  band No.  band energies     occupation 
      1     -13.2352      2.00000
      2       1.1356      2.00000
      3       2.8887      2.00000
      4       2.8921      2.00000
      5      10.2859      0.00000
      6      15.4956      0.00000
      7      19.4177      0.00000
      8      19.9048      0.00000
      9      21.0698      0.00000
     10      24.9106      0.00000
     11      26.8689      0.00000
     12      29.9504      0.00000
     13      30.2578      0.00000
     14      30.9815      0.00000
     15      37.1774      0.00000
     16      38.9489      0.00000

 k-point     5 :       0.3750    0.3750    0.1250
  band No.  band energies     occupation 
      1     -12.7131      2.00000
      2       0.0714      2.00000
      3       2.2028      2.00000
      4       2.4337      2.00000
      5      12.2134      0.00000
      6      13.9067      0.00000
      7      17.1599      0.00000
      8      20.7791      0.00000
      9      21.2347      0.00000
     10      27.0830      0.00000
     11      30.1451      0.00000
     12      30.3986      0.00000
     13      32.3275      0.00000
     14      34.8178      0.00000
     15      36.4647      0.00000
     16      37.8683      0.00000

 k-point     6 :      -0.3750    0.3750    0.1250
  band No.  band energies     occupation 
      1     -12.3038      2.00000
      2      -0.0420      2.00000
      3       0.9516      2.00000
      4       2.0256      2.00000
      5      13.7573      0.00000
      6      14.7659      0.00000
      7      15.5605      0.00000
      8      19.5461      0.00000
      9      22.9904      0.00000
     10      26.4438      0.00000
     11      29.9743      0.00000
     12      31.3988      0.00000
     13      32.6672      0.00000
     14      36.3331      0.00000
     15      38.8804      0.00000
     16      41.0852      0.00000

 k-point     7 :      -0.1250    0.3750    0.1250
  band No.  band energies     occupation 
      1     -12.5587      2.00000
      2      -0.2467      2.00000
      3       1.6893      2.00000
      4       2.5238      2.00000
      5      12.5826      0.00000
      6      14.7882      0.00000
      7      16.9311      0.00000
      8      20.1170      0.00000
      9      22.6957      0.00000
     10      25.3543      0.00000
     11      28.8624      0.00000
     12      31.6295      0.00000
     13      32.2325      0.00000
     14      34.8812      0.00000
     15      35.5233      0.00000
     16      41.0058      0.00000

 k-point     8 :      -0.3750   -0.3750    0.1250
  band No.  band energies     occupation 
      1     -12.3396      2.00000
      2      -0.4042      2.00000
      3       1.6877      2.00000
      4       2.1411      2.00000
      5      12.8526      0.00000
      6      13.4854      0.00000
      7      16.0073      0.00000
      8      21.4721      0.00000
      9      21.4842      0.00000
     10      28.9143      0.00000
     11      29.3908      0.00000
     12      31.9629      0.00000
     13      32.6593      0.00000
     14      37.7931      0.00000
     15      38.1685      0.00000
     16      41.0962      0.00000

 k-point     9 :       0.3750    0.3750    0.3750
  band No.  band energies     occupation 
      1     -12.7494      2.00000
      2      -0.6002      2.00000
      3       2.8189      2.00000
      4       2.8189      2.00000
      5      10.9290      0.00000
      6      15.4299      0.00000
      7      19.5242      0.00000
      8      19.5242      0.00000
      9      24.0696      0.00000
     10      24.4411      0.00000
     11      24.4411      0.00000
     12      31.8984      0.00000
     13      33.2098      0.00000
     14      33.2098      0.00000
     15      36.8389      0.00000
     16      36.8389      0.00000

 k-point    10 :      -0.3750    0.3750    0.3750
  band No.  band energies     occupation 
      1     -12.3871      2.00000
      2      -0.2834      2.00000
      3       1.0571      2.00000
      4       2.4938      2.00000
      5      13.0727      0.00000
      6      15.2305      0.00000
      7      16.1211      0.00000
      8      20.4262      0.00000
      9      22.5100      0.00000
     10      25.5485      0.00000
     11      29.0747      0.00000
     12      31.6133      0.00000
     13      32.0358      0.00000
     14      35.3634      0.00000
     15      37.2373      0.00000
     16      40.1098      0.00000


--------------------------------------------------------------------------------------------------------


 soft charge-density along one line, spin component           1
         0         1         2         3         4         5         6         7         8         9
 total charge-density along one line
 
 pseudopotential strength for first ion, spin component:           1
  2.971  -0.040  -0.000   0.000   0.000  -0.000   0.000   0.000
 -0.040  -0.018  -0.000   0.000   0.000   0.000  -0.000  -0.000
 -0.000  -0.000   7.309   0.000   0.000  -1.005   0.000   0.000
  0.000   0.000   0.000   7.309   0.000   0.000  -1.005   0.000
  0.000   0.000   0.000   0.000   7.309   0.000   0.000  -1.005
 -0.000   0.000  -1.005   0.000   0.000  -1.521  -0.000  -0.000
  0.000  -0.000   0.000  -1.005   0.000  -0.000  -1.521  -0.000
  0.000  -0.000   0.000   0.000  -1.005  -0.000  -0.000  -1.521
  0.000  -0.000   0.000  -0.000  -0.000  -0.000   0.000   0.000
  0.000  -0.000   0.000  -0.000  -0.000  -0.000   0.000   0.000
 -0.000   0.000   0.000   0.000  -0.000  -0.000  -0.000   0.000
  0.000  -0.000  -0.000   0.000  -0.000   0.000  -0.000   0.000
  0.000  -0.000  -0.000  -0.000   0.000   0.000   0.000  -0.000
 total augmentation occupancy for first ion, spin component:           1
  0.725  -0.106   0.000   0.000   0.000   0.000   0.000   0.000  -0.000   0.000  -0.000  -0.000   0.000
 -0.106   0.019   0.000   0.000   0.000   0.000   0.000   0.000   0.000  -0.000   0.000  -0.000  -0.000
  0.000   0.000   0.080   0.000   0.000  -0.007  -0.000   0.000   0.000   0.000   0.000   0.000   0.000
  0.000   0.000   0.000   0.080  -0.000  -0.000  -0.007   0.000   0.000   0.000   0.000   0.000   0.000
  0.000   0.000   0.000  -0.000   0.080  -0.000   0.000  -0.007   0.000   0.000   0.000   0.000   0.000
  0.000   0.000  -0.007  -0.000   0.000   0.001   0.000   0.000   0.000   0.000   0.000   0.000   0.000
  0.000   0.000  -0.000  -0.007   0.000   0.000   0.001  -0.000   0.000   0.000   0.000   0.000   0.000
  0.000   0.000  -0.000   0.000  -0.007  -0.000  -0.000   0.001   0.000   0.000   0.000   0.000   0.000
 -0.000   0.000   0.000   0.000   0.000   0.000   0.000   0.000   0.024  -0.000   0.000  -0.017  -0.000
  0.000  -0.000   0.000   0.000   0.000   0.000   0.000   0.000  -0.000   0.037  -0.000  -0.000  -0.017
 -0.000   0.000   0.000   0.000   0.000   0.000   0.000   0.000   0.000  -0.000   0.012   0.000   0.000
  0.000  -0.000   0.000   0.000   0.000   0.000   0.000   0.000  -0.017  -0.000  -0.000   0.037   0.000
  0.000  -0.000   0.000   0.000   0.000   0.000   0.000   0.000  -0.000  -0.017   0.000  -0.000   0.024


------------------------ aborting loop because EDIFF is reached ----------------------------------------


    CHARGE:  cpu time    0.0120: real time    0.0119
    FORLOC:  cpu time    0.0000: real time    0.0002
    FORNL :  cpu time    0.0070: real time    0.0065
    STRESS:  cpu time    0.0630: real time    0.0644
    FORCOR:  cpu time    0.0040: real time    0.0034
    FORHAR:  cpu time    0.0010: real time    0.0008
    MIXING:  cpu time    0.0010: real time    0.0006
    OFIELD:  cpu time    0.0000: real time    0.0000

  FORCE on cell =-STRESS in cart. coord.  units (eV):
  Direction    XX          YY          ZZ          XY          YZ          ZX
  --------------------------------------------------------------------------------------
  Alpha Z    15.79326    15.79326    15.79326
  Ewald    -118.15107  -118.15107  -118.15107    -0.00000    -0.00000     0.00000
  Hartree    47.26697    47.26697    47.26697     0.00000     0.00000     0.00000
  E(xc)     -36.93261   -36.93261   -36.93261    -0.00000    -0.00000    -0.00000
  Local     -89.00393   -89.00393   -89.00395    -0.00000     0.00000    -0.00000
  n-local    -9.05861    -9.27033   -10.40189     0.22733     0.47443    -1.15177
  augment     0.83576     0.83577     0.83577    -0.00000    -0.00000    -0.00000
  Kinetic   185.68936   188.70851   194.54677     0.68017    -1.76784     4.00057
  Fock        0.00000     0.00000     0.00000     0.00000     0.00000     0.00000
  -------------------------------------------------------------------------------------
  Total      -0.12035    -0.12035    -0.12035    -0.00000    -0.00000     0.00000
  in kB     -10.00133   -10.00133   -10.00133    -0.00000    -0.00000     0.00000
  external pressure =      -10.00 kB  Pullay stress =        0.00 kB


 VOLUME and BASIS-vectors are now :
 -----------------------------------------------------------------------------
  energy-cutoff  :     1050.00
  volume of cell :       19.28
      direct lattice vectors                 reciprocal lattice vectors
     3.009788000  0.000000000  0.000000000     0.332249315 -0.191824221 -0.135640193
     1.504894000  2.606553000  0.000000000     0.000000000  0.383648443 -0.135640193
     1.504894000  0.868851000  2.457482000     0.000000000  0.000000000  0.406920580

  length of vectors
     3.009788000  3.009788114  3.009788330     0.406920632  0.406920619  0.406920580


 FORCES acting on ions
    electron-ion (+dipol)            ewald-force                    non-local-force                 convergence-correction
 -----------------------------------------------------------------------------------------------
   -.224E-14 -.871E-15 -.233E-15   -.198E-15 -.113E-14 -.682E-15   0.247E-24 0.172E-24 0.373E-24   0.682E-16 -.347E-16 0.601E-17
   0.751E-12 0.783E-12 0.377E-12   -.519E-15 0.906E-15 0.696E-15   0.670E-24 -.179E-24 0.102E-23   0.394E-14 0.598E-14 -.428E-15
 -----------------------------------------------------------------------------------------------
   0.748E-12 0.782E-12 0.377E-12   -.716E-15 -.221E-15 0.145E-16   0.917E-24 -.709E-26 0.139E-23   0.401E-14 0.594E-14 -.422E-15
 
 
 POSITION                                       TOTAL-FORCE (eV/Angst)
 -----------------------------------------------------------------------------------
      0.00000      0.00000      0.00000        -0.000000      0.000000     -0.000000
      3.00979      1.73770      1.22874         0.000000     -0.000000      0.000000
 -----------------------------------------------------------------------------------
    total drift:                                0.000000      0.000000      0.000000


--------------------------------------------------------------------------------------------------------



  FREE ENERGIE OF THE ION-ELECTRON SYSTEM (eV)
  ---------------------------------------------------
  free  energy   TOTEN  =       -11.91952002 eV

  energy  without entropy=      -11.91952002  energy(sigma->0) =      -11.91952002
 


--------------------------------------------------------------------------------------------------------


    POTLOK:  cpu time    0.0070: real time    0.0072


--------------------------------------------------------------------------------------------------------


     LOOP+:  cpu time    1.3618: real time    1.4289
    4ORBIT:  cpu time    0.0000: real time    0.0000

 total amount of memory used by VASP on root node    35362. kBytes
========================================================================

   base      :      30000. kBytes
   nonl-proj :       3176. kBytes
   fftplans  :        320. kBytes
   grid      :       1605. kBytes
   one-center:         16. kBytes
   wavefun   :        245. kBytes
 
  
  
 General timing and accounting informations for this job:
 ========================================================
  
                  Total CPU time used (sec):        2.427
                            User time (sec):        1.934
                          System time (sec):        0.493
                         Elapsed time (sec):        2.677
  
                   Maximum memory used (kb):       65344.
                   Average memory used (kb):           0.
  
                          Minor page faults:        43239
                          Major page faults:            5
                 Voluntary context switches:         1305
