LAMMPS (11 Aug 2017)
Reading data file ...
  triclinic box = (0 0 0) to (2.8005 2.8005 2.8005) with tilt (0 0 0)
  1 by 1 by 1 MPI processor grid
  reading atoms ...
  2 atoms
2 atoms in group Ni
Neighbor list info ...
  update every 1 steps, delay 0 steps, check yes
  max neighbors/atom: 2000, page size: 100000
  master list distance cutoff = 11
  ghost atom cutoff = 11
  binsize = 5.5, bins = 1 1 1
  1 neighbor lists, perpetual/occasional/extra = 1 0 0
  (1) pair eam/alloy, perpetual
      attributes: half, newton on
      pair build: half/bin/newton/tri
      stencil: half/bin/3d/newton/tri
      bin: standard
Setting up cg style minimization ...
  Unit style    : metal
  Current step  : 0
WARNING: Energy due to 3 extra global DOFs will be included in minimizer energies
Per MPI rank memory allocation (min/avg/max) = 4.286 | 4.286 | 4.286 Mbytes
Step PotEng Xhi Xlo Yhi Ylo Zhi Xy Xz Yz Press Pxx Pyy Pzz Pxy Pxz Pyz c_eatoms 
       0   -9.0598499       2.8005            0       2.8005            0       2.8005            0            0            0   -30388.965   -30388.965   -30388.965   -30388.965 0.0027200227 0.0027200228 0.0027200227   -9.0598499 
      10   -9.0633703    2.7926641 0.0078358949    2.7926641 0.0078358949    2.7926641            0            0            0 3.6271413e-09 3.7625637e-09 3.5820245e-09 3.5368358e-09 -1.7758561e-12 4.9887189e-11 1.2746843e-10   -9.0633703 
      20   -9.0633703    2.7926641 0.0078358949    2.7926641 0.0078358949    2.7926641            0            0            0 -1.4147635e-09 -1.2585816e-09 -1.3281122e-09 -1.6575967e-09 3.6444454e-11 -2.5660101e-11 -4.2879968e-13   -9.0633703 
      24   -9.0633703    2.7926641 0.0078358949    2.7926641 0.0078358949    2.7926641            0            0            0 4.3951032e-10 5.5290886e-10 6.3088739e-10 1.3473472e-10 3.3802284e-11 -4.2141869e-11 -5.4030644e-11   -9.0633703 
Loop time of 0.00271893 on 1 procs for 24 steps with 2 atoms

100.0% CPU use with 1 MPI tasks x no OpenMP threads

Minimization stats:
  Stopping criterion = energy tolerance
  Energy initial, next-to-last, final = 
        -9.05984987916     -9.06337027648     -9.06337027648
  Force two-norm initial, final = 0.721561 1.96728e-14
  Force max component initial, final = 0.416593 1.14353e-14
  Final line search alpha, max atom move = 1 1.14353e-14
  Iterations, force evaluations = 24 43

MPI task timing breakdown:
Section |  min time  |  avg time  |  max time  |%varavg| %total
---------------------------------------------------------------
Pair    | 0.0016792  | 0.0016792  | 0.0016792  |   0.0 | 61.76
Neigh   | 0          | 0          | 0          |   0.0 |  0.00
Comm    | 0.00025582 | 0.00025582 | 0.00025582 |   0.0 |  9.41
Output  | 2.4796e-05 | 2.4796e-05 | 2.4796e-05 |   0.0 |  0.91
Modify  | 0          | 0          | 0          |   0.0 |  0.00
Other   |            | 0.0007591  |            |       | 27.92

Nlocal:    2 ave 2 max 2 min
Histogram: 1 0 0 0 0 0 0 0 0 0
Nghost:    1239 ave 1239 max 1239 min
Histogram: 1 0 0 0 0 0 0 0 0 0
Neighs:    530 ave 530 max 530 min
Histogram: 1 0 0 0 0 0 0 0 0 0

Total # of neighbors = 530
Ave neighs/atom = 265
Neighbor list builds = 0
Dangerous builds = 0
pypospack:output_section:begin
tot_energy = -9.0633702764825
num_atoms = 2
a11 = 2.78482821012175
a22 = 2.78482821012175
a33 = 2.78482821012175
a12 = 0
a13 = 0
a23 = 0
tot_press = 4.39510322458203e-10
pxx = 5.52908860389668e-10
pyy = 6.30887391898759e-10
pzz = 1.34734715086183e-10
pxy = 3.3802283606148e-11
pxz = -4.21418686591465e-11
pyz = -5.40306444779319e-11
pypospack:output_section:done
pypospack:lammps_sim:done
Total wall time: 0:00:00
