# ['Ni']

107 atoms
1 atom types

    0.0000    10.5496 xlo xhi
    0.0000    10.5496 ylo yhi
    0.0000    10.5496 zlo zhi

    0.0000    -0.0000    -0.0000 xy xz yz

Atoms

1 1     1.7583     1.7583     0.0000
2 1     1.7583     0.0000     1.7583
3 1     0.0000     1.7583     1.7583
4 1     0.0000     0.0000     3.5165
5 1     1.7583     1.7583     3.5165
6 1     1.7583     0.0000     5.2748
7 1     0.0000     1.7583     5.2748
8 1     0.0000     0.0000     7.0331
9 1     1.7583     1.7583     7.0331
10 1     1.7583     0.0000     8.7913
11 1     0.0000     1.7583     8.7913
12 1     0.0000     3.5165     0.0000
13 1     1.7583     5.2748     0.0000
14 1     1.7583     3.5165     1.7583
15 1     0.0000     5.2748     1.7583
16 1     0.0000     3.5165     3.5165
17 1     1.7583     5.2748     3.5165
18 1     1.7583     3.5165     5.2748
19 1     0.0000     5.2748     5.2748
20 1     0.0000     3.5165     7.0331
21 1     1.7583     5.2748     7.0331
22 1     1.7583     3.5165     8.7913
23 1     0.0000     5.2748     8.7913
24 1     0.0000     7.0331     0.0000
25 1     1.7583     8.7913     0.0000
26 1     1.7583     7.0331     1.7583
27 1     0.0000     8.7913     1.7583
28 1     0.0000     7.0331     3.5165
29 1     1.7583     8.7913     3.5165
30 1     1.7583     7.0331     5.2748
31 1     0.0000     8.7913     5.2748
32 1     0.0000     7.0331     7.0331
33 1     1.7583     8.7913     7.0331
34 1     1.7583     7.0331     8.7913
35 1     0.0000     8.7913     8.7913
36 1     3.5165     0.0000     0.0000
37 1     5.2748     1.7583     0.0000
38 1     5.2748     0.0000     1.7583
39 1     3.5165     1.7583     1.7583
40 1     3.5165     0.0000     3.5165
41 1     5.2748     1.7583     3.5165
42 1     5.2748     0.0000     5.2748
43 1     3.5165     1.7583     5.2748
44 1     3.5165     0.0000     7.0331
45 1     5.2748     1.7583     7.0331
46 1     5.2748     0.0000     8.7913
47 1     3.5165     1.7583     8.7913
48 1     3.5165     3.5165     0.0000
49 1     5.2748     5.2748     0.0000
50 1     5.2748     3.5165     1.7583
51 1     3.5165     5.2748     1.7583
52 1     3.5165     3.5165     3.5165
53 1     5.2748     5.2748     3.5165
54 1     5.2748     3.5165     5.2748
55 1     3.5165     5.2748     5.2748
56 1     3.5165     3.5165     7.0331
57 1     5.2748     5.2748     7.0331
58 1     5.2748     3.5165     8.7913
59 1     3.5165     5.2748     8.7913
60 1     3.5165     7.0331     0.0000
61 1     5.2748     8.7913     0.0000
62 1     5.2748     7.0331     1.7583
63 1     3.5165     8.7913     1.7583
64 1     3.5165     7.0331     3.5165
65 1     5.2748     8.7913     3.5165
66 1     5.2748     7.0331     5.2748
67 1     3.5165     8.7913     5.2748
68 1     3.5165     7.0331     7.0331
69 1     5.2748     8.7913     7.0331
70 1     5.2748     7.0331     8.7913
71 1     3.5165     8.7913     8.7913
72 1     7.0331     0.0000     0.0000
73 1     8.7913     1.7583     0.0000
74 1     8.7913     0.0000     1.7583
75 1     7.0331     1.7583     1.7583
76 1     7.0331     0.0000     3.5165
77 1     8.7913     1.7583     3.5165
78 1     8.7913     0.0000     5.2748
79 1     7.0331     1.7583     5.2748
80 1     7.0331     0.0000     7.0331
81 1     8.7913     1.7583     7.0331
82 1     8.7913     0.0000     8.7913
83 1     7.0331     1.7583     8.7913
84 1     7.0331     3.5165     0.0000
85 1     8.7913     5.2748     0.0000
86 1     8.7913     3.5165     1.7583
87 1     7.0331     5.2748     1.7583
88 1     7.0331     3.5165     3.5165
89 1     8.7913     5.2748     3.5165
90 1     8.7913     3.5165     5.2748
91 1     7.0331     5.2748     5.2748
92 1     7.0331     3.5165     7.0331
93 1     8.7913     5.2748     7.0331
94 1     8.7913     3.5165     8.7913
95 1     7.0331     5.2748     8.7913
96 1     7.0331     7.0331     0.0000
97 1     8.7913     8.7913     0.0000
98 1     8.7913     7.0331     1.7583
99 1     7.0331     8.7913     1.7583
100 1     7.0331     7.0331     3.5165
101 1     8.7913     8.7913     3.5165
102 1     8.7913     7.0331     5.2748
103 1     7.0331     8.7913     5.2748
104 1     7.0331     7.0331     7.0331
105 1     8.7913     8.7913     7.0331
106 1     8.7913     7.0331     8.7913
107 1     7.0331     8.7913     8.7913
