# ['Ni']

107 atoms
1 atom types

    0.0000    10.0109 xlo xhi
    0.0000    10.0109 ylo yhi
    0.0000    10.0109 zlo zhi

    0.0000    -0.0000    -0.0000 xy xz yz

Atoms

1 1     1.6685     1.6685     0.0000
2 1     1.6685     0.0000     1.6685
3 1     0.0000     1.6685     1.6685
4 1     0.0000     0.0000     3.3369
5 1     1.6685     1.6685     3.3369
6 1     1.6685     0.0000     5.0054
7 1     0.0000     1.6685     5.0054
8 1     0.0000     0.0000     6.6739
9 1     1.6685     1.6685     6.6739
10 1     1.6685     0.0000     8.3424
11 1     0.0000     1.6685     8.3424
12 1     0.0000     3.3369     0.0000
13 1     1.6685     5.0054     0.0000
14 1     1.6685     3.3369     1.6685
15 1     0.0000     5.0054     1.6685
16 1     0.0000     3.3369     3.3369
17 1     1.6685     5.0054     3.3369
18 1     1.6685     3.3369     5.0054
19 1     0.0000     5.0054     5.0054
20 1     0.0000     3.3369     6.6739
21 1     1.6685     5.0054     6.6739
22 1     1.6685     3.3369     8.3424
23 1     0.0000     5.0054     8.3424
24 1     0.0000     6.6739     0.0000
25 1     1.6685     8.3424     0.0000
26 1     1.6685     6.6739     1.6685
27 1     0.0000     8.3424     1.6685
28 1     0.0000     6.6739     3.3369
29 1     1.6685     8.3424     3.3369
30 1     1.6685     6.6739     5.0054
31 1     0.0000     8.3424     5.0054
32 1     0.0000     6.6739     6.6739
33 1     1.6685     8.3424     6.6739
34 1     1.6685     6.6739     8.3424
35 1     0.0000     8.3424     8.3424
36 1     3.3369     0.0000     0.0000
37 1     5.0054     1.6685     0.0000
38 1     5.0054     0.0000     1.6685
39 1     3.3369     1.6685     1.6685
40 1     3.3369     0.0000     3.3369
41 1     5.0054     1.6685     3.3369
42 1     5.0054     0.0000     5.0054
43 1     3.3369     1.6685     5.0054
44 1     3.3369     0.0000     6.6739
45 1     5.0054     1.6685     6.6739
46 1     5.0054     0.0000     8.3424
47 1     3.3369     1.6685     8.3424
48 1     3.3369     3.3369     0.0000
49 1     5.0054     5.0054     0.0000
50 1     5.0054     3.3369     1.6685
51 1     3.3369     5.0054     1.6685
52 1     3.3369     3.3369     3.3369
53 1     5.0054     5.0054     3.3369
54 1     5.0054     3.3369     5.0054
55 1     3.3369     5.0054     5.0054
56 1     3.3369     3.3369     6.6739
57 1     5.0054     5.0054     6.6739
58 1     5.0054     3.3369     8.3424
59 1     3.3369     5.0054     8.3424
60 1     3.3369     6.6739     0.0000
61 1     5.0054     8.3424     0.0000
62 1     5.0054     6.6739     1.6685
63 1     3.3369     8.3424     1.6685
64 1     3.3369     6.6739     3.3369
65 1     5.0054     8.3424     3.3369
66 1     5.0054     6.6739     5.0054
67 1     3.3369     8.3424     5.0054
68 1     3.3369     6.6739     6.6739
69 1     5.0054     8.3424     6.6739
70 1     5.0054     6.6739     8.3424
71 1     3.3369     8.3424     8.3424
72 1     6.6739     0.0000     0.0000
73 1     8.3424     1.6685     0.0000
74 1     8.3424     0.0000     1.6685
75 1     6.6739     1.6685     1.6685
76 1     6.6739     0.0000     3.3369
77 1     8.3424     1.6685     3.3369
78 1     8.3424     0.0000     5.0054
79 1     6.6739     1.6685     5.0054
80 1     6.6739     0.0000     6.6739
81 1     8.3424     1.6685     6.6739
82 1     8.3424     0.0000     8.3424
83 1     6.6739     1.6685     8.3424
84 1     6.6739     3.3369     0.0000
85 1     8.3424     5.0054     0.0000
86 1     8.3424     3.3369     1.6685
87 1     6.6739     5.0054     1.6685
88 1     6.6739     3.3369     3.3369
89 1     8.3424     5.0054     3.3369
90 1     8.3424     3.3369     5.0054
91 1     6.6739     5.0054     5.0054
92 1     6.6739     3.3369     6.6739
93 1     8.3424     5.0054     6.6739
94 1     8.3424     3.3369     8.3424
95 1     6.6739     5.0054     8.3424
96 1     6.6739     6.6739     0.0000
97 1     8.3424     8.3424     0.0000
98 1     8.3424     6.6739     1.6685
99 1     6.6739     8.3424     1.6685
100 1     6.6739     6.6739     3.3369
101 1     8.3424     8.3424     3.3369
102 1     8.3424     6.6739     5.0054
103 1     6.6739     8.3424     5.0054
104 1     6.6739     6.6739     6.6739
105 1     8.3424     8.3424     6.6739
106 1     8.3424     6.6739     8.3424
107 1     6.6739     8.3424     8.3424
