# ['Ni']

107 atoms
1 atom types

    0.0000     9.7111 xlo xhi
    0.0000     9.7111 ylo yhi
    0.0000     9.7111 zlo zhi

    0.0000    -0.0000    -0.0000 xy xz yz

Atoms

1 1     1.6185     1.6185     0.0000
2 1     1.6185     0.0000     1.6185
3 1     0.0000     1.6185     1.6185
4 1     0.0000     0.0000     3.2370
5 1     1.6185     1.6185     3.2370
6 1     1.6185     0.0000     4.8555
7 1     0.0000     1.6185     4.8555
8 1     0.0000     0.0000     6.4741
9 1     1.6185     1.6185     6.4741
10 1     1.6185     0.0000     8.0926
11 1     0.0000     1.6185     8.0926
12 1     0.0000     3.2370     0.0000
13 1     1.6185     4.8555     0.0000
14 1     1.6185     3.2370     1.6185
15 1     0.0000     4.8555     1.6185
16 1     0.0000     3.2370     3.2370
17 1     1.6185     4.8555     3.2370
18 1     1.6185     3.2370     4.8555
19 1     0.0000     4.8555     4.8555
20 1     0.0000     3.2370     6.4741
21 1     1.6185     4.8555     6.4741
22 1     1.6185     3.2370     8.0926
23 1     0.0000     4.8555     8.0926
24 1     0.0000     6.4741     0.0000
25 1     1.6185     8.0926     0.0000
26 1     1.6185     6.4741     1.6185
27 1     0.0000     8.0926     1.6185
28 1     0.0000     6.4741     3.2370
29 1     1.6185     8.0926     3.2370
30 1     1.6185     6.4741     4.8555
31 1     0.0000     8.0926     4.8555
32 1     0.0000     6.4741     6.4741
33 1     1.6185     8.0926     6.4741
34 1     1.6185     6.4741     8.0926
35 1     0.0000     8.0926     8.0926
36 1     3.2370     0.0000     0.0000
37 1     4.8555     1.6185     0.0000
38 1     4.8555     0.0000     1.6185
39 1     3.2370     1.6185     1.6185
40 1     3.2370     0.0000     3.2370
41 1     4.8555     1.6185     3.2370
42 1     4.8555     0.0000     4.8555
43 1     3.2370     1.6185     4.8555
44 1     3.2370     0.0000     6.4741
45 1     4.8555     1.6185     6.4741
46 1     4.8555     0.0000     8.0926
47 1     3.2370     1.6185     8.0926
48 1     3.2370     3.2370     0.0000
49 1     4.8555     4.8555     0.0000
50 1     4.8555     3.2370     1.6185
51 1     3.2370     4.8555     1.6185
52 1     3.2370     3.2370     3.2370
53 1     4.8555     4.8555     3.2370
54 1     4.8555     3.2370     4.8555
55 1     3.2370     4.8555     4.8555
56 1     3.2370     3.2370     6.4741
57 1     4.8555     4.8555     6.4741
58 1     4.8555     3.2370     8.0926
59 1     3.2370     4.8555     8.0926
60 1     3.2370     6.4741     0.0000
61 1     4.8555     8.0926     0.0000
62 1     4.8555     6.4741     1.6185
63 1     3.2370     8.0926     1.6185
64 1     3.2370     6.4741     3.2370
65 1     4.8555     8.0926     3.2370
66 1     4.8555     6.4741     4.8555
67 1     3.2370     8.0926     4.8555
68 1     3.2370     6.4741     6.4741
69 1     4.8555     8.0926     6.4741
70 1     4.8555     6.4741     8.0926
71 1     3.2370     8.0926     8.0926
72 1     6.4741     0.0000     0.0000
73 1     8.0926     1.6185     0.0000
74 1     8.0926     0.0000     1.6185
75 1     6.4741     1.6185     1.6185
76 1     6.4741     0.0000     3.2370
77 1     8.0926     1.6185     3.2370
78 1     8.0926     0.0000     4.8555
79 1     6.4741     1.6185     4.8555
80 1     6.4741     0.0000     6.4741
81 1     8.0926     1.6185     6.4741
82 1     8.0926     0.0000     8.0926
83 1     6.4741     1.6185     8.0926
84 1     6.4741     3.2370     0.0000
85 1     8.0926     4.8555     0.0000
86 1     8.0926     3.2370     1.6185
87 1     6.4741     4.8555     1.6185
88 1     6.4741     3.2370     3.2370
89 1     8.0926     4.8555     3.2370
90 1     8.0926     3.2370     4.8555
91 1     6.4741     4.8555     4.8555
92 1     6.4741     3.2370     6.4741
93 1     8.0926     4.8555     6.4741
94 1     8.0926     3.2370     8.0926
95 1     6.4741     4.8555     8.0926
96 1     6.4741     6.4741     0.0000
97 1     8.0926     8.0926     0.0000
98 1     8.0926     6.4741     1.6185
99 1     6.4741     8.0926     1.6185
100 1     6.4741     6.4741     3.2370
101 1     8.0926     8.0926     3.2370
102 1     8.0926     6.4741     4.8555
103 1     6.4741     8.0926     4.8555
104 1     6.4741     6.4741     6.4741
105 1     8.0926     8.0926     6.4741
106 1     8.0926     6.4741     8.0926
107 1     6.4741     8.0926     8.0926
