LAMMPS (10 Feb 2015)
Reading data file ...
  triclinic box = (0 0 0) to (4.2565 4.2565 4.2565) with tilt (0 0 0)
  1 by 1 by 1 MPI processor grid
  reading atoms ...
  8 atoms
4 atoms in group Mg
4 atoms in group O
Setting atom values ...
  4 settings made for charge
Setting atom values ...
  4 settings made for charge
PPPM initialization ...
  G vector (1/distance) = 0.352851
  grid = 8 8 8
  stencil order = 5
  estimated absolute RMS force accuracy = 3.9608e-05
  estimated relative force accuracy = 2.75062e-06
  using double precision FFTs
  3d grid and FFT values/proc = 3375 512
Neighbor list info ...
  1 neighbor list requests
  update every 1 steps, delay 0 steps, check yes
  master list distance cutoff = 11
Setting up minimization ...
Memory usage per processor = 4.06549 Mbytes
Step PotEng Lx Ly Lz Xy Xz Yz Press Pxx Pyy Pzz Pxy Pxz Pyz eatoms 
       0   -110.92329       4.2565       4.2565       4.2565            0            0            0    120138.29    120138.29    120138.29    120138.29 1.5343687e-10 -1.0407196e-10 -1.3145771e-10   -110.92329 
      10   -111.05478     4.299065     4.299065     4.299065            0            0            0    61836.089    61836.089    61836.089    61836.089 1.0666232e-10 -5.0344756e-11 -1.3613158e-10   -111.05478 
      20   -111.10767      4.34163      4.34163      4.34163            0            0            0    10591.608    10591.608    10591.608    10591.608 -1.2465538e-10 -9.1160209e-12 2.8254225e-10   -111.10767 
      25   -111.10952     4.351169     4.351169     4.351169            0            0            0   -6.6622077   -6.6622077   -6.6622077   -6.6622077 -1.5540302e-10 -3.5403029e-11 3.0098099e-10   -111.10952 
Loop time of 0.01706 on 1 procs for 25 steps with 8 atoms

Minimization stats:
  Stopping criterion = linesearch alpha is zero
  Energy initial, next-to-last, final = 
        -110.923293971     -111.109518965     -111.109518965
  Force two-norm initial, final = 17.348 0.0010058
  Force max component initial, final = 17.348 0.0010053
  Final line search alpha, max atom move = 0.00777135 7.8125e-06
  Iterations, force evaluations = 25 41

Pair  time (%) = 0.00454617 (26.648)
Kspce time (%) = 0.00341105 (19.9944)
Neigh time (%) = 0 (0)
Comm  time (%) = 0.000768423 (4.50423)
Outpt time (%) = 4.48227e-05 (0.262735)
Other time (%) = 0.00828958 (48.5906)

Nlocal:    8 ave 8 max 8 min
Histogram: 1 0 0 0 0 0 0 0 0 0
Nghost:    2189 ave 2189 max 2189 min
Histogram: 1 0 0 0 0 0 0 0 0 0
Neighs:    2344 ave 2344 max 2344 min
Histogram: 1 0 0 0 0 0 0 0 0 0

Total # of neighbors = 2344
Ave neighs/atom = 293
Neighbor list builds = 0
Dangerous builds = 0
pypospack:output_section:begin
tot_energy = -111.109518965105
num_atoms = 8
xx = 4.35116899821938
yy = 4.35116899821938
zz = 4.35116899821938
xy = 0
xz = 0
yz = 0
tot_press = -6.66220766530753
pxx = -6.66220766529406
pyy = -6.66220766581444
pzz = -6.6622076648141
pxy = -1.55403020158447e-10
pxz = -3.54030294322521e-11
pyz = 3.00980987063428e-10
pypospack:output_section:done
pypospack:lammps_sim:done
PPPM initialization ...
  G vector (1/distance) = 0.351894
  grid = 8 8 8
  stencil order = 5
  estimated absolute RMS force accuracy = 4.14019e-05
  estimated relative force accuracy = 2.8752e-06
  using double precision FFTs
  3d grid and FFT values/proc = 3375 512
Setting up run ...
Memory usage per processor = 3.06549 Mbytes
Step Temp PotEng KinEng TotEng Press Lx Ly Lz Press Pxx Pyy Pzz Pxy Pxz Pyz Volume 
       0         1400   -111.10953    1.2667494   -109.84278    16415.647     4.351169     4.351169     4.351169    16415.647     20971.26    20953.895     7321.786      5236.26    5256.0036   -1517.1271    82.379254 
     100    363.66458   -110.02035   0.32905135   -109.69129     16139.57    4.3852367    4.3852367    4.3852367     16139.57     45167.06    36541.823   -33290.173    7701.5137   -6047.4774   -1537.4884    84.329422 
     200    934.87025   -110.17454   0.84589025   -109.32865   -32798.739    4.4265909    4.4265909    4.4265909   -32798.739    18702.362   -50805.645   -66292.934    5133.3029   -3271.3011   -739.25711    86.737754 
     300     1336.988   -110.24841    1.2097349   -109.03868   -16281.133     4.421516     4.421516     4.421516   -16281.133   -3342.1054    2561.1278    -48062.42    -11055.27   -1121.6268    4547.5958    86.439768 
     400     1010.665   -109.69979   0.91447093   -108.78532    5747.2488    4.4072854    4.4072854    4.4072854    5747.2488    28912.373    10538.533   -22209.159    19959.934   -14270.697   -4053.7982    85.607837 
     500    1751.6399   -110.21424    1.5849206   -108.62932   -566.03143    4.4153398    4.4153398    4.4153398   -566.03143    30346.329   -4527.6355   -27516.787    -2284.274    -9346.501     6194.166    86.078044 
     600    1271.0886   -109.71343    1.1501076   -108.56332    12763.562    4.4275739    4.4275739    4.4275739    12763.562    58608.979    20003.384   -40321.677   -11565.043   -15634.737    1135.2835     86.79555 
     700    1122.5199    -109.5553    1.0156796   -108.53962   -13165.072    4.4423663    4.4423663    4.4423663   -13165.072    1033.6412   -29278.379   -11250.479    23471.338   -16920.616    1574.7026    87.668402 
     800    1530.6565   -109.90152    1.3849702   -108.51654   -631.46616    4.4330812    4.4330812    4.4330812   -631.46616    34959.717    3189.6712   -40043.786   -17596.372    -252.9051   -148.97047     87.11984 
     900    1854.3904    -110.2024    1.6778914   -108.52451    -33973.53    4.4200201    4.4200201    4.4200201    -33973.53   -27892.959   -23563.282    -50464.35    18384.215   -23631.358    5539.8792    86.352065 
    1000    714.98275   -109.20347   0.64693142   -108.55654    19985.649    4.4238777    4.4238777    4.4238777    19985.649     110040.1   -16838.689   -33244.469    5372.7848   -6723.3273    324.52037    86.578357 
    1100    1837.8048   -110.21337    1.6628844   -108.55049    -10797.08    4.4328789    4.4328789    4.4328789    -10797.08    53450.136   -24148.472   -61692.904    325.73453   -9108.3981   -1023.6748    87.107909 
    1200    1639.9736   -110.05346    1.4838825   -108.56958   -42705.449    4.4338037    4.4338037    4.4338037   -42705.449   -18184.099   -52557.085   -57375.162    24186.019   -9304.9186    2707.5021    87.162443 
    1300    1850.1873   -110.25044    1.6740883   -108.57635   -22458.254    4.4187197    4.4187197    4.4187197   -22458.254    19160.761   -49916.834   -36618.688   -133.24796     11166.96   -5537.2444    86.275873 
    1400    954.45331   -109.44072   0.86360941   -108.57711    43392.715    4.4057752    4.4057752    4.4057752    43392.715    129664.69    26753.664   -26240.211   -11308.932   -16576.641    -1518.831    85.519862 
    1500    1418.8691   -109.86971    1.2838226   -108.58589   -22821.491    4.4219712    4.4219712    4.4219712   -22821.491    20797.053   -46689.045   -42572.482    38664.573   -7131.8588   -2155.5091     86.46647 
    1600    1805.6358   -110.21043    1.6337772   -108.57665   -22230.725    4.4311281    4.4311281    4.4311281   -22230.725    48159.785   -45518.538    -69333.42    981.68399    4887.4784   -10711.532    87.004742 
    1700    1118.7331   -109.58422    1.0122532   -108.57196    21742.541    4.4150033    4.4150033    4.4150033    21742.541    79837.476    27294.637   -41904.491     5490.974   -7982.7126      2088.88    86.058368 
    1800    1452.8224   -109.89171    1.3145442   -108.57717   -10892.133    4.4231613    4.4231613    4.4231613   -10892.133    23271.471   -27659.712   -28288.158    7068.7426    909.86791   -6990.2585    86.536302 
    1900    1752.4055   -110.14857    1.5856133   -108.56296   -25529.918    4.4274993    4.4274993    4.4274993   -25529.918    48800.633   -56098.368   -69292.018   -5028.9564   -4967.0318   -13115.203    86.791163 
    2000    1303.1603   -109.73711    1.1791268   -108.55798    37192.269    4.4010724    4.4010724    4.4010724    37192.269    93646.683    44547.279   -26617.154    13852.719   -7862.9233    1491.9753    85.246303 
    2100    1162.7627   -109.65491    1.0520922   -108.60282    6794.4798    4.4219891    4.4219891    4.4219891    6794.4798    101822.01   -36846.305   -44592.269    9271.6607    6186.1709   -5403.9709    86.467521 
    2200    2097.6993   -110.45943    1.8980424   -108.56139   -35772.259    4.4443178    4.4443178    4.4443178   -35772.259    24749.896   -62859.212   -69207.462   -14531.436    1984.4492   -5764.7403     87.78399 
    2300    1215.0065     -109.653    1.0993634   -108.55364   -9873.5679    4.4196913    4.4196913    4.4196913   -9873.5679   -4485.2388    17268.446   -42403.911    13674.502   -5277.6731   -7451.7717    86.332798 
    2400    1308.9849   -109.73562     1.184397   -108.55122    26615.424    4.3996083    4.3996083    4.3996083    26615.424    84476.807    3721.1289   -8351.6635     11331.12    16889.236    5000.1915    85.161252 
    2500    1730.8646   -110.14431    1.5661227   -108.57819    569.10598    4.4201067    4.4201067    4.4201067    569.10598    81508.512   -32979.962   -46821.232   -4260.7109    534.85017   -12040.058    86.357142 
    2600    975.94122   -109.45495   0.88305212    -108.5719    10089.488    4.4356667    4.4356667    4.4356667    10089.488      22623.1    25753.722   -18108.359    2050.4381    13606.383    2603.1962    87.272358 
    2700    1710.6244    -110.0943    1.5478089   -108.54649   -17067.396    4.4414351    4.4414351    4.4414351   -17067.396   -26.670832   -29961.332   -21214.184    13383.408    4126.2708    4713.0604    87.613286 
    2800    2039.6522   -110.38317    1.8455202   -108.53765   -3694.8218    4.4082181    4.4082181    4.4082181   -3694.8218    34457.453   -4566.6808   -40975.238   -15571.625    5151.1137   -8482.6728      85.6622 
    2900    422.18078   -108.94096   0.38199804   -108.55896    73062.817    4.3946368    4.3946368    4.3946368    73062.817    143100.22    43649.321    32438.911    33029.309    5629.6499    833.73389    84.872883 
    3000     2181.295   -110.52966    1.9736815   -108.55598   -40185.239     4.436054     4.436054     4.436054   -40185.239   -33556.149   -43464.096   -43535.471   -603.33867   -1678.8443    -5059.676    87.295224 
    3100    1540.6938     -109.923    1.3940521   -108.52895    -10726.67    4.4332087    4.4332087    4.4332087    -10726.67    57674.032   -42656.678   -47197.364    13659.924    11811.712   -1057.8228    87.127355 
    3200    1072.6892   -109.48659   0.97059174     -108.516    40302.514    4.4157621    4.4157621    4.4157621    40302.514    41006.572    70123.307    9777.6622    18431.767   -4620.3622   -3003.3723    86.102746 
    3300    1940.1953   -110.27231    1.7555295   -108.51678   -8884.7127    4.4256464    4.4256464    4.4256464   -8884.7127    47264.016   -38324.903   -35593.251   -7323.7388    2734.9049   -7354.6296    86.682244 
    3400    1193.8464    -109.6163    1.0802173   -108.53609   -3909.7524    4.4183519    4.4183519    4.4183519   -3909.7524   -14642.694    30939.445   -28026.008    16798.035    19373.433    -4901.757    86.254329 
    3500    1171.5336   -109.61272    1.0600282   -108.55269    20820.121    4.4079298    4.4079298    4.4079298    20820.121      56319.9   -3853.5664    9994.0289    6343.5147   -11483.555   -297.38221    85.645392 
    3600    1775.6599    -110.1729    1.6066544   -108.56625   -6893.7795    4.4186657    4.4186657    4.4186657   -6893.7795    24542.711   -9489.2101   -35734.839   -3446.4913    1751.1215   -9672.9181     86.27271 
    3700    1143.2245   -109.59423    1.0344136   -108.55981    -43752.32    4.4397258    4.4397258    4.4397258    -43752.32   -29594.394   -69830.639   -31831.927    29707.026    14386.134   -600.09872    87.512168 
    3800    1347.1141   -109.75492    1.2188971   -108.53602   -10508.889    4.4122906    4.4122906    4.4122906   -10508.889   -15558.218    17648.257   -33616.706   -10522.312   -15023.472    1295.0796    85.899832 
    3900    1222.1252   -109.63859    1.1058045   -108.53279    7022.9347    4.3930733    4.3930733    4.3930733    7022.9347    3413.4524    30396.446   -12741.094    32222.846    3531.9016    1511.8212    84.782327 
    4000    1323.1173   -109.77069    1.1971843   -108.57351   -26113.081    4.4114406    4.4114406    4.4114406   -26113.081   -30763.279    10406.523   -57982.488   -391.32925    2149.0111     7864.967    85.850199 
    4100     2046.273   -110.42696    1.8515108   -108.57544   -26259.142    4.4245551    4.4245551    4.4245551   -26259.142   -6846.8289   -24754.799   -47175.798    6830.7648   -2171.4953    -8464.986    86.618133 
    4200    984.86381   -109.47277   0.89112547   -108.58165   -9651.7244    4.4271766    4.4271766    4.4271766   -9651.7244    6518.1341    7883.4117   -43356.719    16190.536    6520.9425    10279.053    86.772188 
    4300    1533.0097    -109.9395    1.3870994   -108.55241   -5733.6267    4.4100525    4.4100525    4.4100525   -5733.6267    30191.554    4176.2389   -51568.673   -1101.2016   -3489.2291   -3884.4932    85.769181 
    4400     1812.248   -110.18409    1.6397601   -108.54433    6465.8535    4.4003139    4.4003139    4.4003139    6465.8535    34648.003    16213.169   -31463.611   -2774.2391    5282.0525   -4957.3959    85.202234 
    4500    1096.3773   -109.56362   0.99202524    -108.5716    14899.596    4.4112879    4.4112879    4.4112879    14899.596    31419.595    22178.565   -8899.3718   -108.00995    1352.1526    1811.0574    85.841287 
    4600    1458.8371   -109.88958    1.3199865   -108.56959   -22997.759    4.4255639    4.4255639    4.4255639   -22997.759    -462.6772   -26478.805   -42051.794   -10334.083    -16399.25   -19624.095    86.677395 
    4700    1481.6311   -109.88031     1.340611    -108.5397   -5164.2992    4.4222413    4.4222413    4.4222413   -5164.2992    38831.432   -33109.344   -21214.985   -15612.673     9557.435    4773.8019    86.482314 
    4800    842.92601   -109.29569   0.76269717   -108.53299    27520.811    4.4100304    4.4100304    4.4100304    27520.811    56412.547    27971.116   -1821.2284   -5875.4466   -16524.754   -115.00748    85.767894 
    4900    1649.3476   -110.02602    1.4923643   -108.53365   -15751.174    4.4127121    4.4127121    4.4127121   -15751.174   -40149.546    31365.482   -38469.458   -7309.0809   -7981.5799   -13184.117    85.924452 
    5000     1491.715   -109.88755    1.3497351   -108.53781    6973.4139    4.4250038    4.4250038    4.4250038    6973.4139    24027.739   -5290.4881    2182.9911   -12665.175    2981.2803    8237.0151    86.644488 
    5100    819.97315   -109.27544   0.74192894   -108.53351    8624.5076    4.4249218    4.4249218    4.4249218    8624.5076    74421.933   -13584.238   -34964.173   -9110.9011   -645.09981   -12543.074    86.639674 
    5200    1713.8942   -110.06824    1.5507675   -108.51747   -10683.964     4.419286     4.419286     4.419286   -10683.964   -24264.878    5440.6257   -13227.638    2658.2119    8504.5234    1132.1604    86.309049 
    5300     1902.901   -110.24171    1.7217848   -108.51993   -8012.1162    4.4168561    4.4168561    4.4168561   -8012.1162      26629.6   -20919.075   -29746.874    20260.455   -6940.5687     -8840.83    86.166758 
    5400    1316.0156   -109.72726    1.1907586    -108.5365   -30696.575    4.4187939    4.4187939    4.4187939   -30696.575   -36466.481    2663.8425   -58287.087    5900.0196   -4577.0796   -13188.415     86.28022 
    5500    1592.4703   -109.97868    1.4409006   -108.53778    781.25546    4.4111927    4.4111927    4.4111927    781.25546   -2039.9929   -7806.1139    12189.873    1095.9612    12006.038    7798.9068    85.835727 
    5600    1861.6056   -110.22404    1.6844199   -108.53962   -15797.149    4.4064831    4.4064831    4.4064831   -15797.149    921.34845   -19956.702   -28356.093    2383.2044   -10235.286   -10600.095    85.561096 
    5700    1210.1448   -109.65402    1.0949644   -108.55906   -9656.6117    4.4142689    4.4142689    4.4142689   -9656.6117   -4018.6384    5987.0821   -30938.279   -10621.342   -4986.7029   -5640.2088     86.01543 
    5800    1792.9811   -110.15982     1.622327   -108.53749    2610.5036    4.4213713    4.4213713    4.4213713    2610.5036     7878.145   -10732.129    10685.494   -280.96557   -5657.1184   -13924.421    86.431284 
    5900    1164.3564   -109.57718    1.0535341   -108.52365    8557.5635     4.432609     4.432609     4.432609    8557.5635    66264.113   -14234.403   -26357.019   -9460.7342   -24462.342   -13065.674       87.092 
    6000    1120.7901   -109.52197    1.0141145   -108.50786   -3084.8783    4.4282113    4.4282113    4.4282113   -3084.8783    6196.2318   -728.06991   -14722.797   -30330.408    9085.4817    5061.8328     86.83304 
    6100    1564.3542   -109.90971    1.4154606   -108.49425    26794.073    4.4023164    4.4023164    4.4023164    26794.073    24339.687    44183.796    11858.735   -1611.2928    -13720.52   -27238.837    85.318607 
    6200    1072.6225   -109.50483   0.97053135    -108.5343    7116.7918    4.4187182    4.4187182    4.4187182    7116.7918   -50198.898    78430.634    -6881.361   -15591.887   -11797.087   -2149.5209    86.275783 
    6300    1401.3018   -109.79271    1.2679273   -108.52478   -8476.7951    4.4304837    4.4304837    4.4304837   -8476.7951   -45100.216     25424.29   -5754.4584   -4151.9089    2040.3046   -19754.464    86.966788 
    6400    1205.3382   -109.60663    1.0906154   -108.51602    25884.705    4.4102121    4.4102121    4.4102121    25884.705    54955.485   -7234.5777    29933.209    1783.9723   -14656.261   -12179.052    85.778497 
    6500    1127.3212   -109.54425    1.0200239   -108.52422    10158.391    4.4067844    4.4067844    4.4067844    10158.391   -4487.0425    30196.497    4765.7191    -22251.67    8814.7389   -5273.6765    85.578649 
    6600    1725.4503   -110.07978    1.5612237   -108.51856   -26619.485    4.4211525    4.4211525    4.4211525   -26619.485   -39301.526   -35889.271   -4667.6569    16506.421   -5094.1408   -12426.257     86.41845 
    6700    1524.1236   -109.90028     1.379059   -108.52122   -6958.6663    4.4164718    4.4164718    4.4164718   -6958.6663    18537.167   -40349.999    936.83337    -7335.511    5474.5268    7388.2335    86.144265 
    6800    980.09303   -109.41552   0.88680877   -108.52871    15773.301    4.4058606    4.4058606    4.4058606    15773.301   -25846.624   -6408.2419    79574.768   -7750.4916    14956.744   -485.80797     85.52484 
    6900    1497.9316   -109.91026      1.35536    -108.5549    -18096.44    4.4054374    4.4054374    4.4054374    -18096.44   -33120.186   -28822.257    7653.1222    15566.921    21237.478    303.23504    85.500194 
    7000    1589.3645    -109.9993    1.4380904   -108.56121   -6190.5949    4.4049663    4.4049663    4.4049663   -6190.5949   -5035.1565   -37567.656    24031.028   -19772.859   -3278.2233   -3477.7629    85.472766 
    7100    1203.7723   -109.64852    1.0891985   -108.55932   -2620.6375    4.4155077    4.4155077    4.4155077   -2620.6375   -30385.627    4039.3392    18484.375    16703.799    4280.2641    5274.8486    86.087864 
    7200    1479.8095   -109.87903    1.3389627   -108.54007   -11859.596    4.4163082    4.4163082    4.4163082   -11859.596   -30296.574   -32484.809    27202.594   -1873.1496   -7185.8172    -18234.46    86.134697 
    7300    1493.3088   -109.88266    1.3511772   -108.53148   -1202.7734    4.4092541    4.4092541    4.4092541   -1202.7734   -21023.207   -13889.295    31304.181   -1740.0347    3894.8808    -6977.106     85.72261 
    7400    1388.8557   -109.80652    1.2566658   -108.54986   -12162.913    4.4078512    4.4078512    4.4078512   -12162.913   -47728.765   -21465.069    32705.096    19598.662    14225.174    281.24912    85.640813 
    7500    1612.0973   -110.01192    1.4586595   -108.55326    24016.895    4.4016099    4.4016099    4.4016099    24016.895    13912.907     -9470.71    67608.489   -7670.9732   -2309.3566    1835.6551    85.277535 
    7600    1046.2893   -109.52921   0.94670451    -108.5825    -1903.454    4.4111603    4.4111603    4.4111603    -1903.454   -47300.168   -7938.9642    49528.771    14378.249    10435.461    252.20048    85.833835 
    7700    1572.8604   -109.99492    1.4231572   -108.57177   -31023.212    4.4180062    4.4180062    4.4180062   -31023.212   -47298.551    -17599.54   -28171.546    8501.8104   -10075.247    9545.2395    86.234087 
    7800    1728.5326   -110.11178    1.5640127   -108.54777    3758.7165    4.4090281    4.4090281    4.4090281    3758.7165    10558.673    1251.8825   -534.40608    4093.3419    7568.1594    2185.2757    85.709427 
    7900    1188.9282   -109.63009    1.0757672   -108.55432   -23480.235    4.4145899    4.4145899    4.4145899   -23480.235   -58771.289   -12020.088    350.67157    11495.218   -2216.5638     8817.936    86.034195 
    8000    1863.1653   -110.22216    1.6858311   -108.53633   -6173.2921    4.4100071    4.4100071    4.4100071   -6173.2921   -18892.149   -6815.4627    7187.7349    -7505.056    4523.6372   -2958.4743    85.766537 
    8100    1194.1318   -109.61236    1.0804756   -108.53188    40158.177    4.3930967    4.3930967    4.3930967    40158.177    18543.263    7413.0902    94518.176    15048.858    6987.6748    7373.5744    84.783683 
    8200    1306.0247   -109.74027    1.1817186   -108.55855   -26479.857    4.4192966    4.4192966    4.4192966   -26479.857   -54292.179   -11404.245   -13743.147    2230.7684    1759.0251   -10812.644    86.309668 
    8300    1425.3509   -109.82451    1.2896874   -108.53482   -18042.638    4.4221667    4.4221667    4.4221667   -18042.638    -33775.52    -65883.56    45531.165   -21454.538    2555.5012   -1668.1271    86.477937 
    8400    1569.1099   -109.94978    1.4197637   -108.53002     14477.43    4.3921671    4.3921671    4.3921671     14477.43   -9540.6488    18092.794    34880.146    21424.438    -4032.572   -10412.586    84.729876 
    8500    1120.1025   -109.58398    1.0134923   -108.57049   -21359.219    4.4137555    4.4137555    4.4137555   -21359.219    -52237.74   -11072.081   -767.83492   -20622.416   -3684.6316    8125.0651    85.985421 
    8600    1646.4743   -110.03568    1.4897646   -108.54592   -1084.7194    4.4282052    4.4282052    4.4282052   -1084.7194   -18808.095   -57925.856    73479.793   -7035.4963   -15983.757   -34.633616    86.832682 
    8700    1471.8782   -109.86945    1.3317863   -108.53766   -12419.069    4.4229897    4.4229897    4.4229897   -12419.069   -16972.887    -30323.68    10039.361   -3370.8364    2199.2486    1650.6264    86.526232 
    8800    1175.4892   -109.59914    1.0636074   -108.53553   -21374.183    4.4167028    4.4167028    4.4167028   -21374.183   -60545.049   -22327.159    18749.657   -22929.426   -11246.071     12407.61    86.157788 
    8900    1645.1906   -110.00764     1.488603   -108.51904    30133.405    4.4089518    4.4089518    4.4089518    30133.405    47242.248     320.0761     42837.89    7334.7434   -3268.3291    1965.8516    85.704979 
    9000    1254.5032   -109.67638    1.1351009   -108.54128   -10425.857    4.4192739    4.4192739    4.4192739   -10425.857   -8183.5856   -45628.084    22534.097    -26491.59    14066.204    9021.4028    86.308339 
    9100    1375.1397   -109.78752    1.2442553   -108.54327   -13842.694    4.4293137    4.4293137    4.4293137   -13842.694   -7641.7492   -3138.8881   -30747.445    6072.1555    13316.735    2061.6245     86.89791 
    9200    1572.5329   -109.95143    1.4228609   -108.52857    23194.108    4.4081284    4.4081284    4.4081284    23194.108    20809.341     3701.168    45071.815   -15986.837    7690.8194   -21307.259    85.656973 
    9300    1205.6705   -109.63198     1.090916   -108.54107    681.68522    4.3984246    4.3984246    4.3984246    681.68522   -21072.107    12201.271    10915.892   -20815.685   -7980.3908    16248.894    85.092533 
    9400    1518.2461   -109.92467     1.373741   -108.55092   -15518.262    4.4058374    4.4058374    4.4058374   -15518.262   -20613.697   -6260.1684   -19680.921    2902.4182    22387.355   -1714.4982    85.523486 
    9500    1582.6603   -109.98524    1.4320243   -108.55322    5870.8076    4.4194659    4.4194659    4.4194659    5870.8076    46559.094   -30644.174     1697.503   -20417.542   -12811.055   -1388.2221     86.31959 
    9600    1207.2003   -109.64872    1.0923002   -108.55642   -32941.249    4.4211113    4.4211113    4.4211113   -32941.249   -63324.886    12565.943   -48064.803    12841.423    24453.265    8117.3293    86.416035 
    9700    1301.9949   -109.71848    1.1780723   -108.54041    16287.081     4.386444     4.386444     4.386444    16287.081    2673.5239    36135.321    10052.399    5404.1885    2743.4713   -5671.7901    84.399093 
    9800    1946.9047   -110.30838    1.7616002   -108.54678    5467.7108    4.4001244    4.4001244    4.4001244    5467.7108    31948.895    -27637.47    12091.707   -2644.1764    8242.3218   -1167.8112    85.191224 
    9900    906.71783   -109.36441   0.82041734   -108.54399   -34179.901    4.4327208    4.4327208    4.4327208   -34179.901   -30540.333   -38141.237   -33858.134    5906.1145    20920.593   -1695.3504    87.098591 
   10000    1222.4938   -109.61723    1.1061381   -108.51109     16789.24    4.4207007    4.4207007    4.4207007     16789.24    33461.676    15049.079    1856.9668   -3377.8576   -12731.425   -17681.222     86.39196 
   10100     1857.203   -110.19011    1.6804363   -108.50967   -6906.4549    4.4038733    4.4038733    4.4038733   -6906.4549   -20453.373    9816.7749   -10082.767    2081.2579    22552.964     1120.616    85.409161 
   10200    1097.4419   -109.52862   0.99298852   -108.53563    16665.622    4.3971894    4.3971894    4.3971894    16665.622    2995.0968    74607.449    -27605.68    2741.4115   -851.52692    7251.7903    85.020867 
   10300    1487.0649   -109.89658    1.3455276   -108.55105   -14673.278    4.4290963    4.4290963    4.4290963   -14673.278     -16514.7    -19882.34   -7622.7925    6167.5204   -16500.662   -7312.8609    86.885115 
   10400    1692.1662   -110.05568    1.5311076   -108.52457   -45465.769    4.4352492    4.4352492    4.4352492   -45465.769     -40864.7   -34391.274   -61141.332    8514.0623    16769.679    16835.142    87.247721 
   10500    1322.5065   -109.70393    1.1966317    -108.5073     36142.37    4.3913113    4.3913113    4.3913113     36142.37    28237.947    60720.922    19468.241    12230.736   -17106.549   -9522.2233    84.680355 
   10600    1771.9918   -110.13112    1.6033354   -108.52778   -6419.1248    4.3990854    4.3990854    4.3990854   -6419.1248   -3735.0059   -6698.7395   -8823.6291   -3753.2307    3691.0344   -3947.4754    85.130893 
   10700     1527.191   -109.90793    1.3818345   -108.52609   -12679.092    4.4191522    4.4191522    4.4191522   -12679.092   -27023.047    6876.1094   -17890.339    -5558.919    9970.0499     5340.749    86.301211 
   10800    985.25633   -109.41392   0.89148063   -108.52244     15947.29    4.4223099    4.4223099    4.4223099     15947.29    1616.7017    76156.938   -29931.769   -661.15407    -18774.97   -21928.697    86.486338 
   10900    2114.5784   -110.42619    1.9133149   -108.51288   -13265.646    4.4211109    4.4211109    4.4211109   -13265.646   -39641.938     -6134.62    5979.6208   -6980.4093    4094.7134   -3435.9929    86.416014 
   11000    1985.0366   -110.31955    1.7961028   -108.52345    -1796.946    4.3901183    4.3901183    4.3901183    -1796.946    203.98515    21775.504   -27370.327    4284.4798   -14824.498    2369.5947     84.61136 
   11100    900.16759   -109.39052   0.81449056   -108.57603   -237.77247     4.399813     4.399813     4.399813   -237.77247   -709.55473   -3068.4172    3064.6545   -2599.7922   -19421.709   -15647.224    85.173137 
   11200    1786.6331   -110.17834    1.6165832   -108.56176   -6385.2134     4.434394     4.434394     4.434394   -6385.2134    632.50184    7043.2887   -26831.431    9223.3804    1545.5195    709.75331     87.19726 
   11300    1375.0923   -109.77508    1.2442124   -108.53087   -51548.671    4.4360294    4.4360294    4.4360294   -51548.671   -3922.0785   -59867.344   -90856.592   -3273.8032   -25513.711   -30990.885    87.293768 
   11400    1547.5582   -109.90143    1.4002632   -108.50117   -1302.5372    4.3959496    4.3959496    4.3959496   -1302.5372    10282.126    6508.9407   -20698.678   -9512.9391   -2170.6797   -4133.1779    84.948967 
   11500    1438.2164   -109.81533    1.3013285   -108.51401    49212.256    4.3863748    4.3863748    4.3863748    49212.256    103679.25    31198.181     12759.34     3919.565    6183.3693   -6732.5957    84.395095 
   11600    1351.8283   -109.78858    1.2231626   -108.56541   -29703.696    4.4218062    4.4218062    4.4218062   -29703.696    18785.977   -49585.534   -58311.532    3952.4289   -15693.761   -25356.428    86.456789 
   11700    1737.8479    -110.1019    1.5724413   -108.52946   -27556.271    4.4421845    4.4421845    4.4421845   -27556.271    27060.758   -47190.173   -62539.399   -7247.3741   -1976.2581    11137.861    87.657643 
   11800     1578.824   -109.94665    1.4285531    -108.5181   -25332.743    4.4128896    4.4128896    4.4128896   -25332.743    961.59916   -41337.859   -35621.968   -5780.6343   -5473.4094   -21344.488    85.934822 
   11900    1041.2347   -109.43953   0.94213101   -108.49739    52783.137    4.3767175    4.3767175    4.3767175    52783.137    92248.364    44109.512    21991.536    9005.5916   -4293.9022     -1244.71    83.838897 
   12000    1772.1484    -110.1402    1.6034771   -108.53672    1074.0558    4.4090627    4.4090627    4.4090627    1074.0558    41781.276   -9205.6894   -29353.419   -7561.1173    10139.593   -7098.9914    85.711445 
   12100    1586.5708   -109.95619    1.4355626   -108.52063   -18654.895    4.4291031    4.4291031    4.4291031   -18654.895   -13427.556   -2081.8556   -40455.274    4529.1558   -11371.477   -7617.2723    86.885515 
   12200    1012.9414   -109.43203   0.91653066    -108.5155    17282.865    4.4026301    4.4026301    4.4026301    17282.865      40853.5   -4188.8199    15183.914    8166.1116    4856.5896    4140.6415    85.336849 
   12300    1755.1071   -110.11325    1.5880578   -108.52519   -5131.3508    4.3943308    4.3943308    4.3943308   -5131.3508   -12971.627     16031.21   -18453.635     -8152.26    11469.587   -12494.115    84.855159 
   12400     1611.673   -110.00311    1.4582756   -108.54483    614.18422    4.4090957    4.4090957    4.4090957    614.18422    19505.533    -15263.92   -2399.0601    23182.885    -30725.09   -3597.7128    85.713374 
   12500    1092.2448   -109.53229   0.98828602     -108.544   -21160.307    4.4303797    4.4303797    4.4303797   -21160.307   -34765.965   -23801.792   -4913.1639    180.11689    22493.673    5360.1853    86.960666 
   12600    1757.1406   -110.10346    1.5898977   -108.51356   -14700.591    4.4154033    4.4154033    4.4154033   -14700.591   -5394.0587   -16089.713       -22618   -9570.8246    5106.2953    -6066.337    86.081762 
   12700    1318.0922    -109.7093    1.1926375   -108.51666    19335.627      4.38927      4.38927      4.38927    19335.627    20911.285   -2730.3217    39825.916    14005.571     -2.08083    10138.502    84.562317 
   12800    1461.5849   -109.87508    1.3224727   -108.55261   -5719.7965    4.3999682    4.3999682    4.3999682   -5719.7965    6888.8868    16077.746   -40126.023   -10565.824    23034.926    2771.2037    85.182155 
   12900    1343.3571   -109.76887    1.2154978   -108.55337    38140.369    4.4176326    4.4176326    4.4176326    38140.369    16102.287    21889.284    76429.536   -10098.759   -171.85769   -6374.7982    86.212211 
   13000    1062.8515   -109.50448   0.96169039   -108.54279    -29020.29    4.4355266    4.4355266    4.4355266    -29020.29   -45414.116   -9097.1701   -32549.585    2772.9704   -8816.1044    1042.2838    87.264092 
   13100    1096.9433   -109.52329   0.99253737   -108.53075   -7354.7941     4.406975     4.406975     4.406975   -7354.7941   -6271.6356    -26674.29    10881.543   -20054.401    26898.758   -1161.0685    85.589749 
   13200     1966.466   -110.28745    1.7792998   -108.50815    42621.807    4.3667997    4.3667997    4.3667997    42621.807    45908.403    43033.502    38923.516    4790.3247   -20068.312   -6112.6357    83.270242 
   13300    1285.0633   -109.73597    1.1627523   -108.57322    -26434.32     4.405428     4.405428     4.405428    -26434.32   -36931.988   -5300.2144   -37070.757   -10876.462     19032.33    14534.651    85.499646 
   13400    1267.5478    -109.6871    1.1469039   -108.54019   -22199.019    4.4303342    4.4303342    4.4303342   -22199.019   -47709.024   -58309.486    39421.453   -24819.867    6815.0056   -10812.116    86.957985 
   13500     1517.969   -109.90267    1.3734902   -108.52918   -22445.913    4.4107624    4.4107624    4.4107624   -22445.913    -15012.76    -10249.55   -42075.429    9482.0202   -14378.739    4791.1359    85.810613 
   13600    1356.5254   -109.75592    1.2274127   -108.52851    84.902303    4.3899847    4.3899847    4.3899847    84.902303    2483.8633     12925.08   -15154.236   -14042.827   -7180.9328    15310.287    84.603633 
   13700    1365.0789   -109.78193    1.2351521   -108.54678    18228.672    4.3958943    4.3958943    4.3958943    18228.672    25342.674   -19298.414    48641.756   -13295.522    5652.5352   -12670.844    84.945765 
   13800     1323.602   -109.76491    1.1976229   -108.56728    -7897.783    4.4188435    4.4188435    4.4188435    -7897.783   -9055.7654    15844.426    -30482.01    9711.6369   -23396.089    939.54198    86.283123 
   13900    1202.9537   -109.63064    1.0884578   -108.54218   -19244.077    4.4252253    4.4252253    4.4252253   -19244.077   -27254.365   -14131.554   -16346.312   -3492.7707    11595.779   -9705.4018    86.657504 
   14000    1297.5771   -109.69209    1.1740751   -108.51801    26449.137    4.3843177    4.3843177    4.3843177    26449.137     74055.94   -6289.8253    11581.297   -1598.8828    1621.7975   -25061.445    84.276413 
   14100    1674.3722   -110.04596    1.5150072   -108.53096    12374.385    4.3861411    4.3861411    4.3861411    12374.385    34492.974    36716.472   -34086.291   -3291.7014   -10316.406    7348.3909    84.381608 
   14200    1110.3374   -109.54015    1.0046566   -108.53549   -14094.948    4.4258697    4.4258697    4.4258697   -14094.948    6809.5625   -41532.526   -7561.8798    3182.1941    13711.331   -20381.324    86.695363 
   14300    1469.7332   -109.85417    1.3298455   -108.52432   -13828.046    4.4084384    4.4084384    4.4084384   -13828.046    9093.9195   -12363.274   -38214.782   -3277.1005   -8950.0013   -10866.417    85.675043 
   14400     1200.007   -109.60524    1.0857916   -108.51944     38960.32    4.3846112    4.3846112    4.3846112     38960.32    13172.854    67955.808    35752.299    3683.6208    -4504.267    10381.822     84.29334 
   14500    1223.4382   -109.65302    1.1069926   -108.54603   -6286.7941    4.4025174    4.4025174    4.4025174   -6286.7941    19958.457   -3839.4444   -34979.395   -6048.8879    10769.236    -45558.58    85.330292 
   14600     1369.623   -109.77468    1.2392637   -108.53542    12600.693    4.4165007    4.4165007    4.4165007    12600.693     42695.88    33288.432   -38182.232    2424.3474   -5498.4461     2929.058    86.145957 
   14700    1287.3236   -109.68845    1.1647974   -108.52365   -11573.953    4.4236529    4.4236529    4.4236529   -11573.953    3709.9218   -9744.6254   -28687.155    -4241.197    4894.5808    -19217.69    86.565159 
   14800    1097.0463   -109.50592   0.99263055   -108.51329    8115.5043    4.4104511    4.4104511    4.4104511    8115.5043    40682.941    3728.0123    -20064.44   -2126.0523    3799.7607   -24908.484    85.792444 
   14900    1491.9167   -109.86049    1.3499176   -108.51057    21957.062    4.3864803    4.3864803    4.3864803    21957.062    28405.478    62397.789   -24932.082     12950.52   -16626.226    7737.0914    84.401185 
   15000    1054.7451   -109.50669   0.95435551   -108.55233   -10977.424    4.4047812    4.4047812    4.4047812   -10977.424    8075.7633   -9616.6596   -31391.377   -3784.7982    11152.123   -40180.174    85.461993 
   15100    1622.1882   -109.99855      1.46779   -108.53076   -6386.5308    4.4201157    4.4201157    4.4201157   -6386.5308   -14584.273    25303.377   -29878.696    3915.9867   -14688.876   -6151.9984    86.357669 
   15200    1243.3168   -109.64962    1.1249791   -108.52464    2309.3382    4.4023195    4.4023195    4.4023195    2309.3382   -418.58999    35021.708   -27675.103   -2408.3305    -7270.063   -9661.2987    85.318787 
   15300    1156.6376   -109.58711    1.0465501   -108.54056   -12834.597    4.4050023    4.4050023    4.4050023   -12834.597    43479.395   -28560.156   -53423.031   -1301.1276    5190.3949   -23174.281    85.474862 
   15400    1877.8452   -110.22619    1.6991138   -108.52708    11415.726    4.3999057    4.3999057    4.3999057    11415.726   -9207.8814    54908.898    -11453.84   -2125.0469   -20854.636   -2360.3461    85.178521 
   15500    1236.5839   -109.67189    1.1188871     -108.553   -17498.694    4.4082342    4.4082342    4.4082342   -17498.694   -22442.093    13699.624   -43753.612     2016.832    6837.6211   -21974.597    85.663138 
   15600    1440.9355   -109.84423    1.3037887   -108.54044   -4850.3901    4.4200794    4.4200794    4.4200794   -4850.3901   -16116.773    16473.271   -14907.669   -2544.8968    4636.5098    -8039.531    86.355543 
   15700    1438.0551   -109.82405    1.3011825   -108.52287    12428.599    4.4059859    4.4059859    4.4059859    12428.599    1687.8142    33050.159    2547.8243    10910.017    8276.9699    -20897.43    85.532134 
   15800    973.61056   -109.41213    0.8809433   -108.53119   -15431.256    4.4117418    4.4117418    4.4117418   -15431.256   -19044.871   -30887.057    3638.1606   -6165.9611    22498.956   -22980.757    85.867788 
   15900    1655.9159   -110.02167    1.4983075   -108.52336    22394.053    4.3957815    4.3957815    4.3957815    22394.053    9465.5686   -1053.7809    58770.371    5307.5872    8941.2512   -4912.6589    84.939224 
   16000    1489.4366   -109.89007    1.3476736    -108.5424    -8563.053    4.3944665    4.3944665    4.3944665    -8563.053   -26504.619    13196.323   -12380.863    9353.1059    9682.1895   -17887.648    84.863021 
   16100    1306.0179   -109.73428    1.1817124   -108.55257   -31509.607    4.4181958    4.4181958    4.4181958   -31509.607   -29858.125   -39432.001   -25238.696   -8315.7209    18977.192     -7610.73    86.245188 
   16200    1571.4714    -109.9645    1.4219003    -108.5426   -17115.219    4.4112224    4.4112224    4.4112224   -17115.219   -33705.542   -8099.3174   -9540.7965    20171.187   -20826.238    15505.597    85.837461 
   16300    1288.5871    -109.7141    1.1659407   -108.54816   -8160.4155    4.3971048    4.3971048    4.3971048   -8160.4155    13435.948   -22059.062   -15858.133   -13248.126    17004.099   -14678.602    85.015955 
   16400    1621.4717   -110.03928    1.4671417   -108.57213   -2835.8246    4.3958465    4.3958465    4.3958465   -2835.8246   -18633.386   -22446.823    32572.735    2516.2549    7272.3413   -1372.7783    84.942991 
   16500    1262.6493   -109.71579    1.1424716   -108.57332    18572.904    4.4156639    4.4156639    4.4156639    18572.904   -10551.445   -12282.753    78552.908    7487.8626   -6183.4985    1054.6161    86.097002 
   16600    1442.2357   -109.86412    1.3049652   -108.55916   -38653.417       4.4182       4.4182       4.4182   -38653.417   -55757.353   -40365.162   -19837.738   -20833.231    34900.278   -11272.342    86.245434 
   16700    1538.6121   -109.93268    1.3921686   -108.54051    21816.104    4.4037855    4.4037855    4.4037855    21816.104    25868.801   -13598.077    53177.587    10471.331   -12941.874   -5316.6128    85.404051 
   16800     1225.492   -109.65999    1.1088509   -108.55114   -20512.834    4.4127758    4.4127758    4.4127758   -20512.834   -25839.564   -40725.391    5026.4549   -16522.076    13795.722   -163.84774    85.928173 
   16900    946.07072   -109.40617   0.85602466   -108.55014   -7562.1694    4.4039452    4.4039452    4.4039452   -7562.1694    33050.192   -14981.262   -40755.439    2256.1175    24158.161    -14825.82    85.413344 
   17000    2224.4362   -110.55534    2.0127166   -108.54263    2742.1981     4.403495     4.403495     4.403495    2742.1981   -6033.1186   -16750.359    31010.072    3305.7323   -5315.6121    10188.829    85.387151 
   17100    1228.8645   -109.68531    1.1119024    -108.5734   -11575.676    4.4073089    4.4073089    4.4073089   -11575.676    5573.6919   -6370.8069   -33929.914   -16056.116    18058.047   -8106.8578    85.609208 
   17200     933.0906   -109.42605   0.84427998   -108.58177    3340.1605    4.3970818    4.3970818    4.3970818    3340.1605    3462.5609    -26392.95    32950.871   -17715.257    26389.774   -10220.959    85.014625 
   17300    1923.6729   -110.30896    1.7405796   -108.56838    7647.7788    4.4018645    4.4018645    4.4018645    7647.7788    11879.755   -92.637606    11156.219    5206.0754   -10616.117    11408.242    85.292337 
   17400    978.24989   -109.45415   0.88514106   -108.56901   -22135.199     4.414854     4.414854     4.414854   -22135.199   -17436.266   -25379.838   -23589.492   -20179.695    21106.456   -17884.219    86.049637 
   17500     1394.384    -109.8077     1.261668   -108.54603    18440.554    4.4063433    4.4063433    4.4063433    18440.554     7862.589    4198.5504    43260.523   -8280.6513    7814.6658    2436.8377     85.55295 
   17600    2096.3672    -110.4322    1.8968371   -108.53536   -22702.537    4.4088567    4.4088567    4.4088567   -22702.537   -14059.067   -28733.882   -25314.661    16403.142   -4648.1674    896.70138    85.699431 
   17700    908.52953   -109.36762   0.82205661   -108.54557    8315.2125    4.4043453    4.4043453    4.4043453    8315.2125   -11968.915    17043.835    19870.718   -15567.868    21918.815   -18731.145    85.436624 
   17800     1905.169   -110.26238     1.723837   -108.53854   -13266.729    4.4193468    4.4193468    4.4193468   -13266.729   -21385.002   -6157.5079   -12257.676    13278.284   -5333.8307    6161.9638    86.312612 
   17900      1657.21   -110.02958    1.4994785    -108.5301     7392.816    4.4153424    4.4153424    4.4153424     7392.816    19006.673    257.16198    2914.6134   -882.90355    2547.7757   -1582.5782    86.078198 
   18000    1194.7832   -109.61355    1.0810649   -108.53248    8448.1793    4.4058953    4.4058953    4.4058953    8448.1793    -28969.39    26715.751    27598.177   -3611.0693    21380.881    -21413.88    85.526857 
   18100    1699.6304   -110.06086    1.5378613     -108.523    18097.146    4.4172112    4.4172112    4.4172112    18097.146    25014.046    36520.123   -7242.7317      17076.4   -10471.005   -11491.729    86.187539 
   18200    1121.6419   -109.53862    1.0148852   -108.52374   -9087.3342    4.4211204    4.4211204    4.4211204   -9087.3342   -29319.414    16819.604   -14762.192   -7604.5765    23490.453   -20173.627    86.416569 
   18300     1670.075   -110.01994    1.5111189   -108.50882   -2696.0077    4.4216952    4.4216952    4.4216952   -2696.0077    -16424.38    17386.714   -9050.3573    16993.305   -8539.8522   -23740.634    86.450281 
   18400    1942.5872   -110.26231    1.7576937   -108.50462    -33292.43    4.4140885    4.4140885    4.4140885    -33292.43   -49693.989   -10139.906   -40043.395    -1411.089    10794.247   -487.07909    86.004881 
   18500    1148.9328   -109.55604    1.0395785   -108.51646      26103.3    4.3956058    4.3956058    4.3956058      26103.3    10531.632    76396.878   -8618.6093   -10444.939    9457.1325   -17709.108    84.929042 
   18600     1314.107   -109.73133    1.1890317    -108.5423   -7680.1915    4.4265607    4.4265607    4.4265607   -7680.1915   -47603.506    85093.295   -60530.363    7402.0345    -2570.606   -12391.086    86.735976 
   18700    1013.2486   -109.43698   0.91680862   -108.52018   -18803.335    4.4316749    4.4316749    4.4316749   -18803.335    -93237.61    46711.197    -9883.592   -14595.734    18091.008   -15580.645    87.036956 
   18800    1900.8258   -110.22177    1.7199072   -108.50186   -5389.1078    4.3870712    4.3870712    4.3870712   -5389.1078   -17637.434   -6604.3789    8074.4895   -12490.007   -6338.9456   -15276.637    84.435298 
   18900    1441.3109   -109.82968    1.3041284   -108.52555    3972.5646    4.3868878    4.3868878    4.3868878    3972.5646   -31288.012    34279.151    8926.5547    -741.7663    18690.455   -12643.415    84.424708 
   19000    1376.2109   -109.79052    1.2452245    -108.5453   -27493.508    4.4222452    4.4222452    4.4222452   -27493.508   -82210.254     7148.376   -7418.6477   -40505.613    -3388.561    11197.266    86.482544 
   19100     1111.013   -109.53441    1.0052679   -108.52914   -3635.4982    4.4260679    4.4260679    4.4260679   -3635.4982   -55794.713    59956.867   -15068.649    3114.7102    14688.773    3189.8387    86.707012 
   19200    1135.8244   -109.53328    1.0277178   -108.50557    47640.839    4.4016097    4.4016097    4.4016097    47640.839   -14774.974    112003.78    45693.707   -16057.723    189.57066    28755.565    85.277524 
   19300    1132.5375   -109.54193    1.0247438   -108.51718    6494.7334     4.413503     4.413503     4.413503    6494.7334   -30362.924     54928.63   -5081.5055   -4271.4729    4193.1796    18371.216    85.970664 
   19400    1701.2051   -110.04359    1.5392861   -108.50431   -31300.426    4.4233137    4.4233137    4.4233137   -31300.426    -54237.17   -17360.259   -22303.848    8442.3941    2105.6681   -2320.6523    86.545249 
   19500    1378.4167   -109.75719    1.2472204   -108.50997   -13886.345    4.4129634    4.4129634    4.4129634   -13886.345   -44641.528   -24483.771    27466.265   -31896.142   -1918.2448    7387.5142    85.939133 
   19600    1238.1325   -109.63816    1.1202883   -108.51787   -4528.2032    4.3907664    4.3907664    4.3907664   -4528.2032   -7360.4867   -1580.0055   -4644.1173    1835.9557    20272.116    840.84078    84.648835 
   19700    1336.2109   -109.75344    1.2090317   -108.54441    14689.213    4.4047116    4.4047116    4.4047116    14689.213    -35317.34    45485.472    33899.508   -7012.0824   -10853.967   -10406.403    85.457941 
   19800     1051.467   -109.48951   0.95138947   -108.53812   -23902.602    4.4250471    4.4250471    4.4250471   -23902.602   -29668.725    21318.287   -63357.367   -27519.853    20420.086    6205.7067    86.647032 
   19900    1242.7561   -109.64936    1.1244718   -108.52489    8429.4479    4.4028157    4.4028157    4.4028157    8429.4479   -16497.325    70803.751   -29018.082    8613.7028    104.39303    8644.1158    85.347639 
   20000    1640.4198   -110.00739    1.4842863    -108.5231   -377.77596    4.3933329    4.3933329    4.3933329   -377.77596   -25067.778    25687.603   -1753.1531    14853.265    15372.842   -1579.1486    84.797361 
   20100    1421.4346   -109.81967    1.2861439   -108.53353   -27108.149    4.3974969    4.3974969    4.3974969   -27108.149   -33858.725   -7359.5636   -40106.159   -623.01037    26924.342    16462.393    85.038703 
   20200    1596.2428   -109.98261     1.444314    -108.5383   -14577.159    4.4176446    4.4176446    4.4176446   -14577.159   -32423.507    9923.2335   -21231.202    13550.339   -17965.252    151.13489    86.212914 
   20300    1174.8406   -109.59562    1.0630204    -108.5326   -31333.444    4.4246148    4.4246148    4.4246148   -31333.444   -83217.401    44814.385   -55597.315    5529.7812    40850.392   -6693.0734    86.621642 
   20400    1662.4571   -110.01791    1.5042261   -108.51368    24542.516    4.3835481    4.3835481    4.3835481    24542.516   -3924.0371    90625.181   -13073.595   -13154.073   -5562.0695     21225.69    84.232043 
   20500    1116.1326   -109.55494    1.0099002   -108.54504    -1559.781    4.3880737    4.3880737    4.3880737    -1559.781   -53147.365    22839.454    25628.568    29259.114    17359.624   -17204.788    84.493198 
   20600    1554.8945   -109.96002    1.4069012   -108.55312   -25455.934    4.4186035    4.4186035    4.4186035   -25455.934   -56884.346    25023.847   -44507.305   -4895.8029    17022.202    9365.1589    86.269068 
   20700    1145.1039   -109.58274    1.0361141   -108.54662    15469.667    4.4133982    4.4133982    4.4133982    15469.667   -9851.0465    86494.895   -30234.848   -7952.1055   -141.92553    21635.335    85.964538 
   20800    1043.7861   -109.47744   0.94443964     -108.533    44169.089    4.3907094    4.3907094    4.3907094    44169.089   -4994.3593    97349.461    40152.166    16931.466    28104.683    -301.6835    84.645539 
   20900     2144.311    -110.4763    1.9402176   -108.53608       -19687    4.4071744    4.4071744    4.4071744       -19687   -28107.305   -13740.333   -17213.361   -793.07533   -15342.647    9284.4095    85.601372 
   21000    966.53746   -109.42425   0.87454341    -108.5497    11283.862    4.4086893    4.4086893    4.4086893    11283.862    645.86989    75612.595   -42406.879    9989.2823    29163.408    230.49039     85.68967 
   21100     1766.239   -110.13654    1.5981302   -108.53841    -8360.247    4.4121511    4.4121511    4.4121511    -8360.247   -37613.141   -21654.867    34187.267    11658.948   -1379.4271   -11171.994    85.891687 
   21200    1309.5475   -109.72014    1.1849061   -108.53524    5281.1009     4.403931     4.403931     4.403931    5281.1009   -19600.333     45024.14   -9580.5037   -19997.486    17220.701    2450.6207    85.412514 
   21300    1244.2211   -109.66646    1.1257974   -108.54066    14645.753    4.3924216    4.3924216    4.3924216    14645.753   -30113.171    22543.518    51506.913     27052.37    17278.862     335.9978    84.744604 
   21400    1668.3312   -110.05335    1.5095412   -108.54381   -14653.959     4.408529     4.408529     4.408529   -14653.959   -38502.966   -3874.8163   -1584.0935   -1621.1971    4431.6956    -3430.266    85.680326 
   21500    1134.9694   -109.56961    1.0269442   -108.54267   -6299.0963    4.4035724    4.4035724    4.4035724   -6299.0963    -42260.67     34876.64   -11513.259   -5169.0953    22920.512   -2240.3286    85.391655 
   21600    1633.0422   -110.01296    1.4776109   -108.53535   -8023.9395    4.4022299    4.4022299    4.4022299   -8023.9395   -46803.043   -21224.932    43956.156    23014.089   -6759.0241    9659.8729    85.313579 
   21700    1404.4892   -109.81092    1.2708113   -108.54011   -13005.659    4.4029869    4.4029869    4.4029869   -13005.659   -35680.397     36264.84   -39601.421   -22410.567    30412.356    2494.5589    85.357595 
   21800    1216.2463   -109.65076    1.1004852   -108.55028    -791.5344    4.4007079    4.4007079    4.4007079    -791.5344   -26877.895    7719.3091    16783.983   -3350.6464    10907.853    23301.296    85.225124 
   21900    1639.8453   -110.02529    1.4837665   -108.54153    5258.8834     4.404685     4.404685     4.404685    5258.8834    17484.395    18990.379   -20698.123    12224.452    1648.9951    5336.3374    85.456393 
   22000    1100.5841   -109.53417   0.99583165   -108.53834   -27936.234     4.404733     4.404733     4.404733   -27936.234    -73026.76    5616.1785   -16398.119   -11048.592    38516.872   -1458.6398    85.459191 
   22100    1675.2101   -110.05082    1.5157653   -108.53505    6812.3667    4.3982178    4.3982178    4.3982178    6812.3667    3778.6119   -9959.8684    26618.356    484.43923   -677.51959    9951.7968    85.080529 
   22200    1254.4025   -109.67633    1.1350098   -108.54132    8702.2925    4.3983124    4.3983124    4.3983124    8702.2925   -13048.327    37487.428    1667.7766    2901.0655    21917.758   -7649.9226    85.086023 
   22300    1154.2057   -109.58119    1.0443496   -108.53684   -20885.751    4.4074927    4.4074927    4.4074927   -20885.751   -40745.858   -10404.055   -11507.341   -21487.536    8904.9717   -4317.3016    85.619918 
   22400    2020.1751   -110.34353    1.8278969   -108.51564    -12005.92    4.4027931    4.4027931    4.4027931    -12005.92   -8119.2338   -22970.579   -4927.9462    1562.4172   -474.49122    8011.2285    85.346329 
   22500    812.84232    -109.2704   0.73547681   -108.53493   -5746.3542    4.4007363    4.4007363    4.4007363   -5746.3542   -1844.7762     6688.225   -22082.511   -14572.854    35522.611   -6115.6496    85.226769 
   22600    1590.6061   -109.97516    1.4392138   -108.53595   -26002.627    4.3976833    4.3976833    4.3976833   -26002.627   -23447.794   -30596.197    -23963.89   -29207.161   -8993.2751     16230.76    85.049519 
   22700      1594.28   -109.98573    1.4425381   -108.54319    20378.843    4.3917382    4.3917382    4.3917382    20378.843    55833.551    13214.822   -7911.8439    16830.314    16541.592   -13186.134    84.705053 
   22800    1454.9289   -109.87319    1.3164503   -108.55674   -14739.552    4.3995072    4.3995072    4.3995072   -14739.552   -38395.794    30712.695   -36535.557    -17986.39    26938.393    1268.4421    85.155383 
   22900    1329.9226   -109.76011    1.2033419   -108.55677    -20445.66    4.3978469    4.3978469    4.3978469    -20445.66    14059.007   -55738.442   -19657.546   -15602.317   -17254.778    13211.286     85.05901 
   23000    1460.8177   -109.86727    1.3217786   -108.54549    28486.754    4.3862826    4.3862826    4.3862826    28486.754    52949.124    31527.839    983.29831    9000.7354    24045.982   -11987.389    84.389777 
   23100    1376.8108    -109.8043    1.2457673   -108.55854   -25869.157    4.4009595    4.4009595    4.4009595   -25869.157   -7493.3008   -27699.105   -42415.064   -12723.861   -15317.596     12654.53    85.239738 
   23200    1347.5688   -109.77786    1.2193086   -108.55855   -8508.9909    4.3986001    4.3986001    4.3986001   -8508.9909    22635.354   -24705.604   -23456.723   -3925.9114   -7576.4347    13408.351    85.102722 
   23300    2030.7403   -110.38038    1.8374565   -108.54293    22874.829    4.3802463    4.3802463    4.3802463    22874.829    40427.641    20745.777    7451.0705   -2208.5618    6897.1788   -4168.7436    84.041847 
   23400    728.72865   -109.23103   0.65936899   -108.57166   -33857.121    4.3925559    4.3925559    4.3925559   -33857.121    2616.6712    -74720.43   -29467.606   -22955.006   -7161.7677     21433.15    84.752378 
   23500    1384.0076   -109.81368    1.2522791    -108.5614   -2764.6228    4.3902998    4.3902998    4.3902998   -2764.6228    17669.772    7982.7886   -33946.429   -1845.5358   -16115.153    8865.3135    84.621855 
   23600     1988.796   -110.35036    1.7995044   -108.55086   -3585.8967    4.3845363    4.3845363    4.3845363   -3585.8967    5749.4847   -2143.1387   -14364.036   -5840.8107    13264.258   -5247.7428    84.289022 
   23700    725.42189   -109.22304   0.65637697   -108.56666   -36105.549    4.4008267    4.4008267    4.4008267   -36105.549   -10024.407   -49324.408   -48967.833   -21257.235   -18052.631    19142.409    85.232025 
   23800    1731.8481   -110.11029    1.5670126   -108.54327     9227.249    4.3903912    4.3903912    4.3903912     9227.249    23431.815     4327.518   -77.586383    5924.0965    1277.4329   -821.01745     84.62714 
   23900    1513.2628   -109.91616     1.369232   -108.54693   -14303.294    4.3945192    4.3945192    4.3945192   -14303.294    10314.611   -52252.275   -972.21776   -10842.548     -5385.64    1598.8898    84.866074 
   24000    855.80846   -109.32763   0.77435348   -108.55328   -22308.602    4.3989651    4.3989651    4.3989651   -22308.602    11410.052   -33190.696   -45145.161   -25430.133    -27004.29    12123.426    85.123909 
   24100    1889.4199   -110.25044    1.7095868   -108.54085     14936.85    4.3750878    4.3750878    4.3750878     14936.85    33951.512    16614.515   -5755.4766    6380.0026   -599.93921   -9393.3236    83.745275 
   24200    1270.1025   -109.72147    1.1492154   -108.57225   -4472.5272    4.3904462    4.3904462    4.3904462   -4472.5272    29404.781   -45366.697    2544.3345   -20439.326   -11901.524    9607.1442    84.630317 
   24300    1266.1381   -109.70552    1.1456284   -108.55989    -18631.51    4.4085605    4.4085605    4.4085605    -18631.51    25371.927     -36346.6   -44919.855   -3271.8239     -28849.4   -2707.6383    85.682159 
   24400    1710.6891   -110.09912    1.5478675   -108.55126    8288.2329    4.3868926    4.3868926    4.3868926    8288.2329    34400.212   -9228.9182   -306.59456    1213.6911    10027.027    4714.3266    84.424986 
   24500    1162.9195   -109.61247     1.052234   -108.56024    21358.708    4.3790104    4.3790104    4.3790104    21358.708    83047.388   -19601.323    630.06005   -23680.651    -5976.699     7053.652    83.970729 
   24600    1318.1358    -109.7618     1.192677   -108.56912   -25137.091    4.4000582    4.4000582    4.4000582   -25137.091   -23193.502   -33003.681   -19214.089   -1844.2283   -34124.554    -4651.061    85.187382 
   24700    1851.7856   -110.22692    1.6755345   -108.55139    18381.489    4.3871195    4.3871195    4.3871195    18381.489    62759.006   -24157.164    16542.624   -8314.4636    14750.865    7795.9734    84.438087 
   24800    744.58828   -109.24567   0.67371912   -108.57195   -30063.801    4.4003012    4.4003012    4.4003012   -30063.801   -20285.308   -46765.123   -23140.972   -20056.488   -17596.811    1329.9194    85.201492 
   24900    1462.7839    -109.8865    1.3235576   -108.56295   -24885.036    4.3884907    4.3884907    4.3884907   -24885.036   -17721.823    -21686.73   -35246.555    31997.894   -28844.998   -1730.4778    84.517287 
   25000    1556.6801   -109.96916    1.4085168   -108.56065     12400.24    4.3853756    4.3853756    4.3853756     12400.24    75683.867   -56982.631    18499.484   -29971.492    7853.9035    9339.0391    84.337438 
   25100    1218.7196   -109.67137    1.1027231   -108.56865   -35634.438    4.3917597    4.3917597    4.3917597   -35634.438   -44260.351   -39399.853    -23243.11   -15084.255   -32546.657   -2785.9969      84.7063 
   25200    1233.6893    -109.6824     1.116268   -108.56613    17254.015    4.3920575    4.3920575    4.3920575    17254.015    86284.516   -32213.053   -2309.4201    19091.995   -15776.671   -5729.4377    84.723532 
   25300    1732.2339   -110.12576    1.5673616    -108.5584   -16273.906    4.3981412    4.3981412    4.3981412   -16273.906   -13341.741   -45106.295    9626.3179   -26781.611    18425.697    3095.5816    85.076087 
   25400    979.91326   -109.44726   0.88664611   -108.56061    24897.221    4.3835244    4.3835244    4.3835244    24897.221    98106.744    -8887.202   -14527.879    14145.653    -33513.86    -1279.795    84.230674 
   25500    1882.3727    -110.2632    1.7032103   -108.55999   -3564.4985    4.3932716    4.3932716    4.3932716   -3564.4985    4190.7046   -14355.954   -528.24672    6135.0271    15683.916    -2805.906    84.793813 
   25600    1372.5188   -109.80209    1.2418839    -108.5602    2491.8607    4.3956147    4.3956147    4.3956147    2491.8607    27861.457   -19694.262   -691.61352     -21921.5    4363.1405    1739.8546    84.929557 
   25700    1179.6491   -109.64286    1.0673713   -108.57549   -15832.213    4.3969996    4.3969996    4.3969996   -15832.213    925.20529   -14323.321   -34098.524    6026.4332   -30540.148   -2750.6266    85.009857 
   25800    1462.2058   -109.89458    1.3230345   -108.57155    31435.998     4.395285     4.395285     4.395285    31435.998    98863.152   -6243.7339    1688.5754    5149.6059     21788.42    3585.1252    84.910444 
   25900    1326.7512   -109.77427    1.2004724    -108.5738   -7790.5113    4.3979855    4.3979855    4.3979855   -7790.5113    21214.318   -9790.0576   -34795.795   -4785.8939   -9369.7523   -2723.8884    85.067054 
   26000    1599.9918   -110.00723    1.4477062   -108.55953   -10064.822    4.3898533    4.3898533    4.3898533   -10064.822    29216.679   -38345.582   -21065.564    12765.551   -26788.286    1408.8078    84.596037 
   26100    1251.8964   -109.68518    1.1327421   -108.55244    4975.9262    4.4052637    4.4052637    4.4052637    4975.9262    47433.526   -33204.294    698.54634   -3488.1901    11004.872    3071.7796     85.49008 
   26200    1184.1387   -109.62489    1.0714335   -108.55346   -40559.176    4.4093708    4.4093708    4.4093708   -40559.176   -19681.189   -33531.268   -68465.072    500.49907   -57269.312   -8936.9584    85.729417 
   26300    1669.4869   -110.05538    1.5105868   -108.54479   -5690.8258    4.3828002    4.3828002    4.3828002   -5690.8258    40603.592   -47149.674   -10526.395    12461.196    4841.9015    7069.3894    84.188935 
   26400    1683.0864   -110.08261    1.5228919   -108.55972    24207.742    4.3843006    4.3843006    4.3843006    24207.742      80288.3    -8940.906    1275.8331   -5132.5331   -11361.468    1046.0184    84.275428 
   26500    833.28397   -109.33824   0.75397284   -108.58427   -19555.564     4.399205     4.399205     4.399205   -19555.564     43785.77   -44830.308   -57622.154    5736.3256   -15496.001   -12428.343    85.137834 
   26600    1340.2272   -109.79152    1.2126658   -108.57885    2115.1721    4.4040014    4.4040014    4.4040014    2115.1721    63213.281   -50058.804    -6808.961    7265.0843    3176.2321     15530.65    85.416614 
   26700    2101.0756   -110.46041    1.9010973   -108.55931    -513.9059    4.3985571    4.3985571    4.3985571    -513.9059    25716.805   -19705.794   -7552.7289   -4334.2437   -15953.332    -4309.505    85.100224 
   26800    926.91239   -109.40228   0.83868981   -108.56359    5321.7718    4.3817241    4.3817241    4.3817241    5321.7718    73566.044   -30693.312   -26907.417    4079.8306   -11950.054    15711.455    84.126939 
   26900    1507.3797   -109.91796    1.3639088   -108.55405    4389.9854    4.3956116    4.3956116    4.3956116    4389.9854    20247.657   -23925.473    16847.773   -11306.834    2646.9446    4222.3616    84.929374 
   27000    1123.8552   -109.56931    1.0168878   -108.55243    12490.999      4.40004      4.40004      4.40004    12490.999    106072.53   -42876.892   -25722.644   -14301.223    3133.1293     10918.35    85.186321 
   27100    1523.9256   -109.93139    1.3788799   -108.55251    5772.6545    4.3869605    4.3869605    4.3869605    5772.6545    27783.986   -31143.776    20677.753    3972.6515   -12490.878    16352.978    84.428907 
   27200    1724.3293    -110.1085    1.5602094   -108.54829    8664.9637    4.3899012    4.3899012    4.3899012    8664.9637    21390.689   -4634.7063    9238.9087   -6553.3022    29382.578    4311.0405    84.598808 
   27300    1175.8621   -109.61322    1.0639447   -108.54928   -4514.3656    4.3970226    4.3970226    4.3970226   -4514.3656    10669.956   -34681.537    10468.484   -8260.3859   -1477.5136    16926.642     85.01119 
   27400    1503.4866   -109.89988    1.3603863   -108.53949   -6109.3526     4.397847     4.397847     4.397847   -6109.3526    20205.581   -12397.667   -26135.971    2810.4043   -5255.2575    6604.6464    85.059013 
   27500    1214.3166    -109.6358    1.0987392   -108.53706   -15747.351    4.4003625    4.4003625    4.4003625   -15747.351   -5503.3175   -17050.863   -24687.871   -5962.5947    41013.959    11660.448    85.205054 
   27600     1689.238   -110.05866     1.528458   -108.53021    2938.1998    4.3868185    4.3868185    4.3868185    2938.1998   -27.760897   -7145.8534    15988.214   -11154.186   -16125.442    20476.025    84.420709 
   27700    1394.4054   -109.79738    1.2616873    -108.5357    15212.997    4.3770608    4.3770608    4.3770608    15212.997    37563.809    35085.952    -27010.77    7846.5258    32955.727   -14140.984    83.858622 
   27800    1096.0389   -109.54662   0.99171906    -108.5549   -33004.584    4.4034225    4.4034225    4.4034225   -33004.584   -40000.348   -30565.837   -28447.566    -18337.67    24888.011    14064.284    85.382936 
   27900    1703.5046   -110.07133    1.5413668   -108.52997   -1677.0088    4.3992226    4.3992226    4.3992226   -1677.0088    1983.7137   -23780.705    16765.965   -3393.1414   -154.88079    10854.725    85.138855 
   28000     1474.213   -109.86306    1.3338989   -108.52916   -14136.503    4.3902968    4.3902968    4.3902968   -14136.503   -7308.4721    4135.8461   -39236.883   -2230.9247    44287.528   -13152.944    84.621678 
   28100     1294.032    -109.7056    1.1708673   -108.53473   -1122.4625     4.393961     4.393961     4.393961   -1122.4625    15987.725    -46075.35    26720.237   -10688.102   -4503.3101    21616.171    84.833736 
   28200    1582.1344   -109.96044    1.4315484   -108.52889    7586.3669    4.3907225    4.3907225    4.3907225    7586.3669    23562.562    2422.3635   -3225.8247    6657.9243    23089.639    4492.8518    84.646296 
   28300    1240.3247   -109.66503    1.1222719   -108.54276   -24036.196    4.4008444    4.4008444    4.4008444   -24036.196   -35537.458   -27632.522   -8938.6099   -19772.732    17736.416   -3160.3735    85.233049 
   28400    1402.4596   -109.80777    1.2689749   -108.53879    5019.7165    4.3892954    4.3892954    4.3892954    5019.7165    42626.511   -34742.891      7175.53    1223.3394   -752.71906    11356.939    84.563791 
   28500    1416.4249   -109.82369    1.2816111   -108.54207    2568.6572    4.3855588    4.3855588    4.3855588    2568.6572    15218.596    20557.585   -28070.209    141.35261    37098.287   -9642.4561    84.348006 
   28600     1582.208   -109.97178    1.4316151   -108.54017    2895.0477    4.3938617    4.3938617    4.3938617    2895.0477    25158.728    595.69707   -17069.282   -10316.171    2257.8063    2503.4184    84.827985 
   28700    1011.4935   -109.45596   0.91522055   -108.54074     33980.31    4.3964727    4.3964727    4.3964727     33980.31    48882.845    47521.285    5536.7995    8782.2091    31776.802    2157.2394    84.979302 
   28800    1302.9309   -109.71268    1.1789193   -108.53376    5019.2695    4.4016826    4.4016826    4.4016826    5019.2695   -6428.9327    23953.503    -2466.762     8614.087     9035.237   -22603.292    85.281763 
   28900    1551.2675   -109.92436    1.4036194   -108.52074     12257.43    4.3894801    4.3894801    4.3894801     12257.43    29500.139    1604.2563    5667.8929    3840.2706   -2175.6019    5517.1454    84.574466 
   29000    1072.9883   -109.50932    0.9708624   -108.53846   -538.95148    4.3869812    4.3869812    4.3869812   -538.95148   -19145.704    9059.4126    8469.4371    7967.9682    46690.546   -13579.629    84.430101 
   29100    1704.0222   -110.07489    1.5418351   -108.53305    10221.621     4.398367     4.398367     4.398367    10221.621   -3538.1031    39573.095   -5370.1277   -551.48225   -18526.938    -21906.95     85.08919 
   29200    1337.6991   -109.74849    1.2103783   -108.53811   -9337.0252    4.3972011    4.3972011    4.3972011   -9337.0252   -32244.347    16820.371   -12587.099   -6292.2279    36907.865    15955.769    85.021543 
   29300    1391.7885   -109.79232    1.2593195     -108.533    4202.7185    4.3936286    4.3936286    4.3936286    4202.7185     1820.433   -6313.7683    17101.491    12427.111    14711.484    -14341.99    84.814482 
   29400    1725.3138   -110.08754    1.5611002   -108.52644   -3360.9354    4.3896694    4.3896694    4.3896694   -3360.9354   -30239.679    47848.656   -27691.784   -4806.1834    18173.026   -3509.6838    84.585408 
   29500    1083.8008    -109.5204   0.98064578   -108.53976   -16979.547    4.3910076    4.3910076    4.3910076   -16979.547   -48895.799    16788.612   -18831.455   -698.29953    41448.662   -2024.6602    84.662786 
   29600    1425.8693   -109.82749    1.2901565   -108.53734    -2552.414    4.3921259    4.3921259    4.3921259    -2552.414    5014.4459   -28413.952    15742.264    9317.3116   -15951.633   -12716.123    84.727492 
   29700    1223.4203    -109.6463    1.1069764   -108.53933    12216.397    4.3842439    4.3842439    4.3842439    12216.397   -44905.303    89146.773     -7592.28    8057.2711    48209.801   -3993.6637     84.27216 
   29800    1764.1305   -110.13596    1.5962223   -108.53974   -11125.091    4.3932276    4.3932276    4.3932276   -11125.091   -25096.503   -13205.808    4927.0368   -18148.849    8692.7216   -15062.351    84.791261 
   29900    976.67846   -109.42461    0.8837192   -108.54089   -15581.226    4.3969748    4.3969748    4.3969748   -15581.226   -20308.253    9462.6638    -35898.09    4422.1689    15379.947   -28297.935    85.008415 
   30000      1332.17   -109.74707    1.2053754   -108.54169   -8268.3336    4.3847255    4.3847255    4.3847255   -8268.3336   -20108.536    59999.798   -64696.262   -2982.1944    39297.763    8917.7619    84.299934 
   30100    1982.1467   -110.33387     1.793488   -108.54038   -1202.1791    4.3825786    4.3825786    4.3825786   -1202.1791   -1689.4557    9371.7402   -11288.822    91.390775   -7494.0582   -16370.286    84.176168 
   30200    902.91316   -109.38179    0.8169748   -108.56481   -15136.455    4.3857851    4.3857851    4.3857851   -15136.455   -29609.351    1156.9848   -16956.999    7104.0282    56831.578   -4054.9729    84.361061 
   30300    1770.9953   -110.15671    1.6024337   -108.55427   -11461.626    4.3988916    4.3988916    4.3988916   -11461.626   -12763.036   -3963.6078   -17658.235    9628.9111   -4325.0638    8751.1898    85.119642 
   30400    1257.9747    -109.6781    1.1382419   -108.53985    12.357389    4.4025551    4.4025551    4.4025551    12.357389   -17917.976    3873.4571    14081.591     -2187.62    17808.828   -15332.326    85.332488 
   30500    1005.8191   -109.44707   0.91008626   -108.53698    1793.4262    4.3905501    4.3905501    4.3905501    1793.4262   -14806.268    8167.7963    12018.751    3969.1238    38564.003   -13869.122    84.636328 
   30600    1978.0116    -110.3198    1.7897465   -108.53005    5337.2891    4.3879405    4.3879405    4.3879405    5337.2891    15597.594    3835.9982   -3421.7247    6441.8572     -13211.5    15154.733    84.485502 
   30700    1250.1967     -109.677    1.1312043    -108.5458    16934.421    4.3863458    4.3863458    4.3863458    16934.421   -20449.105    50330.995    20921.372   -2281.0388    30526.279   -15238.611    84.393423 
   30800    1071.2602   -109.52109   0.96929875   -108.55179   -9102.8817    4.3986753    4.3986753    4.3986753   -9102.8817    2034.0602   -18149.901   -11192.804    13589.676   -2200.4568   -1566.4426    85.107085 
   30900    1455.1563   -109.85904     1.316656   -108.54238   -11204.375    4.3985846    4.3985846    4.3985846   -11204.375   -29099.163    18752.215   -23266.177   -4500.5719   -249.25555    23561.333    85.101818 
   31000    1310.1953   -109.73237    1.1854922   -108.54688    16391.204    4.3781821    4.3781821    4.3781821    16391.204   -11454.305    44643.116      15984.8    161.26767     36924.98   -19289.886     83.92309 
   31100    1636.7513   -110.03335     1.480967   -108.55238   -1399.3376       4.3815       4.3815       4.3815   -1399.3376     3185.992   -18851.195     11467.19   -1502.2393   -10364.383   -8914.6691    84.114029 
   31200    1268.4953   -109.70567    1.1477612   -108.55791     2975.202    4.3982214    4.3982214    4.3982214     2975.202   -33416.526    870.85133     41471.28   -7466.0537    16169.786    12278.349    85.080739 
   31300    1015.3257   -109.47385   0.91868804   -108.55517   -24709.784    4.3996857    4.3996857    4.3996857   -24709.784   -20884.122    -4499.432   -48745.797    8287.8612    24154.737   -34371.284    85.165749 
   31400    1862.4622   -110.22293    1.6851949   -108.53774    949.40918    4.3766038    4.3766038    4.3766038    949.40918    2670.1941    8453.7304    -8275.697   -9806.8297   -13896.787   -3290.7843    83.832364 
   31500     1188.813   -109.62817     1.075663   -108.55251   -1419.6655    4.3867136    4.3867136    4.3867136   -1419.6655   -43671.863    31364.681     8048.185    2630.0334    27416.196    7847.8767    84.414652 
   31600    1529.1775   -109.93012    1.3836319   -108.54648   -31174.547    4.4020942    4.4020942    4.4020942   -31174.547   -27004.765   -30082.179   -36436.698    1148.0201   -13142.568   -46365.693    85.305687 
   31700    1592.5888    -109.9732    1.4410078   -108.53219    12129.623    4.3924827    4.3924827    4.3924827    12129.623   -455.41027    6988.4449    29855.835   -4159.3447    7241.7643    12678.978    84.748139 
   31800    970.41947   -109.41985   0.87805593   -108.54179   -25467.936    4.3834078    4.3834078    4.3834078   -25467.936    -28364.29    2242.8766   -50282.393    4947.1634    36343.796   -20744.269    84.223954 
   31900    1244.1226   -109.67786    1.1257083   -108.55215   -3692.7894    4.3812761    4.3812761    4.3812761   -3692.7894    28147.211   -23721.171   -15504.408   -6037.0535   -24581.537   -40175.981    84.101137 
   32000    2001.0194    -110.3551    1.8105644   -108.54453    132.19009     4.396026     4.396026     4.396026    132.19009    -33397.28    7743.4933    26050.357     6267.751    30752.881    14178.573    84.953401 
   32100    1177.1468   -109.61071    1.0651072    -108.5456   -24390.702    4.4018684    4.4018684    4.4018684   -24390.702   -26499.352    1869.9993   -48542.754   -4804.2667      4880.17   -36472.364    85.292565 
   32200    1378.3344   -109.77821    1.2471459   -108.53107    405.14231    4.3886442    4.3886442    4.3886442    405.14231   -757.37126   -135.66498    2108.4632     1256.191    -18594.84   -1886.5534    84.526157 
   32300    1736.5484   -110.10075    1.5712655   -108.52948    7028.4335    4.3794285    4.3794285    4.3794285    7028.4335    4801.2719    30104.655   -13820.626    -4971.601    16679.923    1215.9809    83.994784 
   32400    1218.5201   -109.65229    1.1025426   -108.54975   -30642.189    4.3955362    4.3955362    4.3955362   -30642.189   -18532.858   -34444.589   -38949.118   -2147.4101    -19858.92     -40409.7    84.925005 
   32500     1990.184   -110.33307    1.8007603   -108.53231   -3206.0284    4.3980111    4.3980111    4.3980111   -3206.0284   -26032.704    13105.336    3309.2826    3472.1245     3153.268    19940.807    85.068536 
   32600    1168.2311   -109.59141    1.0570401   -108.53437    8214.9273    4.3896623    4.3896623    4.3896623    8214.9273    27882.785    36871.622   -40109.626   -8921.8215   -5626.3086   -43664.649    84.584996 
   32700    1330.0003   -109.73519    1.2034122   -108.53178   -1634.4423    4.3905071    4.3905071    4.3905071   -1634.4423   -9632.9609    42321.697   -37592.063    10294.126    -12838.87   -15147.318    84.633839 
   32800    1500.0407   -109.88975    1.3572683   -108.53248    8765.2774    4.3902347    4.3902347    4.3902347    8765.2774    11248.414     21718.59   -6671.1716    461.07777   -2027.8391   -10198.199    84.618088 
   32900    1254.1631   -109.68334    1.1347932   -108.54855   -21408.418    4.3935884    4.3935884    4.3935884   -21408.418    16928.191   -48633.891   -32519.554    9159.6294    989.95297   -47756.998    84.812156 
   33000    2132.6281   -110.45628    1.9296467   -108.52663   -6214.8663    4.3928593    4.3928593    4.3928593   -6214.8663   -29553.153    15494.638    -4586.084     727.0192   -656.20671    15446.358     84.76994 
   33100    904.54513   -109.35613   0.81845144   -108.53768   -24623.099     4.398905     4.398905     4.398905   -24623.099   -1040.3488   -39626.068    -33202.88    1205.8445    5614.6219   -33972.753    85.120421 
   33200    1595.9678   -109.96981    1.4440652   -108.52575    -4411.919    4.4019495    4.4019495    4.4019495    -4411.919   -17277.694    21984.415   -17942.478    8079.6298   -338.06925    15830.096     85.29728 
   33300    1682.0916   -110.04077    1.5219918   -108.51878    -4132.387    4.4065969    4.4065969    4.4065969    -4132.387   -9824.6796    8480.2422   -11052.724    5739.0322    11436.925   -26575.359    85.567721 
   33400    1263.1079   -109.66153    1.1428865   -108.51865    -11568.62    4.4009971    4.4009971    4.4009971    -11568.62   -7174.1441    10866.308   -38398.025     1947.722    1330.8473   -25553.809    85.241924 
   33500     1364.815    -109.7461    1.2349133   -108.51119    12299.972    4.3897091    4.3897091    4.3897091    12299.972   -10071.143    44912.923    2058.1378    6844.4583    3705.0924    6659.6964    84.587699 
   33600    1096.0597   -109.51865   0.99173786   -108.52691    7078.3581     4.387859     4.387859     4.387859    7078.3581    18345.149   -19036.154    21926.079    3138.6528    7020.0568    -67671.93    84.480792 
   33700    1505.2053   -109.89295    1.3619414   -108.53101    13590.054    4.3922889    4.3922889    4.3922889    13590.054   -2831.1007   -5214.8269    48816.089    2146.9987   -2850.9341    13962.381    84.736922 
   33800    1676.3109   -110.05116    1.5167613   -108.53439   -19555.691    4.3954616    4.3954616    4.3954616   -19555.691   -16569.071   -30995.042    -11102.96    3562.9185   -2355.0461   -19374.241    84.920684 
   33900    1434.6199   -109.83118    1.2980742   -108.53311    13449.928    4.3847832    4.3847832    4.3847832    13449.928    14481.772   -9023.4723    34891.483    3552.2536   -4718.6723   -24446.931     84.30326 
   34000    1017.5515   -109.46244   0.92070201   -108.54174     13350.12    4.3824532    4.3824532    4.3824532     13350.12    7899.7468   -10526.131    42676.744    1981.4831    -10975.51    24601.479    84.168943 
   34100    1484.9686    -109.8957    1.3436308   -108.55207   -9256.9936    4.3927664    4.3927664    4.3927664   -9256.9936   -1744.0506   -35841.938    9815.0079    587.47577   -9569.2746   -11014.383    84.764561 
   34200    1370.8942   -109.79378    1.2404138   -108.55337    11142.505    4.3957592    4.3957592    4.3957592    11142.505   -24496.201    -13791.43    71715.147     7468.702    1449.0429   -14509.942    84.937932 
   34300     1773.881   -110.15087    1.6050448   -108.54582   -5608.5478    4.3936614    4.3936614    4.3936614   -5608.5478   -17517.378   -28337.576     29029.31    -4426.905   -829.38402     16471.57    84.816384 
   34400    1302.2931   -109.72742    1.1783422   -108.54908    2593.9599    4.3836135    4.3836135    4.3836135    2593.9599    1609.2109   -32259.868    38432.536    15112.073    -943.8314   -24696.372    84.235812 
   34500    1018.7382   -109.47658   0.92177577    -108.5548   -5338.8612    4.3772753    4.3772753    4.3772753   -5338.8612   -19418.843   -1190.5589    4592.8183    6988.9414     22269.15    114.69466    83.870957 
   34600    1427.0946   -109.85088    1.2912652   -108.55962   -14138.722    4.3921967    4.3921967    4.3921967   -14138.722    -5323.095   -30987.831   -6105.2397   -3848.9943    2465.3966    27327.497    84.731585 
   34700      1411.73   -109.83666    1.2773629    -108.5593   -2843.3891     4.390718     4.390718     4.390718   -2843.3891    -4968.353   -20430.868    16869.054    23059.483   -299.95281   -6958.3264    84.646038 
   34800    1400.8236   -109.82385    1.2674946   -108.55636    16214.187    4.3890621    4.3890621    4.3890621    16214.187   -13731.557   -257.34479    62631.464   -2906.5204    21921.509    -436.4299    84.550303 
   34900    1609.2298   -110.00581     1.456065   -108.54975   -9034.9811    4.3879293    4.3879293    4.3879293   -9034.9811    15230.967   -21671.995   -20663.915    1078.1737   -10881.158    40262.495    84.484856 
   35000    1186.3796   -109.62626    1.0734612    -108.5528    15247.818    4.3839381    4.3839381    4.3839381    15247.818   -14135.754   -3792.3413    63671.549    17153.332    409.33464    -25830.72    84.254528 
[...]
   91200    1416.5965   -109.83895    1.2817663   -108.55719   -2111.5115    4.3836499    4.3836499    4.3836499   -2111.5115    -7970.003   -43352.452    44987.921     979.0608    2227.1407    11347.837    84.237908 
   91300    1001.6734   -109.47507   0.90633519   -108.56874   -1007.4956    4.3873259    4.3873259    4.3873259   -1007.4956    49527.382   -79908.585    27358.716    10952.819     1194.604   -28082.128    84.450007 
   91400     1935.121   -110.30802    1.7509381   -108.55709    14541.443    4.3938518    4.3938518    4.3938518    14541.443    47496.685   -30606.834    26734.478   -11906.134   -12598.797   -6674.4097    84.827409 
   91500    1634.1398   -110.04527    1.4786041   -108.56667   -12502.956    4.3901979    4.3901979    4.3901979   -12502.956   -10303.164   -43837.574    16631.869    13477.747    12488.946   -10978.852    84.615963 
   91600    619.47302   -109.13607   0.56051221   -108.57556    250.94245    4.3735123    4.3735123    4.3735123    250.94245    29855.685   -64575.647    35472.788    6033.5854   -2082.8667    -29876.27    83.654837 
   91700     1786.298   -110.18603      1.61628   -108.56975   -65.518966    4.3903486    4.3903486    4.3903486   -65.518966   -6084.8525   -9882.0031    15770.299   -11519.082    8757.3021    21661.674    84.624675 
   91800    1664.1931   -110.06377    1.5057968   -108.55798   -11585.699    4.4022679    4.4022679    4.4022679   -11585.699   -3583.1951   -28663.538    -2510.365    8510.3095    13592.604   -25455.237    85.315786 
   91900    1176.9539   -109.62392    1.0649326   -108.55899    4448.2263    4.3820792    4.3820792    4.3820792    4448.2263    24702.793   -58399.474     47041.36    9396.2311   -7574.3431    7319.6532    84.147393 
   92000    1218.8231    -109.6657    1.1028168   -108.56288    15080.265    4.3766398    4.3766398    4.3766398    15080.265    35004.786   -29419.624    39655.632    -14935.51    19493.823     11288.98    83.834432 
   92100    1808.1481   -110.19478    1.6360504   -108.55873    14898.463     4.392556     4.392556     4.392556    14898.463    53784.757   -18023.893    8934.5235     11526.93    758.19922   -9826.6565    84.752386 
   92200    1159.3147   -109.61468    1.0489723    -108.5657    -10523.51    4.4004669    4.4004669    4.4004669    -10523.51    3507.2041    -49134.98    14057.245   -3213.2019   -9733.1381    22023.169     85.21112 
   92300    1080.2846   -109.53894   0.97746418   -108.56148    936.56271    4.3826354    4.3826354    4.3826354    936.56271    9539.1777   -11145.918     4416.428   -6609.5959    16341.606   -973.14531     84.17944 
   92400    2116.2738    -110.4594     1.914849   -108.54455     9958.266    4.3794719    4.3794719    4.3794719     9958.266    9087.8514   -1410.5559    22197.503    7671.1861   -6350.2711    9920.1475    83.997284 
   92500     1058.319   -109.51663   0.95758927   -108.55904   -11636.617    4.3983713    4.3983713    4.3983713   -11636.617   -20732.428    -37094.73    22917.308   -15103.858    -10506.75    11801.753    85.089442 
   92600    1077.9117   -109.53093    0.9753172   -108.55561    -18733.12    4.4021167    4.4021167    4.4021167    -18733.12    9291.2958    -41298.06   -24192.594    4702.3579    35338.426   -12398.365    85.306995 
   92700    1813.3733   -110.18787    1.6407783   -108.54709    23034.202    4.3756392    4.3756392    4.3756392    23034.202    70948.174   -4552.3662    2706.7993   -4257.3952   -8438.0714   -1687.1085    83.776942 
   92800    1183.7849   -109.63595    1.0711135   -108.56483    29560.552    4.3718422    4.3718422    4.3718422    29560.552    32140.667    6270.4892    50270.499   -27267.965    1482.5922    9971.4094    83.559041 
   92900    1045.7156   -109.51179   0.94618549    -108.5656   -40645.742     4.412394     4.412394     4.412394   -40645.742    -47372.17   -42223.613   -32341.443    7218.2298    24416.262   -18894.079    85.905875 
   93000    1898.2312   -110.26187    1.7175595   -108.54431   -3487.0864    4.3964208    4.3964208    4.3964208   -3487.0864    6418.7443   -11471.617   -5408.3865    2807.5885   -22692.618    -6146.848    84.976289 
   93100    1524.7922   -109.92539    1.3796641   -108.54573    28361.472    4.3649626    4.3649626    4.3649626    28361.472    42843.937    34858.917    7381.5608   -6900.7779     5682.936   -1483.1714    83.165187 
   93200    750.81052   -109.25762   0.67934913   -108.57827    13624.553    4.3736864    4.3736864    4.3736864    13624.553    86610.409   -18629.313   -27107.436    30194.227    17588.757    -23445.69    83.664825 
   93300    1754.8569    -110.1594    1.5878314   -108.57157    2111.1557    4.4022997    4.4022997    4.4022997    2111.1557    26858.577   -13618.965   -6906.1449    9808.3313   -18935.881    8629.1928    85.317637 
   93400    1402.9761   -109.82966    1.2694422   -108.56022   -5341.5742    4.4005894    4.4005894    4.4005894   -5341.5742    38493.839   -16261.762     -38256.8    1169.2005    2507.1688   -16964.568    85.218238 
   93500    1098.3937   -109.54595   0.99384972    -108.5521    5054.6606    4.3769798    4.3769798    4.3769798    5054.6606    11806.137    8169.5851   -4811.7404    21177.772     7200.637    8048.8487     83.85397 
   93600    1669.4485   -110.06349    1.5105521   -108.55293    5675.9575     4.377099     4.377099     4.377099    5675.9575   -3664.7621   -6533.6757     27226.31     -22434.1   -5872.1388    1112.8452    83.860818 
   93700    1305.3405   -109.74348    1.1810995   -108.56238   -4196.1972    4.4013175    4.4013175    4.4013175   -4196.1972    64008.303   -45383.733   -31213.161   -17312.711   -1802.6646   -9106.3319    85.260541 
   93800    1686.2277   -110.06192    1.5257343   -108.53619   -24238.218    4.4118452    4.4118452    4.4118452   -24238.218    277.91197   -58878.316   -14114.251     3038.571   -2597.0015    13501.418    85.873825 
   93900     1343.115   -109.75469    1.2152787   -108.53941    1168.8257    4.3815517    4.3815517    4.3815517    1168.8257    27899.874   -59409.896    35016.499   -30159.156   -5138.2378   -11559.069    84.117008 
   94000    1125.6648    -109.5604    1.0185252   -108.54187    26038.183    4.3596496    4.3596496    4.3596496    26038.183    72588.834   -2364.1563    7889.8717    9091.9036   -4637.6441    12324.721    82.861873 
   94100    1454.2619   -109.88366    1.3158468   -108.56781   -1676.6526    4.3911817    4.3911817    4.3911817   -1676.6526   -5466.7146    14406.829   -13970.072    2680.7887    14906.034    17255.133     84.67286 
   94200    1491.9258   -109.89689    1.3499258   -108.54697   -14756.576    4.4081916    4.4081916    4.4081916   -14756.576    -25234.37    -16552.12    -2483.237   -21035.655   -866.18844   -1942.7325    85.660657 
   94300    1198.3694   -109.63192    1.0843098   -108.54761    4405.0399    4.3794113    4.3794113    4.3794113    4405.0399    10994.982    27385.148   -25165.011    9547.8588    5121.3759    20808.653    83.993794 
   94400    1171.3181   -109.61111    1.0598332   -108.55128    3016.6154    4.3673536    4.3673536    4.3673536    3016.6154   -26129.036    29039.873    6139.0082   -25987.315    19504.757   -648.26453     83.30193 
   94500    1768.1611   -110.15694    1.5998693   -108.55707   -555.23626    4.3857042    4.3857042    4.3857042   -555.23626   -8844.1915   -17524.897    24703.379   -27577.526   -2026.7163   -4333.4333    84.356394 
   94600    1636.4535   -110.03625    1.4806975   -108.55555   -24179.874    4.4019078    4.4019078    4.4019078   -24179.874   -22375.092   -31204.495   -18960.035    2636.2375    12766.381    18204.398    85.294851 
   94700    853.61969   -109.33322   0.77237303   -108.56085   -31390.626    4.3927247    4.3927247    4.3927247   -31390.626   -56043.204   -17713.172   -20415.503   -41339.871   -3004.1847    -1075.196    84.762149 
   94800    1928.5703   -110.29097     1.745011   -108.54596    20949.623    4.3659125    4.3659125    4.3659125    20949.623    20305.185   -482.46253    43026.146   -13025.459    -3742.878    -2730.282    83.219499 
   94900    1487.3777   -109.90854    1.3458106   -108.56273    13224.583    4.3765088    4.3765088    4.3765088    13224.583   -9666.5156     27682.62    21657.645    10421.634    4326.3072    15574.738    83.826905 
   95000    776.08622   -109.27127   0.70221912   -108.56905   -25432.678    4.4044771    4.4044771    4.4044771   -25432.678   -19980.423   -36956.143   -19361.467   -30144.284   -8155.6363   -10449.839    85.444292 
   95100    1862.8579   -110.22773     1.685553   -108.54218    1931.0706    4.3968384    4.3968384    4.3968384    1931.0706   -9943.9702   -5636.8546    21374.037     18300.12   -871.40924   -4976.3766    85.000507 
   95200    1720.9674   -110.10857    1.5571675    -108.5514     26113.14    4.3633074    4.3633074    4.3633074     26113.14   -17335.296    61076.277    34598.439    7383.7631   -3490.8637    12587.391    83.070614 
   95300    755.34116   -109.26103   0.68344855   -108.57759    7327.6198     4.361557     4.361557     4.361557    7327.6198     4739.941    8649.4738    8593.4446   -27641.921    -2883.085   -19809.986     82.97068 
   95400     1557.109   -109.98693     1.408905   -108.57802   -19180.111    4.4009832    4.4009832    4.4009832   -19180.111   -15273.645   -32398.314    -9868.373    17734.065    4343.8131   -17964.368    85.241118 
   95500     2154.366   -110.50222    1.9493156    -108.5529   -13500.227    4.3996871    4.3996871    4.3996871   -13500.227   -14869.503   -31459.353    5828.1751   -13038.784    9577.1582   -108.39967    85.165828 
   95600    1043.1033   -109.50002   0.94382179    -108.5562   -5572.8582    4.3712497    4.3712497    4.3712497   -5572.8582    14675.866   -17949.175   -13445.265     -20014.2   -3787.2414   -21165.026    83.525067 
   95700     1374.373    -109.8009    1.2435616   -108.55734    16917.797     4.368723     4.368723     4.368723    16917.797   -1749.9753    51280.885    1222.4801    11472.831    23702.535   -3274.0828    83.380317 
   95800    1625.4379   -110.02612    1.4707304   -108.55539    2391.4257    4.3893254    4.3893254    4.3893254    2391.4257   -46026.044    25517.732    27682.588   -22383.795     11178.95   -959.38517     84.56552 
   95900     1338.535   -109.76803    1.2111346    -108.5569   -27925.487     4.398784     4.398784     4.398784   -27925.487   -43668.636    -25366.86   -14740.965   -615.91369    846.59342    -6469.718    85.113396 
   96000    889.95046   -109.37414   0.80524588   -108.56889   -6798.2665    4.3749089    4.3749089    4.3749089   -6798.2665   -52594.972    41554.536   -9354.3627     12624.02    25446.598    2794.8624    83.735001 
   96100    1976.9058   -110.34473    1.7887459   -108.55599     34772.98    4.3566613    4.3566613    4.3566613     34772.98    12956.012    43269.319    48093.608   -12184.599   -15988.906    11162.086    82.691602 
   96200    1519.1541   -109.95606    1.3745626    -108.5815   -7349.2152    4.3836835    4.3836835    4.3836835   -7349.2152   -37081.674   -1507.1455    16541.174    19184.454    17046.608   -4795.1975    84.239846 
   96300    530.81147   -109.05559   0.48028937    -108.5753   -16554.641    4.3981197    4.3981197    4.3981197   -16554.641   -39933.102    27030.684   -36761.506    14477.331   -4365.5138    4109.2541     85.07484 
   96400    1902.8035     -110.268    1.7216966   -108.54631    18076.435    4.3827223    4.3827223    4.3827223    18076.435    20697.067    35.834245    33496.403    1053.2833   -13333.702    418.85363    84.184449 
   96500     1789.105   -110.17117    1.6188198   -108.55235     1098.758    4.3722527    4.3722527    4.3722527     1098.758   -17697.022   -1138.1509    22131.447    17833.637    7881.0941    1248.2142    83.582577 
   96600    946.68103   -109.42759   0.85657689   -108.57101    11076.124    4.3705755    4.3705755    4.3705755    11076.124     -10458.7    32113.782     11573.29    4913.6592   -9819.8743    5151.8771    83.486427 
   96700    1283.8375   -109.73523    1.1616431   -108.57358    -12207.02    4.3879148    4.3879148    4.3879148    -12207.02   -2653.0333   -39431.306    5463.2785    2756.7609    4047.9541   -3989.5013     84.48402 
   96800    1570.8651    -109.9879    1.4213518   -108.56655   -14913.714      4.38687      4.38687      4.38687   -14913.714   -30486.647   -25377.306    11122.811    12401.892   -2553.6845   -747.48532    84.423683 
   96900    1726.5333   -110.12246    1.5622036   -108.56025    18098.155     4.367843     4.367843     4.367843    18098.155   -4636.4801    28662.718    30268.226   -2469.3851    -4066.633     -3660.51     83.32994 
   97000    1267.7854   -109.71841    1.1471189   -108.57129   -779.04273    4.3738675    4.3738675    4.3738675   -779.04273    32033.437   -33845.426   -525.13966    14112.115    4154.4176   -16755.771    83.675219 
   97100    1201.5626   -109.66447    1.0871991   -108.57727   -7035.4185    4.3823669    4.3823669    4.3823669   -7035.4185    24836.524   -56096.938    10154.158    18561.985   -1533.3424    5241.9721    84.163966 
   97200    1685.8165   -110.09507    1.5253622   -108.56971    11335.909    4.3834715    4.3834715    4.3834715    11335.909   -8860.2331    2208.8334    40659.128    -19741.36   -10254.339    1121.3683    84.227626 
   97300    1674.0802   -110.08592    1.5147429   -108.57117    10325.026    4.3747421    4.3747421    4.3747421    10325.026     21707.44   -22874.076    32141.714    22812.518   -322.70448    -12214.68    83.725429 
   97400    920.28391   -109.41651   0.83269222   -108.58382    -3336.683     4.369726     4.369726     4.369726    -3336.683    27743.382   -60920.002    23166.571    11904.874   -6428.2696      13525.1    83.437755 
   97500    1299.0745   -109.75964    1.1754299   -108.58421    12365.257    4.3800012    4.3800012    4.3800012    12365.257    530.71732    -10251.44    46816.493   -34899.566   -1163.4693    10961.927    84.027741 
   97600    2179.9915    -110.5378    1.9725021    -108.5653   -923.33465    4.3886831    4.3886831    4.3886831   -923.33465    18692.707   -17164.851   -4297.8606     23135.02    11423.043   -2774.3047    84.528404 
   97700    864.15455   -109.37063   0.78190519   -108.58872   -21285.132    4.3803441    4.3803441    4.3803441   -21285.132   -25179.514    -52434.35    13758.469   -20643.402   -10403.898    9801.6769     84.04748 
   97800    1133.2432   -109.61299    1.0253823   -108.58761    2793.8207    4.3642511    4.3642511    4.3642511    2793.8207    34761.151   -27388.915    1009.2256   -26140.938    6268.7017   -8446.1511    83.124526 
   97900    2185.9489   -110.54839    1.9778925    -108.5705    4438.0179    4.3761857    4.3761857    4.3761857    4438.0179    21004.409   -8994.5136    1304.1585    4578.8725   -4653.8095   -14652.273    83.808337 
   98000     1255.321    -109.7121    1.1358409   -108.57626   -2377.9555    4.3893094    4.3893094    4.3893094   -2377.9555   -20830.324   -25977.621    39674.078   -33727.885    -895.8573    6877.8249    84.564598 
   98100    757.17586   -109.25971   0.68510863    -108.5746   -7262.3639    4.3869408    4.3869408    4.3869408   -7262.3639    51607.912   -59582.265   -13812.739    1165.5485   -7754.7459   -19967.465    84.427771 
   98200    1857.1355     -110.246    1.6803752   -108.56562    12301.734    4.3728097    4.3728097    4.3728097    12301.734    16908.073    -16635.86    36632.989    8109.8827    5418.8669     15603.96    83.614526 
   98300    2037.2428   -110.41193    1.8433401   -108.56859    31892.882    4.3608451    4.3608451    4.3608451    31892.882    19599.434    29132.921    46946.291   -16280.048    12249.485   -12407.884    82.930061 
   98400    543.01066   -109.09741   0.49132745   -108.60608   -14080.678    4.3788111    4.3788111    4.3788111   -14080.678    60752.857   -61477.213   -41517.678    20533.396   -13157.726   -20038.871    83.959266 
   98500    1459.3162   -109.90777    1.3204199   -108.58735   -19810.683    4.3941544    4.3941544    4.3941544   -19810.683   -4511.9687   -34460.111    -20459.97    14391.966    15702.928    19968.762    84.844941 
   98600    2241.5993   -110.58738    2.0282461   -108.55914    3952.3457    4.3815931    4.3815931    4.3815931    3952.3457    15854.918   -22077.348    18079.467   -6804.7023   -3939.0796    -16888.29    84.119393 
   98700    974.72229   -109.44895   0.88194921     -108.567   -18312.974    4.3728715    4.3728715    4.3728715   -18312.974    30221.585   -57222.863   -27937.644    23396.097    -5363.773    13555.153    83.618069 
   98800    905.34186   -109.39555   0.81917234   -108.57638   -7789.1042    4.3728419    4.3728419    4.3728419   -7789.1042   -9602.6223   -19413.292     5648.602   -7189.5479    9082.0326    12888.464    83.616371 
   98900    2027.6478   -110.40818    1.8346583   -108.57352    6215.7839    4.3799975    4.3799975    4.3799975    6215.7839    20682.863   -19305.352     17269.84   -21459.272    -615.0977   -5112.4408    84.027526 
   99000    1683.6449   -110.09862    1.5233973   -108.57522    2410.1323    4.3863771    4.3863771    4.3863771    2410.1323    32715.803    78.183387    -25563.59    8877.0368   -823.86743    18427.814     84.39523 
   99100    518.41898   -109.05856   0.46907639   -108.58948   -276.43787    4.3760677    4.3760677    4.3760677   -276.43787    25387.755   -30684.855    4467.7858   -28591.713    14938.758    3015.3097    83.801558 
   99200    1675.5838   -110.08956    1.5161034   -108.57346    6373.5981    4.3740664    4.3740664    4.3740664    6373.5981    4497.5179   -12444.994     27068.27   -11459.096    10754.852   -13363.212    83.686639 
   99300    1934.3428   -110.31567     1.750234   -108.56543    8252.2791    4.3799519    4.3799519    4.3799519    8252.2791    19336.094    3908.6903    1512.0534     3211.575   -10475.892    10785.826    84.024904 
   99400     998.6985   -109.48659   0.90364339   -108.58295   -26845.679      4.37938      4.37938      4.37938   -26845.679   -21039.257   -60142.618    644.83641   -35128.179    12402.535   -5171.9056    83.991994 
   99500    1028.9479   -109.51568   0.93101371   -108.58466   -16603.247    4.3806975    4.3806975    4.3806975   -16603.247   -11341.918   -38276.583   -191.23831    12316.466    780.49444   -22883.375    84.067823 
   99600    2177.5887   -110.53522     1.970328   -108.56489   -1883.8445    4.3791865    4.3791865    4.3791865   -1883.8445   -5324.1609   -14092.998    13765.625    6925.9717   -28984.127    5761.4486    83.980862 
   99700    1222.0481   -109.68728    1.1057348   -108.58155    4533.4258    4.3745359    4.3745359    4.3745359    4533.4258    31745.832   -41429.502    23283.947   -19592.495    19782.978   -18012.155    83.713588 
   99800    943.46695   -109.43534   0.85366872   -108.58167    4561.9753    4.3809493    4.3809493    4.3809493    4561.9753    43014.938    -45931.03    16602.017    17604.594   -7210.3458   -7393.5696    84.082318 
   99900    1710.6599   -110.10426     1.547841   -108.55642   -961.40269    4.3931109    4.3931109    4.3931109   -961.40269    20309.703    -47196.98    24003.069    20770.343   -13222.127    222.41893     84.78451 
  100000    1495.3138   -109.91064    1.3529914   -108.55765    20394.232    4.3779909    4.3779909    4.3779909    20394.232    67368.938   -25164.096    18977.854   -15488.734    12346.571   -29381.799    83.912093 
Loop time of 21.5184 on 1 procs for 100000 steps with 8 atoms

Pair  time (%) = 6.45317 (29.9891)
Kspce time (%) = 5.3533 (24.8778)
Neigh time (%) = 0.120542 (0.560183)
Comm  time (%) = 0.901109 (4.18762)
Outpt time (%) = 0.0263808 (0.122596)
Other time (%) = 8.66388 (40.2627)

Nlocal:    8 ave 8 max 8 min
Histogram: 1 0 0 0 0 0 0 0 0 0
Nghost:    2033 ave 2033 max 2033 min
Histogram: 1 0 0 0 0 0 0 0 0 0
Neighs:    2053 ave 2053 max 2053 min
Histogram: 1 0 0 0 0 0 0 0 0 0

Total # of neighbors = 2053
Ave neighs/atom = 256.625
Neighbor list builds = 1521
Dangerous builds = 0
seeds:3694797
