# ['Ni']

28 atoms
1 atom types

    0.0000     2.4862 xlo xhi
    0.0000     4.3062 ylo yhi
    0.0000    28.4196 zlo zhi

    0.0000     0.0000     0.0000 xy xz yz

Atoms

1 1     0.0000     0.0000     0.0000
2 1     1.2431     2.1531     0.0000
3 1     1.2431     0.7177     2.0300
4 1     0.0000     2.8708     2.0300
5 1     0.0000     1.4354     4.0599
6 1     1.2431     3.5885     4.0599
7 1     0.0000     0.0000     6.0899
8 1     1.2431     2.1531     6.0899
9 1     1.2431     0.7177     8.1199
10 1     0.0000     2.8708     8.1199
11 1     0.0000     1.4354    10.1498
12 1     1.2431     3.5885    10.1498
13 1     0.0000     0.0000    12.1798
14 1     1.2431     2.1531    12.1798
15 1     0.0000     1.4354    14.2098
16 1     1.2431     3.5885    14.2098
17 1     0.0000     0.0000    16.2398
18 1     1.2431     2.1531    16.2398
19 1     1.2431     0.7177    18.2697
20 1     0.0000     2.8708    18.2697
21 1     0.0000     1.4354    20.2997
22 1     1.2431     3.5885    20.2997
23 1     0.0000     0.0000    22.3296
24 1     1.2431     2.1531    22.3296
25 1     1.2431     0.7177    24.3596
26 1     0.0000     2.8708    24.3596
27 1     0.0000     1.4354    26.3896
28 1     1.2431     3.5885    26.3896
