LAMMPS (10 Feb 2015)
# ---- initialize simulations
clear
units metal
dimension 3
boundary p p p
atom_style charge
atom_modify map array
# ---- create atoms
read_data /Users/eugeneragasa/pyflamestk_git/pypospack/tests/tests_integration/workflow/WorkflowLammpsThermalExpansion/MgO_NaCl_unit.npt.T800/lammps.structure
  triclinic box = (0 0 0) to (4.2565 4.2565 4.2565) with tilt (0 0 0)
  1 by 1 by 1 MPI processor grid
  reading atoms ...
  8 atoms
# ---- define interatomic potential
include potential.mod
mass 1 24.305
mass 2 15.999

group Mg type 1
4 atoms in group Mg
group O type 2
4 atoms in group O

set group Mg charge 1.7
  4 settings made for charge
set group O charge -1.7
  4 settings made for charge

variable R_cut equal 10.0

pair_style buck/coul/long ${R_cut}
pair_style buck/coul/long 10
pair_coeff 1 1 0.0 0.5 0.0 ${R_cut}
pair_coeff 1 1 0.0 0.5 0.0 10
pair_coeff 1 2 929.69 0.29909 0.0 ${R_cut}
pair_coeff 1 2 929.69 0.29909 0.0 10
pair_coeff 2 2 4870 0.2679 77 ${R_cut}
pair_coeff 2 2 4870 0.2679 77 10

kspace_style pppm 1.0e-5

neighbor 1.0 bin
neigh_modify every 1 delay 0 check yes
# ---- define settings
compute eng all pe/atom
compute eatoms all reduce sum c_eng
# ---- run minimization
reset_timestep 0
fix 1 all box/relax iso 0.0 vmax 0.001
thermo 10
thermo_style custom step pe lx ly lz xy xz yz press pxx pyy pzz pxy pxz pyz c_eatoms
min_style cg
minimize 1e-25 1e-25 5000 10000
PPPM initialization ...
  G vector (1/distance) = 0.353152
  grid = 8 8 8
  stencil order = 5
  estimated absolute RMS force accuracy = 4.10333e-05
  estimated relative force accuracy = 2.84961e-06
  using double precision FFTs
  3d grid and FFT values/proc = 3375 512
Neighbor list info ...
  1 neighbor list requests
  update every 1 steps, delay 0 steps, check yes
  master list distance cutoff = 11
Memory usage per processor = 4.06549 Mbytes
Step PotEng Lx Ly Lz Xy Xz Yz Press Pxx Pyy Pzz Pxy Pxz Pyz eatoms 
       0   -119.82944       4.2565       4.2565       4.2565            0            0            0   -43102.631   -43102.631   -43102.631   -43102.631 -1.1410716e-10 2.0651384e-11 1.0044018e-10   -119.82944 
       9    -119.8549     4.222448     4.222448     4.222448            0            0            0   -490.28356   -490.28356   -490.28356   -490.28356 -3.7927136e-11 -7.2182599e-11 3.2130495e-11    -119.8549 
Loop time of 0.113475 on 1 procs for 9 steps with 8 atoms

Minimization stats:
  Stopping criterion = linesearch alpha is zero
  Energy initial, next-to-last, final = 
        -119.829437963     -119.854898204     -119.854898204
  Force two-norm initial, final = 6.22404 0.0696885
  Force max component initial, final = 6.22404 0.069669
  Final line search alpha, max atom move = 1.75215e-06 1.2207e-07
  Iterations, force evaluations = 9 35

Pair  time (%) = 0.0137403 (12.1087)
Kspce time (%) = 0.00577569 (5.08983)
Neigh time (%) = 0 (0)
Comm  time (%) = 0.00219655 (1.93571)
Outpt time (%) = 0 (0)
Other time (%) = 0.0917625 (80.8658)

Nlocal:    8 ave 8 max 8 min
Histogram: 1 0 0 0 0 0 0 0 0 0
Nghost:    2189 ave 2189 max 2189 min
Histogram: 1 0 0 0 0 0 0 0 0 0
Neighs:    2344 ave 2344 max 2344 min
Histogram: 1 0 0 0 0 0 0 0 0 0

Total # of neighbors = 2344
Ave neighs/atom = 293
Neighbor list builds = 0
Dangerous builds = 0
unfix 1
# ---- define output variables ----
variable natoms equal "count(all)"
variable tot_energy equal "c_eatoms"
variable length_x equal "lx"
variable length_y equal "ly"
variable length_z equal "lz"
variable tilt_xy equal "xy"
variable tilt_xz equal "xz"
variable tilt_yz equal "yz"
variable tot_press equal "press"
variable press_xx equal "pxx"
variable press_yy equal "pyy"
variable press_zz equal "pzz"
variable press_xy equal "pxy"
variable press_xz equal "pxz"
variable press_yz equal "pyz"

# ---- output ----
print "pypospack:output_section:begin"
pypospack:output_section:begin
print "tot_energy = ${tot_energy}"
tot_energy = -119.854898204259
print "num_atoms = ${natoms}"
num_atoms = 8
print "xx = ${length_x}"
xx = 4.222448
print "yy = ${length_y}"
yy = 4.222448
print "zz = ${length_z}"
zz = 4.222448
print "xy = ${tilt_xy}"
xy = 0
print "xz = ${tilt_xz}"
xz = 0
print "yz = ${tilt_yz}"
yz = 0
print "tot_press = ${tot_press}"
tot_press = -490.283556338482
print "pxx = ${press_xx}"
pxx = -490.283556338668
print "pyy = ${press_yy}"
pyy = -490.283556338614
print "pzz = ${press_zz}"
pzz = -490.283556338163
print "pxy = ${press_xy}"
pxy = -3.79271362347293e-11
print "pxz = ${press_xz}"
pxz = -7.2182599384956e-11
print "pyz = ${press_yz}"
pyz = 3.21304951944417e-11
print "pypospack:output_section:done"
pypospack:output_section:done
print "pypospack:lammps_sim:done"
pypospack:lammps_sim:done
#------------------------------------------------------------------------------
# RUN THERMOSTAT
# running using an NPT Nose-Hoover style thermostat
#------------------------------------------------------------------------------
variable tempdamp equal 0.1
variable pressdamp equal 1.0
# set initial velocities
velocity all create 800 4640459 mom yes dist gaussian loop all
# fix for Nose-Hoover style thermostat
fix 20 all npt temp 800 800 0.1 aniso 0.0 0.0 1.0 drag 1.0 couple xyz
variable boxx equal lx
variable boxy equal ly
variable boxz equal lz
variable boxp equal press
variable boxt equal temp
# calculate averages every 10000 steps
reset_timestep 0
fix 21 all ave/time 10 10 100 v_boxx v_boxy v_boxz v_boxp v_boxt file lattice.out
thermo_style custom step temp pe ke etotal press lx ly lz press pxx pyy pzz pxy pxz pyz vol
thermo_modify flush yes
thermo 100
run 100000
PPPM initialization ...
  G vector (1/distance) = 0.353501
  grid = 8 8 8
  stencil order = 5
  estimated absolute RMS force accuracy = 4.03791e-05
  estimated relative force accuracy = 2.80417e-06
  using double precision FFTs
  3d grid and FFT values/proc = 3375 512
Memory usage per processor = 3.06549 Mbytes
Step Temp PotEng KinEng TotEng Press Lx Ly Lz Press Pxx Pyy Pzz Pxy Pxz Pyz Volume 
       0          800    -119.8549   0.72385681   -119.13104     9780.339     4.222448     4.222448     4.222448     9780.339     7332.403    8426.3793    13582.235    41.417621    98.615578    269.51559    75.282309 
     100    222.13268   -119.23618   0.20099032   -119.03519   -5269.7469    4.2559713    4.2559713    4.2559713   -5269.7469   -8057.8063   -6596.1606   -1155.2737    3595.0175    3357.2857    542.69104    77.089652 
     200    626.14075   -119.41333   0.56654531   -118.84679   -23348.775    4.2591479    4.2591479    4.2591479   -23348.775   -25682.504   -20920.786   -23443.035    1055.6523   -6652.0509   -4949.3952    77.262395 
     300    482.57141   -119.09991   0.43664075   -118.66327    40264.331    4.2381429    4.2381429    4.2381429    40264.331    10088.813    44345.314    66358.867    1627.0924    722.67436   -4164.5334     76.12491 
     400    954.53541   -119.39893    0.8636837   -118.53525   -17791.554     4.272867     4.272867     4.272867   -17791.554   -13757.477    -20220.17   -19397.015    3149.7371   -1087.4275    7401.4303     78.01141 
     500    568.64647   -118.95263   0.51452328   -118.43811    4910.4639    4.2693594    4.2693594    4.2693594    4910.4639   -30330.462    5358.6239     39703.23    -6523.509    2969.4102   -3425.4401    77.819446 
     600    753.19696   -119.06925   0.68150844   -118.38774    5305.7751     4.242952     4.242952     4.242952    5305.7751    3721.9105    10914.387    1281.0277    2057.1961   -5338.3123    11055.099    76.384347 
     700    856.81494   -119.17161   0.77526417   -118.39634   -8467.1804    4.2706281    4.2706281    4.2706281   -8467.1804   -16934.464   -26905.267     18438.19   -4718.3782   -7.9783237   -17.785404    77.888845 
     800    955.64465   -119.25254   0.86468736   -118.38786   -38948.923     4.282826     4.282826     4.282826   -38948.923   -45773.861   -49765.408   -21307.498   -9865.5767    14645.872   -796.51175    78.558157 
     900     648.6138     -118.969    0.5868794   -118.38212    18379.337    4.2393212    4.2393212    4.2393212    18379.337    9529.0121    19370.846    26238.152    5521.8623    11244.457    5149.9691    76.188419 
    1000    698.46153   -119.04612   0.63198267   -118.41413    20437.705     4.262238     4.262238     4.262238    20437.705    23653.501   -19055.853    56715.466   -5229.9627   -10393.889   -1120.3774    77.430681 
    1100    923.91879   -119.23232   0.83598114   -118.39634   -59872.622    4.2976719    4.2976719    4.2976719   -59872.622   -48921.321     -61179.9   -69516.645     1462.714   -2239.6539   -3817.7634    79.377928 
    1200    454.62284   -118.80835    0.4113523     -118.397    45225.543    4.2143548    4.2143548    4.2143548    45225.543    53160.591    44071.304    38444.733    2055.4651    11389.889   -15220.791    74.850254 
    1300    468.05301   -118.87646    0.4235042   -118.45296    25199.193    4.2555068    4.2555068    4.2555068    25199.193   -10125.821    23751.169    61972.231   -960.10875    19209.314    2592.4551    77.064414 
    1400    1041.8931   -119.32739   0.94272681   -118.38467   -68686.721    4.3086708    4.3086708    4.3086708   -68686.721   -88329.514   -67025.862   -50704.786   -3870.3954   -10292.801   -5433.4078    79.988942 
    1500    1071.3185   -119.31927   0.96935145   -118.34992    93170.064    4.1882967    4.1882967    4.1882967    93170.064     65107.88     99184.65    115217.66    1782.8082   -298.95948   -9057.7089    73.470385 
    1600    535.52302   -118.92608   0.48455248   -118.44152   -35106.994    4.2668124    4.2668124    4.2668124   -35106.994   -60805.522      1213.67   -45729.131    -582.4094    33106.667   -3991.2945    77.680258 
    1700    567.07733   -118.88598   0.51310348   -118.37288     -62695.7    4.2916836    4.2916836    4.2916836     -62695.7   -77906.193   -36943.359   -73237.548   -969.95148    15816.064   -10610.039    79.046584 
    1800    1034.9996   -119.25518   0.93648938   -118.31869    68863.395    4.2097039    4.2097039    4.2097039    68863.395    58301.263    82394.962    65893.961   -8616.6625   -14114.024    15339.253    74.602718 
    1900     1030.978   -119.29173   0.93285055   -118.35888   -41912.214    4.2782462    4.2782462    4.2782462   -41912.214   -50441.204   -28137.041   -47158.397    1382.7113    13089.687    7587.4328    78.306412 
    2000     714.3344   -119.02475   0.64634478   -118.37841    30046.022    4.2460255    4.2460255    4.2460255    30046.022    11580.924    47317.389    31239.752    5686.1868    18752.692   -10112.934    76.550459 
    2100    769.43755    -119.0912   0.69620327   -118.39499    10665.629    4.2496434    4.2496434    4.2496434    10665.629    15816.369    1022.9382    15157.579     603.9916    4425.7874   -171.65763    76.746304 
    2200    789.74572   -119.11213   0.71457853   -118.39755     -31225.2    4.2650285    4.2650285    4.2650285     -31225.2   -27259.824   -37004.331   -29411.445   -7031.1181   -6741.3015   -3504.4995    77.582867 
    2300    1012.7597    -119.2995    0.9163663   -118.38314      44618.4    4.2175788    4.2175788    4.2175788      44618.4    66975.769    40022.457    26856.972   -13038.859   -1221.6419    433.89584    75.022168 
    2400    762.05785   -119.09156   0.68952596   -118.40203   -54865.113    4.2851224    4.2851224    4.2851224   -54865.113   -52055.988   -38196.622   -74342.731    4931.4062    13646.966   -7604.0203    78.684589 
    2500    619.59129    -118.9813   0.56061922   -118.42069   -3134.5186    4.2402326    4.2402326    4.2402326   -3134.5186   -4668.4512    -883.1375   -3851.9671    7050.5802    15568.286   -16728.543    76.237568 
    2600    647.71131   -118.98581    0.5860628   -118.39975    45581.054    4.2191728    4.2191728    4.2191728    45581.054    22950.276    54694.975    59097.912   -5914.5271   -6354.6034   -5102.8203    75.107264 
    2700    773.54215   -119.06913    0.6999172   -118.36922   -55798.669    4.2906661    4.2906661    4.2906661   -55798.669   -72871.665   -43895.644   -50628.697   -8135.3152   -15382.178    8214.6733    78.990369 
    2800    983.83189   -119.25567   0.89019177   -118.36548    31638.878    4.2286348    4.2286348    4.2286348    31638.878    35817.367    45921.693    13177.573    2337.3842    144.75302   -1274.0715    75.613707 
    2900    736.27939   -119.05417   0.66620106   -118.38797    -430.0815    4.2480716    4.2480716    4.2480716    -430.0815     11333.33   -2298.0083   -10325.566    7299.5262    2303.9851   -8778.5012    76.661178 
    3000    792.43496   -119.10505   0.71701181   -118.38804   -15028.078    4.2598414    4.2598414    4.2598414   -15028.078   -23521.095   -20007.077   -1556.0615    17798.944   -5383.9747   -8818.4238     77.30014 
    3100    657.02402     -118.982   0.59448914   -118.38751    38743.906    4.2400506    4.2400506    4.2400506    38743.906    26329.448    66563.758    23338.512    -3285.097   -17992.985    3143.7618    76.227754 
    3200    915.16453   -119.21661    0.8280601   -118.38855   -32841.255    4.2667224    4.2667224    4.2667224   -32841.255   -32456.992   -22055.668   -44011.105   -9847.9423   -6634.4984    2445.4369    77.675343 
    3300    829.61391   -119.14022    0.7506521   -118.38957    40481.927    4.2220442    4.2220442    4.2220442    40481.927    36683.195    24548.505    60214.081    2420.8737    2636.2578   -4847.0834    75.260715 
    3400    794.44161   -119.13856   0.71882746   -118.41973   -15996.567    4.2612699    4.2612699    4.2612699   -15996.567   -30030.868   -21934.841     3976.009    15542.631   -6626.7568   -7039.2151    77.377934 
    3500    804.75247   -119.12533   0.72815695   -118.39717   -35877.072    4.2669133    4.2669133    4.2669133   -35877.072   -55129.787   -22251.886   -30249.542    4424.4757   -20196.594    537.20255    77.685767 
    3600    826.77945   -119.11814   0.74808742   -118.37005    41015.253    4.2143773    4.2143773    4.2143773    41015.253    38110.962    36349.324    48585.474   -10564.077   -1021.0324    11361.662    74.851454 
    3700    786.04121   -119.10256   0.71122661   -118.39134   -33696.631    4.2696598    4.2696598    4.2696598   -33696.631    -15480.85   -58158.152   -27450.892    5682.6317    6822.1165    10851.121    77.835876 
    3800    742.41842   -119.06245   0.67175579    -118.3907    3615.1544    4.2530421    4.2530421    4.2530421    3615.1544    23314.898   -30798.292    18328.857    8640.3215   -2401.5421    -8078.329    76.930584 
    3900    902.94456   -119.19956   0.81700321   -118.38256    18449.898    4.2364714    4.2364714    4.2364714    18449.898    22579.919    4041.0934    28728.682    5974.7705    -19068.82   -4846.5507    76.034873 
    4000    887.21825   -119.18844   0.80277371   -118.38566   -15097.518    4.2577168    4.2577168    4.2577168   -15097.518    -29673.98    -26726.32    11107.747   -6998.4188   -9226.1599    6752.0045     77.18454 
    4100    662.83096   -118.99325   0.59974338   -118.39351    8226.6547    4.2448787    4.2448787    4.2448787    8226.6547    4306.8703   -18859.602    39232.696    -2949.376    13867.238   -2642.3097     76.48845 
    4200    740.96901   -119.07056   0.67044433   -118.40012   -23747.489    4.2550999    4.2550999    4.2550999   -23747.489   -9622.4503   -40770.537   -20849.481    11623.576   -4427.7106   -13564.938    77.042306 
    4300    942.28799   -119.24694   0.85260198   -118.39433   -9125.2798    4.2425692    4.2425692    4.2425692   -9125.2798   -11398.995   -28663.558    12686.713    831.15971   -13870.302   -6205.7914    76.363673 
    4400    887.01387   -119.19972   0.80258879   -118.39713   -7493.8641    4.2494978    4.2494978    4.2494978   -7493.8641    132.69935   -16655.511   -5958.7806   -11741.366    7031.9519    6540.3431    76.738413 
    4500    634.95757     -118.974   0.57452295   -118.39948    4712.2035    4.2552564    4.2552564    4.2552564    4712.2035    24405.683   -19533.767    9264.6949   -7495.4888    461.72508   -13831.027    77.050811 
    4600    758.64731   -119.08146   0.68644003   -118.39502    16995.158    4.2436856    4.2436856    4.2436856    16995.158    35225.399   -21069.236    36829.311    9172.9656    9007.8712    -14425.55    76.423971 
    4700    850.73482    -119.1643   0.76976275   -118.39453    7491.1389    4.2467078    4.2467078    4.2467078    7491.1389    36193.426   -25789.683    12069.674   -5808.1665   -3950.4385    5011.2273    76.587365 
    4800    803.25986   -119.12373    0.7268064   -118.39693    2221.2481    4.2520267    4.2520267    4.2520267    2221.2481   -5073.6541   -13498.247    25235.645   -17214.227   -549.64888     5231.503    76.875501 
    4900    850.97503   -119.16508   0.76998009    -118.3951   -8481.0641    4.2531648    4.2531648    4.2531648   -8481.0641    49.704616   -22214.893   -3278.0038   -2688.6572    8003.2421   -13870.902    76.937243 
    5000    746.14515   -119.06928   0.67512781   -118.39415    6081.9515    4.2427842    4.2427842    4.2427842    6081.9515    15895.977    4441.9009   -2092.0229    4264.3617    128.30899    -10862.84    76.375282 
    5100    677.90948   -119.01055   0.61338674   -118.39717   -11377.376    4.2536829    4.2536829    4.2536829   -11377.376   -18676.841   -16477.515    1022.2271   -10178.217   -1631.8606    11607.797    76.965367 
    5200    798.56485   -119.11731   0.72255826   -118.39475   -10690.901    4.2556061    4.2556061    4.2556061   -10690.901   -18411.691   -29818.063    16157.052   -24645.719    848.19208    8612.7992    77.069804 
    5300    1039.7902   -119.33008   0.94082405   -118.38926    13946.179    4.2368529    4.2368529    4.2368529    13946.179    26610.706   -5714.2858    20942.118   -2581.8697   -5147.8563   -13277.639    76.055419 
    5400    848.23889   -119.16378   0.76750437   -118.39628   -6186.3203     4.253923     4.253923     4.253923   -6186.3203    2578.4876   -30750.602     9613.154    6791.4894   -3273.3232   -4447.3588    76.978397 
    5500    635.99243   -118.97141   0.57545932   -118.39595   -6684.3878    4.2542115    4.2542115    4.2542115   -6684.3878    5408.7008   -27853.414    2391.5497   -15899.957    7755.8398    16112.494    76.994064 
    5600    638.44904   -118.97165    0.5776821   -118.39397    14080.679    4.2453875    4.2453875    4.2453875    14080.679    24221.945    8878.9512    9141.1413   -13651.419   -10175.618    4012.8619    76.515957 
    5700    987.35685     -119.282   0.89338123   -118.38862   -11664.119    4.2598312    4.2598312    4.2598312   -11664.119   -16842.516   -7842.2092    -10307.63    9438.2008    1346.3876   -12867.734    77.299587 
    5800    936.42284   -119.23226   0.84729506   -118.38497    48.525816    4.2501982    4.2501982    4.2501982    48.525816     12561.52     1837.068   -14253.011    10056.842    7944.0233   -2653.9597    76.776367 
    5900    604.61647   -118.93645   0.54706969   -118.38938    3084.2685    4.2476571    4.2476571    4.2476571    3084.2685    11461.274    5878.2048   -8086.6736   -9064.5701   -5253.0723    20289.543    76.638738 
    6000    809.69115    -119.1242   0.73262557   -118.39157   -10195.479    4.2535794    4.2535794    4.2535794   -10195.479    5274.1423   -27635.198    -8225.381   -8809.2373    3279.4721    8713.5009    76.959748 
    6100    913.11329   -119.21749   0.82620409   -118.39129     10031.85      4.24638      4.24638      4.24638     10031.85    37164.247   -18062.576    10993.879    14237.633   -4443.7014    -11788.28    76.569633 
    6200    818.27742   -119.13335   0.74039461   -118.39296    -46.51235    4.2521964    4.2521964    4.2521964    -46.51235     14567.77   -4744.7728   -9962.5344    8691.6993     2795.622    13609.239    76.884706 
    6300    533.05013    -118.8744   0.48231496   -118.39209   -551.38687    4.2568872    4.2568872    4.2568872   -551.38687    9763.9573   -5058.5485   -6359.5693   -14432.395    8574.9732    20125.713    77.139429 
    6400    1054.6283   -119.33955   0.95424983    -118.3853    384.84908    4.2467115    4.2467115    4.2467115    384.84908   -3627.9877   -2687.8164    7470.3513   -6035.4487   -6934.3248   -3147.5749    76.587565 
    6500    927.43007   -119.22574   0.83915822   -118.38658   -521.65064     4.250113     4.250113     4.250113   -521.65064   -14646.369   -3740.8951    16822.313    8189.7281   -5739.2394   -9729.8585     76.77175 
    6600    535.15048   -118.87781    0.4842154    -118.3936   -6360.3873    4.2540855    4.2540855    4.2540855   -6360.3873   -14986.913   -9509.5687    5415.3196    9206.9721    8642.8604    14750.424     76.98722 
    6700    641.77751   -118.97646   0.58069378   -118.39577    283.67718    4.2511877    4.2511877    4.2511877    283.67718    4726.6419    7219.1493    -11094.76   -6781.6991     12765.63    14244.423        76.83 
    6800    1137.2747    -119.4195      1.02903   -118.39047    3700.6609    4.2471875    4.2471875    4.2471875    3700.6609   -4029.3479   -3843.2349    18974.566    -529.2748   -2294.5735   -4822.0725    76.613326 
    6900    880.04766   -119.19182   0.79628562   -118.39553    1865.1596    4.2518379    4.2518379    4.2518379    1865.1596    3191.0148   -4585.1051     6989.569    14667.014   -10412.514   -10868.057    76.865259 
    7000    479.34254   -118.83214   0.43371921   -118.39842    7041.4076    4.2483277    4.2483277    4.2483277    7041.4076    24755.638    1845.5791   -5476.9937    7740.1163    10458.538    21001.166    76.675045 
    7100    693.63446   -119.02422   0.62761503    -118.3966    1082.9811    4.2468566    4.2468566    4.2468566    1082.9811    1097.5271   -7748.4637    9899.8801   -2401.6506    17291.365    11794.228    76.595416 
    7200    1008.7573   -119.30562   0.91274484   -118.39288    -10901.71    4.2506158    4.2506158    4.2506158    -10901.71   -13911.922   -9451.0348   -9342.1716   -372.24212   -1731.0935   -15225.237    76.798999 
    7300    913.53142   -119.22035   0.82658243   -118.39377   -4743.6293    4.2442986    4.2442986    4.2442986   -4743.6293   -13935.864   -12509.237    12214.213    8834.3284   -13527.261    -242.4523    76.457096 
    7400    456.80062   -118.81637    0.4133228   -118.40304   -7099.7747    4.2540861    4.2540861    4.2540861   -7099.7747   -12623.281   -2966.3406   -5709.7028     1825.086    15473.591    25999.971    76.987256 
    7500    656.47071   -118.99349   0.59398849    -118.3995    1920.8921    4.2496338    4.2496338    4.2496338    1920.8921   -3016.1481    21373.184   -12594.359   -4355.4338    18613.017    18246.052    76.745784 
    7600     1175.985    -119.4548    1.0640559   -118.39074    112.33175    4.2473037    4.2473037    4.2473037    112.33175   -8902.5718    5217.7177    4021.8494   -1466.8683   -3760.9228    -8164.867    76.619611 
    7700    849.10915   -119.16113    0.7682918   -118.39284   -1766.4343    4.2591522    4.2591522    4.2591522   -1766.4343   -12585.158    12941.792   -5655.9362    2223.0909   -3721.1283    4087.6125    77.262627 
    7800    632.82613   -118.96664   0.57259438   -118.39405    2667.2649    4.2466133    4.2466133    4.2466133    2667.2649    29863.637    4969.9685    -26831.81    2186.2642    5500.8025    36125.717    76.582253 
    7900     689.8257   -119.02038   0.62416879   -118.39621    10293.073    4.2421415    4.2421415    4.2421415    10293.073    25221.107    3709.5537    1948.5587    5987.4203    9178.4765    7435.2734    76.340579 
    8000     1030.423   -119.32395   0.93234841    -118.3916   -20682.032    4.2588258    4.2588258    4.2588258   -20682.032   -22405.298   -16021.101   -23619.696   -2579.1153    10081.128   -27787.656    77.244866 
    8100    790.20794   -119.10601   0.71499675   -118.39101   -3592.9762    4.2480402    4.2480402    4.2480402   -3592.9762   -749.63215   -21001.908    10972.611   -366.87591   -6397.9863    9193.4319    76.659476 
    8200    732.45368   -119.05773   0.66273948     -118.395    5272.9732    4.2441648    4.2441648    4.2441648    5272.9732    11515.707    3228.0041    1075.2084    14462.218    2651.9622    29873.562    76.449865 
    8300    694.57344   -119.02281   0.62846464   -118.39435   -5183.3727    4.2569585    4.2569585    4.2569585   -5183.3727   -15642.159    22578.762   -22486.721    46.374038    17272.931    2578.8338    77.143306 
    8400    896.12181   -119.20156   0.81082985   -118.39073    2145.8709    4.2484058    4.2484058    4.2484058    2145.8709   -2472.0725    1063.0901     7846.595   -29.507249   -4349.4782   -22535.283    76.679272 
    8500    793.02728   -119.11149   0.71754775   -118.39394    13907.243    4.2402387    4.2402387    4.2402387    13907.243     11828.63    10142.045    19751.053    7718.2651   -2063.4193    11738.374    76.237898 
    8600    662.01311   -118.99681   0.59900337    -118.3978   -4154.6432    4.2566338    4.2566338    4.2566338   -4154.6432    -3072.137   -6753.8139   -2637.9787    3112.2805    5074.0309    38540.132    77.125653 
    8700    802.69112   -119.11673    0.7262918   -118.39044    -4920.757    4.2563001    4.2563001    4.2563001    -4920.757   -19798.401   -16407.217    21443.346       5734.6    563.14041    -2349.036    77.107516 
    8800    966.97509   -119.26028   0.87493938   -118.38534    4734.9285    4.2421288    4.2421288    4.2421288    4734.9285    12051.975   -12535.712    14688.522   -605.43254    11463.556    -18354.15    76.339893 
    8900     677.1745   -119.00935   0.61272172   -118.39663   -5596.4374    4.2526031    4.2526031    4.2526031   -5596.4374    5722.0105   -38375.963     15864.64     1530.962   -1680.0226    17822.646    76.906767 
    9000    703.09994   -119.03527    0.6361796   -118.39909    1293.7943    4.2493505    4.2493505    4.2493505    1293.7943     8672.034   -24265.318    19474.667    12747.205   -2509.9007    23377.068    76.730437 
    9100    864.59948   -119.17578   0.78230778   -118.39347    11885.285    4.2425132    4.2425132    4.2425132    11885.285    16808.362    10133.464    8714.0276    -3409.338    9624.1159   -6207.7301    76.360646 
    9200     747.2799   -119.07162   0.67615455   -118.39546   -469.20444    4.2579443    4.2579443    4.2579443   -469.20444    5290.2645   -19796.529    13098.652   -9743.6517   -559.09166    -16265.57    77.196911 
    9300     650.3706   -118.98268   0.58846898   -118.39421    5283.0222    4.2509883    4.2509883    4.2509883    5283.0222    24267.264    -14237.31    5819.1123   -613.30071   -7399.4085    11429.281    76.819193 
    9400    866.98027   -119.17382   0.78446197   -118.38936    4517.2972    4.2443163    4.2443163    4.2443163    4517.2972    24059.763   -13315.859    2807.9876    328.62849   -180.97366    17460.704    76.458052 
    9500    887.46602    -119.1927    0.8029979    -118.3897   -2300.9259    4.2534615    4.2534615    4.2534615   -2300.9259   -8032.8385   -18579.924    19709.985    5219.4968   -1716.6544   -22.395369    76.953349 
    9600    679.08154   -119.00829   0.61444725   -118.39385    1577.8307     4.253363     4.253363     4.253363    1577.8307    7748.7712   -5360.3652    2345.0862    -2516.312     11846.52    4529.8921    76.948001 
    9700    740.20269   -119.06188   0.66975095   -118.39213    8060.6403    4.2478696    4.2478696    4.2478696    8060.6403    25473.848   -21768.215    20476.288   -533.01222   -3824.4901    18358.935    76.650241 
    9800    873.13554   -119.18003   0.79003139      -118.39    87.773998    4.2482645    4.2482645    4.2482645    87.773998    16148.664   -34082.736    18197.393    5630.7265   -834.03601    7421.5851    76.671621 
    9900     793.5297   -119.11029   0.71800235   -118.39229   -3766.2012    4.2477898    4.2477898    4.2477898   -3766.2012    13694.603   -10177.057    -14816.15   -2313.7535    25572.088   -7496.7794    76.645923 
   10000    759.84587   -119.08319   0.68752451   -118.39567   -2596.3544    4.2524234    4.2524234    4.2524234   -2596.3544     7524.556   -7363.6212   -7949.9979    1699.1912    12526.322    2315.9308    76.897019 
   10100    947.26354   -119.24994   0.85710396   -118.39284   -16552.653    4.2520349    4.2520349    4.2520349   -16552.653     5768.407   -38444.102   -16982.264    4246.4784   -6889.1669    22908.788    76.875944 
   10200    774.06766   -119.09335   0.70039269   -118.39295   -3848.3943    4.2422325    4.2422325    4.2422325   -3848.3943    12118.072   -27606.749    3943.4939    4160.5953    8196.1182     8692.711     76.34549 
   10300    706.91509   -119.03774   0.63963163   -118.39811   -2885.3294     4.248729     4.248729     4.248729   -2885.3294   -6109.2255     31.26103   -2578.0238    5180.7618    14746.654   -9269.4381    76.696775 
   10400    878.83684   -119.19127   0.79519004   -118.39608   -4780.0021    4.2536343    4.2536343    4.2536343   -4780.0021    8627.3466   -12936.437   -10030.916     816.3384    11951.532    9085.9585    76.962726 
   10500    930.15344   -119.23378   0.84162238   -118.39215    12449.369     4.246389     4.246389     4.246389    12449.369    19510.073   -5584.3365    23422.371    2121.4755   -12119.659    27558.913    76.570121 
   10600    734.24821   -119.05545   0.66436321   -118.39109   -8851.5934     4.256006     4.256006     4.256006   -8851.5934     6314.351   -13587.504   -19281.628    3090.8043    5533.9431     3472.462    77.091538 
   10700    751.22528   -119.06986   0.67972442   -118.39013     456.6211    4.2484945    4.2484945    4.2484945     456.6211    9305.1417    7719.1154   -15654.394   -1541.9148    30956.689   -14190.378    76.684075 
   10800    979.94186   -119.27956   0.88667199   -118.39289   -13364.602    4.2536028    4.2536028    4.2536028   -13364.602   -11905.972    1105.0267   -29292.861    241.21111     5625.961    3156.0194    76.961019 
   10900    979.42995   -119.27722    0.8862088   -118.39101    -14324.87    4.2520796    4.2520796    4.2520796    -14324.87   -3242.5298   -27545.929    -12186.15   -4201.9859   -8942.9781    18851.767    76.878369 
   11000    731.96166   -119.05431   0.66229429   -118.39202   -770.66754    4.2469234    4.2469234    4.2469234   -770.66754   -7208.1088   -255.58273    5151.6889    1589.8029    16407.608    749.51371    76.599035 
   11100    628.59076   -118.96304   0.56876213   -118.39428   -12806.067    4.2605015    4.2605015    4.2605015   -12806.067    -38856.15    11859.001   -11421.052    6497.6287    21412.835   -13547.824     77.33608 
   11200    991.79977   -119.28264   0.89740128   -118.38524    5060.2782    4.2454488    4.2454488    4.2454488    5060.2782    2997.2892      12060.2    123.34595    -3176.081   -1202.4959    2245.6677    76.519268 
   11300    988.88317   -119.28039   0.89476228   -118.38562   -5136.3517    4.2490904    4.2490904    4.2490904   -5136.3517   -8600.1166   -7522.5691    713.63069    3704.0998   -2551.6878    21621.764    76.716346 
   11400    579.40598   -118.91957   0.52425871   -118.39531   -12551.352    4.2521046    4.2521046    4.2521046   -12551.352   -16812.791   -7568.0725   -13273.192    5456.6293    23202.057    2490.0462    76.879726 
   11500    630.74166   -118.96694   0.57070831   -118.39623    23337.593    4.2368267    4.2368267    4.2368267    23337.593    5907.0915    26687.516    37418.173    813.03925    23936.736    -10980.71    76.054006 
   11600    1033.6007    -119.3302   0.93522366   -118.39497   -14265.516    4.2621853    4.2621853    4.2621853   -14265.516   -26429.142    -13119.95   -3247.4566    2525.0031   -12923.459   -4855.3549     77.42781 
   11700    990.24341   -119.28817   0.89599305   -118.39218    16403.061    4.2405934    4.2405934    4.2405934    16403.061    16034.983    15430.288    17743.911   -3897.1755    -7331.334    3997.9023    76.257031 
   11800    640.39982   -118.98201   0.57944721   -118.40256    6854.8819     4.242971     4.242971     4.242971    6854.8819    10640.559    9520.4643    403.62299    436.28928     30850.58    5922.2357    76.385369 
   11900    573.76757   -118.91708   0.51915695   -118.39792    -15088.96    4.2605364    4.2605364    4.2605364    -15088.96   -26031.964   -10442.711   -8792.2058    11470.848    24098.164   -6577.9515    77.337981 
   12000    859.74331   -119.16814   0.77791381   -118.39023    21610.429    4.2379068    4.2379068    4.2379068    21610.429    26697.901    4291.5783    33841.808    4254.8794   -20938.197   -12640.531    76.112188 
   12100    975.79254    -119.2746    0.8829176   -118.39168   -9296.5478    4.2513571    4.2513571    4.2513571   -9296.5478    3902.5356   -23607.778   -8184.4015    1567.8962    -5931.285    1361.4416    76.839186 
   12200    679.65568   -119.00941   0.61496674   -118.39444    810.71953    4.2514286    4.2514286    4.2514286    810.71953    6388.3521   -6883.2967    2927.1032    4580.3271    32455.161    4629.7573    76.843061 
   12300    700.18335   -119.03027   0.63354061   -118.39673   -2054.6594    4.2452011    4.2452011    4.2452011   -2054.6594   -8505.7125   -1154.4683    3496.2026    13095.808    14126.344    -5196.407    76.505878 
   12400    770.13073   -119.09241   0.69683047   -118.39558   -3867.0939    4.2488488    4.2488488    4.2488488   -3867.0939     12895.33   -25420.275    923.66432    10055.973   -11370.466   -15602.551    76.703261 
   12500    898.00649   -119.20748   0.81253515   -118.39494   -5191.6716    4.2484167    4.2484167    4.2484167   -5191.6716    11827.659   -17682.093   -9720.5807    -5006.001   -2808.6097   -1368.5441     76.67986 
   12600    755.69194   -119.08092   0.68376595   -118.39716    3145.0014    4.2493193    4.2493193    4.2493193    3145.0014    3252.5861    3210.3254    2972.0928    5184.3228    16269.522    10626.962    76.728748 
   12700    910.36419   -119.21695   0.82371665   -118.39323   -4538.4803    4.2523596    4.2523596    4.2523596   -4538.4803    6632.4424   -15348.475   -4899.4084    11288.339    13181.555   -10044.141    76.893557 
   12800    786.62335   -119.10209   0.71175333   -118.39034    4105.6176    4.2514332    4.2514332    4.2514332    4105.6176    22901.868   -19651.041    9066.0265   -1740.9419   -8928.6818   -17463.383    76.843314 
   12900    788.59591   -119.10319   0.71353816   -118.38965   -1393.7819    4.2519941    4.2519941    4.2519941   -1393.7819    17952.154     -11410.5       -10723   -4463.8539    1140.9012    6202.3262    76.873729 
   13000    773.86847   -119.08789   0.70021245   -118.38767     3193.373    4.2516298    4.2516298    4.2516298     3193.373    15766.882    14223.103   -20409.866   -5498.8825     22753.66    18121.149    76.853973 
   13100    888.93351   -119.19274   0.80432572   -118.38841   -4459.2452    4.2485141    4.2485141    4.2485141   -4459.2452   -3319.7131    9712.9626   -19770.985    3511.0921    1227.2102   -14667.342    76.685137 
   13200    760.78874   -119.08054   0.68837764   -118.39216   -1981.7355    4.2463616    4.2463616    4.2463616   -1981.7355    21200.791   -19056.088   -8089.9099    9664.4196   -6977.9133   -20363.641    76.568636 
   13300    824.01746   -119.13672   0.74558832   -118.39113   -11065.564    4.2559405    4.2559405    4.2559405   -11065.564   -2212.9264   -23200.869   -7782.8977   -4035.5803    10095.557    9431.2951    77.087979 
   13400      912.043   -119.21343   0.82523568    -118.3882   -7554.7463    4.2520245    4.2520245    4.2520245   -7554.7463   -25246.868   -579.81906    3162.4478    1580.9677    14564.144    9064.1608    76.875379 
   13500    747.20865   -119.06489   0.67609009    -118.3888    10728.472    4.2474112    4.2474112    4.2474112    10728.472   -5571.4577    13070.266    24686.607    10048.093   -2774.2036   -15171.942    76.625429 
   13600    672.79879   -118.99653   0.60876248   -118.38777   -8053.1514     4.261319     4.261319     4.261319   -8053.1514   -17045.476   -19721.732    12607.754     3465.289    -8101.806    -21620.95    77.380607 
   13700    764.88698   -119.07805   0.69208581   -118.38596    8876.7769    4.2463277    4.2463277    4.2463277    8876.7769   -4786.6266      6614.04    24802.917   -1080.7821    5507.3446    11286.595    76.566805 
   13800    922.88875   -119.22443   0.83504914   -118.38938    791.04064    4.2429445    4.2429445    4.2429445    791.04064    -13664.13    21398.907   -5361.6551    1950.1685     16476.14    15404.703    76.383939 
   13900    632.77901   -118.96854   0.57255175   -118.39598   -2424.3256    4.2546772    4.2546772    4.2546772   -2424.3256   -9585.7511    7977.5711   -5664.7968    -1892.005   -5106.9261   -16881.542    77.019349 
   14000     557.1611   -118.90349   0.50413108   -118.39936   -901.67267    4.2501329    4.2501329    4.2501329   -901.67267   -12010.476    7211.9916    2093.4667    12059.904   -11725.324   -15236.641    76.772828 
   14100     958.3543   -119.26245   0.86713911   -118.39531    7759.7281    4.2409542    4.2409542    4.2409542    7759.7281     8872.553    12834.827    1571.8041    13656.116    9313.9924    6380.5163    76.276499 
   14200    1241.1799   -119.51662    1.1230456   -118.39357   -1749.6587    4.2501169    4.2501169    4.2501169   -1749.6587   -8599.4281    10765.431    -7414.979   -6604.5562    -677.8576    6337.7433    76.771961 
   14300    734.70028    -119.0649   0.66477225   -118.40013   -12587.351    4.2543356    4.2543356    4.2543356   -12587.351   -16171.764   -2191.5897   -19398.701    3509.9529   -6167.2245   -15961.856    77.000801 
   14400    334.16649   -118.70297   0.30236086   -118.40061     4448.215    4.2445297    4.2445297    4.2445297     4448.215    3728.8979   -9755.0821    19370.829    13156.766    -4224.964   -19891.764    76.469584 
   14500    967.18659   -119.27172   0.87513075   -118.39659   -11866.335    4.2524929    4.2524929    4.2524929   -11866.335    -28481.83   -7648.2474    531.07152     9303.165     -5404.83    6154.4336    76.900791 
   14600    1104.1866   -119.38879   0.99909126    -118.3897   -11665.504    4.2575125    4.2575125    4.2575125   -11665.504   -15263.076   -7497.8929   -12235.543    -6712.313    6305.1281    3927.0668    77.173429 
   14700    617.00939   -118.95151   0.55828307   -118.39323    11182.605    4.2429139    4.2429139    4.2429139    11182.605    23238.069   -1791.4466    12101.192   -770.13503    1356.6144    -17087.48    76.382289 
   14800    444.17781   -118.80095   0.40190142   -118.39904    1047.0519    4.2497656    4.2497656    4.2497656    1047.0519   -14062.824   -6798.4619    24002.442    23106.969   -7787.7141   -16921.171    76.752923 
   14900    859.85259   -119.17041    0.7780127    -118.3924   -14485.799    4.2584525    4.2584525    4.2584525   -14485.799   -39821.871   -21262.225      17626.7    15590.115    2851.5305    4266.9345    77.224554 
   15000    1179.1803   -119.45061    1.0669471   -118.38366   -3287.6853    4.2465089    4.2465089    4.2465089   -3287.6853    2776.9064   -13698.607    1058.6442   -6201.1086    7094.8115    11294.618    76.576608 
   15100    659.16694   -118.98973    0.5964281    -118.3933   -10994.806    4.2563834    4.2563834    4.2563834   -10994.806   -26572.263   -26212.897    19800.742    13541.714   -4880.6159   -4717.8532    77.112047 
   15200    626.11617    -118.9603   0.56652307   -118.39377   -885.98305    4.2502715    4.2502715    4.2502715   -885.98305    -8635.768   -13893.785    19871.604    25863.046   -1369.3428   -10402.776    76.780336 
   15300    1028.5528   -119.31632   0.93065617   -118.38566    11324.213    4.2436131    4.2436131    4.2436131    11324.213    28067.225   -1164.7227    7070.1352    2184.9443    -2465.737    7485.3678    76.420055 
   15400    871.14972   -119.17718   0.78823458   -118.38894    3893.9748    4.2555467    4.2555467    4.2555467    3893.9748    7522.6137   -3821.3496    7980.6603   -16095.127   -1680.2742    4020.7901    77.066581 
   15500    670.81534   -118.99791   0.60696782   -118.39094    6830.8106     4.252367     4.252367     4.252367    6830.8106    17502.544    3809.1111   -819.22267    2022.2477   -5348.9495    -17243.82    76.893961 
   15600     619.0687   -118.95242   0.56014637   -118.39227    6535.1951    4.2502434    4.2502434    4.2502434    6535.1951    34350.468   -21798.511     7053.629     11710.93   -10143.742   -20188.566    76.778815 
   15700     1016.018    -119.3064   0.91931439   -118.38709   -10130.868    4.2537072    4.2537072    4.2537072   -10130.868   -14874.642   -22042.511    6524.5484    2101.4512    6236.3386    7269.1413    76.966683 
   15800    872.94659   -119.17731   0.78986042   -118.38745   -7628.4725    4.2502075    4.2502075    4.2502075   -7628.4725    10184.262    -24515.67    -8554.009   -9218.7731    4126.3926   -3780.1275    76.776868 
   15900    681.88948    -119.0076   0.61698793   -118.39061   -6757.9241    4.2461399    4.2461399    4.2461399   -6757.9241    12269.459   -41022.834    8479.6035    3434.7742    622.33915    -33062.07    76.556646 
   16000    826.98865   -119.14156   0.74827671   -118.39328    -7380.865    4.2513765    4.2513765    4.2513765    -7380.865   -14380.266   -20751.909     12989.58     15694.56    6396.8538   -6922.8792    76.840238 
   16100    920.89681   -119.22493   0.83324679   -118.39168    2136.9561    4.2520873    4.2520873    4.2520873    2136.9561    6950.6977    960.24508   -1500.0745   -6482.0754   -1348.6057    13570.059    76.878784 
   16200    565.36362   -118.90808   0.51155288   -118.39653     12507.44    4.2494301    4.2494301    4.2494301     12507.44    35784.445   -14258.356    15996.232   -15439.105    6989.9755   -14503.706     76.73475 
   16300    489.86078   -118.84206   0.44323633   -118.39882    6468.0099    4.2555791    4.2555791    4.2555791    6468.0099    17988.512   -1443.6012    2859.1188    -2422.561    6073.5502   -24880.359    77.068341 
   16400    1230.6165   -119.50034    1.1134877   -118.38685   -6896.5321    4.2486019    4.2486019    4.2486019   -6896.5321    -3803.078    -7451.143   -9435.3752    6097.5765   -4817.2348    1480.1416     76.68989 
   16500    1114.9906   -119.39886    1.0088669      -118.39    4628.3387    4.2446833    4.2446833    4.2446833    4628.3387   -6525.7593    7832.1846    12578.591    3709.4834   -387.19275    -1359.732    76.477887 
   16600    470.51454     -118.826   0.42573144   -118.40027   -9410.0572    4.2600021    4.2600021    4.2600021   -9410.0572    5024.2372   -26343.846   -6910.5627   -8699.4669   -1089.4207   -31692.758    77.308893 
   16700    628.79473   -118.96191   0.56894669   -118.39296    10261.097    4.2490391    4.2490391    4.2490391    10261.097    35096.074   -32790.829    28478.047    -7450.357    3587.3116   -13032.873    76.713569 
   16800    1111.5067   -119.39136    1.0057147   -118.38564    3083.6361    4.2464739    4.2464739    4.2464739    3083.6361    8819.9707   -861.79743    1292.7349   -1086.5519   -3636.7019     16758.96    76.574713 
   16900    756.44315   -119.07624   0.68444566   -118.39179   -4491.8938    4.2503235    4.2503235    4.2503235   -4491.8938   -1218.4069    -12464.32    207.04604    6090.5733   -8553.2795    -13134.74    76.783154 
   17000    594.97373    -118.9361   0.53834474   -118.39775   -1164.7449    4.2496532    4.2496532    4.2496532   -1164.7449    15278.369   -35679.432    16906.829   -7491.5126   -1742.2284   -23627.883    76.746834 
   17100    972.33486    -119.2739   0.87978901   -118.39411    -15245.44    4.2529927    4.2529927    4.2529927    -15245.44   -12223.509   -31506.535   -2006.2771   -10033.102     5367.003    4800.0966    76.927904 
   17200    1093.6232   -119.37842   0.98953326   -118.38889    694.23652    4.2449595    4.2449595    4.2449595    694.23652   -6493.2272   -5431.6644    14007.601    11808.824    1128.0054    13508.678    76.492818 
   17300    660.54338   -118.99603   0.59767353   -118.39835    7575.2023    4.2496217    4.2496217    4.2496217    7575.2023    15424.542    2367.8655    4933.1993    10540.972   -7985.9326   -9827.3781    76.745128 
   17400    480.15905   -118.83272     0.434458   -118.39826    1487.5101    4.2580454    4.2580454    4.2580454    1487.5101    -4610.591    5621.8413    3451.2801   -6065.1712   -10735.664   -19238.546    77.202411 
   17500    827.76145   -119.14418   0.74897596    -118.3952    15916.815    4.2396209    4.2396209    4.2396209    15916.815     12989.87    2460.6487    32299.927   -17115.983   -4774.4493     2175.177    76.204581 
   17600    997.16705   -119.29661    0.9022577   -118.39435      13430.2    4.2431615    4.2431615    4.2431615      13430.2    30019.401   -2862.6273    13133.826    3551.8177    1487.6635    8205.5414    76.395658 
   17700    737.79396   -119.06364   0.66757148   -118.39607   -15866.517    4.2661834    4.2661834    4.2661834   -15866.517    -17094.12   -20644.289   -9861.1405    22629.581   -5174.7049   -7245.8085    77.645908 
   17800     643.1965   -118.97471   0.58197771   -118.39274    7532.6741    4.2434551    4.2434551    4.2434551    7532.6741   -1911.2617    3807.8479    20701.436    109.74935   -8605.0721   -13411.545    76.411517 
   17900    1088.5304   -119.37299   0.98492514   -118.38807   -839.94312    4.2420745    4.2420745    4.2420745   -839.94312    4797.9986   -6966.6333    -351.1946    -12373.83    1232.2805   -3443.0328    76.336963 
   18000    959.97724    -119.2556   0.86860758   -118.38699   -15166.624    4.2658163    4.2658163    4.2658163   -15166.624   -30820.722   -21719.971    7040.8206    4178.9769    415.67726    1178.1711    77.625866 
   18100     392.9028   -118.74667   0.35550671   -118.39116    7977.9937    4.2540667    4.2540667    4.2540667    7977.9937    14741.292     6654.158    2538.5311    11375.779   -12702.404   -22818.374      76.9862 
   18200    537.56683   -118.87838   0.48640176   -118.39198    17496.273    4.2424794    4.2424794    4.2424794    17496.273    38968.794    1928.0889    11591.936    3763.0456   -8996.0263   -20861.344    76.358826 
   18300    1208.8442    -119.4775    1.0937876   -118.38371   -5569.8398    4.2557964    4.2557964    4.2557964   -5569.8398   -1730.8771   -14439.852   -538.79071   -3080.1799    1696.0482     2634.942    77.080144 
   18400    917.64251   -119.21247   0.83030223   -118.38217   -31516.947    4.2679099    4.2679099    4.2679099   -31516.947   -30430.222    -27937.34    -36183.28     2612.743    2552.6131   -3667.3284    77.740215 
   18500    462.90099   -118.80385   0.41884254     -118.385    -2095.846    4.2433752    4.2433752    4.2433752    -2095.846    11254.017   -20103.942    2562.3869    14095.966    826.75401   -23529.529    76.407201 
   18600    998.80502   -119.29164   0.90373977    -118.3879    7608.7589    4.2453693    4.2453693    4.2453693    7608.7589     9303.146    4751.3667     8771.764    9617.3824   -4829.4084   -381.35165    76.514974 
   18700    980.81921    -119.2674   0.88746583   -118.37993   -25999.133     4.273291     4.273291     4.273291   -25999.133   -20652.184   -22967.746   -34377.469   -7979.3257    5681.2177    14058.756    78.034633 
   18800    515.92667   -118.85239   0.46682129   -118.38557    22889.857    4.2343049    4.2343049    4.2343049    22889.857    40540.989    19295.078    8833.5037   -9104.5322    1556.7407   -12304.458    75.918282 
   18900    629.46633   -118.96574   0.56955436   -118.39618    4462.4157     4.243931     4.243931     4.243931    4462.4157    1115.2746    16800.566   -4528.5934    70.870352     -11461.5   -23939.791    76.437232 
   19000    1019.7857   -119.30743   0.92272356   -118.38471   -26001.534    4.2625347    4.2625347    4.2625347   -26001.534   -36738.511   -15701.649   -25564.442    10017.311   -4338.7073    4748.5347    77.446854 
   19100    854.99916   -119.15698   0.77362121   -118.38335    9901.0058     4.237954     4.237954     4.237954    9901.0058    17151.464   -5426.9517    17978.506    5782.9599    13116.137    20561.108     76.11473 
   19200    572.89115   -118.91337   0.51836395     -118.395   -14707.923    4.2510378    4.2510378    4.2510378   -14707.923    3978.5053    -30323.83   -17778.446     1484.266    5396.9175   -11223.061    76.821872 
   19300    883.99059   -119.19425   0.79985326   -118.39439    3561.6337    4.2453291    4.2453291    4.2453291    3561.6337    4240.0421   -7267.2088    13712.068   -1233.8986     2169.248   -25409.903    76.512797 
   19400    1039.9512    -119.3362   0.94096966   -118.39523   -1525.9401    4.2540581    4.2540581    4.2540581   -1525.9401   -16867.133   -5773.1311    18062.444   -1935.4997     1140.775    5668.6942    76.985733 
   19500     690.1725   -119.01489   0.62448258   -118.39041   -10578.036    4.2581586    4.2581586    4.2581586   -10578.036   -30090.106     1098.009   -2742.0102   -23.477715    7098.6969    18293.849     77.20857 
   19600    516.08603    -118.8537   0.46696549   -118.38673    20343.975    4.2412692    4.2412692    4.2412692    20343.975    9751.4631    16569.176    34711.285    329.16912    2534.3927   -8438.4033    76.293497 
   19700    842.52344   -119.14908   0.76233291   -118.38675   -16908.187    4.2622315    4.2622315    4.2622315   -16908.187    -23253.54   -16062.766   -11408.256   -2120.0057   -3726.5231   -20735.714    77.430329 
   19800    1000.8144   -119.29174   0.90555794   -118.38618    2814.3854    4.2442654    4.2442654    4.2442654    2814.3854   -21154.355    19041.745    10555.766   -4155.5036    4619.9853    7318.8743    76.455298 
   19900    767.22382   -119.08487   0.69420023   -118.39067    3545.4514    4.2395297    4.2395297    4.2395297    3545.4514   -2008.7978    10505.386    2139.7664    656.26715     7277.579    21655.064     76.19966 
   20000    640.85921   -118.97557   0.57986288   -118.39571   -12089.883    4.2540808    4.2540808    4.2540808   -12089.883    1764.3947    -30569.32   -7464.7243   -1137.6156    1493.0083   -2567.0603    76.986967 
   20100    875.34729   -119.18654   0.79203263    -118.3945    197.79094    4.2470178    4.2470178    4.2470178    197.79094   -10805.203   -5087.9223    16486.498   -5704.5208    -5983.304   -22151.302     76.60414 
   20200    985.95805   -119.28425   0.89211557   -118.39214   -13955.391    4.2507875    4.2507875    4.2507875   -13955.391   -31211.606   -12032.541    1377.9737   -5015.6372   -8978.9593   -2491.0956    76.808308 
   20300    899.13996   -119.20248   0.81356073   -118.38892   -10537.171    4.2526409    4.2526409    4.2526409   -10537.171   -15752.376   -8660.5044    -7198.634    2030.0489    4272.5358    16762.808     76.90882 
   20400    586.38398   -118.92465   0.53057255   -118.39408   -4312.4365    4.2533271    4.2533271    4.2533271   -4312.4365   -2339.0076   -10003.047   -595.25526   -348.62085   -3467.4669   -1632.7679    76.946054 
   20500    664.12522   -118.99608   0.60091446   -118.39517    16066.447    4.2411997    4.2411997    4.2411997    16066.447   -2026.4448    23741.234    26484.551   -8194.0619   -12725.026   -18705.502    76.289746 
   20600    937.37177   -119.24255   0.84815367   -118.39439    5359.0216    4.2481514    4.2481514    4.2481514    5359.0216   -27534.364    23915.989    19695.439   -6992.7606   -2760.5326   -3292.3907    76.665497 
   20700    875.47997   -119.18698   0.79215267   -118.39483   -4710.9656    4.2519969    4.2519969    4.2519969   -4710.9656   -17283.514   -15875.588    19026.205    1311.5739    5855.6142    14318.476    76.873881 
   20800    720.75199   -119.04944   0.65215154   -118.39729    10386.835    4.2373807    4.2373807    4.2373807    10386.835     25347.34   -20652.209    26465.375    10197.309   -5373.1372    3697.3734    76.083846 
   20900    662.32089   -119.00049   0.59928186   -118.40121   -15442.643    4.2521524    4.2521524    4.2521524   -15442.643    4977.6592   -45084.741   -6220.8474   -4621.3139   -10937.853   -17622.244    76.882318 
   21000    882.59585   -119.19249   0.79859128    -118.3939   -18852.567    4.2511419    4.2511419    4.2511419   -18852.567   -28229.823   -30748.346    2420.4687   -18952.008    3904.0593   -9369.5483    76.827517 
   21100    929.56664    -119.2333   0.84109143    -118.3922    -5455.868    4.2462493    4.2462493    4.2462493    -5455.868   -5149.3364    -5498.711   -5719.5567   -7406.4993    9281.8933     6751.179    76.562564 
   21200    879.34335   -119.18969   0.79564834   -118.39405    -3565.444    4.2507342    4.2507342    4.2507342    -3565.444    11502.104   -10987.191   -11211.245    13107.437    2204.8216   -6583.5856    76.805415 
   21300    635.97671   -118.97038   0.57544509   -118.39493    16630.466    4.2442241    4.2442241    4.2442241    16630.466    29876.754   -14841.368    34856.011   -274.68216   -2547.0214   -12122.035    76.453071 
   21400    529.92963   -118.87894   0.47949146   -118.39945     4345.672    4.2524755    4.2524755    4.2524755     4345.672   -5160.8251    538.20476    17659.636   -30191.646    4254.7335   -4412.4092    76.899846 
   21500    882.42755   -119.19863   0.79843899   -118.40019    6011.7514    4.2434495    4.2434495    4.2434495    6011.7514   -9861.9908    21131.371    6765.8739     -15783.5    9079.8843    5172.9579    76.411216 
   21600    1161.9371   -119.44782    1.0513451   -118.39648    8289.0313     4.239843     4.239843     4.239843    8289.0313     8906.664    6227.6334    9732.7967    15231.556    -1236.091   -576.60204    76.216556 
   21700     643.3657   -118.98403   0.58213081    -118.4019   -21064.687    4.2607411    4.2607411    4.2607411   -21064.687   -21566.804    -38510.38    -3116.876   -2791.0383    -4199.555    -5484.066    77.349128 
   21800     384.2291   -118.75172   0.34765857   -118.40406    4373.8818    4.2425622    4.2425622    4.2425622    4373.8818    19904.324   -31885.006    25102.328   -38063.322    446.12552   -5782.6472    76.363295 
   21900    796.30822   -119.12412   0.72051641    -118.4036    8528.8811    4.2395248    4.2395248    4.2395248    8528.8811    23877.044   -12592.168    14301.768   -9449.1856    9194.5949   -2331.7464    76.199398 
   22000     1160.509   -119.44206    1.0500529   -118.39201   -17892.098    4.2586096    4.2586096    4.2586096   -17892.098   -996.74359   -25731.418   -26948.133    9139.0159     5448.467    1126.8745    77.233102 
   22100    681.50571   -119.01218   0.61664069   -118.39554    5854.4474    4.2497109    4.2497109    4.2497109    5854.4474    37268.965    -18446.04   -1259.5832   -29212.046   -3593.4753   -6664.0783    76.749963 
   22200    507.21733   -118.85782    0.4589409   -118.39888    918.36114    4.2467233    4.2467233    4.2467233    918.36114    6431.1706   -12722.424    9046.3364   -37303.627    4137.5068     -4454.54    76.588206 
   22300    818.31457   -119.13594   0.74042822   -118.39552    10249.254    4.2456565    4.2456565    4.2456565    10249.254    22135.329   -78.357254    8690.7904    7668.1744    10831.024   -1218.9573    76.530504 
   22400    881.56011   -119.18577   0.79765411   -118.38811   -10945.543    4.2625206    4.2625206    4.2625206   -10945.543   -4116.0214   -10254.482   -18466.124    13472.793   -642.00294    866.63051    77.446084 
   22500    835.42797   -119.14403   0.75591278   -118.38812   -7737.4303     4.250972     4.250972     4.250972   -7737.4303   -17793.715   -3413.8496   -2004.7262   -27070.812   -10157.122    -2657.312    76.818309 
   22600    857.14196   -119.16219   0.77556005   -118.38662    17536.519    4.2362416    4.2362416    4.2362416    17536.519    18724.218    7484.5735    26400.765   -19062.914    3951.4368   -8380.7912    76.022504 
   22700    829.71274   -119.13947   0.75074152   -118.38873   -15891.893    4.2635662    4.2635662    4.2635662   -15891.893   -21890.828   -14333.137   -11451.713    11247.452    14823.047   -2115.3721    77.503092 
   22800    770.24871   -119.08388   0.69693722   -118.38694    3844.7798     4.247121     4.247121     4.247121    3844.7798   -22084.416    8738.0749     24880.68   -623.04326    1500.7273    5510.3281    76.609725 
   22900    800.36503   -119.11243    0.7241871   -118.38824    6221.1975    4.2423436    4.2423436    4.2423436    6221.1975   -20111.838    939.17723    37836.253    -27838.11    -4558.165    8010.5097    76.351491 
   23000    723.42822   -119.04246   0.65457306   -118.38789   -16645.742    4.2617898    4.2617898    4.2617898   -16645.742   -35071.333    6915.5347   -21781.428   -12554.796    12652.715   -2747.2746    77.406256 
   23100    706.08121   -119.02342   0.63887712   -118.38454    853.59635    4.2523883    4.2523883    4.2523883    853.59635   -10264.719    19632.514    -6807.006    10747.642    11630.328   -9547.2877    76.895115 
   23200    931.31305   -119.22304   0.84267162   -118.38036   -7516.4105    4.2515187    4.2515187    4.2515187   -7516.4105   -13069.891   -16814.703    7335.3626   -6995.8457   -1998.4833   -959.74054    76.847948 
   23300     1011.021   -119.29743   0.91479308   -118.38263    3351.5683    4.2447404    4.2447404    4.2447404    3351.5683    1831.6851   -6119.0873    14342.107   -15942.774    2440.9194   -1002.2234    76.480973 
   23400     812.4872   -119.12681   0.73515549   -118.39165    -2653.832    4.2513833    4.2513833    4.2513833    -2653.832    8698.8532    -8402.259   -8258.0903   -1223.1448    20452.425   -8175.0539    76.840607 
   23500    575.77331   -118.91735   0.52097179   -118.39638   -7510.8363    4.2515414    4.2515414    4.2515414   -7510.8363    6334.3979   -23498.578   -5368.3291    8572.7161     15218.98   -11983.215    76.849181 
   23600    814.42449   -119.12892   0.73690839   -118.39201    13824.359    4.2336314    4.2336314    4.2336314    13824.359    15343.807   -14029.125    40158.395   -494.64024   -6545.6471    2847.9789    75.882063 
   23700    1085.1659   -119.37622   0.98188095   -118.39434   -13845.744    4.2562432    4.2562432    4.2562432   -13845.744   -11048.046   -30809.387    320.20199   -6270.7017    4798.7787    6725.7794    77.104425 
   23800     746.9436    -119.0695   0.67585027   -118.39365   -10262.932    4.2567115    4.2567115    4.2567115   -10262.932   -2345.5284   -18954.728   -9488.5394    4191.4236    19040.928   -7423.7413    77.129876 
   23900    558.11972   -118.89635   0.50499845   -118.39135    12087.133    4.2378513    4.2378513    4.2378513    12087.133    31120.173   -14740.807    19882.033    10827.236    12563.784   -10402.902    76.109199 
   24000     1052.433   -119.34104   0.95226347   -118.38877   -11330.381    4.2503469    4.2503469    4.2503469   -11330.381    13564.779    -42161.41   -5394.5109   -2022.2588   -3025.0939    8155.8435    76.784425 
   24100    1100.2869   -119.38363   0.99556267   -118.38806   -7925.7348    4.2499407    4.2499407    4.2499407   -7925.7348    16054.363   -8498.8533   -31332.714   -4832.0121   -1652.3265    5540.4007    76.762412 
   24200    595.62042   -118.93627   0.53892988   -118.39734   -3530.5138    4.2448818    4.2448818    4.2448818   -3530.5138    6003.8748    17124.826   -33720.242    5579.6988    14805.939   -11959.484    76.488615 
   24300    659.68507   -118.99529   0.59689691    -118.3984   -5633.2397    4.2509098    4.2509098    4.2509098   -5633.2397    18877.125   -7775.5645   -28001.279    10141.587    5566.7746    -7694.045    76.814936 
   24400    1255.0436   -119.52313    1.1355898   -118.38754   -15371.863    4.2541527    4.2541527    4.2541527   -15371.863    4546.7507   -28093.081   -22569.258    3163.4317    -3652.351     2909.896     76.99087 
   24500    964.18579   -119.26635   0.87241557   -118.39393   -2425.9126    4.2436229    4.2436229    4.2436229   -2425.9126    2898.2888    8018.4961   -18194.523   -10673.011     9941.221    127.75632    76.420582 
   24600    453.35888   -118.81262   0.41020864   -118.40241    10928.728    4.2415294    4.2415294    4.2415294    10928.728    24324.585    30873.916   -22412.317   -1049.4072    11087.301   -20074.799     76.30754 
   24700    706.84087   -119.03507   0.63956447   -118.39551   -15640.178    4.2619111    4.2619111    4.2619111   -15640.178     3880.659   -7165.2661   -43635.927   -1466.6711   -5562.9998   -13828.051    77.412867 
   24800    956.44042    -119.2486   0.86540739   -118.38319   -7819.3191    4.2535482    4.2535482    4.2535482   -7819.3191    20914.513   -22601.671   -21770.799   -7990.7381   -10304.368    15755.739    76.958054 
   24900    756.43895    -119.0688   0.68444186   -118.38436    4523.6426    4.2405301    4.2405301    4.2405301    4523.6426    26839.798   -7576.6134   -5692.2564   -3746.6555    10064.793    10275.509    76.253616 
   25000    705.80054   -119.03097   0.63862316   -118.39235   -2466.4017    4.2524407    4.2524407    4.2524407   -2466.4017    6381.8943       6598.7   -20379.799   -5275.5615    17525.478   -10578.893    76.897955 
   25100    932.24649   -119.23253   0.84351621   -118.38901   -1822.2296    4.2490924    4.2490924    4.2490924   -1822.2296    16443.447   -4680.9662    -17229.17    4104.6804    4371.7254   -2801.8163    76.716454 
   25200    825.35731   -119.13863   0.74680064   -118.39183    2492.4249    4.2435379    4.2435379    4.2435379    2492.4249    16441.059   -16341.733    7377.9481    4258.1834   -6811.1121    16864.708    76.415993 
   25300    687.95043   -119.02163   0.62247201   -118.39916   -1065.8816    4.2480008    4.2480008    4.2480008   -1065.8816    750.64794   -2711.1552   -1237.1377     5870.604    6102.2752    12221.729    76.657343 
   25400    793.81081    -119.1138    0.7182567   -118.39555   -9034.5572    4.2557265    4.2557265    4.2557265   -9034.5572   -21598.528    11911.146    -17416.29    2465.0912    21837.679    -6462.262    77.076349 
   25500    929.78136   -119.22618   0.84128571    -118.3849   -4630.9438    4.2551355    4.2551355    4.2551355   -4630.9438   -13143.203    10010.816   -10760.445   -2639.5339    3929.9129    1219.8649    77.044244 
   25600    692.61415   -119.01126   0.62669184   -118.38456    15790.646    4.2450861    4.2450861    4.2450861    15790.646    21655.473     17803.82    7912.6453   -5757.5308   -4819.4484    22651.417    76.499658 
   25700    583.63678   -118.91886   0.52808682   -118.39077    7432.8682    4.2532528    4.2532528    4.2532528    7432.8682    -23004.74    47750.762    -2447.417   -3712.1836    17656.848    8627.7838    76.942019 
   25800    898.73731   -119.19642   0.81319641   -118.38323   -15513.685    4.2599611    4.2599611    4.2599611   -15513.685   -47652.953    9165.5174   -8053.6199    11062.527     9364.291   -8214.8181    77.306659 
   25900    929.02785   -119.21851   0.84060393   -118.37791   -6881.0159    4.2436076    4.2436076    4.2436076   -6881.0159    6048.7646   -20148.544   -6543.2683    6754.0844   -14354.053    13816.836    76.419759 
   26000    646.84095     -118.973   0.58527528   -118.38772   -5375.5791    4.2494363    4.2494363    4.2494363   -5375.5791    12595.313   -15968.093   -12753.957   -3489.6495    2060.2331    20509.052    76.735084 
   26100    811.58935   -119.12163    0.7343431   -118.38729    -7727.017    4.2597154    4.2597154    4.2597154    -7727.017   -5412.3635   -13026.943   -4741.7446    6897.6734     22394.76   -2474.4594    77.293285 
   26200    958.42353   -119.25023   0.86720175   -118.38303    7772.6725    4.2455207    4.2455207    4.2455207    7772.6725    17832.736   -13410.543    18895.824    6372.9691    11203.077    -82.99588     76.52316 
   26300    587.49711   -118.92099   0.53157973   -118.38941    9428.0165    4.2461331    4.2461331    4.2461331    9428.0165    34332.537   -26913.375    20864.887   -2901.9633    -5101.895    25960.567    76.556278 
   26400    616.28011   -118.95039   0.55762319   -118.39277   -6332.5779    4.2565439    4.2565439    4.2565439   -6332.5779     11077.31   -25496.987   -4578.0571   -4116.6052    380.22143    12797.852    77.120771 
   26500    996.52423   -119.29051   0.90167607   -118.38883    581.27572    4.2469463    4.2469463    4.2469463    581.27572    4704.2906    4970.4976    -7930.961    1460.9627    12173.382   -11074.275    76.600274 
   26600     968.3548   -119.26382   0.87618777   -118.38764   -1841.7718    4.2473553    4.2473553    4.2473553   -1841.7718    9860.1977   -10138.259   -5247.2539    3111.3828    4424.1666    9294.5631    76.622403 
   26700    815.64757   -119.12847   0.73801506   -118.39045   -1423.1687    4.2487429    4.2487429    4.2487429   -1423.1687    17367.839   -22053.974    416.62916    -371.0248   -8011.8468    24484.697    76.697528 
   26800    869.21626   -119.17983   0.78648514   -118.39335    2537.1758    4.2467391    4.2467391    4.2467391    2537.1758    7634.1318    7986.9381   -8009.5423   -7634.4644     286.7592    4445.8561    76.589061 
   26900    860.58367   -119.17204   0.77867419   -118.39336    -8029.156    4.2523549    4.2523549    4.2523549    -8029.156   -3810.3666    12339.178   -32616.279   -8540.2072     18576.46   -1316.9873      76.8933 
   27000     650.2254   -118.97809    0.5883376   -118.38975    146.53328    4.2509402    4.2509402    4.2509402    146.53328    34649.096   -17365.936    -16843.56   -1965.0992    9931.5981    17712.886    76.816586 
   27100    849.18535   -119.15374   0.76836075   -118.38538   -3565.0736    4.2541578    4.2541578    4.2541578   -3565.0736    31907.786   -32745.552   -9857.4541    6008.7639   -6910.8858    10937.988    76.991144 
   27200    896.34571   -119.19558   0.81103244   -118.38455   -3381.6657    4.2528804    4.2528804    4.2528804   -3381.6657    1547.9993    13085.298   -24778.294     3455.516     13810.47   -4853.3736    76.921811 
   27300    533.45265   -118.87326   0.48267917   -118.39058    17242.396     4.244128     4.244128     4.244128    17242.396     25878.29    42684.852   -16835.955   -113.19767    19443.889    9602.8422    76.447878 
   27400    524.98488   -118.86839   0.47501735   -118.39337    456.88765    4.2550066    4.2550066    4.2550066    456.88765    27691.049   -5175.8185   -21144.567    5582.2144   -5680.6479    22079.121     77.03724 
   27500    1013.8197   -119.30165   0.91732534   -118.38432   -4781.7171    4.2526179    4.2526179    4.2526179   -4781.7171    15227.352   -10479.321   -19093.182    4376.2476   -4659.0276    384.03358    76.907568 
   27600    998.72273   -119.28725   0.90366531   -118.38359    -1498.781    4.2514124    4.2514124    4.2514124    -1498.781    7185.3384    1642.1152   -13323.797   -4438.1339     17031.47   -10648.406    76.842187 
   27700    620.31802   -118.94706   0.56127678   -118.38578    -8004.204    4.2598514    4.2598514    4.2598514    -8004.204    4010.4447   -320.33479   -27702.722   -10259.769    10685.567    19485.062    77.300686 
   27800    916.46732   -119.20863   0.82923889   -118.37939     2099.704    4.2494073    4.2494073    4.2494073     2099.704    10999.518    4450.7893    -9151.195    4523.9496   -9132.4833    15001.043    76.733514 
   27900    1067.2623   -119.34436   0.96568135   -118.37868   -12817.009     4.249796     4.249796     4.249796   -12817.009   -8585.6799   -25401.694   -4463.6547    6401.2258   -4769.8924   -8630.1097    76.754569 
   28000    712.69838   -119.03321   0.64486447   -118.38835    -7069.384    4.2478388    4.2478388    4.2478388    -7069.384      1350.06   -14948.449    -7609.763   -2943.7087    12884.837   -3192.4957    76.648574 
   28100    764.18319    -119.0846   0.69144901   -118.39315   -869.50242    4.2493314    4.2493314    4.2493314   -869.50242     8287.602   -13778.267    2882.1576   -1001.9979    14394.925    10925.431    76.729399 
   28200     916.1927   -119.21657   0.82899041   -118.38758   -4912.2038    4.2560302    4.2560302    4.2560302   -4912.2038    10105.391   -32830.545    7988.5432    10906.638    1755.8684    4625.3575     77.09285 
   28300    717.85305   -119.03701   0.64952853   -118.38748    13235.809    4.2484771    4.2484771    4.2484771    13235.809    19624.223   -13157.901    33241.104    13742.065    4373.9086   -8808.6351    76.683132 
   28400    692.75776   -119.01565   0.62682178   -118.38883   -4324.0842    4.2540932    4.2540932    4.2540932   -4324.0842    15832.817    -14458.25    -14346.82   -4799.2213    13335.651    2650.7324    76.987638 
   28500    911.88526    -119.2095   0.82509295   -118.38441   -8503.8863    4.2510175    4.2510175    4.2510175   -8503.8863    6987.1919   -14842.141    -17656.71   -2833.1722    4614.1986    17477.565    76.820773 
   28600    777.17444   -119.08873   0.70320376   -118.38553    4203.7232    4.2460315    4.2460315    4.2460315    4203.7232    -16183.86    8158.8417    20636.188    24868.183    -3591.252    4213.2715    76.550783 
   28700    766.79036   -119.08417   0.69380803   -118.39036   -864.13478    4.2506207    4.2506207    4.2506207   -864.13478   -19625.084    6940.0878    10092.592    16669.325   -4030.8157   -8153.5054    76.799262 
   28800    967.08514   -119.26423   0.87503896   -118.38919    7795.7394    4.2450391    4.2450391    4.2450391    7795.7394   -3717.6312    19666.443    7438.4062   -16188.348    5945.3854    -9211.072    76.497122 
   28900    629.96354   -118.96746   0.57000425   -118.39745    3362.7384    4.2503319    4.2503319    4.2503319    3362.7384   -3654.5596    6974.3589    6768.4158    7301.4853    4145.2797    1770.0527    76.783611 
   29000    468.57749   -118.82281   0.42397876   -118.39883   -7729.9515    4.2545441    4.2545441    4.2545441   -7729.9515   -3357.2322   -26384.346    6551.7241    39008.044   -886.68598    10857.354     77.01212 
   29100     1043.769   -119.33507   0.94442409   -118.39065   -2781.8799    4.2454707    4.2454707    4.2454707   -2781.8799    3060.2096   -5892.0152   -5513.8341    9158.3503   -679.98742    5272.1338    76.520454 
   29200    1309.3562   -119.57431     1.184733   -118.38957   -13440.451    4.2510749    4.2510749    4.2510749   -13440.451   -5856.4355   -15750.283   -18714.635   -16754.571   -4102.4421    1756.7916    76.823888 
   29300    637.36124   -118.97544   0.57669784   -118.39874    7333.9877    4.2464259    4.2464259    4.2464259    7333.9877    18697.067   -27856.149    31161.046    18405.407    1498.2924   -996.59067    76.572115 
   29400     306.0911    -118.6796   0.27695766   -118.40265    6047.4003    4.2471119    4.2471119    4.2471119    6047.4003    15255.114   -24970.597    27857.684    29461.146    1034.5078    5984.8685    76.609232 
   29500    795.07454   -119.11799   0.71940015   -118.39858   -2559.2917    4.2468447    4.2468447    4.2468447   -2559.2917    11546.462   -21790.679    2566.3419   -4234.7005    2315.2894    9533.8202    76.594772 
   29600    1057.8177   -119.35388   0.95713567   -118.39674    8258.2846    4.2422416    4.2422416    4.2422416    8258.2846    12055.879   -443.05631    13162.031    127.34168   -431.21656    419.22261    76.345981 
   29700     789.8654   -119.11484   0.71468681   -118.40015   -4467.9471    4.2531434    4.2531434    4.2531434   -4467.9471   -16130.201     -23613.9     26340.26    26910.863   -3280.1864   -4510.5086    76.936084 
   29800    741.23076    -119.0647   0.67068117   -118.39402   -348.16265    4.2468244    4.2468244    4.2468244   -348.16265   -124.36588   -35892.761    34972.639    8559.3171    5450.3374    4217.5223    76.593678 
   29900    784.72115   -119.10359   0.71003219   -118.39356   -944.89377    4.2490102    4.2490102    4.2490102   -944.89377    11418.126   -24757.907      10505.1   -13517.259    682.10313    12111.204    76.712004 
   30000     890.0534   -119.19371   0.80533902   -118.38837   -15782.413    4.2586843    4.2586843    4.2586843   -15782.413   -3098.1679   -28114.836   -16134.236    8886.9147   -2197.5057    1613.7992    77.237166 
   30100    1023.6953   -119.30836   0.92626106    -118.3821     1545.839    4.2451664    4.2451664    4.2451664     1545.839    12993.012   -18775.559    10420.064    18922.509   -1895.5339   -5161.6574    76.504004 
   30200    631.66779   -118.96091   0.57154629   -118.38936   -6024.7393    4.2458876    4.2458876    4.2458876   -6024.7393    4641.5024   -21471.248   -1244.4724    -10027.01    5105.6925    2590.9621    76.542999 
   30300    423.21501   -118.78296   0.38293383   -118.40003    4877.5503    4.2438901    4.2438901    4.2438901    4877.5503    24808.536   -15708.394    5532.5085   -18556.152    14330.035    5091.4971    76.435018 
   30400    974.11546    -119.2835   0.88140014    -118.4021     3562.026    4.2486033    4.2486033    4.2486033     3562.026    31979.538   -24820.156     3526.696    3133.6663    3804.4672   -3801.0639    76.689964 
   30500    1291.0782   -119.56272    1.1681947   -118.39453   -5251.0968    4.2458806    4.2458806    4.2458806   -5251.0968    10952.941    -16751.07   -9955.1612    4704.2162   -3047.0805   -5111.2092    76.542619 
   30600    747.01522   -119.07879   0.67591507   -118.40288     7059.228    4.2377845    4.2377845    4.2377845     7059.228     22924.36   -3838.0876    2091.4115   -12395.076    8200.8626    5218.4956    76.105596 
   30700    493.21761   -118.85452   0.44627366   -118.40825   -14349.581    4.2528102    4.2528102    4.2528102   -14349.581   -1742.7622   -22032.673   -19273.308   -19459.699    9949.4782    7900.4901    76.918003 
   30800    799.23381   -119.12544   0.72316355   -118.40228   -52.169261    4.2426884    4.2426884    4.2426884   -52.169261    19371.421   -13894.543   -5633.3854    2789.5699    1277.2887    2150.8477    76.370109 
   30900     830.5664    -119.1519   0.75151393   -118.40039    345.72195    4.2416831    4.2416831    4.2416831    345.72195    12344.825   -23046.874    11739.215    31137.444   -3012.3003   -3547.2377    76.315836 
   31000    905.51205   -119.21809   0.81932633   -118.39877    1975.2042    4.2440892    4.2440892    4.2440892    1975.2042    8358.6508   -10090.195    7657.1565    12843.903    3343.7648    4860.0864    76.445779 
   31100    1034.7003   -119.33486    0.9362186   -118.39865   -2128.4037    4.2490002    4.2490002    4.2490002   -2128.4037    11551.419    1.5935811   -17938.224   -14712.268    7296.9257    11901.638     76.71146 
   31200    693.89563    -119.0267   0.62785135   -118.39885   -10536.269    4.2500065    4.2500065    4.2500065   -10536.269   -6366.8299   -12591.614   -12650.363    16808.999    1974.9424    677.86889     76.76598 
   31300    549.78155   -118.89376    0.4974539    -118.3963    5114.7302    4.2425619    4.2425619    4.2425619    5114.7302    13301.272    -14331.67    16374.589    37411.277   -5132.3197   -5172.7362    76.363276 
   31400    934.64638   -119.23948   0.84568768   -118.39379   -16915.442    4.2569221    4.2569221    4.2569221   -16915.442    1748.4426   -38445.616   -14049.152    4314.5978   -2514.5375    6103.2316    77.141329 
   31500    1157.8864   -119.43876    1.0476799   -118.39108    5405.7034    4.2408428    4.2408428    4.2408428    5405.7034    19771.886     -7994.49     4439.714   -9504.5904    1845.9224    11283.143    76.270485 
   31600    700.53562   -119.03152   0.63385935   -118.39766    10958.309    4.2410251    4.2410251    4.2410251    10958.309    2487.6471   -4067.3744    34454.656    31039.624    -291.6528    80.065143    76.280324 
   31700    622.84109   -118.95527    0.5635597   -118.39171   -19747.467    4.2638206    4.2638206    4.2638206   -19747.467   -21374.056   -42927.645    5059.3012    26554.127    5063.9896   -2394.3615    77.516966 
   31800    1006.6859   -119.28954    0.9108706   -118.37867   -2107.7584    4.2501768    4.2501768    4.2501768   -2107.7584    21569.351    -17336.43   -10556.196   -17974.147    4915.9033    8499.9235    76.775204 
   31900    910.50247   -119.20395   0.82384177    -118.3801   -1256.3864    4.2489318    4.2489318    4.2489318   -1256.3864    2329.7769   -11167.185    5068.2487    1748.7925    469.79176    8517.3745    76.707757 
   32000    632.38167   -118.95553   0.57219222   -118.38334    6175.7762    4.2510618    4.2510618    4.2510618    6175.7762    6725.2709   -20415.772    32217.829    34824.437   -4776.1555   -2381.1469    76.823174 
   32100    676.43058   -118.99702    0.6120486   -118.38497     8223.497    4.2521151    4.2521151    4.2521151     8223.497    13312.767   -26976.971    38334.694   -1065.4438   -5591.7333    -7322.162    76.880293 
   32200    759.55928   -119.07265    0.6872652   -118.38539     2966.337    4.2507735    4.2507735    4.2507735     2966.337    7531.8351   -21615.831    22983.007   -32938.526    -2561.305    4018.5062    76.807545 
   32300    841.41586    -119.1457   0.76133075   -118.38437      2882.42    4.2496618    4.2496618    4.2496618      2882.42    12976.389   -2852.5616   -1476.5678    12539.593    1734.8516    9315.2564    76.747302 
   32400    913.04287   -119.20415   0.82614038   -118.37801   -24238.801    4.2658212    4.2658212    4.2658212   -24238.801   -22696.339   -33148.803   -16871.261      25334.4    7614.7071    329.80718    77.626132 
   32500      742.092   -119.04578   0.67146044   -118.37432   -3722.8069      4.25331      4.25331      4.25331   -3722.8069    -9660.586   -29353.346    27845.512   -29920.979    3106.1464   -5099.8687    76.945124 
   32600    730.21093   -119.03769    0.6607102   -118.37698     9185.286    4.2445719    4.2445719    4.2445719     9185.286    7874.2027   -16845.047    36526.702   -27363.038   -2672.1819    2317.7073    76.471865 
   32700    1083.3136   -119.36034    0.9802049   -118.38014   -4663.4202    4.2488748    4.2488748    4.2488748   -4663.4202   -969.44593   -20341.984    7321.1697    19411.667   -2547.5454     6061.251    76.704668 
   32800    780.30587    -119.0957   0.70603715   -118.38966    1865.4013    4.2445292    4.2445292    4.2445292    1865.4013    16255.489   -27415.386      16756.1   -5525.7958   -3197.2567    692.50468    76.469556 
   32900    539.61659   -118.88717   0.48825643   -118.39891   -11708.681    4.2512596    4.2512596    4.2512596   -11708.681   -6801.6965   -39399.184    11074.837   -46241.054   -2403.7264   -130.58383    76.833902 
   33000    1026.9533   -119.32308   0.92920889   -118.39387   -4345.7352    4.2478598    4.2478598    4.2478598   -4345.7352    10053.414   -21066.059   -2024.5605   -12603.938   -2200.1836    1385.2035    76.649713 
   33100    1217.7897   -119.49262    1.1018817   -118.39074   -1267.8895    4.2462179    4.2462179    4.2462179   -1267.8895    10143.591   -13540.135   -407.12435    11963.574   -1070.9586    3394.1693    76.560866 
   33200    550.34855   -118.89732   0.49796693   -118.39936    6831.7726    4.2451318    4.2451318    4.2451318    6831.7726    10941.839   -21205.089    30758.568   -33225.881    2408.0253    1365.1938    76.502134 
   33300    575.91677   -118.91913   0.52110159   -118.39803      1830.73    4.2504805    4.2504805    4.2504805      1830.73    30090.825   -38391.306    13792.672   -29828.731    3437.8627   -2367.0959    76.791663 
   33400    1129.2234   -119.40611     1.021745   -118.38436   -21977.187    4.2578464    4.2578464    4.2578464   -21977.187   -3518.5295   -37944.859   -24468.172    20769.412    3456.2603    1304.1776    77.191587 
   33500    902.70904    -119.1997   0.81679011   -118.38291    2196.9942    4.2435479    4.2435479    4.2435479    2196.9942   -14509.196     6189.154    14911.024    2548.1938    1447.1402    1162.1137    76.416532 
   33600    710.47677    -119.0311   0.64285432   -118.38824    2797.8815    4.2466886    4.2466886    4.2466886    2797.8815   -14318.506    -11100.04     33812.19   -31098.727    2150.4733    3970.6431     76.58633 
   33700    845.52707   -119.15024   0.76505066   -118.38519   -9354.8893     4.255778     4.255778     4.255778   -9354.8893    744.08883   -42787.533    13978.776    2769.6442   -455.33836    1459.3462    77.079145 
   33800    781.23987   -119.09237   0.70688225   -118.38549   -1644.7272     4.250458     4.250458     4.250458   -1644.7272    2304.2765   -7833.2945    594.83643    33038.596    -6016.025   -4877.3459    76.790444 
[...]
   91300    636.61055    -118.9774    0.5760186   -118.40138   -4652.7907    4.2437963    4.2437963    4.2437963   -4652.7907   -44354.015    12757.193    17638.451    4652.8897   -6409.6088   -2657.8825    76.429955 
   91400    812.25243   -119.13636   0.73494307   -118.40142   -4262.2769    4.2445951    4.2445951    4.2445951   -4262.2769   -26130.741    8201.9515    5141.9588    15600.732   -8960.6283    -2659.573    76.473122 
   91500    979.08056   -119.28384   0.88589266   -118.39794   -2925.4997    4.2451685    4.2451685    4.2451685   -2925.4997   -11633.523    7559.6412   -4702.6169   -990.41617    9282.7039     2121.411    76.504113 
   91600    850.38277   -119.16389    0.7694442   -118.39445   -2261.9437    4.2468142    4.2468142    4.2468142   -2261.9437    -30524.89    5431.4811    18307.578   -5136.1845    8696.7254    3877.3618    76.593123 
   91700    565.29263   -118.90758   0.51148865   -118.39609    5687.1477    4.2479897    4.2479897    4.2479897    5687.1477   -31540.237      7624.11     40977.57    11758.715    -7176.008   -7263.1852    76.656742 
   91800    623.44659   -118.95839   0.56410758   -118.39429   -187.48215     4.250988     4.250988     4.250988   -187.48215   -17406.796    3653.6144    13190.735    10614.662   -2112.3761   -11846.998    76.819174 
   91900    973.98745   -119.27054   0.88128432   -118.38926    2314.5651    4.2433648    4.2433648    4.2433648    2314.5651   -8812.5808    19988.202   -4231.9262   -4168.3335    12941.015    323.36965    76.406639 
   92000    969.38963   -119.26578   0.87712411   -118.38866   -2721.4808    4.2450537    4.2450537    4.2450537   -2721.4808   -24401.317    17881.425   -1644.5512    5888.1563    10869.599    3457.7918    76.497911 
   92100    725.13318   -119.04966   0.65611574   -118.39355   -6183.2172    4.2491844    4.2491844    4.2491844   -6183.2172   -19924.373    2303.9453   -929.22346     22645.37   -3424.6295   -5439.7328    76.721438 
   92200    658.84763   -118.99289   0.59613918   -118.39675     2608.362    4.2418664    4.2418664    4.2418664     2608.362    4357.6368    16985.488   -13518.039    8584.8871   -1929.1747   -4889.5852    76.325727 
   92300    736.53381    -119.0655   0.66643127   -118.39907    1203.1647    4.2425743    4.2425743    4.2425743    1203.1647    1345.3013    21303.196   -19039.003   -8559.0152    10025.174    7506.7712    76.363948 
   92400    899.50938   -119.21013   0.81389499   -118.39623   -4649.1302    4.2466767    4.2466767    4.2466767   -4649.1302    -18890.44    1852.4991    3090.5499   -2182.8939     7524.998    9340.5808    76.585687 
   92500    1009.0028   -119.30831   0.91296695   -118.39534   -3190.6342    4.2432355    4.2432355    4.2432355   -3190.6342   -9161.2416    796.70184   -1207.3629    6148.6002   -6416.6653   -2979.8613    76.399658 
   92600    796.55074   -119.12154   0.72073584    -118.4008   -1878.3465    4.2411616    4.2411616    4.2411616   -1878.3465    3979.6899    15542.308   -25157.037    8020.9771   -7556.4228    -7910.452    76.287687 
   92700    549.30855   -118.90152   0.49702592   -118.40449   -21.796497    4.2419335    4.2419335    4.2419335   -21.796497   -6041.1479    18190.369   -12214.611   -2672.2879    6903.0299    4236.2231    76.329351 
   92800    667.30993   -119.00666   0.60379604   -118.40286   -5725.1163    4.2451477    4.2451477    4.2451477   -5725.1163   -21505.813    6620.6543   -2290.1905    -19402.44     6147.058    8149.8114    76.502989 
   92900    939.94978   -119.25029   0.85048632   -118.39981    462.16817    4.2413693    4.2413693    4.2413693    462.16817   -8459.4634    15323.401    -5477.433   -13109.835   -11119.489   -2950.7598    76.298896 
   93000    1023.1262   -119.32491   0.92574611   -118.39916    4992.6342    4.2401612    4.2401612    4.2401612    4992.6342    3150.5252    21494.269   -9666.8911    6580.9724   -10526.381   -5024.0244     76.23372 
   93100    772.23611   -119.09899   0.69873546   -118.40025   -2959.6978    4.2474167    4.2474167    4.2474167   -2959.6978   -13052.527     9178.446   -5005.0125   -1845.3707    6919.6356     394.7789    76.625728 
   93200    568.58917   -118.91457   0.51447143    -118.4001   -600.71315    4.2456111    4.2456111    4.2456111   -600.71315   -19971.893    9650.0409    8519.7132   -19899.996    6072.6257    2127.7646    76.528046 
   93300     812.7216   -119.13137   0.73536758     -118.396   -4002.7814    4.2442913    4.2442913    4.2442913   -4002.7814   -21543.488    13105.077   -3569.9339   -9186.1094   -12350.689   -2957.2009    76.456698 
   93400    944.21939   -119.24585   0.85434955    -118.3915   -7695.8486    4.2505045    4.2505045    4.2505045   -7695.8486   -23660.457    18989.278   -18416.366    5633.6059    -8811.491   -3157.1617    76.792969 
   93500    692.95899   -119.01595   0.62700386   -118.38895    3014.2326    4.2521529    4.2521529    4.2521529    3014.2326   -16090.776     12398.02    12735.454   -9393.5746    15030.304    7361.1984    76.882345 
   93600    828.94561   -119.13265    0.7500474    -118.3826   -3595.2542     4.252005     4.252005     4.252005   -3595.2542   -19491.796   -8745.1227    17451.156   -11616.585    7237.0974    7606.2856    76.874323 
   93700    976.99671   -119.26208   0.88400715   -118.37807   -7139.4017    4.2489003    4.2489003    4.2489003   -7139.4017   -27602.248    668.26271      5515.78    6714.0835   -10637.455     -3512.77    76.706052 
   93800    595.71196   -118.92514    0.5390127   -118.38612   -517.62577    4.2495785    4.2495785    4.2495785   -517.62577   -33931.109    20054.667    12323.564    5987.1022    8450.7478   -4738.3693    76.742788 
   93900    588.17917    -118.9236   0.53219687    -118.3914    4774.4575     4.246961     4.246961     4.246961    4774.4575   -21387.578    16280.151      19430.8    -6692.796    18286.454    3061.2732    76.601069 
   94000    999.98368   -119.29275   0.90480624   -118.38794    5437.9086    4.2417926    4.2417926    4.2417926    5437.9086   -167.28646   -2306.6032    18787.616   -4577.8309   -1684.1381    3613.2153    76.321746 
   94100    946.26795   -119.24664   0.85620313   -118.39043   -10748.091    4.2491057    4.2491057    4.2491057   -10748.091   -16184.828   -16552.348     492.9012    6172.4751   -2986.6524    -4663.192    76.717173 
   94200    610.78126   -118.95074   0.55264772   -118.39809   -4336.4992     4.245733     4.245733     4.245733   -4336.4992   -33131.002    1325.5642     18795.94     5081.851    20109.778   -3324.2854    76.534641 
   94300     676.7808   -119.01057   0.61236549    -118.3982    8736.4858    4.2382598    4.2382598    4.2382598    8736.4858   -19468.291    8338.3264    37339.422   -2061.8142    16336.951    5351.9538    76.131209 
   94400    930.04656     -119.235   0.84152567   -118.39347   -5288.6022    4.2480967    4.2480967    4.2480967   -5288.6022   -2175.9962     -23826.8    10136.989   -1336.0251    -4417.912     1089.881    76.662537 
   94500    747.69589   -119.07355   0.67653096   -118.39702    842.62633    4.2460514    4.2460514    4.2460514    842.62633    17846.118   -31558.067    16239.828    3739.0367    5303.8604   -8586.6021    76.551861 
   94600    565.02585   -118.91161   0.51124727   -118.40036    1936.7486    4.2410868    4.2410868    4.2410868    1936.7486   -10236.159   -15281.771    31328.175    2432.2976    22688.916    -4775.904    76.283652 
   94700    819.29088   -119.14046   0.74131161   -118.39915   -3868.4744    4.2426901    4.2426901    4.2426901   -3868.4744     -23546.8   -6529.1614    18470.539   -4059.2982    11004.795    618.00338    76.370202 
   94800    1219.2929   -119.49735    1.1032419   -118.39411   -10792.145    4.2464474    4.2464474    4.2464474   -10792.145      253.788   -19767.392   -12862.832    1539.3468   -9201.9692   -3764.8329    76.573279 
   94900    895.38581   -119.21124    0.8101639   -118.40108   -5103.5823    4.2436977    4.2436977    4.2436977   -5103.5823    11000.725   -27583.546     1272.074    9830.2212    2074.4893    -9242.902    76.424624 
   95000    257.53503   -118.63873   0.23302311   -118.40571    4501.2509    4.2411872    4.2411872    4.2411872    4501.2509    1494.5546   -17558.921    29568.119    1073.3125    23826.038   -3420.9228     76.28907 
   95100    596.32266   -118.94472   0.53956528   -118.40516   -4742.5195    4.2462557    4.2462557    4.2462557   -4742.5195   -1733.9282   -19840.858    7347.2281   -9349.6603    13280.979    6043.4975    76.562909 
   95200    1359.4431   -119.62767    1.2300526   -118.39761    14.020838    4.2408992    4.2408992    4.2408992    14.020838    19902.964   -14136.083   -5724.8183   -382.70121   -10940.305     4621.684    76.273532 
   95300    1071.4582   -119.36953   0.96947786   -118.40005   -2609.1122    4.2411278    4.2411278    4.2411278   -2609.1122   -8888.2159   -11417.664    12478.543    7811.9991   -2071.0918   -4911.6748    76.285865 
   95400    394.54325   -118.76462   0.35699102   -118.40763    130.00065    4.2420079    4.2420079    4.2420079    130.00065   -13500.603   -10986.072    24876.676   -2288.9062    20178.075   -3341.9947    76.333368 
   95500    523.80423   -118.88394   0.47394907   -118.40999    4786.4634    4.2420397    4.2420397    4.2420397    4786.4634    22619.739   -23697.576    15437.227   -8419.1587    13809.501    9733.4251    76.335081 
   95600    1003.3224   -119.31324   0.90782715   -118.40541   -4079.4226    4.2441849    4.2441849    4.2441849   -4079.4226    16163.986   -36495.456    8093.2016   -173.75938    -9619.779    9054.5056    76.450948 
   95700    888.34875   -119.20185   0.80379661   -118.39805    2723.1199     4.240502     4.240502     4.240502    2723.1199   -2170.1729   -11710.681    22050.214    2206.2457   -3840.6031   -3930.9908    76.252104 
   95800    733.67088   -119.06562   0.66384083   -118.40178   -2153.2396    4.2460757    4.2460757    4.2460757   -2153.2396   -18998.056   -2308.4207    14846.758   -5773.8693    21807.971   -2640.3881    76.553175 
   95900     859.4593   -119.17967   0.77765684   -118.40201     1134.213    4.2438237    4.2438237    4.2438237     1134.213    6879.0428   -17308.051    13831.647   -7613.9881    19527.408    7669.5769    76.431434 
   96000    855.83606   -119.17225   0.77437846   -118.39787   -2261.5611    4.2419418    4.2419418    4.2419418   -2261.5611      6716.13   -29859.583     16358.77   -720.22391   -4774.6228    4872.9168    76.329797 
   96100    673.76875   -119.00731   0.60964012   -118.39767   -7961.9172    4.2463034    4.2463034    4.2463034   -7961.9172   -22432.997   -7836.8266    6384.0716    4952.3834     2469.549   -7166.1551    76.565489 
   96200    650.54356   -118.98969   0.58862549   -118.40106    2074.4844     4.243416     4.243416     4.243416    2074.4844   -23733.828    20275.437    9681.8441    -2599.361    25610.336   -5362.7475    76.409405 
   96300    787.44158   -119.11462   0.71249369   -118.40212    1574.1305    4.2439272    4.2439272    4.2439272    1574.1305   -17128.178    6571.3455    15279.224   -14197.409    12916.855    4346.5664    76.437023 
   96400    967.14719   -119.26998    0.8750951   -118.39488   -5483.5928    4.2444632    4.2444632    4.2444632   -5483.5928   -21813.625   -10573.926    15936.772    -9012.135   -9084.5689     2481.569    76.465992 
   96500    967.03447   -119.27057   0.87499311   -118.39558   -3453.5438    4.2438152    4.2438152    4.2438152   -3453.5438   -20547.866     3610.349    6576.8855    4750.1568    10027.654   -2848.0895    76.430973 
   96600    807.81156   -119.13165   0.73092487   -118.40072   -4473.7823    4.2458971    4.2458971    4.2458971   -4473.7823   -18203.358    8072.0672   -3290.0562    1506.8507    22231.474   -5045.1518    76.543515 
   96700    656.49632   -118.99437   0.59401166   -118.40036    3485.9008    4.2408556    4.2408556    4.2408556    3485.9008   -18297.532    13957.797    14797.438   -15299.849   -1023.6607   -1791.0504    76.271181 
   96800    722.80146   -119.05294   0.65400595   -118.39893    -1789.277    4.2447855    4.2447855    4.2447855    -1789.277   -34107.478     16129.28    12610.367   -8269.1638   -12533.878    5312.5484    76.483411 
   96900    856.11479   -119.17157   0.77463066   -118.39694   -1948.1798    4.2466229    4.2466229    4.2466229   -1948.1798   -16596.712    17951.302   -7199.1292     12299.34    5705.9619    2865.0378    76.582775 
   97000    812.84795   -119.13298   0.73548191    -118.3975    6408.8423    4.2429275    4.2429275    4.2429275    6408.8423    7969.3292    17733.462   -6476.2646     2180.609    12632.516   -5748.1954     76.38302 
   97100    776.22658   -119.09788   0.70234612   -118.39553    -3341.521    4.2472442    4.2472442    4.2472442    -3341.521   -15569.066    8301.6817   -2757.1783   -21734.842    -1365.188   -6013.6795    76.616392 
   97200    787.82896   -119.10484    0.7128442   -118.39199   -3139.9089    4.2455846    4.2455846    4.2455846   -3139.9089   -43834.579    27820.876    6593.9769   -3267.7543   -4257.9443    3309.4828    76.526617 
   97300    631.95415   -118.96705    0.5718054   -118.39524    2935.9033    4.2430473    4.2430473    4.2430473    2935.9033   -18040.662    24784.576    2063.7964    26982.241    6092.6409   -885.67571    76.389494 
   97400    689.71515   -119.01956   0.62406876   -118.39549    90.805842    4.2483048    4.2483048    4.2483048    90.805842    6364.4128    11383.205     -17475.2    11612.126    3522.6324   -9350.6161    76.673803 
   97500    938.79635   -119.23789   0.84944267   -118.38845    1928.4724    4.2481641    4.2481641    4.2481641    1928.4724   -13742.235    28652.337   -9124.6855   -8106.3284   -6613.1978    -793.6352    76.666185 
   97600    772.13722   -119.08624   0.69864599    -118.3876    511.21062    4.2479587    4.2479587    4.2479587    511.21062   -41523.345     19177.14    23879.837    12941.135   -592.05369    7542.1367    76.655065 
   97700    632.42024   -118.96273   0.57222712    -118.3905    5667.7313     4.246664     4.246664     4.246664    5667.7313   -17341.083    7967.9011    26376.375    17593.246    11322.629    1487.6061    76.584995 
   97800    850.00453   -119.15536   0.76910196   -118.38626   -6041.9373    4.2528498    4.2528498    4.2528498   -6041.9373   -1398.5016    404.29373   -17131.604   -4913.2499    1187.8592   -5702.1505     76.92015 
   97900    929.09277   -119.22226   0.84066266    -118.3816   -8207.1306    4.2502559    4.2502559    4.2502559   -8207.1306   -7492.2174   -715.06563   -16414.109   -1819.6994   -12671.177   -5360.8997    76.779491 
   98000      781.848   -119.09071    0.7074325   -118.38328   -368.94068    4.2441696    4.2441696    4.2441696   -368.94068   -22446.695    5044.6842    16295.189    19110.016   -241.30711    -329.3373    76.450122 
   98100    733.16953   -119.05246    0.6633872   -118.38907   -2266.5475    4.2467183    4.2467183    4.2467183   -2266.5475    -18468.44    1282.7984    10385.999    13335.293    13286.549    1199.0995    76.587934 
   98200    878.81774   -119.18614   0.79517276   -118.39097   -1115.5211    4.2459121    4.2459121    4.2459121   -1115.5211   -6268.9699    3172.6653   -250.25869   -8224.7573    687.73645   -660.92884    76.544325 
   98300    875.19961   -119.18278     0.791899   -118.39088    227.25668    4.2436958    4.2436958    4.2436958    227.25668   -16109.049     6353.473    10437.347    2668.7456   -12509.224    552.39478    76.424524 
   98400    745.40468   -119.06837   0.67445782   -118.39391   -2100.3933    4.2457366    4.2457366    4.2457366   -2100.3933   -21798.208    949.10504    14547.923    22882.568    903.40152    4065.9006    76.534833 
   98500    744.80815   -119.06805   0.67391806   -118.39414   -4414.9356    4.2487937    4.2487937    4.2487937   -4414.9356   -2249.8733   -3908.1927   -7086.7409    10064.297    17568.201    1994.9242    76.700276 
   98600    846.07726   -119.15705   0.76554849    -118.3915   -2988.4094    4.2469148    4.2469148    4.2469148   -2988.4094    1805.8258    8742.7239   -19513.778   -9552.4615    8387.9092   -3623.4944    76.598565 
   98700    859.67773   -119.16829   0.77785447   -118.39043    3452.1711     4.243219     4.243219     4.243219    3452.1711   -4515.2228    16129.904   -1258.1683   -344.43713   -8693.8713   -2252.7521    76.398767 
   98800    840.55728   -119.15274   0.76055389   -118.39219   -733.36915    4.2462404    4.2462404    4.2462404   -733.36915    -9253.917    4272.6745    2781.1351    9873.8138    1615.7325    1886.9304    76.562081 
   98900    670.32015   -119.00269   0.60651976   -118.39617    3719.9938    4.2444367    4.2444367    4.2444367    3719.9938   -2805.4387     17648.64   -3683.2201    2575.6878    21254.643   -3291.9479    76.464557 
   99000    623.26739   -118.96185   0.56394543   -118.39791    1072.1852    4.2447877    4.2447877    4.2447877    1072.1852    2767.1175    17499.902   -17050.464   -8012.6593    9168.4416   -9181.4109    76.483532 
   99100    878.59726   -119.18953   0.79497326   -118.39455   -3227.1025    4.2458945    4.2458945    4.2458945   -3227.1025   -6764.6462     3278.348   -6195.0092   -6930.1141   -9487.0407   -2435.1258    76.543374 
   99200    961.68736   -119.26151   0.87015494   -118.39136    -4173.954    4.2462861    4.2462861    4.2462861    -4173.954   -13330.776   -3846.1621    4655.0764    498.13307    8115.7159    5453.9183    76.564554 
   99300    762.92295   -119.08355   0.69030871   -118.39324   -6197.2596    4.2483506    4.2483506    4.2483506   -6197.2596   -2318.8839   -268.96368   -16003.931    1026.5562    27158.244   -12.024846     76.67628 
   99400    792.59758    -119.1086   0.71715895   -118.39144   -3014.2903      4.24595      4.24595      4.24595   -3014.2903     4892.141    9353.5375   -23288.549   -3796.6183    6491.8658   -5149.4474    76.546375 
   99500    921.56422   -119.22186   0.83385067     -118.388   -6479.9389    4.2485961    4.2485961    4.2485961   -6479.9389   -8539.8981     9638.168   -20538.087    -9253.087   -9032.9055    2690.7575    76.689579 
   99600    638.36101   -118.96705   0.57760246   -118.38945    2915.4099    4.2495871    4.2495871    4.2495871    2915.4099   -8020.7354    23051.205   -6284.2399   -4037.4792    19067.461    4226.7733    76.743254 
   99700    684.84372   -119.00847   0.61966099   -118.38881    10491.278    4.2474036    4.2474036    4.2474036    10491.278   -4270.4609    29734.712    6009.5826    432.87923    23563.493   -8406.7384    76.625019 
   99800    970.22225   -119.26291   0.87787748   -118.38503    4833.0198    4.2491582    4.2491582    4.2491582    4833.0198   -7442.2741    19559.693    2381.6406   -5066.1516   -6754.0439   -12750.803    76.720019 
   99900     727.1527   -119.04438   0.65794304   -118.38644   -1676.9825    4.2493167    4.2493167    4.2493167   -1676.9825    -10703.88    5094.4465    578.48633    -6669.472    3561.5917    1275.1691    76.728607 
  100000     540.9176   -118.88139   0.48943361   -118.39196   -1837.9081    4.2463706    4.2463706    4.2463706   -1837.9081    1396.5143    814.17423    -7724.413   -3660.9422    30245.617    11915.968    76.569123 
Loop time of 221.761 on 1 procs for 100000 steps with 8 atoms

Pair  time (%) = 70.4476 (31.7673)
Kspce time (%) = 58.875 (26.5489)
Neigh time (%) = 0 (0)
Comm  time (%) = 11.1924 (5.04706)
Outpt time (%) = 0.298089 (0.134419)
Other time (%) = 80.9478 (36.5023)

Nlocal:    8 ave 8 max 8 min
Histogram: 1 0 0 0 0 0 0 0 0 0
Nghost:    2189 ave 2189 max 2189 min
Histogram: 1 0 0 0 0 0 0 0 0 0
Neighs:    2472 ave 2472 max 2472 min
Histogram: 1 0 0 0 0 0 0 0 0 0

Total # of neighbors = 2472
Ave neighs/atom = 309
Neighbor list builds = 0
Dangerous builds = 0
unfix 20
unfix 21
print "seeds:4640459"
seeds:4640459
