   2   2   0   0
  0.1090254E+02  0.2793739E-09  0.2793739E-09  0.2793739E-09  0.5000000E-15
  1.000000000000000E-004
  CAR 
 automatically generated by pyflamestk   
     29.84297866     -0.72282724  301      9.25954412      1.00000000
     -0.723  0.0000E+00  0.0000E+00  0.0000E+00  0.0000E+00
     -0.621  0.0000E+00  0.0000E+00  0.0000E+00  0.0000E+00
     -0.519  0.0000E+00  0.0000E+00  0.0000E+00  0.0000E+00
     -0.417  0.0000E+00 -0.1986E-30  0.0000E+00 -0.2023E-31
     -0.315 -0.1680E-27 -0.8068E-27 -0.1712E-28 -0.8222E-28
     -0.213 -0.4476E-24 -0.1943E-23 -0.4563E-25 -0.1980E-24
     -0.112 -0.7067E-21 -0.2771E-20 -0.7205E-22 -0.2825E-21
     -0.010 -0.6603E-18 -0.2339E-17 -0.6735E-19 -0.2386E-18
      0.092 -0.3648E-15 -0.1167E-14 -0.3724E-16 -0.1191E-15
      0.194 -0.1152E-12 -0.3322E-12 -0.1177E-13 -0.3396E-13
      0.296 -0.2200E-10 -0.5723E-10 -0.2253E-11 -0.5865E-11
      0.398 -0.2464E-08 -0.5778E-08 -0.2533E-09 -0.5946E-09
      0.500 -0.1611E-06 -0.3400E-06 -0.1666E-07 -0.3524E-07
      0.602 -0.6095E-05 -0.1156E-04 -0.6376E-06 -0.1213E-05
      0.704 -0.1316E-03 -0.2233E-03 -0.1405E-04 -0.2396E-04
      0.805 -0.1578E-02 -0.2376E-02 -0.1748E-03 -0.2660E-03
      0.907 -0.9851E-02 -0.1287E-01 -0.1178E-02 -0.1577E-02
      1.009 -0.2559E-01 -0.2590E-01 -0.3786E-02 -0.4216E-02
      1.111  0.1741E-01  0.4458E-01 -0.2012E-02  0.3264E-03
      1.213  0.2372E+00  0.2954E+00  0.2215E-01  0.3042E-01
      1.315  0.4889E+00  0.5069E+00  0.7197E-01  0.8206E-01
      1.417  0.4220E+00  0.3713E+00  0.1150E+00  0.1199E+00
      1.519  0.1390E+00  0.9352E-01  0.1291E+00  0.1294E+00
      1.621 -0.1327E-01 -0.2158E-01  0.1278E+00  0.1272E+00
      1.722 -0.2091E-01 -0.1744E-01  0.1256E+00  0.1254E+00
      1.824 -0.5602E-02 -0.3951E-02  0.1251E+00  0.1250E+00
      1.926 -0.7043E-03 -0.4376E-03  0.1250E+00  0.1250E+00
      2.028 -0.4751E-04 -0.2634E-04  0.1250E+00  0.1250E+00
      2.130 -0.1801E-05 -0.8955E-06  0.1250E+00  0.1250E+00
      2.232 -0.3920E-07 -0.1753E-07  0.1250E+00  0.1250E+00
      2.334 -0.4955E-09 -0.1996E-09  0.1250E+00  0.1250E+00
      2.436 -0.1242E-10 -0.5246E-11  0.1250E+00  0.1250E+00
      2.538 -0.1212E-08 -0.5885E-09  0.1250E+00  0.1250E+00
      2.639 -0.9819E-07 -0.5178E-07  0.1250E+00  0.1250E+00
      2.741 -0.4621E-05 -0.2651E-05  0.1250E+00  0.1250E+00
      2.843 -0.1249E-03 -0.7812E-04  0.1250E+00  0.1250E+00
      2.945 -0.1901E-02 -0.1301E-02  0.1248E+00  0.1249E+00
      3.047 -0.1557E-01 -0.1177E-01  0.1232E+00  0.1237E+00
      3.149 -0.6045E-01 -0.5213E-01  0.1170E+00  0.1183E+00
      3.251 -0.4683E-01 -0.6508E-01  0.1123E+00  0.1117E+00
      3.353  0.3844E+00  0.2782E+00  0.1514E+00  0.1401E+00
      3.454  0.1234E+01  0.1111E+01  0.2771E+00  0.2533E+00
      3.556  0.1483E+01  0.1521E+01  0.4282E+00  0.4082E+00
      3.658  0.7508E+00  0.8894E+00  0.5047E+00  0.4989E+00
      3.760  0.6861E-01  0.1355E+00  0.5117E+00  0.5127E+00
      3.862 -0.7758E-01 -0.7764E-01  0.5038E+00  0.5048E+00
      3.964 -0.3167E-01 -0.3879E-01  0.5006E+00  0.5008E+00
      4.066 -0.7825E-02 -0.7189E-02  0.4998E+00  0.5001E+00
      4.168 -0.2006E-01 -0.8935E-03  0.4977E+00  0.5000E+00
      4.270 -0.6728E-01 -0.2990E-02  0.4909E+00  0.4997E+00
      4.371 -0.2240E-01 -0.2136E-01  0.4886E+00  0.4975E+00
      4.473  0.4881E+00 -0.6963E-01  0.5383E+00  0.4904E+00
      4.575  0.1328E+01 -0.1064E-01  0.6736E+00  0.4893E+00
      4.677  0.1423E+01  0.5304E+00  0.8187E+00  0.5434E+00
      4.779  0.6080E+00  0.1361E+01  0.8806E+00  0.6820E+00
      4.881 -0.5132E-01  0.1400E+01  0.8754E+00  0.8247E+00
      4.983 -0.7949E-01  0.5855E+00  0.8673E+00  0.8843E+00
      5.085  0.5081E+00 -0.6843E-02  0.9190E+00  0.8836E+00
      5.187  0.1308E+01 -0.1306E+00  0.1052E+01  0.8703E+00
      5.288  0.1507E+01 -0.9759E-01  0.1206E+01  0.8604E+00
      5.390  0.1504E+01  0.2495E+00  0.1359E+01  0.8858E+00
      5.492  0.1993E+01  0.1062E+01  0.1562E+01  0.9940E+00
      5.594  0.2147E+01  0.1871E+01  0.1781E+01  0.1185E+01
      5.696  0.1389E+01  0.2488E+01  0.1922E+01  0.1438E+01
      5.798  0.5279E+00  0.2590E+01  0.1976E+01  0.1702E+01
      5.900  0.6427E+00  0.1522E+01  0.2042E+01  0.1857E+01
      6.002  0.2114E+01  0.3345E+00  0.2257E+01  0.1891E+01
      6.104  0.3826E+01  0.2696E+00  0.2647E+01  0.1919E+01
      6.205  0.4248E+01  0.7676E+00  0.3080E+01  0.1997E+01
      6.307  0.3492E+01  0.1106E+01  0.3435E+01  0.2110E+01
      6.409  0.2170E+01  0.1727E+01  0.3657E+01  0.2286E+01
      6.511  0.1101E+01  0.2472E+01  0.3769E+01  0.2537E+01
      6.613  0.1731E+01  0.2811E+01  0.3945E+01  0.2824E+01
      6.715  0.3169E+01  0.3304E+01  0.4268E+01  0.3160E+01
      6.817  0.2970E+01  0.3328E+01  0.4571E+01  0.3499E+01
      6.919  0.1799E+01  0.1982E+01  0.4754E+01  0.3701E+01
      7.021  0.2307E+01  0.7839E+00  0.4989E+01  0.3781E+01
      7.122  0.3815E+01  0.1273E+01  0.5378E+01  0.3911E+01
      7.224  0.3461E+01  0.2723E+01  0.5730E+01  0.4188E+01
      7.326  0.1588E+01  0.3907E+01  0.5892E+01  0.4586E+01
      7.428  0.4592E+00  0.4325E+01  0.5939E+01  0.5027E+01
      7.530  0.2418E+00  0.3936E+01  0.5964E+01  0.5428E+01
      7.632  0.1162E+00  0.2905E+01  0.5975E+01  0.5724E+01
      7.734  0.5885E+00  0.1419E+01  0.6035E+01  0.5869E+01
      7.836  0.2111E+01  0.2311E+00  0.6250E+01  0.5892E+01
      7.937  0.3155E+01 -0.4861E-01  0.6572E+01  0.5887E+01
      8.039  0.2778E+01  0.2188E+00  0.6855E+01  0.5910E+01
      8.141  0.2868E+01  0.4882E+00  0.7147E+01  0.5959E+01
      8.243  0.4112E+01  0.8892E+00  0.7566E+01  0.6050E+01
      8.345  0.4653E+01  0.1638E+01  0.8040E+01  0.6217E+01
      8.447  0.4293E+01  0.2314E+01  0.8478E+01  0.6453E+01
      8.549  0.4010E+01  0.2702E+01  0.8886E+01  0.6728E+01
      8.651  0.3954E+01  0.3151E+01  0.9289E+01  0.7049E+01
      8.753  0.4422E+01  0.4138E+01  0.9740E+01  0.7470E+01
      8.854  0.4332E+01  0.5243E+01  0.1018E+02  0.8005E+01
      8.956  0.2663E+01  0.5390E+01  0.1045E+02  0.8554E+01
      9.058  0.7387E+00  0.4201E+01  0.1053E+02  0.8982E+01
      9.160 -0.1277E+00  0.2736E+01  0.1051E+02  0.9261E+01
      9.262 -0.2120E+00  0.2483E+01  0.1049E+02  0.9514E+01
      9.364  0.3995E-01  0.3173E+01  0.1050E+02  0.9837E+01
      9.466  0.7713E+00  0.3475E+01  0.1058E+02  0.1019E+02
      9.568  0.1492E+01  0.2459E+01  0.1073E+02  0.1044E+02
      9.670  0.1211E+01  0.7895E+00  0.1085E+02  0.1052E+02
      9.771  0.3630E+00 -0.1303E+00  0.1089E+02  0.1051E+02
      9.873 -0.5106E-01 -0.1542E+00  0.1088E+02  0.1049E+02
      9.975 -0.5888E-01  0.4395E+00  0.1088E+02  0.1054E+02
     10.077 -0.1478E-01  0.1315E+01  0.1088E+02  0.1067E+02
     10.179 -0.1770E-02  0.1432E+01  0.1088E+02  0.1082E+02
     10.281 -0.1143E-03  0.6427E+00  0.1088E+02  0.1088E+02
     10.383 -0.4160E-05  0.2591E-01  0.1088E+02  0.1089E+02
     10.485 -0.8701E-07 -0.7469E-01  0.1088E+02  0.1088E+02
     10.587 -0.5147E-08 -0.2630E-01  0.1087E+02  0.1088E+02
     10.688 -0.2872E-06 -0.3987E-02  0.1087E+02  0.1088E+02
     10.790 -0.1169E-04 -0.3171E-03  0.1087E+02  0.1088E+02
     10.892 -0.2721E-03 -0.1408E-04  0.1087E+02  0.1088E+02
     10.994 -0.3534E-02 -0.2213E-05  0.1087E+02  0.1087E+02
     11.096 -0.2420E-01 -0.5777E-04  0.1087E+02  0.1087E+02
     11.198 -0.7283E-01 -0.1018E-02  0.1086E+02  0.1087E+02
     11.300  0.9844E-02 -0.9794E-02  0.1087E+02  0.1087E+02
     11.402  0.5961E+00 -0.4690E-01  0.1093E+02  0.1087E+02
     11.503  0.1404E+01 -0.7212E-01  0.1107E+02  0.1086E+02
     11.605  0.1342E+01  0.2188E+00  0.1121E+02  0.1088E+02
     11.707  0.4652E+00  0.1028E+01  0.1125E+02  0.1099E+02
     11.809 -0.9331E-01  0.1524E+01  0.1124E+02  0.1114E+02
     11.911  0.1933E+00  0.9398E+00  0.1126E+02  0.1124E+02
     12.013  0.1215E+01  0.9665E-01  0.1139E+02  0.1125E+02
     12.115  0.1953E+01 -0.6280E-02  0.1159E+02  0.1125E+02
     12.217  0.1401E+01  0.7868E+00  0.1173E+02  0.1133E+02
     12.319  0.3624E+00  0.1742E+01  0.1177E+02  0.1151E+02
     12.420 -0.7523E-01  0.1677E+01  0.1176E+02  0.1168E+02
     12.522 -0.6650E-01  0.7509E+00  0.1175E+02  0.1175E+02
     12.624 -0.1583E-01  0.7361E-01  0.1175E+02  0.1176E+02
     12.726 -0.1846E-02 -0.7242E-01  0.1175E+02  0.1175E+02
     12.828 -0.1172E-03 -0.3411E-01  0.1175E+02  0.1175E+02
     12.930 -0.4218E-05 -0.6855E-02  0.1175E+02  0.1175E+02
     13.032 -0.8751E-07 -0.7432E-03  0.1175E+02  0.1175E+02
     13.134 -0.1058E-08 -0.4586E-04  0.1175E+02  0.1175E+02
     13.236 -0.7487E-11 -0.1639E-05  0.1175E+02  0.1175E+02
     13.337 -0.3133E-13 -0.3421E-07  0.1175E+02  0.1175E+02
     13.439  0.0000E+00 -0.4184E-09  0.1175E+02  0.1175E+02
     13.541  0.0000E+00 -0.3008E-11  0.1175E+02  0.1175E+02
     13.643  0.0000E+00 -0.1280E-13  0.1175E+02  0.1175E+02
     13.745  0.0000E+00  0.0000E+00  0.1175E+02  0.1175E+02
     13.847  0.0000E+00  0.0000E+00  0.1175E+02  0.1175E+02
     13.949  0.0000E+00  0.0000E+00  0.1175E+02  0.1175E+02
     14.051 -0.1007E-28  0.0000E+00  0.1175E+02  0.1175E+02
     14.153 -0.3352E-25  0.0000E+00  0.1175E+02  0.1175E+02
     14.254 -0.6609E-22 -0.1749E-28  0.1175E+02  0.1175E+02
     14.356 -0.7717E-19 -0.5622E-25  0.1175E+02  0.1175E+02
     14.458 -0.5330E-16 -0.1071E-21  0.1175E+02  0.1175E+02
     14.560 -0.2107E-13 -0.1208E-18  0.1175E+02  0.1175E+02
     14.662 -0.5049E-11 -0.8057E-16  0.1175E+02  0.1175E+02
     14.764 -0.7096E-09 -0.3081E-13  0.1175E+02  0.1175E+02
     14.866 -0.5835E-07 -0.7115E-11  0.1175E+02  0.1175E+02
     14.968 -0.2789E-05 -0.9654E-09  0.1175E+02  0.1175E+02
     15.070 -0.7662E-04 -0.7661E-07  0.1175E+02  0.1175E+02
     15.171 -0.1187E-02 -0.3531E-05  0.1175E+02  0.1175E+02
     15.273 -0.9941E-02 -0.9343E-04  0.1175E+02  0.1175E+02
     15.375 -0.4040E-01 -0.1390E-02  0.1174E+02  0.1175E+02
     15.477 -0.4425E-01 -0.1110E-01  0.1174E+02  0.1175E+02
     15.579  0.1943E+00 -0.4184E-01  0.1176E+02  0.1174E+02
     15.681  0.7380E+00 -0.3002E-01  0.1184E+02  0.1174E+02
     15.783  0.1230E+01  0.2545E+00  0.1196E+02  0.1177E+02
     15.885  0.1570E+01  0.7724E+00  0.1212E+02  0.1185E+02
     15.986  0.1582E+01  0.9647E+00  0.1228E+02  0.1194E+02
     16.088  0.8983E+00  0.9946E+00  0.1237E+02  0.1205E+02
     16.190  0.1480E+00  0.1387E+01  0.1239E+02  0.1219E+02
     16.292 -0.7972E-01  0.1357E+01  0.1238E+02  0.1233E+02
     16.394 -0.4256E-01  0.5812E+00  0.1238E+02  0.1238E+02
     16.496 -0.8249E-02  0.8264E-02  0.1238E+02  0.1239E+02
     16.598 -0.8096E-03 -0.7331E-01  0.1238E+02  0.1238E+02
     16.700 -0.4377E-04 -0.2443E-01  0.1238E+02  0.1238E+02
     16.802 -0.6687E-05 -0.3580E-02  0.1237E+02  0.1238E+02
     16.903 -0.1325E-03 -0.2841E-03  0.1237E+02  0.1238E+02
     17.005 -0.1837E-02 -0.1890E-03  0.1237E+02  0.1237E+02
     17.107 -0.1355E-01 -0.2312E-02  0.1237E+02  0.1237E+02
     17.209 -0.4551E-01 -0.1593E-01  0.1237E+02  0.1237E+02
     17.311 -0.1182E-01 -0.4834E-01  0.1237E+02  0.1237E+02
     17.413  0.3365E+00  0.4995E-02  0.1240E+02  0.1237E+02
     17.515  0.8900E+00  0.3926E+00  0.1249E+02  0.1241E+02
     17.617  0.9243E+00  0.9330E+00  0.1259E+02  0.1250E+02
     17.719  0.3917E+00  0.8987E+00  0.1263E+02  0.1260E+02
     17.820  0.1314E+00  0.3283E+00  0.1264E+02  0.1263E+02
     17.922  0.3547E+00 -0.6625E-02  0.1268E+02  0.1263E+02
     18.024  0.4794E+00  0.1448E+00  0.1272E+02  0.1264E+02
     18.126  0.2474E+00  0.4482E+00  0.1275E+02  0.1269E+02
     18.228  0.1406E-02  0.4457E+00  0.1275E+02  0.1273E+02
     18.330 -0.1522E-01  0.1558E+00  0.1275E+02  0.1275E+02
     18.432  0.2091E+00  0.9416E-02  0.1277E+02  0.1275E+02
     18.534  0.4787E+00  0.1991E+00  0.1282E+02  0.1277E+02
     18.636  0.4332E+00  0.4747E+00  0.1286E+02  0.1282E+02
     18.737  0.1366E+00  0.4322E+00  0.1288E+02  0.1286E+02
     18.839 -0.7358E-01  0.1470E+00  0.1287E+02  0.1288E+02
     18.941 -0.5786E-01 -0.4002E-01  0.1286E+02  0.1287E+02
     19.043  0.4277E+00 -0.9863E-01  0.1291E+02  0.1286E+02
     19.145  0.1281E+01  0.4781E-01  0.1304E+02  0.1287E+02
     19.247  0.1458E+01  0.7149E+00  0.1319E+02  0.1294E+02
     19.349  0.6921E+00  0.1468E+01  0.1326E+02  0.1309E+02
     19.451  0.4446E-01  0.1263E+01  0.1326E+02  0.1322E+02
     19.552 -0.7627E-01  0.4136E+00  0.1325E+02  0.1326E+02
     19.654 -0.2861E-01 -0.4060E-01  0.1325E+02  0.1326E+02
     19.756 -0.4513E-02 -0.6250E-01  0.1325E+02  0.1325E+02
     19.858 -0.3721E-03 -0.1667E-01  0.1325E+02  0.1325E+02
     19.960 -0.4253E-04 -0.2090E-02  0.1325E+02  0.1325E+02
     20.062 -0.5307E-03 -0.1523E-03  0.1325E+02  0.1325E+02
     20.164 -0.6160E-02 -0.2835E-03  0.1325E+02  0.1325E+02
     20.266 -0.3786E-01 -0.3712E-02  0.1325E+02  0.1325E+02
     20.368 -0.1014E+00 -0.2670E-01  0.1324E+02  0.1325E+02
     20.469  0.3681E-01 -0.9018E-01  0.1324E+02  0.1324E+02
     20.571  0.8619E+00 -0.4111E-01  0.1333E+02  0.1323E+02
     20.673  0.2037E+01  0.6093E+00  0.1353E+02  0.1330E+02
     20.775  0.2160E+01  0.1826E+01  0.1375E+02  0.1348E+02
     20.877  0.1054E+01  0.2281E+01  0.1386E+02  0.1371E+02
     20.979  0.2948E+00  0.1328E+01  0.1389E+02  0.1385E+02
     21.081  0.7800E+00  0.3711E+00  0.1397E+02  0.1389E+02
     21.183  0.1467E+01  0.6545E+00  0.1412E+02  0.1395E+02
     21.285  0.1113E+01  0.1413E+01  0.1423E+02  0.1410E+02
     21.386  0.2869E+00  0.1227E+01  0.1426E+02  0.1422E+02
     21.488 -0.6376E-01  0.3910E+00  0.1426E+02  0.1426E+02
     21.590 -0.5296E-01 -0.4519E-01  0.1425E+02  0.1426E+02
     21.692 -0.1211E-01 -0.6106E-01  0.1425E+02  0.1425E+02
     21.794 -0.1351E-02 -0.1589E-01  0.1425E+02  0.1425E+02
     21.896 -0.8188E-04 -0.1955E-02  0.1425E+02  0.1425E+02
     21.998 -0.2802E-05 -0.1294E-03  0.1425E+02  0.1425E+02
     22.100 -0.5534E-07 -0.4816E-05  0.1425E+02  0.1425E+02
     22.202 -0.1583E-07 -0.1033E-06  0.1425E+02  0.1425E+02
     22.303 -0.9092E-06 -0.3042E-07  0.1425E+02  0.1425E+02
     22.405 -0.3142E-04 -0.1606E-05  0.1425E+02  0.1425E+02
     22.507 -0.6178E-03 -0.5105E-04  0.1425E+02  0.1425E+02
     22.609 -0.6698E-02 -0.9199E-03  0.1425E+02  0.1425E+02
     22.711 -0.3711E-01 -0.9075E-02  0.1425E+02  0.1425E+02
     22.813 -0.7803E-01 -0.4481E-01  0.1424E+02  0.1424E+02
     22.915  0.1195E+00 -0.7413E-01  0.1425E+02  0.1424E+02
     23.017  0.8588E+00  0.1965E+00  0.1434E+02  0.1426E+02
     23.119  0.1515E+01  0.9939E+00  0.1449E+02  0.1436E+02
     23.220  0.1139E+01  0.1531E+01  0.1461E+02  0.1451E+02
     23.322  0.3004E+00  0.1010E+01  0.1464E+02  0.1462E+02
     23.424 -0.6185E-01  0.2071E+00  0.1463E+02  0.1464E+02
     23.526 -0.5398E-01 -0.7322E-01  0.1463E+02  0.1463E+02
     23.628 -0.1254E-01 -0.4581E-01  0.1463E+02  0.1463E+02
     23.730 -0.1416E-02 -0.9414E-02  0.1463E+02  0.1463E+02
     23.832 -0.8674E-04 -0.9656E-03  0.1463E+02  0.1463E+02
     23.934 -0.2999E-05 -0.5417E-04  0.1463E+02  0.1463E+02
     24.035 -0.5969E-07 -0.1722E-05  0.1463E+02  0.1463E+02
     24.137 -0.6909E-09 -0.3157E-07  0.1463E+02  0.1463E+02
     24.239 -0.2044E-10 -0.3372E-09  0.1462E+02  0.1463E+02
     24.341 -0.2054E-08 -0.5887E-10  0.1462E+02  0.1462E+02
     24.443 -0.1565E-06 -0.6462E-08  0.1462E+02  0.1462E+02
     24.545 -0.6918E-05 -0.4294E-06  0.1462E+02  0.1462E+02
     24.647 -0.1754E-03 -0.1652E-04  0.1462E+02  0.1462E+02
     24.749 -0.2495E-02 -0.3629E-03  0.1462E+02  0.1462E+02
     24.851 -0.1894E-01 -0.4432E-02  0.1462E+02  0.1462E+02
     24.952 -0.6625E-01 -0.2827E-01  0.1462E+02  0.1462E+02
     25.054 -0.2676E-01 -0.7607E-01  0.1461E+02  0.1461E+02
     25.156  0.4715E+00  0.4162E-01  0.1466E+02  0.1462E+02
     25.258  0.1315E+01  0.6848E+00  0.1480E+02  0.1469E+02
     25.360  0.1437E+01  0.1454E+01  0.1494E+02  0.1484E+02
     25.462  0.6492E+00  0.1287E+01  0.1501E+02  0.1497E+02
     25.564  0.2171E-01  0.4394E+00  0.1501E+02  0.1501E+02
     25.666 -0.1123E+00 -0.4286E-01  0.1500E+02  0.1501E+02
     25.768 -0.1046E+00 -0.1070E+00  0.1499E+02  0.1500E+02
     25.869  0.1178E+00 -0.9342E-01  0.1500E+02  0.1499E+02
     25.971  0.8631E+00  0.1726E+00  0.1509E+02  0.1500E+02
     26.073  0.1516E+01  0.9586E+00  0.1524E+02  0.1510E+02
     26.175  0.1135E+01  0.1530E+01  0.1536E+02  0.1526E+02
     26.277  0.2967E+00  0.1045E+01  0.1539E+02  0.1536E+02
     26.379 -0.6628E-01  0.2271E+00  0.1538E+02  0.1539E+02
     26.481 -0.7972E-01 -0.9308E-01  0.1537E+02  0.1538E+02
     26.583 -0.8688E-01 -0.1185E+00  0.1536E+02  0.1537E+02
     26.685  0.2224E-01 -0.1545E-01  0.1537E+02  0.1536E+02
     26.786  0.6363E+00  0.5474E+00  0.1543E+02  0.1542E+02
     26.888  0.1429E+01  0.1374E+01  0.1558E+02  0.1556E+02
     26.990  0.1325E+01  0.1388E+01  0.1571E+02  0.1570E+02
     27.092  0.4837E+00  0.5686E+00  0.1576E+02  0.1576E+02
     27.194 -0.2375E-01  0.8810E-03  0.1576E+02  0.1576E+02
     27.296 -0.6934E-01 -0.7244E-01  0.1575E+02  0.1575E+02
     27.398 -0.3553E-01 -0.3089E-01  0.1575E+02  0.1575E+02
     27.500 -0.5110E-01 -0.3817E-01  0.1574E+02  0.1575E+02
     27.601  0.6069E-02 -0.4342E-01  0.1574E+02  0.1574E+02
     27.703  0.3965E+00  0.1870E+00  0.1578E+02  0.1576E+02
     27.805  0.9365E+00  0.7427E+00  0.1588E+02  0.1584E+02
     27.907  0.9037E+00  0.1014E+01  0.1597E+02  0.1594E+02
     28.009  0.3486E+00  0.5907E+00  0.1601E+02  0.1600E+02
     28.111 -0.8538E-02  0.8916E-01  0.1601E+02  0.1601E+02
     28.213 -0.4615E-01 -0.5180E-01  0.1600E+02  0.1600E+02
     28.315 -0.1403E-01 -0.2573E-01  0.1600E+02  0.1600E+02
     28.417 -0.1929E-02 -0.4751E-02  0.1600E+02  0.1600E+02
     28.518 -0.1409E-03 -0.4465E-03  0.1600E+02  0.1600E+02
     28.620 -0.5761E-05 -0.2311E-04  0.1600E+02  0.1600E+02
     28.722 -0.1349E-06 -0.6800E-06  0.1600E+02  0.1600E+02
     28.824 -0.1833E-08 -0.1156E-07  0.1600E+02  0.1600E+02
     28.926 -0.1455E-10 -0.1145E-09  0.1600E+02  0.1600E+02
     29.028 -0.6810E-13 -0.6647E-12  0.1600E+02  0.1600E+02
     29.130  0.0000E+00 -0.2179E-14  0.1600E+02  0.1600E+02
     29.232  0.0000E+00  0.0000E+00  0.1600E+02  0.1600E+02
     29.334  0.0000E+00  0.0000E+00  0.1600E+02  0.1600E+02
     29.435  0.0000E+00  0.0000E+00  0.1600E+02  0.1600E+02
     29.537  0.0000E+00  0.0000E+00  0.1600E+02  0.1600E+02
     29.639  0.0000E+00  0.0000E+00  0.1600E+02  0.1600E+02
     29.741  0.0000E+00  0.0000E+00  0.1600E+02  0.1600E+02
     29.843  0.0000E+00  0.0000E+00  0.1600E+02  0.1600E+02
