    2    2    1    2
  0.1090254E+02  0.2793739E-09  0.2793739E-09  0.2793739E-09  0.5000000E-15
  1.000000000000000E-004
  CAR 
 automatically generated by pyflamestk   
     20      4     16
 
  0.1250000E+00  0.1250000E+00  0.1250000E+00  0.1250000E+00
    1        1.296916      1.277173   1.000000   1.000000
    2        5.419998      5.720839   1.000000   1.000000
    3        5.419998      5.720839   1.000000   1.000000
    4        6.798358      7.373679   1.000000   1.000000
    5        6.798358      7.373679   1.000000   1.000000
    6        7.467299      8.072283   1.000000   1.000000
    7        7.950971      8.546277   1.000000   1.000003
    8        8.318485      8.776702   1.000000   1.001684
    9        8.318485      8.776702   1.000000   1.001684
   10        8.802614      9.450860   1.002869  -0.020015
   11        8.802614      9.450860   1.002869  -0.020015
   12       17.521295     17.612971   0.000000   0.000000
   13       17.521295     17.612971   0.000000   0.000000
   14       18.521573     18.622595   0.000000   0.000000
   15       27.800889     27.842979   0.000000   0.000000
   16       27.800889     27.842979   0.000000   0.000000
 
  0.3750000E+00  0.1250000E+00  0.1250000E+00  0.3750000E+00
    1        3.476946      3.492593   1.000000   1.000000
    2        5.542424      5.762989   1.000000   1.000000
    3        6.091290      6.442746   1.000000   1.000000
    4        6.647694      7.140856   1.000000   1.000000
    5        6.711794      7.261994   1.000000   1.000000
    6        7.068946      7.609827   1.000000   1.000000
    7        7.839002      8.324950   1.000000   1.000000
    8        7.916248      8.494581   1.000000   1.000000
    9        8.234975      8.846193   1.000000   1.006405
   10        8.696794      9.200258   1.000255   0.739058
   11        8.739526      9.324950   1.000732   0.238968
   12       11.498957     11.755185  -0.000000  -0.000000
   13       20.645645     20.771008   0.000000   0.000000
   14       21.146120     21.263283   0.000000   0.000000
   15       25.268956     25.345091   0.000000   0.000000
   16       26.038039     26.129121   0.000000   0.000000
 
  0.3750000E+00  0.3750000E+00  0.1250000E+00  0.3750000E+00
    1        4.583966      4.782460   1.000000   1.000000
    2        5.183840      5.522471   1.000000   1.000000
    3        6.141690      6.678496   1.000000   1.000000
    4        6.289659      6.816081   1.000000   1.000000
    5        7.076848      7.376221   1.000000   1.000000
    6        7.184314      7.505238   1.000000   1.000000
    7        8.137669      8.654956   1.000000   1.000082
    8        8.283146      8.790155   1.000000   1.002232
    9        8.504397      8.973929   1.000001   1.030702
   10        8.875885      9.473361   1.010316  -0.030891
   11        9.542224     10.087112  -0.031272  -0.000000
   12       12.089186     12.289644  -0.000000  -0.000000
   13       15.929583     16.195366   0.000000   0.000000
   14       19.160688     19.330265   0.000000   0.000000
   15       23.083856     23.170398   0.000000   0.000000
   16       26.879003     26.889508   0.000000   0.000000
 
  0.3750000E+00  0.3750000E+00  0.3750000E+00  0.1250000E+00
    1        5.700228      6.173802   1.000000   1.000000
    2        5.943325      6.205778   1.000000   1.000000
    3        6.024035      6.501145   1.000000   1.000000
    4        6.024035      6.501145   1.000000   1.000000
    5        6.345942      6.738156   1.000000   1.000000
    6        6.345942      6.738156   1.000000   1.000000
    7        8.490381      8.977538   1.000000   1.031400
    8        8.490381      8.977538   1.000000   1.031400
    9        8.497775      8.995080   1.000001   1.034177
   10        8.497775      8.995080   1.000001   1.034177
   11       12.014638     12.398454  -0.000000  -0.000000
   12       15.706103     15.903146   0.000000   0.000000
   13       15.706103     15.903146   0.000000   0.000000
   14       17.947712     18.124237   0.000000   0.000000
   15       20.745012     20.867090   0.000000   0.000000
   16       20.745012     20.867090   0.000000   0.000000
