   2   2   0   0
  0.9563318E+01  0.3001819E-09  0.3001820E-09  0.3001819E-09  0.5000000E-15
  1.000000000000000E-004
  CAR 
 automatically generated by pyflamestk   
     44.07617853    -16.34403549  301      3.61981022      1.00000000
    -16.344  0.0000E+00  0.0000E+00
    -16.143  0.0000E+00  0.0000E+00
    -15.941  0.0000E+00  0.0000E+00
    -15.740  0.0000E+00  0.0000E+00
    -15.538  0.0000E+00  0.0000E+00
    -15.337  0.0000E+00  0.0000E+00
    -15.136  0.0000E+00  0.0000E+00
    -14.934  0.0000E+00  0.0000E+00
    -14.733  0.0000E+00  0.0000E+00
    -14.531  0.0000E+00  0.0000E+00
    -14.330  0.0000E+00  0.0000E+00
    -14.129  0.0000E+00  0.0000E+00
    -13.927  0.0000E+00  0.0000E+00
    -13.726  0.4483E-04  0.9029E-05
    -13.524  0.3043E+00  0.6130E-01
    -13.323  0.1053E-01  0.6342E-01
    -13.122  0.9255E+00  0.2498E+00
    -12.920  0.6690E+00  0.3846E+00
    -12.719  0.7956E+00  0.5448E+00
    -12.517  0.2492E+01  0.1047E+01
    -12.316  0.2864E+01  0.1623E+01
    -12.115  0.1870E+01  0.2000E+01
    -11.913  0.7798E-06  0.2000E+01
    -11.712  0.0000E+00  0.2000E+01
    -11.510  0.0000E+00  0.2000E+01
    -11.309  0.0000E+00  0.2000E+01
    -11.108  0.0000E+00  0.2000E+01
    -10.906  0.0000E+00  0.2000E+01
    -10.705  0.0000E+00  0.2000E+01
    -10.503  0.0000E+00  0.2000E+01
    -10.302  0.0000E+00  0.2000E+01
    -10.101  0.0000E+00  0.2000E+01
     -9.899  0.0000E+00  0.2000E+01
     -9.698  0.0000E+00  0.2000E+01
     -9.496  0.0000E+00  0.2000E+01
     -9.295  0.0000E+00  0.2000E+01
     -9.094  0.0000E+00  0.2000E+01
     -8.892  0.0000E+00  0.2000E+01
     -8.691  0.0000E+00  0.2000E+01
     -8.489  0.0000E+00  0.2000E+01
     -8.288  0.0000E+00  0.2000E+01
     -8.087  0.0000E+00  0.2000E+01
     -7.885  0.0000E+00  0.2000E+01
     -7.684  0.0000E+00  0.2000E+01
     -7.482  0.0000E+00  0.2000E+01
     -7.281  0.0000E+00  0.2000E+01
     -7.080  0.0000E+00  0.2000E+01
     -6.878  0.0000E+00  0.2000E+01
     -6.677  0.0000E+00  0.2000E+01
     -6.475  0.0000E+00  0.2000E+01
     -6.274  0.0000E+00  0.2000E+01
     -6.073  0.0000E+00  0.2000E+01
     -5.871  0.0000E+00  0.2000E+01
     -5.670  0.0000E+00  0.2000E+01
     -5.468  0.0000E+00  0.2000E+01
     -5.267  0.0000E+00  0.2000E+01
     -5.066  0.0000E+00  0.2000E+01
     -4.864  0.0000E+00  0.2000E+01
     -4.663  0.0000E+00  0.2000E+01
     -4.461  0.0000E+00  0.2000E+01
     -4.260  0.0000E+00  0.2000E+01
     -4.059  0.0000E+00  0.2000E+01
     -3.857  0.0000E+00  0.2000E+01
     -3.656  0.0000E+00  0.2000E+01
     -3.454  0.0000E+00  0.2000E+01
     -3.253  0.0000E+00  0.2000E+01
     -3.052  0.0000E+00  0.2000E+01
     -2.850  0.0000E+00  0.2000E+01
     -2.649  0.0000E+00  0.2000E+01
     -2.447  0.0000E+00  0.2000E+01
     -2.246  0.0000E+00  0.2000E+01
     -2.045  0.0000E+00  0.2000E+01
     -1.843  0.0000E+00  0.2000E+01
     -1.642  0.0000E+00  0.2000E+01
     -1.440  0.0000E+00  0.2000E+01
     -1.239  0.0000E+00  0.2000E+01
     -1.038  0.3856E-08  0.2000E+01
     -0.836  0.4410E+00  0.2089E+01
     -0.635  0.4972E+00  0.2189E+01
     -0.433  0.3317E+00  0.2256E+01
     -0.232  0.1975E+01  0.2654E+01
     -0.031  0.2137E+01  0.3084E+01
      0.171  0.2335E+01  0.3554E+01
      0.372  0.9550E+00  0.3747E+01
      0.574  0.1640E-01  0.3750E+01
      0.775  0.3587E-09  0.3750E+01
      0.976  0.5338E+00  0.3858E+01
      1.178  0.2641E+01  0.4389E+01
      1.379  0.5487E+00  0.4500E+01
      1.581  0.1176E-04  0.4500E+01
      1.782  0.2490E+01  0.5002E+01
      1.983  0.3096E+00  0.5064E+01
      2.185  0.2222E+01  0.5511E+01
      2.386  0.2444E+01  0.6004E+01
      2.588  0.4090E+01  0.6827E+01
      2.789  0.1792E+01  0.7188E+01
      2.990  0.2417E+01  0.7675E+01
      3.192  0.9934E+00  0.7875E+01
      3.393  0.6101E+00  0.7998E+01
      3.595  0.1040E-01  0.8000E+01
      3.796  0.0000E+00  0.8000E+01
      3.997  0.0000E+00  0.8000E+01
      4.199  0.0000E+00  0.8000E+01
      4.400  0.0000E+00  0.8000E+01
      4.602  0.0000E+00  0.8000E+01
      4.803  0.0000E+00  0.8000E+01
      5.004  0.0000E+00  0.8000E+01
      5.206  0.0000E+00  0.8000E+01
      5.407  0.0000E+00  0.8000E+01
      5.609  0.0000E+00  0.8000E+01
      5.810  0.0000E+00  0.8000E+01
      6.011  0.0000E+00  0.8000E+01
      6.213  0.0000E+00  0.8000E+01
      6.414  0.0000E+00  0.8000E+01
      6.616  0.0000E+00  0.8000E+01
      6.817  0.0000E+00  0.8000E+01
      7.018  0.0000E+00  0.8000E+01
      7.220  0.0000E+00  0.8000E+01
      7.421  0.0000E+00  0.8000E+01
      7.623  0.0000E+00  0.8000E+01
      7.824  0.0000E+00  0.8000E+01
      8.025  0.0000E+00  0.8000E+01
      8.227  0.0000E+00  0.8000E+01
      8.428  0.0000E+00  0.8000E+01
      8.630  0.5820E-08  0.8000E+01
      8.831  0.1791E+00  0.8036E+01
      9.032  0.1313E+00  0.8062E+01
      9.234  0.0000E+00  0.8062E+01
      9.435  0.0000E+00  0.8062E+01
      9.637  0.0000E+00  0.8062E+01
      9.838  0.0000E+00  0.8062E+01
     10.039  0.0000E+00  0.8062E+01
     10.241  0.3341E-06  0.8063E+01
     10.442  0.7172E+00  0.8207E+01
     10.644  0.2138E+00  0.8250E+01
     10.845  0.4043E-08  0.8250E+01
     11.046  0.1713E+00  0.8284E+01
     11.248  0.6244E+00  0.8410E+01
     11.449  0.4456E+00  0.8500E+01
     11.651  0.1140E-06  0.8500E+01
     11.852  0.6551E+00  0.8632E+01
     12.053  0.2759E+00  0.8687E+01
     12.255  0.3197E-02  0.8688E+01
     12.456  0.9265E+00  0.8875E+01
     12.658  0.1284E+00  0.8901E+01
     12.859  0.1743E+01  0.9252E+01
     13.060  0.9222E+00  0.9437E+01
     13.262  0.9116E+00  0.9621E+01
     13.463  0.1964E-01  0.9625E+01
     13.665  0.8112E+00  0.9788E+01
     13.866  0.9737E+00  0.9984E+01
     14.067  0.1917E+01  0.1037E+02
     14.269  0.2258E-01  0.1037E+02
     14.470  0.0000E+00  0.1038E+02
     14.672  0.1406E-10  0.1038E+02
     14.873  0.4654E+00  0.1047E+02
     15.074  0.3258E+01  0.1112E+02
     15.276  0.1318E-01  0.1113E+02
     15.477  0.1850E+01  0.1150E+02
     15.679  0.2608E+01  0.1203E+02
     15.880  0.1425E+01  0.1231E+02
     16.081  0.1075E-01  0.1231E+02
     16.283  0.1491E+01  0.1261E+02
     16.484  0.3607E+00  0.1269E+02
     16.686  0.0000E+00  0.1269E+02
     16.887  0.4562E-07  0.1269E+02
     17.088  0.1109E+01  0.1291E+02
     17.290  0.1040E+01  0.1312E+02
     17.491  0.9502E+00  0.1331E+02
     17.693  0.4312E-02  0.1331E+02
     17.894  0.3581E-05  0.1331E+02
     18.095  0.8279E+00  0.1348E+02
     18.297  0.1030E+00  0.1350E+02
     18.498  0.2863E-13  0.1350E+02
     18.700  0.3283E-01  0.1351E+02
     18.901  0.8981E+00  0.1369E+02
     19.102  0.4704E-04  0.1369E+02
     19.304  0.1464E-03  0.1369E+02
     19.505  0.6793E+00  0.1382E+02
     19.707  0.2303E+01  0.1429E+02
     19.908  0.1861E+01  0.1466E+02
     20.109  0.1033E+01  0.1487E+02
     20.311  0.1583E+01  0.1519E+02
     20.512  0.1236E+01  0.1544E+02
     20.714  0.9250E+00  0.1562E+02
     20.915  0.2366E+00  0.1567E+02
     21.116  0.6975E+00  0.1581E+02
     21.318  0.9379E+00  0.1600E+02
     21.519  0.9209E+00  0.1619E+02
     21.721  0.1786E+01  0.1655E+02
     21.922  0.7568E-01  0.1656E+02
     22.124  0.1501E-03  0.1656E+02
     22.325  0.9142E+00  0.1675E+02
     22.526  0.1667E-01  0.1675E+02
     22.728  0.8959E+00  0.1693E+02
     22.929  0.1881E+01  0.1731E+02
     23.131  0.4068E+00  0.1739E+02
     23.332  0.1471E+01  0.1769E+02
     23.533  0.1345E-04  0.1769E+02
     23.735  0.5862E+00  0.1781E+02
     23.936  0.9526E+00  0.1800E+02
     24.138  0.1296E-01  0.1800E+02
     24.339  0.3074E+00  0.1806E+02
     24.540  0.9221E+00  0.1825E+02
     24.742  0.6324E+00  0.1837E+02
     24.943  0.4496E-02  0.1838E+02
     25.145  0.1230E+01  0.1862E+02
     25.346  0.6933E-02  0.1863E+02
     25.547  0.1475E+01  0.1892E+02
     25.749  0.1262E+01  0.1918E+02
     25.950  0.5613E-01  0.1919E+02
     26.152  0.8734E+00  0.1936E+02
     26.353  0.9886E+00  0.1956E+02
     26.554  0.1834E+00  0.1960E+02
     26.756  0.2610E+01  0.2012E+02
     26.957  0.1710E-02  0.2013E+02
     27.159  0.9369E+00  0.2031E+02
     27.360  0.9241E+00  0.2050E+02
     27.561  0.3092E+00  0.2056E+02
     27.763  0.4769E-03  0.2056E+02
     27.964  0.0000E+00  0.2056E+02
     28.166  0.0000E+00  0.2056E+02
     28.367  0.0000E+00  0.2056E+02
     28.568  0.0000E+00  0.2056E+02
     28.770  0.2346E-03  0.2056E+02
     28.971  0.6313E+00  0.2069E+02
     29.173  0.2717E+01  0.2124E+02
     29.374  0.9939E+00  0.2144E+02
     29.575  0.6213E+00  0.2156E+02
     29.777  0.3123E+00  0.2162E+02
     29.978  0.2155E-06  0.2163E+02
     30.180  0.1772E+01  0.2198E+02
     30.381  0.1840E+01  0.2235E+02
     30.582  0.1224E+01  0.2260E+02
     30.784  0.7500E+00  0.2275E+02
     30.985  0.6214E-06  0.2275E+02
     31.187  0.3543E+00  0.2282E+02
     31.388  0.1507E+01  0.2312E+02
     31.589  0.6855E+00  0.2326E+02
     31.791  0.1472E+01  0.2356E+02
     31.992  0.2498E+01  0.2406E+02
     32.194  0.1239E+01  0.2431E+02
     32.395  0.1241E+01  0.2456E+02
     32.596  0.4260E+01  0.2542E+02
     32.798  0.1791E+00  0.2546E+02
     32.999  0.2706E+01  0.2600E+02
     33.201  0.9254E+00  0.2619E+02
     33.402  0.6796E+00  0.2632E+02
     33.603  0.1804E+01  0.2669E+02
     33.805  0.9395E-06  0.2669E+02
     34.006  0.0000E+00  0.2669E+02
     34.208  0.0000E+00  0.2669E+02
     34.409  0.0000E+00  0.2669E+02
     34.610  0.0000E+00  0.2669E+02
     34.812  0.1149E-08  0.2669E+02
     35.013  0.3923E+00  0.2677E+02
     35.215  0.2400E+01  0.2725E+02
     35.416  0.4692E-03  0.2725E+02
     35.617  0.7974E+00  0.2741E+02
     35.819  0.2778E+01  0.2797E+02
     36.020  0.6797E+00  0.2811E+02
     36.222  0.4001E+00  0.2819E+02
     36.423  0.8568E-03  0.2819E+02
     36.624  0.1922E+01  0.2857E+02
     36.826  0.8697E+00  0.2875E+02
     37.027  0.2079E+00  0.2879E+02
     37.229  0.4127E+00  0.2887E+02
     37.430  0.7600E+00  0.2903E+02
     37.631  0.1107E+01  0.2925E+02
     37.833  0.9254E+00  0.2944E+02
     38.034  0.7815E+00  0.2959E+02
     38.236  0.1081E+01  0.2981E+02
     38.437  0.8613E+00  0.2999E+02
     38.638  0.6973E-01  0.3000E+02
     38.840  0.6245E-11  0.3000E+02
     39.041  0.1824E+00  0.3004E+02
     39.243  0.3798E+01  0.3080E+02
     39.444  0.5391E-01  0.3081E+02
     39.645  0.0000E+00  0.3081E+02
     39.847  0.0000E+00  0.3081E+02
     40.048  0.2067E-15  0.3081E+02
     40.250  0.6892E-02  0.3081E+02
     40.451  0.9236E+00  0.3100E+02
     40.652  0.5198E-03  0.3100E+02
     40.854  0.2926E-09  0.3100E+02
     41.055  0.1173E+00  0.3102E+02
     41.257  0.1588E+01  0.3134E+02
     41.458  0.3260E+01  0.3200E+02
     41.659  0.2969E-03  0.3200E+02
     41.861  0.0000E+00  0.3200E+02
     42.062  0.0000E+00  0.3200E+02
     42.264  0.0000E+00  0.3200E+02
     42.465  0.0000E+00  0.3200E+02
     42.666  0.0000E+00  0.3200E+02
     42.868  0.0000E+00  0.3200E+02
     43.069  0.0000E+00  0.3200E+02
     43.271  0.0000E+00  0.3200E+02
     43.472  0.0000E+00  0.3200E+02
     43.673  0.0000E+00  0.3200E+02
     43.875  0.0000E+00  0.3200E+02
     44.076  0.0000E+00  0.3200E+02
