    2    2    1    1
  0.9563318E+01  0.3001819E-09  0.3001820E-09  0.3001819E-09  0.5000000E-15
  1.000000000000000E-004
  CAR 
 automatically generated by pyflamestk   
      8     10     16
 
  0.1250000E+00  0.1250000E+00  0.1250000E+00  0.3125000E-01
    1      -13.597662   1.000000
    2        2.470947   1.000000
    3        3.318074   1.000000
    4        3.318075   1.000000
    5        8.824185   0.000000
    6       17.413493   0.000000
    7       19.427502   0.000000
    8       19.427504   0.000000
    9       23.678460   0.000000
   10       23.678463   0.000000
   11       25.022066   0.000000
   12       27.456658   0.000000
   13       28.888816   0.000000
   14       28.888819   0.000000
   15       39.162448   0.000000
   16       41.066160   0.000000
 
  0.3750000E+00  0.1250000E+00  0.1250000E+00  0.9375000E-01
    1      -12.940586   1.000000
    2        0.297776   1.000000
    3        2.455778   1.000000
    4        3.020297   1.000000
    5       11.245970   0.000000
    6       15.355862   0.000000
    7       18.763627   0.000000
    8       20.429739   0.000000
    9       22.250658   0.000000
   10       24.483447   0.000000
   11       26.602740   0.000000
   12       31.264265   0.000000
   13       32.542916   0.000000
   14       33.411565   0.000000
   15       35.780440   0.000000
   16       39.078924   0.000000
 
 -0.3750000E+00  0.1250000E+00  0.1250000E+00  0.9375000E-01
    1      -12.501137   1.000000
    2       -0.833844   1.000000
    3        2.303610   1.000000
    4        2.680490   1.000000
    5       11.833150   0.000000
    6       15.575190   0.000000
    7       18.052251   0.000000
    8       19.868504   0.000000
    9       23.858202   0.000000
   10       26.110926   0.000000
   11       26.205441   0.000000
   12       32.485199   0.000000
   13       33.089336   0.000000
   14       33.430741   0.000000
   15       36.013897   0.000000
   16       37.722243   0.000000
 
 -0.1250000E+00  0.1250000E+00  0.1250000E+00  0.9375000E-01
    1      -13.231782   1.000000
    2        1.184338   1.000000
    3        2.949502   1.000000
    4        2.952590   1.000000
    5       10.416098   0.000000
    6       15.593505   0.000000
    7       19.556829   0.000000
    8       20.038249   0.000000
    9       21.212828   0.000000
   10       25.058267   0.000000
   11       27.060115   0.000000
   12       30.157736   0.000000
   13       30.443760   0.000000
   14       31.198579   0.000000
   15       37.419327   0.000000
   16       39.185680   0.000000
 
  0.3750000E+00  0.3750000E+00  0.1250000E+00  0.9375000E-01
    1      -12.703444   1.000000
    2        0.110349   1.000000
    3        2.255594   1.000000
    4        2.487510   1.000000
    5       12.350436   0.000000
    6       13.997719   0.000000
    7       17.307621   0.000000
    8       20.938504   0.000000
    9       21.397527   0.000000
   10       27.239740   0.000000
   11       30.345484   0.000000
   12       30.612798   0.000000
   13       32.528321   0.000000
   14       35.022589   0.000000
   15       36.673326   0.000000
   16       38.090310   0.000000
 
 -0.3750000E+00  0.3750000E+00  0.1250000E+00  0.1875000E+00
    1      -12.288795   1.000000
    2       -0.003746   1.000000
    3        0.996345   1.000000
    4        2.077974   1.000000
    5       13.869754   0.000000
    6       14.913980   0.000000
    7       15.703651   0.000000
    8       19.709226   0.000000
    9       23.159006   0.000000
   10       26.610576   0.000000
   11       30.171828   0.000000
   12       31.601248   0.000000
   13       32.865398   0.000000
   14       36.540113   0.000000
   15       39.109547   0.000000
   16       41.329805   0.000000
 
 -0.1250000E+00  0.3750000E+00  0.1250000E+00  0.1875000E+00
    1      -12.546736   1.000000
    2       -0.207554   1.000000
    3        1.737062   1.000000
    4        2.577826   1.000000
    5       12.710304   0.000000
    6       14.913518   0.000000
    7       17.079942   0.000000
    8       20.275868   0.000000
    9       22.844560   0.000000
   10       25.518565   0.000000
   11       29.054502   0.000000
   12       31.847473   0.000000
   13       32.429678   0.000000
   14       35.091526   0.000000
   15       35.736880   0.000000
   16       41.237310   0.000000
 
 -0.3750000E+00 -0.3750000E+00  0.1250000E+00  0.9375000E-01
    1      -12.325379   1.000000
    2       -0.367254   1.000000
    3        1.740765   1.000000
    4        2.196243   1.000000
    5       12.942508   0.000000
    6       13.624629   0.000000
    7       16.161801   0.000000
    8       21.652218   0.000000
    9       21.664169   0.000000
   10       29.120668   0.000000
   11       29.560300   0.000000
   12       32.141905   0.000000
   13       32.858339   0.000000
   14       38.006564   0.000000
   15       38.386039   0.000000
   16       41.316099   0.000000
 
  0.3750000E+00  0.3750000E+00  0.3750000E+00  0.3125000E-01
    1      -12.739571   1.000000
    2       -0.564427   1.000000
    3        2.874745   1.000000
    4        2.874745   1.000000
    5       11.041851   0.000000
    6       15.578029   0.000000
    7       19.663159   0.000000
    8       19.663161   0.000000
    9       24.255528   0.000000
   10       24.594720   0.000000
   11       24.594723   0.000000
   12       32.107622   0.000000
   13       33.432567   0.000000
   14       33.432569   0.000000
   15       37.042220   0.000000
   16       37.042225   0.000000
 
 -0.3750000E+00  0.3750000E+00  0.3750000E+00  0.9375000E-01
    1      -12.372819   1.000000
    2       -0.246807   1.000000
    3        1.102258   1.000000
    4        2.549607   1.000000
    5       13.190040   0.000000
    6       15.376043   0.000000
    7       16.272738   0.000000
    8       20.588143   0.000000
    9       22.665237   0.000000
   10       25.693829   0.000000
   11       29.275687   0.000000
   12       31.819441   0.000000
   13       32.245090   0.000000
   14       35.579808   0.000000
   15       37.459939   0.000000
   16       40.335729   0.000000
