 vasp.5.4.1 24Jun15 (build Jun 05 2017 10:38:15) complex                        
  
 executed on           IFC91_ompi date 2017.10.17  23:05:20
 running on   16 total cores
 distrk:  each k-point on   16 cores,    1 groups
 distr:  one band on NCORES_PER_BAND=   1 cores,   16 groups


--------------------------------------------------------------------------------------------------------


 INCAR:
 POTCAR:    PAW_PBE O_h 06Feb2004                 
 POTCAR:    PAW_PBE Mg 13Apr2007                  

 ----------------------------------------------------------------------------- 
|                                                                             |
|           W    W    AA    RRRRR   N    N  II  N    N   GGGG   !!!           |
|           W    W   A  A   R    R  NN   N  II  NN   N  G    G  !!!           |
|           W    W  A    A  R    R  N N  N  II  N N  N  G       !!!           |
|           W WW W  AAAAAA  RRRRR   N  N N  II  N  N N  G  GGG   !            |
|           WW  WW  A    A  R   R   N   NN  II  N   NN  G    G                |
|           W    W  A    A  R    R  N    N  II  N    N   GGGG   !!!           |
|                                                                             |
|      For optimal performance we recommend to set                            |
|        NCORE= 4 - approx SQRT( number of cores)                             |
|      NCORE specifies how many cores store one orbital (NPAR=cpu/NCORE).     |
|      This setting can  greatly improve the performance of VASP for DFT.     |
|      The default, NPAR=number of cores might be grossly inefficient         |
|      on modern multi-core architectures or massively parallel machines.     |
|      Do your own testing !!!!                                               |
|      Unfortunately you need to use the default for GW and RPA calculations. |
|      (for HF NCORE is supported but not extensively tested yet)             |
|                                                                             |
 ----------------------------------------------------------------------------- 

 POTCAR:    PAW_PBE O_h 06Feb2004                 
   VRHFIN =O: s2p4                                                              
   LEXCH  = PE                                                                  
   EATOM  =   432.3788 eV,   31.7789 Ry                                         
                                                                                
   TITEL  = PAW_PBE O_h 06Feb2004                                               
   LULTRA =        F    use ultrasoft PP ?                                      
   IUNSCR =        1    unscreen: 0-lin 1-nonlin 2-no                           
   RPACOR =     .800    partial core radius                                     
   POMASS =   16.000; ZVAL   =    6.000    mass and valenz                      
   RCORE  =    1.100    outmost cutoff radius                                   
   RWIGS  =    1.400; RWIGS  =     .741    wigner-seitz radius (au A)           
   ENMAX  =  700.000; ENMIN  =  500.000 eV                                      
   ICORE  =        2    local potential                                         
   LCOR   =        T    correct aug charges                                     
   LPAW   =        T    paw PP                                                  
   EAUG   =  888.804                                                            
   DEXC   =     .000                                                            
   RMAX   =    1.666    core radius for proj-oper                               
   RAUG   =    1.300    factor for augmentation sphere                          
   RDEP   =    1.125    radius for radial grids                                 
   QCUT   =   -7.501; QGAM   =   15.002    optimization parameters              
                                                                                
   Description                                                                  
     l     E      TYP  RCUT    TYP  RCUT                                        
     0   .000     23  1.100                                                     
     0   .000     23  1.100                                                     
     1   .000     23  1.100                                                     
     1   .000     23  1.100                                                     
     2   .000      7  1.100                                                     
  local pseudopotential read in
  partial core-charges read in
  atomic valenz-charges read in
  non local Contribution for L=           0  read in
    real space projection operators read in
  non local Contribution for L=           0  read in
    real space projection operators read in
  non local Contribution for L=           1  read in
    real space projection operators read in
  non local Contribution for L=           1  read in
    real space projection operators read in
    PAW grid and wavefunctions read in
 
   number of l-projection  operators is LMAX  =           4
   number of lm-projection operators is LMMAX =           8
 
 POTCAR:    PAW_PBE Mg 13Apr2007                  
   VRHFIN =Mg: s2p0                                                             
   LEXCH  = PE                                                                  
   EATOM  =    23.0369 eV,    1.6932 Ry                                         
                                                                                
   TITEL  = PAW_PBE Mg 13Apr2007                                                
   LULTRA =        F    use ultrasoft PP ?                                      
   IUNSCR =        1    unscreen: 0-lin 1-nonlin 2-no                           
   RPACOR =    1.500    partial core radius                                     
   POMASS =   24.305; ZVAL   =    2.000    mass and valenz                      
   RCORE  =    2.000    outmost cutoff radius                                   
   RWIGS  =    2.880; RWIGS  =    1.524    wigner-seitz radius (au A)           
   ENMAX  =  126.143; ENMIN  =   94.607 eV                                      
   RCLOC  =    1.506    cutoff for local pot                                    
   LCOR   =        T    correct aug charges                                     
   LPAW   =        T    paw PP                                                  
   EAUG   =  454.734                                                            
   DEXC   =     .000                                                            
   RMAX   =    4.105    core radius for proj-oper                               
   RAUG   =    1.300    factor for augmentation sphere                          
   RDEP   =    2.025    radius for radial grids                                 
   QCUT   =   -3.045; QGAM   =    6.090    optimization parameters              
                                                                                
   Description                                                                  
     l     E      TYP  RCUT    TYP  RCUT                                        
     0   .000     23  2.000                                                     
     0  2.000     23  2.000                                                     
     1   .100     23  2.000                                                     
     1  2.000     23  2.000                                                     
     2   .000     23  2.000                                                     
  local pseudopotential read in
  partial core-charges read in
  atomic valenz-charges read in
  non local Contribution for L=           0  read in
    real space projection operators read in
  non local Contribution for L=           0  read in
    real space projection operators read in
  non local Contribution for L=           1  read in
    real space projection operators read in
  non local Contribution for L=           1  read in
    real space projection operators read in
  non local Contribution for L=           2  read in
    real space projection operators read in
    PAW grid and wavefunctions read in
 
   number of l-projection  operators is LMAX  =           5
   number of lm-projection operators is LMMAX =          13
 
  PAW_PBE O_h 06Feb2004                 :
 energy of atom  1       EATOM= -432.3788
 kinetic energy error for atom=    0.0284 (will be added to EATOM!!)
  PAW_PBE Mg 13Apr2007                  :
 energy of atom  2       EATOM=  -23.0369
 kinetic energy error for atom=    0.0000 (will be added to EATOM!!)
 
 
 POSCAR: Mg1 O1                                  
  positions in direct lattice
  No initial velocities read in
 exchange correlation table for  LEXCH =        8
   RHO(1)=    0.500       N(1)  =     2000
   RHO(2)=  100.500       N(2)  =     4000
 


--------------------------------------------------------------------------------------------------------


 ion  position               nearest neighbor table
   1  0.500  0.500  0.500-   2 2.13   2 2.13   2 2.13   2 2.13   2 2.13   2 2.13
   2  0.000  0.000  0.000-   1 2.13   1 2.13   1 2.13   1 2.13   1 2.13   1 2.13
 
  LATTYP: Found a face centered cubic cell.
 ALAT       =     4.2564834762
  
  Lattice vectors:
  
 A1 = (   3.0097880000,   0.0000000000,   0.0000000000)
 A2 = (   1.5048940000,   2.6065530000,   0.0000000000)
 A3 = (   1.5048940000,   0.8688510000,   2.4574820000)


Analysis of symmetry for initial positions (statically):
=====================================================================
 Subroutine PRICEL returns:
 Original cell was already a primitive cell.
 

 Routine SETGRP: Setting up the symmetry group for a 
 face centered cubic supercell.


 Subroutine GETGRP returns: Found 48 space group operations
 (whereof 48 operations were pure point group operations)
 out of a pool of 48 trial point group operations.


The static configuration has the point symmetry O_h .


Analysis of symmetry for dynamics (positions and initial velocities):
=====================================================================
 Subroutine PRICEL returns:
 Original cell was already a primitive cell.
 

 Routine SETGRP: Setting up the symmetry group for a 
 face centered cubic supercell.


 Subroutine GETGRP returns: Found 48 space group operations
 (whereof 48 operations were pure point group operations)
 out of a pool of 48 trial point group operations.


The dynamic configuration has the point symmetry O_h .


 Subroutine INISYM returns: Found 48 space group operations
 (whereof 48 operations are pure point group operations),
 and found     1 'primitive' translations

 
 
 KPOINTS: Automatic Mesh                          

Automatic generation of k-mesh.
Space group operators:
 irot       det(A)        alpha          n_x          n_y          n_z        tau_x        tau_y        tau_z
    1     1.000000     0.000000     1.000000     0.000000     0.000000     0.000000     0.000000     0.000000
    2    -1.000000     0.000000     1.000000     0.000000     0.000000     0.000000     0.000000     0.000000
    3     1.000000   120.000000    -0.816497    -0.471404    -0.333333     0.000000     0.000000     0.000000
    4    -1.000000   120.000000    -0.816497    -0.471404    -0.333333     0.000000     0.000000     0.000000
    5     1.000000   120.000000     0.816497     0.471405     0.333333     0.000000     0.000000     0.000000
    6    -1.000000   120.000000     0.816497     0.471405     0.333333     0.000000     0.000000     0.000000
    7     1.000000    90.000000    -0.707107    -0.408248     0.577350     0.000000     0.000000     0.000000
    8    -1.000000    90.000000    -0.707107    -0.408248     0.577350     0.000000     0.000000     0.000000
    9     1.000000   180.000000     1.000000    -0.000000     0.000000     0.000000     0.000000     0.000000
   10    -1.000000   180.000000     1.000000    -0.000000     0.000000     0.000000     0.000000     0.000000
   11     1.000000    90.000000     0.707107    -0.408248     0.577350     0.000000     0.000000     0.000000
   12    -1.000000    90.000000     0.707107    -0.408248     0.577350     0.000000     0.000000     0.000000
   13     1.000000   180.000000     0.707107     0.408248    -0.577350     0.000000     0.000000     0.000000
   14    -1.000000   180.000000     0.707107     0.408248    -0.577350     0.000000     0.000000     0.000000
   15     1.000000   120.000000     0.816497    -0.471405    -0.333333     0.000000     0.000000     0.000000
   16    -1.000000   120.000000     0.816497    -0.471405    -0.333333     0.000000     0.000000     0.000000
   17     1.000000   120.000000     0.000000    -0.942809     0.333333     0.000000     0.000000     0.000000
   18    -1.000000   120.000000     0.000000    -0.942809     0.333333     0.000000     0.000000     0.000000
   19     1.000000    90.000000     0.707107     0.408248    -0.577350     0.000000     0.000000     0.000000
   20    -1.000000    90.000000     0.707107     0.408248    -0.577350     0.000000     0.000000     0.000000
   21     1.000000    90.000000    -0.000000    -0.816497    -0.577350     0.000000     0.000000     0.000000
   22    -1.000000    90.000000    -0.000000    -0.816497    -0.577350     0.000000     0.000000     0.000000
   23     1.000000   180.000000     0.500000     0.866025    -0.000000     0.000000     0.000000     0.000000
   24    -1.000000   180.000000     0.500000     0.866025    -0.000000     0.000000     0.000000     0.000000
   25     1.000000   120.000000     0.000000     0.942809    -0.333333     0.000000     0.000000     0.000000
   26    -1.000000   120.000000     0.000000     0.942809    -0.333333     0.000000     0.000000     0.000000
   27     1.000000   120.000000     0.000000     0.000000    -1.000000     0.000000     0.000000     0.000000
   28    -1.000000   120.000000     0.000000     0.000000    -1.000000     0.000000     0.000000     0.000000
   29     1.000000   180.000000     0.000000    -0.816497    -0.577350     0.000000     0.000000     0.000000
   30    -1.000000   180.000000     0.000000    -0.816497    -0.577350     0.000000     0.000000     0.000000
   31     1.000000    90.000000    -0.707107     0.408248    -0.577350     0.000000     0.000000     0.000000
   32    -1.000000    90.000000    -0.707107     0.408248    -0.577350     0.000000     0.000000     0.000000
   33     1.000000   180.000000     0.500000     0.288675     0.816497     0.000000     0.000000     0.000000
   34    -1.000000   180.000000     0.500000     0.288675     0.816497     0.000000     0.000000     0.000000
   35     1.000000    90.000000    -0.000000     0.816497     0.577350     0.000000     0.000000     0.000000
   36    -1.000000    90.000000    -0.000000     0.816497     0.577350     0.000000     0.000000     0.000000
   37     1.000000   120.000000    -0.816497     0.471404     0.333333     0.000000     0.000000     0.000000
   38    -1.000000   120.000000    -0.816497     0.471404     0.333333     0.000000     0.000000     0.000000
   39     1.000000   180.000000    -0.707107     0.408248    -0.577350     0.000000     0.000000     0.000000
   40    -1.000000   180.000000    -0.707107     0.408248    -0.577350     0.000000     0.000000     0.000000
   41     1.000000   120.000000     0.000000     0.000000     1.000000     0.000000     0.000000     0.000000
   42    -1.000000   120.000000     0.000000     0.000000     1.000000     0.000000     0.000000     0.000000
   43     1.000000   180.000000     0.000000    -0.577350     0.816497     0.000000     0.000000     0.000000
   44    -1.000000   180.000000     0.000000    -0.577350     0.816497     0.000000     0.000000     0.000000
   45     1.000000   180.000000    -0.500000     0.866025    -0.000000     0.000000     0.000000     0.000000
   46    -1.000000   180.000000    -0.500000     0.866025    -0.000000     0.000000     0.000000     0.000000
   47     1.000000   180.000000    -0.500000     0.288675     0.816497     0.000000     0.000000     0.000000
   48    -1.000000   180.000000    -0.500000     0.288675     0.816497     0.000000     0.000000     0.000000
 
 Subroutine IBZKPT returns following result:
 ===========================================
 
 Found     10 irreducible k-points:
 
 Following reciprocal coordinates:
            Coordinates               Weight
  0.125000  0.125000  0.125000     96.000000
  0.375000  0.125000  0.125000    288.000000
 -0.375000  0.125000  0.125000    288.000000
 -0.125000  0.125000  0.125000    288.000000
  0.375000  0.375000  0.125000    288.000000
 -0.375000  0.375000  0.125000    576.000000
 -0.125000  0.375000  0.125000    576.000000
 -0.375000 -0.375000  0.125000    288.000000
  0.375000  0.375000  0.375000     96.000000
 -0.375000  0.375000  0.375000    288.000000
 
 Following cartesian coordinates:
            Coordinates               Weight
  0.041531  0.023978  0.016955     96.000000
  0.124593 -0.023978 -0.016955    288.000000
 -0.124593  0.119890  0.084775    288.000000
 -0.041531  0.071934  0.050865    288.000000
  0.124593  0.071934 -0.050865    288.000000
 -0.124593  0.215802  0.050865    576.000000
 -0.041531  0.167846  0.016955    576.000000
 -0.124593 -0.071934  0.152595    288.000000
  0.124593  0.071934  0.050865     96.000000
 -0.124593  0.215802  0.152595    288.000000
 


--------------------------------------------------------------------------------------------------------




 Dimension of arrays:
   k-points           NKPTS =     10   k-points in BZ     NKDIM =     10   number of bands    NBANDS=     16
   number of dos      NEDOS =    301   number of ions     NIONS =      2
   non local maximal  LDIM  =      5   non local SUM 2l+1 LMDIM =     13
   total plane-waves  NPLWV =  27000
   max r-space proj   IRMAX =      1   max aug-charges    IRDMAX=  17825
   dimension x,y,z NGX =    30 NGY =   30 NGZ =   30
   dimension x,y,z NGXF=    40 NGYF=   40 NGZF=   40
   support grid    NGXF=    40 NGYF=   40 NGZF=   40
   ions per type =               1   1
 NGX,Y,Z   is equivalent  to a cutoff of  16.57, 16.57, 16.57 a.u.
 NGXF,Y,Z  is equivalent  to a cutoff of  22.09, 22.09, 22.09 a.u.


 I would recommend the setting:
   dimension x,y,z NGX =    29 NGY =   29 NGZ =   29
 SYSTEM =  automatically generated by pyflamestk   
 POSCAR =  Mg1 O1                                  

 Startparameter for this run:
   NWRITE =      2    write-flag & timer
   PREC   = high      normal or accurate (medium, high low for compatibility)
   ISTART =      0    job   : 0-new  1-cont  2-samecut
   ICHARG =      0    charge: 1-file 2-atom 10-const
   ISPIN  =      1    spin polarized calculation?
   LNONCOLLINEAR =      F non collinear calculations
   LSORBIT =      F    spin-orbit coupling
   INIWAV =      1    electr: 0-lowe 1-rand  2-diag
   LASPH  =      F    aspherical Exc in radial PAW
   METAGGA=      F    non-selfconsistent MetaGGA calc.

 Electronic Relaxation 1
   ENCUT  =  850.0 eV  62.47 Ry    7.90 a.u.   7.15  7.15  7.15*2*pi/ulx,y,z
   ENINI  =  850.0     initial cutoff
   ENAUG  =  888.8 eV  augmentation charge cutoff
   NELM   =     40;   NELMIN=  2; NELMDL= -5     # of ELM steps 
   EDIFF  = 0.1E-05   stopping-criterion for ELM
   LREAL  =      F    real-space projection
   NLSPLINE    = F    spline interpolate recip. space projectors
   LCOMPAT=      F    compatible to vasp.4.4
   GGA_COMPAT  = T    GGA compatible to vasp.4.4-vasp.4.6
   LMAXPAW     = -100 max onsite density
   LMAXMIX     =    2 max onsite mixed and CHGCAR
   VOSKOWN=      0    Vosko Wilk Nusair interpolation
   ROPT   =    0.00000   0.00000
 Ionic relaxation
   EDIFFG = 0.1E-04   stopping-criterion for IOM
   NSW    =      0    number of steps for IOM
   NBLOCK =      1;   KBLOCK =      1    inner block; outer block 
   IBRION =     -1    ionic relax: 0-MD 1-quasi-New 2-CG
   NFREE  =      0    steps in history (QN), initial steepest desc. (CG)
   ISIF   =      2    stress and relaxation
   IWAVPR =     10    prediction:  0-non 1-charg 2-wave 3-comb
   ISYM   =      2    0-nonsym 1-usesym 2-fastsym
   LCORR  =      T    Harris-Foulkes like correction to forces

   POTIM  = 0.5000    time-step for ionic-motion
   TEIN   =    0.0    initial temperature
   TEBEG  =    0.0;   TEEND  =   0.0 temperature during run
   SMASS  =  -3.00    Nose mass-parameter (am)
   estimated Nose-frequenzy (Omega)   =  0.10E-29 period in steps =****** mass=  -0.207E-27a.u.
   SCALEE = 1.0000    scale energy and forces
   NPACO  =    256;   APACO  = 16.0  distance and # of slots for P.C.
   PSTRESS=    0.0 pullay stress

  Mass of Ions in am
   POMASS =  16.00 24.30
  Ionic Valenz
   ZVAL   =   6.00  2.00
  Atomic Wigner-Seitz radii
   RWIGS  =  -1.00 -1.00
  virtual crystal weights 
   VCA    =   1.00  1.00
   NELECT =       8.0000    total number of electrons
   NUPDOWN=      -1.0000    fix difference up-down

 DOS related values:
   EMIN   =  10.00;   EMAX   =-10.00  energy-range for DOS
   EFERMI =   0.00
   ISMEAR =     0;   SIGMA  =   0.05  broadening in eV -4-tet -1-fermi 0-gaus

 Electronic relaxation 2 (details)
   IALGO  =     38    algorithm
   LDIAG  =      T    sub-space diagonalisation (order eigenvalues)
   LSUBROT=      F    optimize rotation matrix (better conditioning)
   TURBO    =      0    0=normal 1=particle mesh
   IRESTART =      0    0=no restart 2=restart with 2 vectors
   NREBOOT  =      0    no. of reboots
   NMIN     =      0    reboot dimension
   EREF     =   0.00    reference energy to select bands
   IMIX   =      4    mixing-type and parameters
     AMIX     =   0.40;   BMIX     =  1.00
     AMIX_MAG =   1.60;   BMIX_MAG =  1.00
     AMIN     =   0.10
     WC   =   100.;   INIMIX=   1;  MIXPRE=   1;  MAXMIX= -45

 Intra band minimization:
   WEIMIN = 0.0000     energy-eigenvalue tresh-hold
   EBREAK =  0.16E-07  absolut break condition
   DEPER  =   0.30     relativ break condition  

   TIME   =   0.40     timestep for ELM

  volume/ion in A,a.u.               =       9.64        65.05
  Fermi-wavevector in a.u.,A,eV,Ry     =   1.221070  2.307488 20.286449  1.491012
  Thomas-Fermi vector in A             =   2.356265
 
 Write flags
   LWAVE  =      F    write WAVECAR
   LCHARG =      F    write CHGCAR
   LVTOT  =      F    write LOCPOT, total local potential
   LVHAR  =      F    write LOCPOT, Hartree potential only
   LELF   =      F    write electronic localiz. function (ELF)
   LORBIT =      0    0 simple, 1 ext, 2 COOP (PROOUT)


 Dipole corrections
   LMONO  =      F    monopole corrections only (constant potential shift)
   LDIPOL =      F    correct potential (dipole corrections)
   IDIPOL =      0    1-x, 2-y, 3-z, 4-all directions 
   EPSILON=  1.0000000 bulk dielectric constant

 Exchange correlation treatment:
   GGA     =    --    GGA type
   LEXCH   =     8    internal setting for exchange type
   VOSKOWN=      0    Vosko Wilk Nusair interpolation
   LHFCALC =     F    Hartree Fock is set to
   LHFONE  =     F    Hartree Fock one center treatment
   AEXX    =    0.0000 exact exchange contribution

 Linear response parameters
   LEPSILON=     F    determine dielectric tensor
   LRPA    =     F    only Hartree local field effects (RPA)
   LNABLA  =     F    use nabla operator in PAW spheres
   LVEL    =     F    velocity operator in full k-point grid
   LINTERFAST=   F  fast interpolation
   KINTER  =     0    interpolate to denser k-point grid
   CSHIFT  =0.1000    complex shift for real part using Kramers Kronig
   OMEGAMAX=  -1.0    maximum frequency
   DEG_THRESHOLD= 0.2000000E-02 threshold for treating states as degnerate
   RTIME   =    0.100 relaxation time in fs

 Orbital magnetization related:
   ORBITALMAG=     F  switch on orbital magnetization
   LCHIMAG   =     F  perturbation theory with respect to B field
   DQ        =  0.001000  dq finite difference perturbation B field



--------------------------------------------------------------------------------------------------------


 Static calculation
 charge density and potential will be updated during run
 non-spin polarized calculation
 Variant of blocked Davidson
 Davidson routine will perform the subspace rotation
 perform sub-space diagonalisation
    after iterative eigenvector-optimisation
 modified Broyden-mixing scheme, WC =      100.0
 initial mixing is a Kerker type mixing with AMIX =  0.4000 and BMIX =      1.0000
 Hartree-type preconditioning will be used
 using additional bands           12
 reciprocal scheme for non local part
 use partial core corrections
 calculate Harris-corrections to forces 
   (improved forces if not selfconsistent)
 use gradient corrections 
 use of overlap-Matrix (Vanderbilt PP)
 Gauss-broadening in eV      SIGMA  =   0.05


--------------------------------------------------------------------------------------------------------


  energy-cutoff  :      850.00
  volume of cell :       19.28
      direct lattice vectors                 reciprocal lattice vectors
     3.009788000  0.000000000  0.000000000     0.332249315 -0.191824221 -0.135640193
     1.504894000  2.606553000  0.000000000     0.000000000  0.383648443 -0.135640193
     1.504894000  0.868851000  2.457482000     0.000000000  0.000000000  0.406920580

  length of vectors
     3.009788000  3.009788114  3.009788330     0.406920632  0.406920619  0.406920580


 
 k-points in units of 2pi/SCALE and weight: Automatic Mesh                          
   0.04153116  0.02397803  0.01695502       0.031
   0.12459349 -0.02397803 -0.01695502       0.094
  -0.12459349  0.11989014  0.08477512       0.094
  -0.04153116  0.07193408  0.05086507       0.094
   0.12459349  0.07193408 -0.05086507       0.094
  -0.12459349  0.21580225  0.05086507       0.188
  -0.04153116  0.16784619  0.01695502       0.188
  -0.12459349 -0.07193408  0.15259522       0.094
   0.12459349  0.07193408  0.05086507       0.031
  -0.12459349  0.21580225  0.15259522       0.094
 
 k-points in reciprocal lattice and weights: Automatic Mesh                          
   0.12500000  0.12500000  0.12500000       0.031
   0.37500000  0.12500000  0.12500000       0.094
  -0.37500000  0.12500000  0.12500000       0.094
  -0.12500000  0.12500000  0.12500000       0.094
   0.37500000  0.37500000  0.12500000       0.094
  -0.37500000  0.37500000  0.12500000       0.188
  -0.12500000  0.37500000  0.12500000       0.188
  -0.37500000 -0.37500000  0.12500000       0.094
   0.37500000  0.37500000  0.37500000       0.031
  -0.37500000  0.37500000  0.37500000       0.094
 
 position of ions in fractional coordinates (direct lattice) 
   0.50000000  0.50000000  0.50000000
   0.00000000  0.00000000  0.00000000
 
 position of ions in cartesian coordinates  (Angst):
   3.00978800  1.73770200  1.22874100
   0.00000000  0.00000000  0.00000000
 


--------------------------------------------------------------------------------------------------------


 k-point  1 :   0.1250 0.1250 0.1250  plane waves:    1073
 k-point  2 :   0.3750 0.1250 0.1250  plane waves:    1084
 k-point  3 :  -0.3750 0.1250 0.1250  plane waves:    1092
 k-point  4 :  -0.1250 0.1250 0.1250  plane waves:    1081
 k-point  5 :   0.3750 0.3750 0.1250  plane waves:    1071
 k-point  6 :  -0.3750 0.3750 0.1250  plane waves:    1088
 k-point  7 :  -0.1250 0.3750 0.1250  plane waves:    1080
 k-point  8 :  -0.3750-0.3750 0.1250  plane waves:    1088
 k-point  9 :   0.3750 0.3750 0.3750  plane waves:    1083
 k-point 10 :  -0.3750 0.3750 0.3750  plane waves:    1087

 maximum and minimum number of plane-waves per node :      1092     1071

 maximum number of plane-waves:      1092
 maximum index in each direction: 
   IXMAX=    7   IYMAX=    7   IZMAX=    7
   IXMIN=   -7   IYMIN=   -7   IZMIN=   -7

 NGX is ok and might be reduce to  30
 NGY is ok and might be reduce to  30
 NGZ is ok and might be reduce to  30

 serial   3D FFT for wavefunctions
 parallel 3D FFT for charge:
    minimum data exchange during FFTs selected (reduces bandwidth)


 total amount of memory used by VASP on root node    34191. kBytes
========================================================================

   base      :      30000. kBytes
   nonl-proj :       2331. kBytes
   fftplans  :        291. kBytes
   grid      :       1372. kBytes
   one-center:         16. kBytes
   wavefun   :        181. kBytes
 
     INWAV:  cpu time    0.0000: real time    0.0001
 Broyden mixing: mesh for mixing (old mesh)
   NGX = 15   NGY = 15   NGZ = 15
  (NGX  = 40   NGY  = 40   NGZ  = 40)
  gives a total of   3375 points

 charge density for first step will be calculated from the start-wavefunctions


--------------------------------------------------------------------------------------------------------


 Maximum index for augmentation-charges         1435 (set IRDMAX)


--------------------------------------------------------------------------------------------------------


 initial charge from wavefunction
 First call to EWALD:  gamma=   0.661
 Maximum number of real-space cells 3x 3x 3
 Maximum number of reciprocal cells 3x 3x 3

 FEWALD executed in parallel
    FEWALD:  cpu time    0.0010: real time    0.0015


----------------------------------------- Iteration    1(   1)  ---------------------------------------


    POTLOK:  cpu time    0.0050: real time    0.0052
    SETDIJ:  cpu time    0.0030: real time    0.0027
     EDDAV:  cpu time    0.0690: real time    0.0695
       DOS:  cpu time    0.0000: real time    0.0002
    --------------------------------------------
      LOOP:  cpu time    0.0810: real time    0.0827

 eigenvalue-minimisations  :   400
 total energy-change (2. order) :-0.2704038E+03  (-0.1082877E+04)
 number of electron       7.9999999 magnetization 
 augmentation part       -0.9662344 magnetization 

 Free energy of the ion-electron system (eV)
  ---------------------------------------------------
  alpha Z        PSCENC =        15.79325893
  Ewald energy   TEWEN  =      -354.45312954
  -Hartree energ DENC   =       -30.31375583
  -exchange      EXHF   =         0.00000000
  -V(xc)+E(xc)   XCENC  =       -30.07433377
  PAW double counting   =    121766.32980095  -121712.55324964
  entropy T*S    EENTRO =        -0.00000000
  eigenvalues    EBANDS =      -380.51968881
  atomic energy  EATOM  =       455.38729263
  Solvation  Ediel_sol  =         0.00000000
  ---------------------------------------------------
  free energy    TOTEN  =      -270.40380507 eV

  energy without entropy =     -270.40380507  energy(sigma->0) =     -270.40380507


--------------------------------------------------------------------------------------------------------




----------------------------------------- Iteration    1(   2)  ---------------------------------------


     EDDAV:  cpu time    0.0720: real time    0.0713
       DOS:  cpu time    0.0000: real time    0.0001
    --------------------------------------------
      LOOP:  cpu time    0.0720: real time    0.0738

 eigenvalue-minimisations  :   416
 total energy-change (2. order) :-0.4284425E+02  (-0.4284425E+02)
 number of electron       7.9999999 magnetization 
 augmentation part       -0.9662344 magnetization 

 Free energy of the ion-electron system (eV)
  ---------------------------------------------------
  alpha Z        PSCENC =        15.79325893
  Ewald energy   TEWEN  =      -354.45312954
  -Hartree energ DENC   =       -30.31375583
  -exchange      EXHF   =         0.00000000
  -V(xc)+E(xc)   XCENC  =       -30.07433377
  PAW double counting   =    121766.32980095  -121712.55324964
  entropy T*S    EENTRO =        -0.00000000
  eigenvalues    EBANDS =      -423.36393924
  atomic energy  EATOM  =       455.38729263
  Solvation  Ediel_sol  =         0.00000000
  ---------------------------------------------------
  free energy    TOTEN  =      -313.24805551 eV

  energy without entropy =     -313.24805551  energy(sigma->0) =     -313.24805551


--------------------------------------------------------------------------------------------------------




----------------------------------------- Iteration    1(   3)  ---------------------------------------


     EDDAV:  cpu time    0.0570: real time    0.0572
       DOS:  cpu time    0.0000: real time    0.0001
    --------------------------------------------
      LOOP:  cpu time    0.0570: real time    0.0599

 eigenvalue-minimisations  :   336
 total energy-change (2. order) :-0.2749014E+00  (-0.2749014E+00)
 number of electron       7.9999999 magnetization 
 augmentation part       -0.9662344 magnetization 

 Free energy of the ion-electron system (eV)
  ---------------------------------------------------
  alpha Z        PSCENC =        15.79325893
  Ewald energy   TEWEN  =      -354.45312954
  -Hartree energ DENC   =       -30.31375583
  -exchange      EXHF   =         0.00000000
  -V(xc)+E(xc)   XCENC  =       -30.07433377
  PAW double counting   =    121766.32980095  -121712.55324964
  entropy T*S    EENTRO =        -0.00000000
  eigenvalues    EBANDS =      -423.63884066
  atomic energy  EATOM  =       455.38729263
  Solvation  Ediel_sol  =         0.00000000
  ---------------------------------------------------
  free energy    TOTEN  =      -313.52295693 eV

  energy without entropy =     -313.52295693  energy(sigma->0) =     -313.52295693


--------------------------------------------------------------------------------------------------------




----------------------------------------- Iteration    1(   4)  ---------------------------------------


     EDDAV:  cpu time    0.1120: real time    0.1123
       DOS:  cpu time    0.0000: real time    0.0001
    --------------------------------------------
      LOOP:  cpu time    0.1130: real time    0.1147

 eigenvalue-minimisations  :   608
 total energy-change (2. order) :-0.1221966E-02  (-0.1221966E-02)
 number of electron       7.9999999 magnetization 
 augmentation part       -0.9662344 magnetization 

 Free energy of the ion-electron system (eV)
  ---------------------------------------------------
  alpha Z        PSCENC =        15.79325893
  Ewald energy   TEWEN  =      -354.45312954
  -Hartree energ DENC   =       -30.31375583
  -exchange      EXHF   =         0.00000000
  -V(xc)+E(xc)   XCENC  =       -30.07433377
  PAW double counting   =    121766.32980095  -121712.55324964
  entropy T*S    EENTRO =        -0.00000000
  eigenvalues    EBANDS =      -423.64006263
  atomic energy  EATOM  =       455.38729263
  Solvation  Ediel_sol  =         0.00000000
  ---------------------------------------------------
  free energy    TOTEN  =      -313.52417889 eV

  energy without entropy =     -313.52417889  energy(sigma->0) =     -313.52417889


--------------------------------------------------------------------------------------------------------




----------------------------------------- Iteration    1(   5)  ---------------------------------------


     EDDAV:  cpu time    0.0600: real time    0.0606
       DOS:  cpu time    0.0010: real time    0.0001
    CHARGE:  cpu time    0.0110: real time    0.0113
    MIXING:  cpu time    0.0000: real time    0.0003
    --------------------------------------------
      LOOP:  cpu time    0.0720: real time    0.0750

 eigenvalue-minimisations  :   352
 total energy-change (2. order) :-0.9765893E-07  (-0.9765876E-07)
 number of electron       7.9999985 magnetization 
 augmentation part        0.5944735 magnetization 

 Broyden mixing:
  rms(total) = 0.94052E+01    rms(broyden)= 0.93959E+01
  rms(prec ) = 0.29207E+02
  weight for this iteration     100.00

 Free energy of the ion-electron system (eV)
  ---------------------------------------------------
  alpha Z        PSCENC =        15.79325893
  Ewald energy   TEWEN  =      -354.45312954
  -Hartree energ DENC   =       -30.31375583
  -exchange      EXHF   =         0.00000000
  -V(xc)+E(xc)   XCENC  =       -30.07433377
  PAW double counting   =    121766.32980095  -121712.55324964
  entropy T*S    EENTRO =        -0.00000000
  eigenvalues    EBANDS =      -423.64006272
  atomic energy  EATOM  =       455.38729263
  Solvation  Ediel_sol  =         0.00000000
  ---------------------------------------------------
  free energy    TOTEN  =      -313.52417899 eV

  energy without entropy =     -313.52417899  energy(sigma->0) =     -313.52417899


--------------------------------------------------------------------------------------------------------




----------------------------------------- Iteration    1(   6)  ---------------------------------------


    POTLOK:  cpu time    0.0040: real time    0.0041
    SETDIJ:  cpu time    0.0020: real time    0.0025
     EDDAV:  cpu time    0.0540: real time    0.0540
       DOS:  cpu time    0.0000: real time    0.0001
    CHARGE:  cpu time    0.0100: real time    0.0102
    MIXING:  cpu time    0.0010: real time    0.0003
    --------------------------------------------
      LOOP:  cpu time    0.0720: real time    0.0737

 eigenvalue-minimisations  :   320
 total energy-change (2. order) : 0.2445331E+03  (-0.2829264E+02)
 number of electron       7.9999993 magnetization 
 augmentation part        0.2578185 magnetization 

 Broyden mixing:
  rms(total) = 0.40197E+01    rms(broyden)= 0.40183E+01
  rms(prec ) = 0.13620E+02
  weight for this iteration     100.00

 eigenvalues of (default mixing * dielectric matrix)
  average eigenvalue GAMMA=   1.4742
  1.4742

 Free energy of the ion-electron system (eV)
  ---------------------------------------------------
  alpha Z        PSCENC =        15.79325893
  Ewald energy   TEWEN  =      -354.45312954
  -Hartree energ DENC   =       -65.55840179
  -exchange      EXHF   =         0.00000000
  -V(xc)+E(xc)   XCENC  =       -26.29118901
  PAW double counting   =    370459.12513278  -370409.33674072
  entropy T*S    EENTRO =        -0.00000000
  eigenvalues    EBANDS =      -143.65732785
  atomic energy  EATOM  =       455.38729263
  Solvation  Ediel_sol  =         0.00000000
  ---------------------------------------------------
  free energy    TOTEN  =       -68.99110458 eV

  energy without entropy =      -68.99110458  energy(sigma->0) =      -68.99110458


--------------------------------------------------------------------------------------------------------




----------------------------------------- Iteration    1(   7)  ---------------------------------------


    POTLOK:  cpu time    0.0040: real time    0.0041
    SETDIJ:  cpu time    0.0030: real time    0.0025
     EDDAV:  cpu time    0.0830: real time    0.0833
       DOS:  cpu time    0.0000: real time    0.0001
    CHARGE:  cpu time    0.0100: real time    0.0105
    MIXING:  cpu time    0.0010: real time    0.0003
    --------------------------------------------
      LOOP:  cpu time    0.1010: real time    0.1033

 eigenvalue-minimisations  :   480
 total energy-change (2. order) : 0.4577474E+02  (-0.4043717E+02)
 number of electron       8.0000001 magnetization 
 augmentation part       -0.0165358 magnetization 

 Broyden mixing:
  rms(total) = 0.26624E+01    rms(broyden)= 0.26610E+01
  rms(prec ) = 0.71270E+01
  weight for this iteration     100.00

 eigenvalues of (default mixing * dielectric matrix)
  average eigenvalue GAMMA=   1.3204
  1.3204  1.3204

 Free energy of the ion-electron system (eV)
  ---------------------------------------------------
  alpha Z        PSCENC =        15.79325893
  Ewald energy   TEWEN  =      -354.45312954
  -Hartree energ DENC   =      -180.07481133
  -exchange      EXHF   =         0.00000000
  -V(xc)+E(xc)   XCENC  =       -18.72533109
  PAW double counting   =     53480.93939880   -53432.76708381
  entropy T*S    EENTRO =        -0.00000000
  eigenvalues    EBANDS =        10.68403694
  atomic energy  EATOM  =       455.38729263
  Solvation  Ediel_sol  =         0.00000000
  ---------------------------------------------------
  free energy    TOTEN  =       -23.21636846 eV

  energy without entropy =      -23.21636846  energy(sigma->0) =      -23.21636846


--------------------------------------------------------------------------------------------------------




----------------------------------------- Iteration    1(   8)  ---------------------------------------


    POTLOK:  cpu time    0.0040: real time    0.0043
    SETDIJ:  cpu time    0.0030: real time    0.0025
     EDDAV:  cpu time    0.0540: real time    0.0538
       DOS:  cpu time    0.0000: real time    0.0001
    CHARGE:  cpu time    0.0100: real time    0.0100
    MIXING:  cpu time    0.0000: real time    0.0003
    --------------------------------------------
      LOOP:  cpu time    0.0710: real time    0.0738

 eigenvalue-minimisations  :   320
 total energy-change (2. order) : 0.1568692E+01  (-0.1915892E+02)
 number of electron       7.9999996 magnetization 
 augmentation part        0.1524314 magnetization 

 Broyden mixing:
  rms(total) = 0.17104E+01    rms(broyden)= 0.17102E+01
  rms(prec ) = 0.61763E+01
  weight for this iteration     100.00

 eigenvalues of (default mixing * dielectric matrix)
  average eigenvalue GAMMA=   1.5691
  2.6070  1.3370  0.7634

 Free energy of the ion-electron system (eV)
  ---------------------------------------------------
  alpha Z        PSCENC =        15.79325893
  Ewald energy   TEWEN  =      -354.45312954
  -Hartree energ DENC   =       -99.59840344
  -exchange      EXHF   =         0.00000000
  -V(xc)+E(xc)   XCENC  =       -24.12150789
  PAW double counting   =     65278.16720704   -65228.12882436
  entropy T*S    EENTRO =        -0.00000000
  eigenvalues    EBANDS =       -64.69356976
  atomic energy  EATOM  =       455.38729263
  Solvation  Ediel_sol  =         0.00000000
  ---------------------------------------------------
  free energy    TOTEN  =       -21.64767639 eV

  energy without entropy =      -21.64767639  energy(sigma->0) =      -21.64767639


--------------------------------------------------------------------------------------------------------




----------------------------------------- Iteration    1(   9)  ---------------------------------------


    POTLOK:  cpu time    0.0050: real time    0.0042
    SETDIJ:  cpu time    0.0020: real time    0.0025
     EDDAV:  cpu time    0.0540: real time    0.0540
       DOS:  cpu time    0.0000: real time    0.0001
    CHARGE:  cpu time    0.0100: real time    0.0100
    MIXING:  cpu time    0.0010: real time    0.0003
    --------------------------------------------
      LOOP:  cpu time    0.0720: real time    0.0736

 eigenvalue-minimisations  :   320
 total energy-change (2. order) : 0.9683849E+01  (-0.3408689E+01)
 number of electron       7.9999998 magnetization 
 augmentation part        0.0793228 magnetization 

 Broyden mixing:
  rms(total) = 0.24664E+00    rms(broyden)= 0.24638E+00
  rms(prec ) = 0.67316E+00
  weight for this iteration     100.00

 eigenvalues of (default mixing * dielectric matrix)
  average eigenvalue GAMMA=   1.5046
  2.5828  1.3420  1.3420  0.7517

 Free energy of the ion-electron system (eV)
  ---------------------------------------------------
  alpha Z        PSCENC =        15.79325893
  Ewald energy   TEWEN  =      -354.45312954
  -Hartree energ DENC   =      -138.27470514
  -exchange      EXHF   =         0.00000000
  -V(xc)+E(xc)   XCENC  =       -20.92883542
  PAW double counting   =      1138.90442452    -1088.39648866
  entropy T*S    EENTRO =        -0.00000000
  eigenvalues    EBANDS =       -19.99564502
  atomic energy  EATOM  =       455.38729263
  Solvation  Ediel_sol  =         0.00000000
  ---------------------------------------------------
  free energy    TOTEN  =       -11.96382769 eV

  energy without entropy =      -11.96382769  energy(sigma->0) =      -11.96382769


--------------------------------------------------------------------------------------------------------




----------------------------------------- Iteration    1(  10)  ---------------------------------------


    POTLOK:  cpu time    0.0040: real time    0.0042
    SETDIJ:  cpu time    0.0030: real time    0.0025
     EDDAV:  cpu time    0.0710: real time    0.0718
       DOS:  cpu time    0.0000: real time    0.0001
    CHARGE:  cpu time    0.0110: real time    0.0105
    MIXING:  cpu time    0.0000: real time    0.0003
    --------------------------------------------
      LOOP:  cpu time    0.0890: real time    0.0917

 eigenvalue-minimisations  :   416
 total energy-change (2. order) :-0.1757554E-01  (-0.2157462E+00)
 number of electron       7.9999999 magnetization 
 augmentation part        0.0598848 magnetization 

 Broyden mixing:
  rms(total) = 0.19330E+00    rms(broyden)= 0.19316E+00
  rms(prec ) = 0.60601E+00
  weight for this iteration     100.00

 eigenvalues of (default mixing * dielectric matrix)
  average eigenvalue GAMMA=   1.6480
  2.7372  2.5526  1.2300  0.8942  0.8259

 Free energy of the ion-electron system (eV)
  ---------------------------------------------------
  alpha Z        PSCENC =        15.79325893
  Ewald energy   TEWEN  =      -354.45312954
  -Hartree energ DENC   =      -145.38751357
  -exchange      EXHF   =         0.00000000
  -V(xc)+E(xc)   XCENC  =       -20.47245779
  PAW double counting   =       886.05588224     -835.72941859
  entropy T*S    EENTRO =        -0.00000000
  eigenvalues    EBANDS =       -13.17531755
  atomic energy  EATOM  =       455.38729263
  Solvation  Ediel_sol  =         0.00000000
  ---------------------------------------------------
  free energy    TOTEN  =       -11.98140323 eV

  energy without entropy =      -11.98140323  energy(sigma->0) =      -11.98140323


--------------------------------------------------------------------------------------------------------




----------------------------------------- Iteration    1(  11)  ---------------------------------------


    POTLOK:  cpu time    0.0050: real time    0.0044
    SETDIJ:  cpu time    0.0020: real time    0.0025
     EDDAV:  cpu time    0.0600: real time    0.0601
       DOS:  cpu time    0.0010: real time    0.0001
    CHARGE:  cpu time    0.0100: real time    0.0110
    MIXING:  cpu time    0.0010: real time    0.0004
    --------------------------------------------
      LOOP:  cpu time    0.0790: real time    0.0809

 eigenvalue-minimisations  :   352
 total energy-change (2. order) : 0.5879884E-01  (-0.7173186E-01)
 number of electron       7.9999999 magnetization 
 augmentation part        0.0711931 magnetization 

 Broyden mixing:
  rms(total) = 0.43323E-01    rms(broyden)= 0.43294E-01
  rms(prec ) = 0.15686E+00
  weight for this iteration     100.00

 eigenvalues of (default mixing * dielectric matrix)
  average eigenvalue GAMMA=   1.5801
  2.9089  2.5370  1.3199  0.8320  0.9414  0.9414

 Free energy of the ion-electron system (eV)
  ---------------------------------------------------
  alpha Z        PSCENC =        15.79325893
  Ewald energy   TEWEN  =      -354.45312954
  -Hartree energ DENC   =      -140.69942522
  -exchange      EXHF   =         0.00000000
  -V(xc)+E(xc)   XCENC  =       -20.75870027
  PAW double counting   =       693.40249843     -643.00078624
  entropy T*S    EENTRO =        -0.00000000
  eigenvalues    EBANDS =       -17.59361311
  atomic energy  EATOM  =       455.38729263
  Solvation  Ediel_sol  =         0.00000000
  ---------------------------------------------------
  free energy    TOTEN  =       -11.92260439 eV

  energy without entropy =      -11.92260439  energy(sigma->0) =      -11.92260439


--------------------------------------------------------------------------------------------------------




----------------------------------------- Iteration    1(  12)  ---------------------------------------


    POTLOK:  cpu time    0.0040: real time    0.0043
    SETDIJ:  cpu time    0.0030: real time    0.0025
     EDDAV:  cpu time    0.0730: real time    0.0732
       DOS:  cpu time    0.0000: real time    0.0001
    CHARGE:  cpu time    0.0110: real time    0.0108
    MIXING:  cpu time    0.0000: real time    0.0004
    --------------------------------------------
      LOOP:  cpu time    0.0910: real time    0.0938

 eigenvalue-minimisations  :   416
 total energy-change (2. order) : 0.4247829E-02  (-0.3401462E-02)
 number of electron       7.9999999 magnetization 
 augmentation part        0.0689615 magnetization 

 Broyden mixing:
  rms(total) = 0.26806E-02    rms(broyden)= 0.26706E-02
  rms(prec ) = 0.94334E-02
  weight for this iteration     100.00

 eigenvalues of (default mixing * dielectric matrix)
  average eigenvalue GAMMA=   1.5148
  2.8846  2.5363  1.3980  1.1438  1.0110  0.8148  0.8148

 Free energy of the ion-electron system (eV)
  ---------------------------------------------------
  alpha Z        PSCENC =        15.79325893
  Ewald energy   TEWEN  =      -354.45312954
  -Hartree energ DENC   =      -141.74237814
  -exchange      EXHF   =         0.00000000
  -V(xc)+E(xc)   XCENC  =       -20.68060950
  PAW double counting   =       622.02176274     -571.63570867
  entropy T*S    EENTRO =        -0.00000000
  eigenvalues    EBANDS =       -16.60884502
  atomic energy  EATOM  =       455.38729263
  Solvation  Ediel_sol  =         0.00000000
  ---------------------------------------------------
  free energy    TOTEN  =       -11.91835656 eV

  energy without entropy =      -11.91835656  energy(sigma->0) =      -11.91835656


--------------------------------------------------------------------------------------------------------




----------------------------------------- Iteration    1(  13)  ---------------------------------------


    POTLOK:  cpu time    0.0040: real time    0.0043
    SETDIJ:  cpu time    0.0020: real time    0.0025
     EDDAV:  cpu time    0.0600: real time    0.0597
       DOS:  cpu time    0.0000: real time    0.0001
    CHARGE:  cpu time    0.0100: real time    0.0104
    MIXING:  cpu time    0.0010: real time    0.0004
    --------------------------------------------
      LOOP:  cpu time    0.0780: real time    0.0801

 eigenvalue-minimisations  :   352
 total energy-change (2. order) :-0.5504366E-04  (-0.8950471E-04)
 number of electron       7.9999999 magnetization 
 augmentation part        0.0685852 magnetization 

 Broyden mixing:
  rms(total) = 0.49134E-02    rms(broyden)= 0.49114E-02
  rms(prec ) = 0.13656E-01
  weight for this iteration     100.00

 eigenvalues of (default mixing * dielectric matrix)
  average eigenvalue GAMMA=   1.6797
  3.2742  2.6860  2.5274  1.2913  0.8913  0.8913  0.8848  0.9914

 Free energy of the ion-electron system (eV)
  ---------------------------------------------------
  alpha Z        PSCENC =        15.79325893
  Ewald energy   TEWEN  =      -354.45312954
  -Hartree energ DENC   =      -141.86492391
  -exchange      EXHF   =         0.00000000
  -V(xc)+E(xc)   XCENC  =       -20.67357466
  PAW double counting   =       641.55108953     -591.16769991
  entropy T*S    EENTRO =        -0.00000000
  eigenvalues    EBANDS =       -16.49072468
  atomic energy  EATOM  =       455.38729263
  Solvation  Ediel_sol  =         0.00000000
  ---------------------------------------------------
  free energy    TOTEN  =       -11.91841161 eV

  energy without entropy =      -11.91841161  energy(sigma->0) =      -11.91841161


--------------------------------------------------------------------------------------------------------




----------------------------------------- Iteration    1(  14)  ---------------------------------------


    POTLOK:  cpu time    0.0040: real time    0.0042
    SETDIJ:  cpu time    0.0030: real time    0.0025
     EDDAV:  cpu time    0.0790: real time    0.0788
       DOS:  cpu time    0.0000: real time    0.0001
    CHARGE:  cpu time    0.0110: real time    0.0108
    MIXING:  cpu time    0.0000: real time    0.0004
    --------------------------------------------
      LOOP:  cpu time    0.0970: real time    0.0992

 eigenvalue-minimisations  :   448
 total energy-change (2. order) : 0.3089901E-04  (-0.3115495E-04)
 number of electron       7.9999999 magnetization 
 augmentation part        0.0688473 magnetization 

 Broyden mixing:
  rms(total) = 0.11094E-02    rms(broyden)= 0.11085E-02
  rms(prec ) = 0.28744E-02
  weight for this iteration     100.00

 eigenvalues of (default mixing * dielectric matrix)
  average eigenvalue GAMMA=   1.5807
  2.9948  2.6906  2.5206  1.2020  1.2020  0.8799  0.8799  0.8970  0.9595

 Free energy of the ion-electron system (eV)
  ---------------------------------------------------
  alpha Z        PSCENC =        15.79325893
  Ewald energy   TEWEN  =      -354.45312954
  -Hartree energ DENC   =      -141.79126621
  -exchange      EXHF   =         0.00000000
  -V(xc)+E(xc)   XCENC  =       -20.67807608
  PAW double counting   =       659.22502693     -608.83933916
  entropy T*S    EENTRO =        -0.00000000
  eigenvalues    EBANDS =       -16.56214822
  atomic energy  EATOM  =       455.38729263
  Solvation  Ediel_sol  =         0.00000000
  ---------------------------------------------------
  free energy    TOTEN  =       -11.91838071 eV

  energy without entropy =      -11.91838071  energy(sigma->0) =      -11.91838071


--------------------------------------------------------------------------------------------------------




----------------------------------------- Iteration    1(  15)  ---------------------------------------


    POTLOK:  cpu time    0.0050: real time    0.0043
    SETDIJ:  cpu time    0.0020: real time    0.0025
     EDDAV:  cpu time    0.0630: real time    0.0628
       DOS:  cpu time    0.0000: real time    0.0001
    CHARGE:  cpu time    0.0100: real time    0.0105
    MIXING:  cpu time    0.0010: real time    0.0005
    --------------------------------------------
      LOOP:  cpu time    0.0810: real time    0.0828

 eigenvalue-minimisations  :   368
 total energy-change (2. order) : 0.8646994E-06  (-0.1806114E-05)
 number of electron       7.9999999 magnetization 
 augmentation part        0.0687896 magnetization 

 Broyden mixing:
  rms(total) = 0.30734E-03    rms(broyden)= 0.30726E-03
  rms(prec ) = 0.11566E-02
  weight for this iteration     100.00

 eigenvalues of (default mixing * dielectric matrix)
  average eigenvalue GAMMA=   1.6945
  3.2726  2.8227  2.5212  2.4366  1.2868  1.0168  0.8892  0.8892  0.9409  0.8694

 Free energy of the ion-electron system (eV)
  ---------------------------------------------------
  alpha Z        PSCENC =        15.79325893
  Ewald energy   TEWEN  =      -354.45312954
  -Hartree energ DENC   =      -141.81063912
  -exchange      EXHF   =         0.00000000
  -V(xc)+E(xc)   XCENC  =       -20.67708595
  PAW double counting   =       657.02041156     -606.63525779
  entropy T*S    EENTRO =        -0.00000000
  eigenvalues    EBANDS =       -16.54323056
  atomic energy  EATOM  =       455.38729263
  Solvation  Ediel_sol  =         0.00000000
  ---------------------------------------------------
  free energy    TOTEN  =       -11.91837984 eV

  energy without entropy =      -11.91837984  energy(sigma->0) =      -11.91837984


--------------------------------------------------------------------------------------------------------




----------------------------------------- Iteration    1(  16)  ---------------------------------------


    POTLOK:  cpu time    0.0040: real time    0.0042
    SETDIJ:  cpu time    0.0030: real time    0.0025
     EDDAV:  cpu time    0.0320: real time    0.0323
       DOS:  cpu time    0.0000: real time    0.0001
    --------------------------------------------
      LOOP:  cpu time    0.0390: real time    0.0416

 eigenvalue-minimisations  :   160
 total energy-change (2. order) : 0.3339358E-07  (-0.6383709E-07)
 number of electron       7.9999999 magnetization 
 augmentation part        0.0687896 magnetization 

 Free energy of the ion-electron system (eV)
  ---------------------------------------------------
  alpha Z        PSCENC =        15.79325893
  Ewald energy   TEWEN  =      -354.45312954
  -Hartree energ DENC   =      -141.80580455
  -exchange      EXHF   =         0.00000000
  -V(xc)+E(xc)   XCENC  =       -20.67749377
  PAW double counting   =       654.91435326     -604.52915812
  entropy T*S    EENTRO =        -0.00000000
  eigenvalues    EBANDS =       -16.54769865
  atomic energy  EATOM  =       455.38729263
  Solvation  Ediel_sol  =         0.00000000
  ---------------------------------------------------
  free energy    TOTEN  =       -11.91837981 eV

  energy without entropy =      -11.91837981  energy(sigma->0) =      -11.91837981


--------------------------------------------------------------------------------------------------------




 average (electrostatic) potential at core
  the test charge radii are     0.5955  1.0714
  (the norm of the test charge is              1.0000)
       1-108.5300       2 -34.9638
 
 
 
 E-fermi :   3.5464     XC(G=0): -10.9346     alpha+bet :-13.1194


 k-point     1 :       0.1250    0.1250    0.1250
  band No.  band energies     occupation 
      1     -13.5981      2.00000
      2       2.4111      2.00000
      3       3.2561      2.00000
      4       3.2561      2.00000
      5       8.6989      0.00000
      6      17.3092      0.00000
      7      19.3183      0.00000
      8      19.3183      0.00000
      9      23.5298      0.00000
     10      23.5298      0.00000
     11      24.8630      0.00000
     12      27.2584      0.00000
     13      28.6805      0.00000
     14      28.6805      0.00000
     15      38.8931      0.00000
     16      40.8004      0.00000

 k-point     2 :       0.3750    0.1250    0.1250
  band No.  band energies     occupation 
      1     -12.9491      2.00000
      2       0.2544      2.00000
      3       2.4022      2.00000
      4       2.9619      2.00000
      5      11.1174      0.00000
      6      15.2402      0.00000
      7      18.6173      0.00000
      8      20.2911      0.00000
      9      22.1147      0.00000
     10      24.3299      0.00000
     11      26.4082      0.00000
     12      31.0600      0.00000
     13      32.3143      0.00000
     14      33.2069      0.00000
     15      35.5738      0.00000
     16      38.8457      0.00000

 k-point     3 :      -0.3750    0.1250    0.1250
  band No.  band energies     occupation 
      1     -12.5156      2.00000
      2      -0.8670      2.00000
      3       2.2531      2.00000
      4       2.6251      2.00000
      5      11.7231      0.00000
      6      15.4172      0.00000
      7      17.9104      0.00000
      8      19.7214      0.00000
      9      23.6980      0.00000
     10      25.9475      0.00000
     11      26.0240      0.00000
     12      32.2850      0.00000
     13      32.8704      0.00000
     14      33.2391      0.00000
     15      35.7936      0.00000
     16      37.5019      0.00000

 k-point     4 :      -0.1250    0.1250    0.1250
  band No.  band energies     occupation 
      1     -13.2366      2.00000
      2       1.1354      2.00000
      3       2.8890      2.00000
      4       2.8926      2.00000
      5      10.2858      0.00000
      6      15.4965      0.00000
      7      19.4184      0.00000
      8      19.9058      0.00000
      9      21.0704      0.00000
     10      24.9109      0.00000
     11      26.8695      0.00000
     12      29.9510      0.00000
     13      30.2586      0.00000
     14      30.9819      0.00000
     15      37.1774      0.00000
     16      38.9498      0.00000

 k-point     5 :       0.3750    0.3750    0.1250
  band No.  band energies     occupation 
      1     -12.7146      2.00000
      2       0.0715      2.00000
      3       2.2033      2.00000
      4       2.4341      2.00000
      5      12.2137      0.00000
      6      13.9075      0.00000
      7      17.1605      0.00000
      8      20.7802      0.00000
      9      21.2358      0.00000
     10      27.0834      0.00000
     11      30.1456      0.00000
     12      30.3987      0.00000
     13      32.3282      0.00000
     14      34.8186      0.00000
     15      36.4650      0.00000
     16      37.8685      0.00000

 k-point     6 :      -0.3750    0.3750    0.1250
  band No.  band energies     occupation 
      1     -12.3054      2.00000
      2      -0.0422      2.00000
      3       0.9516      2.00000
      4       2.0256      2.00000
      5      13.7579      0.00000
      6      14.7664      0.00000
      7      15.5611      0.00000
      8      19.5464      0.00000
      9      22.9912      0.00000
     10      26.4445      0.00000
     11      29.9740      0.00000
     12      31.3990      0.00000
     13      32.6681      0.00000
     14      36.3333      0.00000
     15      38.8808      0.00000
     16      41.0857      0.00000

 k-point     7 :      -0.1250    0.3750    0.1250
  band No.  band energies     occupation 
      1     -12.5602      2.00000
      2      -0.2469      2.00000
      3       1.6896      2.00000
      4       2.5242      2.00000
      5      12.5830      0.00000
      6      14.7890      0.00000
      7      16.9317      0.00000
      8      20.1176      0.00000
      9      22.6964      0.00000
     10      25.3549      0.00000
     11      28.8630      0.00000
     12      31.6299      0.00000
     13      32.2328      0.00000
     14      34.8814      0.00000
     15      35.5239      0.00000
     16      41.0063      0.00000

 k-point     8 :      -0.3750   -0.3750    0.1250
  band No.  band energies     occupation 
      1     -12.3412      2.00000
      2      -0.4044      2.00000
      3       1.6878      2.00000
      4       2.1412      2.00000
      5      12.8533      0.00000
      6      13.4857      0.00000
      7      16.0078      0.00000
      8      21.4728      0.00000
      9      21.4852      0.00000
     10      28.9135      0.00000
     11      29.3910      0.00000
     12      31.9635      0.00000
     13      32.6601      0.00000
     14      37.7933      0.00000
     15      38.1690      0.00000
     16      41.0966      0.00000

 k-point     9 :       0.3750    0.3750    0.3750
  band No.  band energies     occupation 
      1     -12.7509      2.00000
      2      -0.6002      2.00000
      3       2.8191      2.00000
      4       2.8191      2.00000
      5      10.9291      0.00000
      6      15.4308      0.00000
      7      19.5246      0.00000
      8      19.5246      0.00000
      9      24.0702      0.00000
     10      24.4420      0.00000
     11      24.4420      0.00000
     12      31.8985      0.00000
     13      33.2103      0.00000
     14      33.2103      0.00000
     15      36.8391      0.00000
     16      36.8391      0.00000

 k-point    10 :      -0.3750    0.3750    0.3750
  band No.  band energies     occupation 
      1     -12.3886      2.00000
      2      -0.2835      2.00000
      3       1.0571      2.00000
      4       2.4940      2.00000
      5      13.0732      0.00000
      6      15.2312      0.00000
      7      16.1216      0.00000
      8      20.4268      0.00000
      9      22.5102      0.00000
     10      25.5493      0.00000
     11      29.0753      0.00000
     12      31.6134      0.00000
     13      32.0362      0.00000
     14      35.3638      0.00000
     15      37.2375      0.00000
     16      40.1101      0.00000


--------------------------------------------------------------------------------------------------------


 soft charge-density along one line, spin component           1
         0         1         2         3         4         5         6         7         8         9
 total charge-density along one line
 
 pseudopotential strength for first ion, spin component:           1
 25.191  -0.005  -0.000  -0.000  -0.000   0.000   0.000   0.000
 -0.005   0.001  -0.000  -0.000  -0.000  -0.000  -0.000  -0.000
 -0.000  -0.000  -8.634   0.000   0.000   0.013   0.000   0.000
 -0.000  -0.000   0.000  -8.634   0.000   0.000   0.013   0.000
 -0.000  -0.000   0.000   0.000  -8.634   0.000   0.000   0.013
  0.000  -0.000   0.013   0.000   0.000   0.018   0.000   0.000
  0.000  -0.000   0.000   0.013   0.000   0.000   0.018   0.000
  0.000  -0.000   0.000   0.000   0.013   0.000   0.000   0.018
 total augmentation occupancy for first ion, spin component:           1
  1.787   2.132   0.000   0.000   0.000   0.000   0.000   0.000
  2.132   4.104   0.000   0.000   0.000   0.000   0.000   0.000
  0.000   0.000   1.497   0.000  -0.000  -1.043  -0.000   0.000
  0.000   0.000   0.000   1.497  -0.000  -0.000  -1.043   0.000
  0.000   0.000  -0.000  -0.000   1.497   0.000   0.000  -1.043
  0.000   0.000  -1.043  -0.000  -0.000   0.787   0.000  -0.000
  0.000   0.000  -0.000  -1.043   0.000   0.000   0.787  -0.000
  0.000   0.000   0.000   0.000  -1.043   0.000  -0.000   0.787


------------------------ aborting loop because EDIFF is reached ----------------------------------------


    CHARGE:  cpu time    0.0100: real time    0.0101
    FORLOC:  cpu time    0.0000: real time    0.0002
    FORNL :  cpu time    0.0060: real time    0.0059
    STRESS:  cpu time    0.0490: real time    0.0497
    FORCOR:  cpu time    0.0040: real time    0.0035
    FORHAR:  cpu time    0.0000: real time    0.0008
    MIXING:  cpu time    0.0010: real time    0.0006
    OFIELD:  cpu time    0.0000: real time    0.0000

  FORCE on cell =-STRESS in cart. coord.  units (eV):
  Direction    XX          YY          ZZ          XY          YZ          ZX
  --------------------------------------------------------------------------------------
  Alpha Z    15.79326    15.79326    15.79326
  Ewald    -118.15107  -118.15107  -118.15107    -0.00000    -0.00000     0.00000
  Hartree    47.26519    47.26519    47.26519     0.00000     0.00000     0.00000
  E(xc)     -36.93441   -36.93441   -36.93441    -0.00000    -0.00000    -0.00000
  Local     -89.12328   -89.12328   -89.12330    -0.00000     0.00000    -0.00000
  n-local    -9.18516    -9.39933   -10.54287     0.22594     0.47636    -1.15902
  augment     0.82103     0.82104     0.82104    -0.00000    -0.00000    -0.00000
  Kinetic   185.79690   188.81785   194.66083     0.68022    -1.76976     4.00412
  Fock        0.00000     0.00000     0.00000     0.00000     0.00000     0.00000
  -------------------------------------------------------------------------------------
  Total      -0.27988    -0.27988    -0.27988    -0.00000     0.00000     0.00000
  in kB     -23.25866   -23.25867   -23.25867    -0.00000     0.00000     0.00000
  external pressure =      -23.26 kB  Pullay stress =        0.00 kB


 VOLUME and BASIS-vectors are now :
 -----------------------------------------------------------------------------
  energy-cutoff  :      850.00
  volume of cell :       19.28
      direct lattice vectors                 reciprocal lattice vectors
     3.009788000  0.000000000  0.000000000     0.332249315 -0.191824221 -0.135640193
     1.504894000  2.606553000  0.000000000     0.000000000  0.383648443 -0.135640193
     1.504894000  0.868851000  2.457482000     0.000000000  0.000000000  0.406920580

  length of vectors
     3.009788000  3.009788114  3.009788330     0.406920632  0.406920619  0.406920580


 FORCES acting on ions
    electron-ion (+dipol)            ewald-force                    non-local-force                 convergence-correction
 -----------------------------------------------------------------------------------------------
   0.751E-12 0.784E-12 0.377E-12   0.522E-15 -.592E-15 -.130E-15   -.190E-23 -.125E-24 0.355E-24   -.309E-14 0.189E-14 0.275E-15
   -.538E-14 0.188E-14 0.476E-15   -.124E-14 0.371E-15 0.144E-15   -.629E-24 -.218E-24 -.290E-24   0.887E-16 -.126E-16 -.681E-16
 -----------------------------------------------------------------------------------------------
   0.745E-12 0.786E-12 0.377E-12   -.716E-15 -.221E-15 0.145E-16   -.253E-23 -.343E-24 0.658E-25   -.300E-14 0.187E-14 0.207E-15
 
 
 POSITION                                       TOTAL-FORCE (eV/Angst)
 -----------------------------------------------------------------------------------
      3.00979      1.73770      1.22874         0.000000      0.000000     -0.000000
      0.00000      0.00000      0.00000        -0.000000     -0.000000      0.000000
 -----------------------------------------------------------------------------------
    total drift:                                0.000000      0.000000      0.000000


--------------------------------------------------------------------------------------------------------



  FREE ENERGIE OF THE ION-ELECTRON SYSTEM (eV)
  ---------------------------------------------------
  free  energy   TOTEN  =       -11.91837981 eV

  energy  without entropy=      -11.91837981  energy(sigma->0) =      -11.91837981
 


--------------------------------------------------------------------------------------------------------


    POTLOK:  cpu time    0.0070: real time    0.0070


--------------------------------------------------------------------------------------------------------


     LOOP+:  cpu time    1.3508: real time    1.3909
    4ORBIT:  cpu time    0.0000: real time    0.0000

 total amount of memory used by VASP on root node    34191. kBytes
========================================================================

   base      :      30000. kBytes
   nonl-proj :       2331. kBytes
   fftplans  :        291. kBytes
   grid      :       1372. kBytes
   one-center:         16. kBytes
   wavefun   :        181. kBytes
 
  
  
 General timing and accounting informations for this job:
 ========================================================
  
                  Total CPU time used (sec):        2.360
                            User time (sec):        1.916
                          System time (sec):        0.444
                         Elapsed time (sec):        2.563
  
                   Maximum memory used (kb):       63588.
                   Average memory used (kb):           0.
  
                          Minor page faults:        41083
                          Major page faults:            6
                 Voluntary context switches:         1139
