# ['Ni']

107 atoms
1 atom types

    0.0000     9.1292 xlo xhi
    0.0000     9.1292 ylo yhi
    0.0000     9.1292 zlo zhi

    0.0000    -0.0000    -0.0000 xy xz yz

Atoms

1 1     1.5215     1.5215     0.0000
2 1     1.5215     0.0000     1.5215
3 1     0.0000     1.5215     1.5215
4 1     0.0000     0.0000     3.0431
5 1     1.5215     1.5215     3.0431
6 1     1.5215     0.0000     4.5646
7 1     0.0000     1.5215     4.5646
8 1     0.0000     0.0000     6.0862
9 1     1.5215     1.5215     6.0862
10 1     1.5215     0.0000     7.6077
11 1     0.0000     1.5215     7.6077
12 1     0.0000     3.0431     0.0000
13 1     1.5215     4.5646     0.0000
14 1     1.5215     3.0431     1.5215
15 1     0.0000     4.5646     1.5215
16 1     0.0000     3.0431     3.0431
17 1     1.5215     4.5646     3.0431
18 1     1.5215     3.0431     4.5646
19 1     0.0000     4.5646     4.5646
20 1     0.0000     3.0431     6.0862
21 1     1.5215     4.5646     6.0862
22 1     1.5215     3.0431     7.6077
23 1     0.0000     4.5646     7.6077
24 1     0.0000     6.0862     0.0000
25 1     1.5215     7.6077     0.0000
26 1     1.5215     6.0862     1.5215
27 1     0.0000     7.6077     1.5215
28 1     0.0000     6.0862     3.0431
29 1     1.5215     7.6077     3.0431
30 1     1.5215     6.0862     4.5646
31 1     0.0000     7.6077     4.5646
32 1     0.0000     6.0862     6.0862
33 1     1.5215     7.6077     6.0862
34 1     1.5215     6.0862     7.6077
35 1     0.0000     7.6077     7.6077
36 1     3.0431     0.0000     0.0000
37 1     4.5646     1.5215     0.0000
38 1     4.5646     0.0000     1.5215
39 1     3.0431     1.5215     1.5215
40 1     3.0431     0.0000     3.0431
41 1     4.5646     1.5215     3.0431
42 1     4.5646     0.0000     4.5646
43 1     3.0431     1.5215     4.5646
44 1     3.0431     0.0000     6.0862
45 1     4.5646     1.5215     6.0862
46 1     4.5646     0.0000     7.6077
47 1     3.0431     1.5215     7.6077
48 1     3.0431     3.0431     0.0000
49 1     4.5646     4.5646     0.0000
50 1     4.5646     3.0431     1.5215
51 1     3.0431     4.5646     1.5215
52 1     3.0431     3.0431     3.0431
53 1     4.5646     4.5646     3.0431
54 1     4.5646     3.0431     4.5646
55 1     3.0431     4.5646     4.5646
56 1     3.0431     3.0431     6.0862
57 1     4.5646     4.5646     6.0862
58 1     4.5646     3.0431     7.6077
59 1     3.0431     4.5646     7.6077
60 1     3.0431     6.0862     0.0000
61 1     4.5646     7.6077     0.0000
62 1     4.5646     6.0862     1.5215
63 1     3.0431     7.6077     1.5215
64 1     3.0431     6.0862     3.0431
65 1     4.5646     7.6077     3.0431
66 1     4.5646     6.0862     4.5646
67 1     3.0431     7.6077     4.5646
68 1     3.0431     6.0862     6.0862
69 1     4.5646     7.6077     6.0862
70 1     4.5646     6.0862     7.6077
71 1     3.0431     7.6077     7.6077
72 1     6.0862     0.0000     0.0000
73 1     7.6077     1.5215     0.0000
74 1     7.6077     0.0000     1.5215
75 1     6.0862     1.5215     1.5215
76 1     6.0862     0.0000     3.0431
77 1     7.6077     1.5215     3.0431
78 1     7.6077     0.0000     4.5646
79 1     6.0862     1.5215     4.5646
80 1     6.0862     0.0000     6.0862
81 1     7.6077     1.5215     6.0862
82 1     7.6077     0.0000     7.6077
83 1     6.0862     1.5215     7.6077
84 1     6.0862     3.0431     0.0000
85 1     7.6077     4.5646     0.0000
86 1     7.6077     3.0431     1.5215
87 1     6.0862     4.5646     1.5215
88 1     6.0862     3.0431     3.0431
89 1     7.6077     4.5646     3.0431
90 1     7.6077     3.0431     4.5646
91 1     6.0862     4.5646     4.5646
92 1     6.0862     3.0431     6.0862
93 1     7.6077     4.5646     6.0862
94 1     7.6077     3.0431     7.6077
95 1     6.0862     4.5646     7.6077
96 1     6.0862     6.0862     0.0000
97 1     7.6077     7.6077     0.0000
98 1     7.6077     6.0862     1.5215
99 1     6.0862     7.6077     1.5215
100 1     6.0862     6.0862     3.0431
101 1     7.6077     7.6077     3.0431
102 1     7.6077     6.0862     4.5646
103 1     6.0862     7.6077     4.5646
104 1     6.0862     6.0862     6.0862
105 1     7.6077     7.6077     6.0862
106 1     7.6077     6.0862     7.6077
107 1     6.0862     7.6077     7.6077
