LAMMPS (10 Feb 2015)
# ---- initialize simulations
clear
units metal
dimension 3
boundary p p p
atom_style charge
atom_modify map array
# ---- create atoms
read_data /Users/eugeneragasa/pyflamestk_git/pypospack/tests/tests_integration/workflow/WorkflowLammpsThermalExpansion/param_3101/MgO_NaCl_unit.npt.T2000/lammps.structure
  triclinic box = (0 0 0) to (4.2565 4.2565 4.2565) with tilt (0 0 0)
  1 by 1 by 1 MPI processor grid
  reading atoms ...
  8 atoms
# ---- define interatomic potential
include potential.mod
mass 1 24.305
mass 2 15.999

group Mg type 1
4 atoms in group Mg
group O type 2
4 atoms in group O

set group Mg charge 1.61886676565
  4 settings made for charge
set group O charge -1.61886676565
  4 settings made for charge

variable R_cut equal 10.0

pair_style buck/coul/long ${R_cut}
pair_style buck/coul/long 10
pair_coeff 1 1 0.0 0.5 0.0 ${R_cut}
pair_coeff 1 1 0.0 0.5 0.0 10
pair_coeff 1 2 1642.32869573 0.278339228763 0.0 ${R_cut}
pair_coeff 1 2 1642.32869573 0.278339228763 0.0 10
pair_coeff 2 2 10249.6145692 0.172187509684 14.0611166933 ${R_cut}
pair_coeff 2 2 10249.6145692 0.172187509684 14.0611166933 10

kspace_style pppm 1.0e-5

neighbor 1.0 bin
neigh_modify every 1 delay 0 check yes
# ---- define settings
compute eng all pe/atom
compute eatoms all reduce sum c_eng
# ---- run minimization
reset_timestep 0
fix 1 all box/relax iso 0.0 vmax 0.001
thermo 10
thermo_style custom step pe lx ly lz xy xz yz press pxx pyy pzz pxy pxz pyz c_eatoms
min_style cg
minimize 1e-25 1e-25 5000 10000
PPPM initialization ...
  G vector (1/distance) = 0.352512
  grid = 8 8 8
  stencil order = 5
  estimated absolute RMS force accuracy = 3.81673e-05
  estimated relative force accuracy = 2.65057e-06
  using double precision FFTs
  3d grid and FFT values/proc = 3375 512
Neighbor list info ...
  1 neighbor list requests
  update every 1 steps, delay 0 steps, check yes
  master list distance cutoff = 11
Memory usage per processor = 4.06549 Mbytes
Step PotEng Lx Ly Lz Xy Xz Yz Press Pxx Pyy Pzz Pxy Pxz Pyz eatoms 
       0   -105.55076       4.2565       4.2565       4.2565            0            0            0    126453.59    126453.59    126453.59    126453.59 4.0363335e-11 4.044677e-11 1.0723156e-10   -105.55076 
      10   -105.69165     4.299065     4.299065     4.299065            0            0            0    68786.015    68786.015    68786.015    68786.015 -1.0242962e-10 -4.708445e-11 -3.569371e-11   -105.69165 
      20   -105.75532      4.34163      4.34163      4.34163            0            0            0    18126.479    18126.479    18126.479    18126.479 7.5197513e-11 1.703257e-11 -3.0007315e-11   -105.75532 
      27   -105.76066    4.3583247    4.3583247    4.3583247            0            0            0    1.3863117    1.3863117    1.3863117    1.3863117 -6.2572681e-11 -1.3142723e-10 -3.2118437e-11   -105.76066 
Loop time of 0.014493 on 1 procs for 27 steps with 8 atoms

Minimization stats:
  Stopping criterion = linesearch alpha is zero
  Energy initial, next-to-last, final = 
        -105.550764672     -105.760658065     -105.760658065
  Force two-norm initial, final = 18.26 0.000217628
  Force max component initial, final = 18.26 0.000209876
  Final line search alpha, max atom move = 0.25 5.24691e-05
  Iterations, force evaluations = 27 40

Pair  time (%) = 0.00390005 (26.9099)
Kspce time (%) = 0.00241709 (16.6776)
Neigh time (%) = 0 (0)
Comm  time (%) = 0.000454187 (3.13384)
Outpt time (%) = 3.38554e-05 (0.233599)
Other time (%) = 0.00768781 (53.045)

Nlocal:    8 ave 8 max 8 min
Histogram: 1 0 0 0 0 0 0 0 0 0
Nghost:    2189 ave 2189 max 2189 min
Histogram: 1 0 0 0 0 0 0 0 0 0
Neighs:    2344 ave 2344 max 2344 min
Histogram: 1 0 0 0 0 0 0 0 0 0

Total # of neighbors = 2344
Ave neighs/atom = 293
Neighbor list builds = 0
Dangerous builds = 0
unfix 1
# ---- define output variables ----
variable natoms equal "count(all)"
variable tot_energy equal "c_eatoms"
variable length_x equal "lx"
variable length_y equal "ly"
variable length_z equal "lz"
variable tilt_xy equal "xy"
variable tilt_xz equal "xz"
variable tilt_yz equal "yz"
variable tot_press equal "press"
variable press_xx equal "pxx"
variable press_yy equal "pyy"
variable press_zz equal "pzz"
variable press_xy equal "pxy"
variable press_xz equal "pxz"
variable press_yz equal "pyz"

# ---- output ----
print "pypospack:output_section:begin"
pypospack:output_section:begin
print "tot_energy = ${tot_energy}"
tot_energy = -105.760658064539
print "num_atoms = ${natoms}"
num_atoms = 8
print "xx = ${length_x}"
xx = 4.35832471527479
print "yy = ${length_y}"
yy = 4.35832471527479
print "zz = ${length_z}"
zz = 4.35832471527479
print "xy = ${tilt_xy}"
xy = 0
print "xz = ${tilt_xz}"
xz = 0
print "yz = ${tilt_yz}"
yz = 0
print "tot_press = ${tot_press}"
tot_press = 1.38631174704167
print "pxx = ${press_xx}"
pxx = 1.38631174709188
print "pyy = ${press_yy}"
pyy = 1.38631174731354
print "pzz = ${press_zz}"
pzz = 1.3863117467196
print "pxy = ${press_xy}"
pxy = -6.25726806975275e-11
print "pxz = ${press_xz}"
pxz = -1.31427228854923e-10
print "pyz = ${press_yz}"
pyz = -3.21184365171528e-11
print "pypospack:output_section:done"
pypospack:output_section:done
print "pypospack:lammps_sim:done"
pypospack:lammps_sim:done
#------------------------------------------------------------------------------
# RUN THERMOSTAT
# running using an NPT Nose-Hoover style thermostat
#------------------------------------------------------------------------------
variable tempdamp equal 0.1
variable pressdamp equal 1.0
# set initial velocities
velocity all create 2000 4180821 mom yes dist gaussian loop all
# fix for Nose-Hoover style thermostat
fix 20 all npt temp 2000 2000 0.1 aniso 0.0 0.0 1.0 drag 1.0 couple xyz
variable boxx equal lx
variable boxy equal ly
variable boxz equal lz
variable boxp equal press
variable boxt equal temp
# calculate averages every 10000 steps
reset_timestep 0
fix 21 all ave/time 10 10 100 v_boxx v_boxy v_boxz v_boxp v_boxt file lattice.out
thermo_style custom step temp pe ke etotal press lx ly lz press pxx pyy pzz pxy pxz pyz vol
thermo_modify flush yes
thermo 100
run 100000
PPPM initialization ...
  G vector (1/distance) = 0.351503
  grid = 8 8 8
  stencil order = 5
  estimated absolute RMS force accuracy = 3.99806e-05
  estimated relative force accuracy = 2.7765e-06
  using double precision FFTs
  3d grid and FFT values/proc = 3375 512
Memory usage per processor = 3.06549 Mbytes
Step Temp PotEng KinEng TotEng Press Lx Ly Lz Press Pxx Pyy Pzz Pxy Pxz Pyz Volume 
       0         2000   -105.76067     1.809642   -103.95103    23347.423    4.3583247    4.3583247    4.3583247    23347.423    18107.112    21323.846    30611.311     6829.982    21989.175    7312.0849    82.786353 
     100    407.71052   -104.09313   0.36890505   -103.72423    9586.4732    4.3862204    4.3862204    4.3862204    9586.4732    25427.582   -31664.689    34996.527   -6263.8498   -18176.173   -54481.691    84.386184 
     200     1603.576    -104.6735    1.4509493   -103.22255   -1204.6953    4.4269378    4.4269378    4.4269378   -1204.6953   -25592.639    -37475.75    59454.304    7741.9482    17480.041    2629.6114    86.758143 
     300    1383.5447   -104.05189    1.2518603   -102.80003   -36487.144    4.4445062    4.4445062    4.4445062   -36487.144    14079.152   -58264.693    -65275.89   -1326.5682   -6971.5154   -68296.464    87.795153 
     400    2332.9867   -104.52686    2.1109354   -102.41592   -6650.2602    4.4380291    4.4380291    4.4380291   -6650.2602   -21151.264   -20668.342    21868.825   -2836.4486    11051.282    9308.0205    87.411873 
     500    1247.6841    -103.3253    1.1289308   -102.19637   -1663.2218    4.4285743    4.4285743    4.4285743   -1663.2218    35736.516   -26582.681     -14143.5    10523.138   -779.34923   -82306.469    86.854395 
     600    2817.4886   -104.61068    2.5493229   -102.06136    22564.931    4.4414529    4.4414529    4.4414529    22564.931    44576.541     7076.656    16041.597    1445.0067    4410.8697    14178.772    87.614336 
     700    1467.9465   -103.36379    1.3282288   -102.03556   -54044.457    4.4546133    4.4546133    4.4546133   -54044.457   -20799.813   -111829.87   -29503.691   -1188.4726    3492.2959   -95759.174    88.395475 
     800    2444.6338    -104.1978     2.211956   -101.98584    35803.554    4.4372169    4.4372169    4.4372169    35803.554   -451.19143    1271.5301    106590.32   -11235.406    2520.3165    26884.838    87.363893 
     900    1440.2752   -103.32893    1.3031912   -102.02574   -755.82988    4.4287497    4.4287497    4.4287497   -755.82988    47925.505   -42956.345     -7236.65    4967.0891    1318.6619   -84825.102    86.864718 
    1000    2827.5229   -104.60081    2.5584021   -102.04241    25516.037    4.4361997    4.4361997    4.4361997    25516.037    17811.086   -26648.015     85385.04    -26970.63   -8736.1745    23043.396    87.303822 
    1100    1750.1398   -103.64508    1.5835632   -102.06151   -51382.294    4.4658077    4.4658077    4.4658077   -51382.294    21901.194   -116396.37   -59651.706   -5920.5121   -13112.434   -76256.858    89.063563 
    1200    2493.7239   -104.24661    2.2563738   -101.99024    7840.1233    4.4710923    4.4710923    4.4710923    7840.1233    30851.474   -52072.802    44741.698   -25335.395   -35589.421    26997.441    89.380113 
    1300    1062.7023   -102.93909   0.96155534   -101.97753    13230.103    4.4672811    4.4672811    4.4672811    13230.103    108102.29   -40945.922   -27466.061    12805.857   -30857.089    -18995.57    89.151741 
    1400    2220.1098   -103.96466     2.008802   -101.95586    24329.088    4.4621923    4.4621923    4.4621923    24329.088   -6181.0185    18808.821    60359.461   -325.41846   -29766.816    12474.413    88.847427 
    1500     1857.807   -103.67659    1.6809828    -101.9956    72.618256    4.4645266    4.4645266    4.4645266    72.618256    67770.384   -44883.858   -22668.671    8720.6753    -6019.545    -18147.87    88.986931 
    1600    2635.6736    -104.3612    2.3848129   -101.97639   -44074.641    4.4771766    4.4771766    4.4771766   -44074.641   -28225.715   -29602.148   -74396.058    24528.482   -5319.5163     196.3857    89.745496 
    1700    1675.4989   -103.49734    1.5160266   -101.98132   -9590.4035    4.4756517    4.4756517    4.4756517   -9590.4035    81124.853   -19903.469   -89992.594     -4344.92    433.97254   -8332.8118    89.653828 
    1800    2211.6719   -103.99404    2.0011672   -101.99288   -5193.6838    4.4485472    4.4485472    4.4485472   -5193.6838    50590.412   -30705.768   -35465.695    31637.984    2109.9089    12141.217    88.034849 
    1900    1033.3708   -102.95377   0.93501558   -102.01876    44707.895    4.4112256    4.4112256    4.4112256    44707.895    44720.757    54522.628    34880.301     13241.98    3832.3718   -22825.777    85.837645 
    2000    2844.5978   -104.63327    2.5738519   -102.05942    10854.383    4.4204377    4.4204377    4.4204377    10854.383    49179.764    10095.296   -26711.912   -7891.4849   -11908.564    17588.773    86.376544 
    2100    1783.4748   -103.70629    1.6137255   -102.09257   -65675.096    4.4693255    4.4693255    4.4693255   -65675.096    -25315.55   -77773.245   -93936.492    4382.0401   -20646.149   -29905.128    89.274196 
    2200    2821.0061   -104.55223    2.5525056   -101.99972     -43655.7    4.4776847    4.4776847    4.4776847     -43655.7   -33134.605   -39088.763   -58743.731   -6391.8286    -8493.197    43275.235    89.776056 
    2300    1152.3553   -103.01095    1.0426753   -101.96828     29652.19    4.4370879    4.4370879    4.4370879     29652.19    10361.716    38482.175    40112.677    25097.183   -6544.8724   -40236.348    87.356273 
    2400    2622.0322   -104.34223    2.3724698   -101.96976    22672.985    4.4145227    4.4145227    4.4145227    22672.985     16377.53    45325.012    6316.4114   -12212.532    1846.1158    15077.021    86.030268 
    2500    1963.9143   -103.84064    1.7769909   -102.06365   -20020.066    4.4254039    4.4254039    4.4254039   -20020.066   -3716.0512   -52214.861   -4129.2865    1473.1228   -18214.174   -68188.409    86.667992 
    2600    1892.1273   -103.79877    1.7120365   -102.08673    9183.2991    4.4547804    4.4547804    4.4547804    9183.2991   -12043.384    27177.586    12415.695     6659.862    -20476.99    19726.724    88.405421 
    2700    2040.2194   -103.91356    1.8460334   -102.06753   -29877.742    4.4539416    4.4539416    4.4539416   -29877.742    16938.088   -38543.508   -68027.808    2593.9326   -1535.6522   -60946.767    88.355493 
    2800    2008.2892   -103.85561    1.8171422   -102.03847    18352.745    4.4191401    4.4191401    4.4191401    18352.745   -37977.791    112948.65   -19912.628   -12917.547   -29073.321    14412.068    86.300499 
    2900    1987.1757   -103.84319    1.7980384   -102.04515    21268.912    4.4103413    4.4103413    4.4103413    21268.912    94511.628   -20467.212   -10237.681    6136.2127    2417.8343   -58531.972    85.786038 
    3000    2207.6665   -104.06038     1.997543   -102.06284    6631.2712    4.4341055    4.4341055    4.4341055    6631.2712   -34673.875    89857.401   -35289.713   -14512.183   -26056.395    2380.2975    87.180244 
    3100    1735.5821   -103.62704    1.5703911   -102.05665   -17565.907    4.4463613    4.4463613    4.4463613   -17565.907     56844.52   -41131.103   -68411.139    11835.599    6104.9501   -57555.693    87.905138 
    3200    2058.7178   -103.90401    1.8627711   -102.04124    31789.085    4.4440184    4.4440184    4.4440184    31789.085    71493.237    51261.289    -27387.27   -14027.889    -17131.11    19100.196    87.766248 
    3300     2054.024   -103.90809    1.8585241   -102.04957   -40721.893    4.4472204    4.4472204    4.4472204   -40721.893   -630.42916   -64338.938   -57196.311    5411.1989    -8211.447    -83401.79    87.956102 
    3400    2509.1013   -104.31118    2.2702876   -102.04089    4252.0471    4.4381549    4.4381549    4.4381549    4252.0471    49927.674   -24681.015   -12490.517     24043.25   -4516.8863    30988.259    87.419308 
    3500    1587.0633   -103.50632    1.4360082   -102.07031    11412.531    4.4392405    4.4392405    4.4392405    11412.531    11534.451    39732.519   -17029.376   -2615.2734   -6723.8884   -59215.374    87.483476 
    3600    2571.8578   -104.37449    2.3270709   -102.04742   -25214.609    4.4578838    4.4578838    4.4578838   -25214.609   -19838.838    -24070.51   -31734.479     -531.279   -18365.099    29943.621    88.590309 
    3700    1385.1335   -103.28233    1.2532979   -102.02904    3371.3565    4.4411065    4.4411065    4.4411065    3371.3565    36121.089    47038.744   -73045.763    6692.8889   -10828.746   -57660.419    87.593839 
    3800      2816.28   -104.55394    2.5482293   -102.00572   -4422.1459    4.4272914    4.4272914    4.4272914   -4422.1459   -18468.477    41923.731   -36721.692    10960.656    4284.7731    37403.287    86.778934 
    3900    1541.2755   -103.45461    1.3945784   -102.06003    -38862.51    4.4315858    4.4315858    4.4315858    -38862.51    21475.709   -41174.207   -96889.032    -4937.804   -13910.139   -99405.778    87.031706 
    4000    2529.2898   -104.33482    2.2885546   -102.04627    15592.871    4.4235045    4.4235045    4.4235045    15592.871    31885.707    45133.728   -30240.821   -13051.533   -7683.6897    21801.977    86.556449 
    4100    1679.8904   -103.59731    1.5200001   -102.07731   -35555.983    4.4310922    4.4310922    4.4310922   -35555.983    19307.083   -45319.143   -80655.891    9577.5356     7360.633   -69910.696    87.002628 
    4200    2263.6341   -104.09507    2.0481837   -102.04689    6481.3679    4.4280406    4.4280406    4.4280406    6481.3679    1576.1859    31667.464   -13799.546   -6149.0061   -1716.0594    12582.459       86.823 
    4300    1597.0454   -103.49105    1.4450403   -102.04601    9697.4242    4.4194009    4.4194009    4.4194009    9697.4242     48441.52   -26870.817     7521.569   -2820.5122   -8765.4297   -61709.594    86.315778 
    4400    2861.5659   -104.62878     2.589205   -102.03958   -5575.7658    4.4259239    4.4259239    4.4259239   -5575.7658   -38555.565    26826.056    -4997.789   -3839.7861    991.35347    24552.852     86.69855 
    4500    1178.3421   -103.13778    1.0661887   -102.07159    7076.5652    4.4229054    4.4229054    4.4229054    7076.5652    40895.436    6786.4987   -26452.239   -14231.956    7837.6512   -59953.367    86.521282 
    4600    2778.0681   -104.57031    2.5136544   -102.05666    2736.1934    4.4260845    4.4260845    4.4260845    2736.1934    20063.674   -1876.9519   -9978.1418    11388.659   -8003.9567    31575.504    86.707985 
    4700    1621.7983   -103.52694    1.4674372    -102.0595   -12696.124    4.4272469    4.4272469    4.4272469   -12696.124   -4994.8552   -24247.649   -8845.8666   -21765.854    15059.811   -67073.484     86.77632 
    4800    2511.1337   -104.30755    2.2721265   -102.03542   -1506.7549    4.4218301    4.4218301    4.4218301   -1506.7549     7302.802   -18983.535    7160.4685    -6215.727     4060.791    32546.549    86.458194 
    4900    1886.9961   -103.75426    1.7073937   -102.04687    6417.3965    4.4228141    4.4228141    4.4228141    6417.3965      21646.9   -25756.101    23361.391     -1242.54    4477.5131   -75283.464    86.515926 
    5000    2276.1061   -104.08843    2.0594686   -102.02896   -3494.7175    4.4309002    4.4309002    4.4309002   -3494.7175   -10482.119   -14759.786    14757.752   -7712.0472    7329.0085    35107.739    86.991317 
    5100    2011.3098   -103.85054    1.8198754   -102.03066     -12659.1    4.4314617    4.4314617    4.4314617     -12659.1   -1653.4961    -67434.88    31111.077    15374.318   -1554.8717   -67610.513    87.024394 
    5200    2300.7146   -104.09104    2.0817349    -102.0093    24038.107    4.4268781    4.4268781    4.4268781    24038.107    22238.046    12568.101    37308.173   -18839.997    11131.015    16665.278    86.754638 
    5300    1412.0955   -103.30384    1.2776937   -102.02614   -26100.868    4.4236283    4.4236283    4.4236283   -26100.868   -35785.539   -12115.799   -30401.266    24139.499   -5680.5759   -55666.368    86.563713 
    5400    2525.2705   -104.31428    2.2849179   -102.02936    14279.762    4.4208992    4.4208992    4.4208992    14279.762   -5047.8106   -23057.955    70945.052   -30696.224    89.873724    10868.342    86.403601 
    5500    1491.8399   -103.40716    1.3498481   -102.05731   -34300.423    4.4276488    4.4276488    4.4276488   -34300.423   -12601.291   -57024.037   -33275.941    24104.635   -2678.3833   -33690.101    86.799954 
    5600    2270.6994   -104.09148    2.0545765    -102.0369   -9150.0506    4.4287743    4.4287743    4.4287743   -9150.0506   -25954.589   -7792.4222    6296.8595   -9268.2445    1640.7028   -17026.954    86.866161 
    5700    1815.9674   -103.69932    1.6431255    -102.0562   -45162.849     4.427537     4.427537     4.427537   -45162.849   -42251.791   -74994.642   -18242.114    24532.862   -11865.812    24982.338    86.793381 
    5800    2500.7157   -104.30242    2.2627001   -102.03972    3531.0493    4.4317709    4.4317709    4.4317709    3531.0493   -12002.279   -5898.4717    28493.899   -14543.927    11764.243   -29903.163    87.042609 
    5900    1310.5908   -103.26094    1.1858501   -102.07509    -34550.55    4.4367835    4.4367835    4.4367835    -34550.55   -24625.874   -81248.857    2223.0813    24687.967   -1140.9652    29309.334    87.338298 
    6000    3048.4355   -104.79345    2.7582885   -102.03516   -961.78878    4.4396509    4.4396509    4.4396509   -961.78878   -5432.1515    14364.239   -11817.454   -23958.964   -7383.8001   -11345.828    87.507741 
    6100    959.52173   -102.91273   0.86819543   -102.04453    -37225.48    4.4405067    4.4405067    4.4405067    -37225.48   -88376.837   -98169.153     74869.55    1392.1225     2596.379    7609.6078    87.558354 
    6200    3033.9629   -104.74734    2.7451934   -102.00215     6908.565    4.4318846    4.4318846    4.4318846     6908.565   -16791.429    24705.831    12811.294    6557.0964     -2901.36   -36062.261     87.04931 
    6300    1270.1632   -103.18826    1.1492703   -102.03899   -21930.329    4.4149086    4.4149086    4.4149086   -21930.329   -7416.0121   -59280.709    905.73442   -19269.557   -2114.0909    18830.848     86.05283 
    6400    2306.4086   -104.12527    2.0868869   -102.03838    37258.833    4.4106241    4.4106241    4.4106241    37258.833    9352.2601    41176.306    61247.934   -8066.5385    -6749.431   -18687.022    85.802537 
    6500    1747.6526   -103.66415    1.5813128   -102.08284   -27463.527    4.4317963    4.4317963    4.4317963   -27463.527   -27594.477   -73704.018    18907.914   -14386.942    11452.087    17024.086    87.044106 
    6600    2358.0003   -104.18527    2.1335683    -102.0517    10167.909    4.4456942    4.4456942    4.4456942    10167.909    10934.166   -20944.506    40514.066    465.19628   -23459.553   -3970.4489    87.865577 
    6700    1219.2174   -103.15111    1.1031735   -102.04794   -15315.616    4.4357705    4.4357705    4.4357705   -15315.616    -5237.914   -5883.2085   -34825.727   -10673.091   -6955.1301   -10607.108    87.278486 
    6800    2850.2051   -104.60149    2.5789255   -102.02256    13257.156    4.4159892    4.4159892    4.4159892    13257.156    3854.9578    -2424.438    38340.948    5855.1805   -10211.425    19306.307    86.116032 
    6900    1274.8607   -103.21971    1.1535207   -102.06619   -6140.9088    4.4078706    4.4078706    4.4078706   -6140.9088    19424.874   -32739.721   -5107.8789   -20331.409   -13708.901   -40627.095    85.641945 
    7000    2123.1177    -103.9837    1.9210415   -102.06266    27391.447    4.4132884    4.4132884    4.4132884    27391.447   -12283.433    43582.831    50874.945    2430.7704    12537.218    37409.249    85.958125 
    7100    2021.1703   -103.91291    1.8287974   -102.08411   -29497.087    4.4278847    4.4278847    4.4278847   -29497.087   -30244.773   -48845.466   -9401.0226   -15656.773   -13140.573   -36651.873    86.813826 
    7200    1987.9293   -103.86769    1.7987202   -102.06897     13610.33     4.434944     4.434944     4.434944     13610.33   -26967.173    67525.413    272.74954    3881.0438    28479.102    4790.7223    87.229707 
    7300    1817.7031   -103.70103    1.6446959   -102.05633   -19880.154    4.4363701    4.4363701    4.4363701   -19880.154    5794.1593   -47805.783   -17628.838   -15592.423    11091.009   -14656.975    87.313887 
    7400    2121.9022   -103.96517    1.9199417   -102.04523    10894.661     4.434009     4.434009     4.434009    10894.661    9873.0115    1449.9439    21361.027   -36763.823     1838.274    -16436.19    87.174548 
    7500    1924.8667   -103.78961    1.7416599   -102.04795   -810.97476    4.4241676    4.4241676    4.4241676   -810.97476    20321.017    15782.991   -38536.932   -4038.9734     28054.94    5516.8207    86.595376 
    7600    1979.1936   -103.85911     1.790816   -102.06829    34621.585    4.4246472    4.4246472    4.4246472    34621.585    46179.713   -70.608957     57755.65   -22802.702   -218.91655   -16597.982    86.623543 
    7700    2019.5467   -103.88753    1.8273283    -102.0602   -28000.321    4.4485128    4.4485128    4.4485128   -28000.321   -3353.0927   -37998.686   -42649.183   -703.82944    14430.256    21268.842    88.032806 
    7800     1623.015   -103.50495    1.4685381   -102.03641   -2765.9003    4.4310739    4.4310739    4.4310739   -2765.9003    26704.789   -2748.1299    -32254.36   -32180.646    -5841.215   -7558.1755    87.001548 
    7900     2313.888   -104.12114    2.0936545   -102.02749    972.02091      4.41488      4.41488      4.41488    972.02091   -19857.431     14594.22    8179.2736    11369.373    1309.3973    6580.0744    86.051157 
    8000    2049.2864   -103.92072    1.8542374   -102.06648   -136.47886    4.4294374    4.4294374    4.4294374   -136.47886     27358.93   -12132.161   -15636.205   -23583.692    20141.259    927.22501     86.90519 
    8100    1957.0523    -103.8417     1.770782   -102.07092     3673.716    4.4430148    4.4430148    4.4430148     3673.716   -13794.514   -3844.8579     28660.52    21679.807   -10219.675   -9366.1974    87.706805 
    8200    1878.8768   -103.75235    1.7000472   -102.05231   -13709.589    4.4491635    4.4491635    4.4491635   -13709.589    38091.188    -18107.82   -61112.137   -8988.2805    14010.411   -1168.8687    88.071439 
    8300    2452.7944   -104.25192    2.2193399   -102.03258   -22737.463    4.4294094    4.4294094    4.4294094   -22737.463   -45708.428   -24727.654     2223.692    4651.2665   -41044.653    7293.1283    86.903538 
    8400    1929.4591   -103.78096    1.7458152   -102.03515   -9860.7447    4.4165103    4.4165103    4.4165103   -9860.7447   -4335.1887   -19305.255   -5941.7898    13975.036    20398.499    2800.2339    86.146521 
    8500    1909.0477   -103.78772    1.7273464   -102.06037    7991.8444    4.4277562    4.4277562    4.4277562    7991.8444    15987.155    34676.968    -26688.59   -1707.8202   -40226.736   -7534.6411    86.806271 
    8600     1824.886   -103.71371    1.6511952   -102.06251   -7796.1096     4.446064     4.446064     4.446064   -7796.1096    12056.639    -41832.66    6387.6916    22900.497   -25005.941    24796.794    87.887505 
    8700    1876.3576   -103.74045    1.6977678   -102.04268   -3814.4566    4.4533239    4.4533239    4.4533239   -3814.4566    16104.585    13860.862   -41408.817   -13599.715    -11807.19    -10831.28    88.318734 
    8800    1960.4501   -103.80479    1.7738564   -102.03093    -11419.74    4.4455377    4.4455377    4.4455377    -11419.74    5448.3836   -46970.898     7263.295    18934.845   -32142.852    7451.3466    87.856297 
    8900    1986.0799   -103.83295    1.7970468   -102.03591    7093.2466     4.433702     4.433702     4.433702    7093.2466    50255.558   -32025.273    3049.4542   -859.40076    13610.876    44214.441    87.156442 
    9000    1451.7739   -103.36341    1.3135955   -102.04981    39970.475    4.4320343    4.4320343    4.4320343    39970.475    22278.638    81082.991    16549.795     14383.79   -19873.164   -7053.2837    87.058131 
    9100    2285.5385   -104.10247    2.0680033   -102.03446    -11028.95    4.4496285    4.4496285    4.4496285    -11028.95    89735.053    -49764.94   -73056.963    20174.913    11513.895    26787.564    88.099055 
    9200    2050.7825   -103.87202    1.8555911   -102.01642    -6799.004    4.4471178    4.4471178    4.4471178    -6799.004   -40740.564    21100.357   -756.80513   -2228.6545   -26147.377    2742.4347    87.950014 
    9300    1671.7973   -103.52242    1.5126773   -102.00974     49236.13    4.4278868    4.4278868    4.4278868     49236.13    31646.261    82889.126    33173.003    20863.237    18413.842    23358.677    86.813953 
    9400    2443.9219   -104.24307    2.2113119   -102.03176    9558.3579    4.4226214    4.4226214    4.4226214    9558.3579    5082.3924    46058.394   -22465.712   -11393.107    132.12958   -886.16496    86.504619 
    9500    1730.6436   -103.65375    1.5659227   -102.08783    30199.362     4.434153     4.434153     4.434153    30199.362     13789.63    12824.181    63984.274    13573.964   -12609.581    32066.585    87.183041 
    9600    2014.1439   -103.89701    1.8224398   -102.07457   -14405.289    4.4622106    4.4622106    4.4622106   -14405.289   -20092.379    27326.443   -50449.932    20122.606    23460.405   -7202.7607    88.848517 
    9700    1679.1756   -103.56531    1.5193534   -102.04596    11101.846     4.447393     4.447393     4.447393    11101.846    7575.1375   -50047.771    75778.173     36442.99   -4893.8762    28668.038    87.966339 
    9800    1934.6763    -103.7928    1.7505358   -102.04227   -759.94663    4.4292013    4.4292013    4.4292013   -759.94663   -1779.5177     34680.93   -35181.253   -10589.859     41433.31    13660.852    86.891292 
    9900    2027.2232   -103.89135    1.8342741   -102.05707   -8652.5943    4.4319862    4.4319862    4.4319862   -8652.5943     32389.05   -74581.635    16234.802    19324.131   -24549.607     7416.524    87.055295 
   10000    1638.6354   -103.55415    1.4826717   -102.07148   -4488.0426    4.4405801    4.4405801    4.4405801   -4488.0426    7619.3822    15564.796   -36648.306    225.94366     46597.23    14437.201    87.562698 
   10100    2447.8615   -104.27571    2.2148765   -102.06083   -13040.679    4.4456489    4.4456489    4.4456489   -13040.679    -23569.07   -12430.601   -3122.3652    10016.816   -10673.858   -3130.4085    87.862889 
   10200    1337.6307   -103.26273    1.2103164   -102.05241   -10755.117    4.4527747    4.4527747    4.4527747   -10755.117    51318.024   -31484.478   -52098.897    1408.8717    30841.037    17318.742    88.286066 
   10300    2465.0694   -104.24456    2.2304466   -102.01412    16647.455    4.4454559    4.4454559    4.4454559    16647.455    24447.911    1225.2198    24269.235    3017.2609   -5926.7651    6043.3707    87.851447 
   10400     2036.977   -103.86797    1.8430996   -102.02487   -19504.172    4.4343744    4.4343744    4.4343744   -19504.172   -15690.108    -17384.52   -25437.886    7467.8204    14581.769    31550.857    87.196102 
   10500    2145.0507   -103.98035    1.9408869   -102.03946    18815.308     4.440828     4.440828     4.440828    18815.308    57611.574    1682.5566    -2848.206    6447.1206    13763.559   -13474.491     87.57736 
   10600    1990.1322    -103.8518    1.8007135   -102.05109   -23965.014     4.455028     4.455028     4.455028   -23965.014   -15397.705   -33789.251   -22708.086    365.87637     7129.371    28884.764    88.420164 
   10700    1918.5415   -103.77568    1.7359367   -102.03974    -8675.817    4.4548966    4.4548966    4.4548966    -8675.817    19849.063   -33658.483   -12218.031    18692.701    40547.416   -3559.8066    88.412339 
   10800    2107.2723   -103.93013    1.9067043   -102.02342   -9068.9255    4.4404025    4.4404025    4.4404025   -9068.9255    5704.7678   -8587.2786   -24324.266   -6484.7862   -13334.366    35824.998    87.552189 
   10900    2343.5388   -104.14686    2.1204832   -102.02638   -21022.049     4.434811     4.434811     4.434811   -21022.049    -15995.93   -46354.274   -715.94316     6612.801    28497.622   -26053.902     87.22186 
   11000    1982.0488   -103.84848    1.7933994   -102.05508   -20985.016    4.4561596    4.4561596    4.4561596   -20985.016    10060.797   -23744.771   -49271.074   -14323.983   -3248.9472    28700.497     88.48756 
   11100    1748.2574   -103.62893    1.5818601   -102.04707   -3647.0985    4.4468226    4.4468226    4.4468226   -3647.0985   -46660.514    72761.169   -37041.951    13749.479    23556.033    868.15297    87.932497 
   11200    2261.2721   -104.09261    2.0460466   -102.04656    4262.2508    4.4328664    4.4328664    4.4328664    4262.2508    22258.206   -6106.3847   -3365.0686   -23980.279    4998.4189   -31666.201    87.107175 
   11300    2130.2299   -103.99834    1.9274768   -102.07086   -2598.7038    4.4457808    4.4457808    4.4457808   -2598.7038   -12310.874     24861.38   -20346.617   -15264.908    8528.9478    13070.613    87.870712 
   11400    1691.7314     -103.602    1.5307141   -102.07128   -15708.267    4.4630696    4.4630696    4.4630696   -15708.267   -522.55133    42282.117   -88884.367   -7558.2869    -1204.111   -45307.947    88.899842 
   11500    2032.6577   -103.89646    1.8391914   -102.05727   -10593.953    4.4609829    4.4609829    4.4609829   -10593.953   -62333.152    64823.845   -34272.552    14114.949   -13758.299    18511.471    88.775202 
   11600    1638.2873   -103.53787    1.4823568   -102.05552    20137.279    4.4261107    4.4261107    4.4261107    20137.279    73706.764    47351.036   -60645.963    809.51451     5109.421   -44539.564    86.709524 
   11700    2733.1498   -104.53068    2.4730113   -102.05767    5694.7408    4.4211023    4.4211023    4.4211023    5694.7408   -39310.486    64018.026   -7623.3176   -12653.901   -34127.513    8441.9232    86.415509 
   11800    1569.0915   -103.50922    1.4197469   -102.08948   -12683.421    4.4469894    4.4469894    4.4469894   -12683.421    24712.702   -7318.3118   -55444.654   -1195.4586    12485.821   -60580.319    87.942396 
   11900      2323.64   -104.15718    2.1024783   -102.05471    11227.369    4.4623794    4.4623794    4.4623794    11227.369    -47827.09    91679.151   -10169.954   -8336.0756   -15510.837    19929.694    88.858601 
   12000    1899.8141   -103.76367    1.7189917   -102.04468    512.50171    4.4578687    4.4578687    4.4578687    512.50171    -12719.01    36713.396   -22456.881     -13227.9    706.96501   -73726.042    88.589414 
   12100     2751.901   -104.53518    2.4899778    -102.0452   -20898.777    4.4498417    4.4498417    4.4498417   -20898.777   -68699.674    19432.728   -13429.386    17446.324   -1767.9627    8698.2888    88.111721 
   12200    1945.7344   -103.82497    1.7605414   -102.06443    4269.8118    4.4460984    4.4460984    4.4460984    4269.8118   -26269.831    33896.262     5183.004    26917.014    3674.8474   -29026.851    87.889545 
   12300    1929.0407    -103.8348    1.7454366   -102.08937   -41391.258    4.4532026    4.4532026    4.4532026   -41391.258   -91448.418    17159.463   -49884.819   -3114.4725   -32419.018   -18735.601    88.311522 
   12400     1860.446   -103.76143    1.6833706   -102.07806    40501.264    4.4430298    4.4430298    4.4430298    40501.264   -37140.332    114208.57    44435.553    25976.894    6370.6229    3565.4439    87.707688 
   12500    1791.8042   -103.72037    1.6212621   -102.09911   -18421.395    4.4432356    4.4432356    4.4432356   -18421.395   -58712.457   -11722.926    15171.197   -14657.423   -36443.836    -39284.74    87.719877 
   12600    2526.0298   -104.35871    2.2856048    -102.0731   -2586.0051    4.4468835    4.4468835    4.4468835   -2586.0051   -36546.881    37298.026   -8509.1603    15774.219     533.3819    16948.263     87.93611 
   12700    1897.5841   -103.78481     1.716974   -102.06783    6311.9162    4.4445445    4.4445445    4.4445445    6311.9162   -18229.886    20405.179    16760.455   -15205.696    -15919.99   -38545.131    87.797422 
   12800    1738.6381   -103.62602    1.5731563   -102.05286    30141.495    4.4469502    4.4469502    4.4469502    30141.495   -24126.349    23826.945     90723.89    16098.751    9289.0626    16935.391    87.940067 
   12900    2369.4158   -104.17337    2.1438972   -102.02947   -5309.0985    4.4432187    4.4432187    4.4432187   -5309.0985   -32581.197   -7093.4098    23747.311   -11883.254   -22109.532    7005.5255    87.718876 
   13000     1515.051   -103.41697      1.37085   -102.04612    24269.839     4.446623     4.446623     4.446623    24269.839   -66066.592    73346.946    65529.162    24476.438    5695.4363   -4289.5989    87.920659 
   13100    2209.1604   -104.02892    1.9988947   -102.03003   -43832.895    4.4633596    4.4633596    4.4633596   -43832.895    -89849.15    187.39609   -41836.933    6400.1383   -24462.061    8140.2676     88.91717 
   13200    1425.6617   -103.31867    1.2899687    -102.0287     30231.99     4.443784     4.443784     4.443784     30231.99   -71995.736    101347.65    61344.052    15942.107   -10550.584   -19355.258    87.752363 
   13300    2026.7541   -103.86925    1.8338497    -102.0354     16296.44    4.4285458    4.4285458    4.4285458     16296.44    37266.159   -1523.5754    13146.736    13717.442   -12818.884    21940.509    86.852722 
   13400    2355.2875   -104.19296    2.1311136   -102.06184    -26307.15    4.4392952    4.4392952    4.4392952    -26307.15   -40817.261    19181.959   -57286.147   -8737.5944   -5396.6434    11698.258    87.486708 
   13500    1761.5773   -103.66128    1.5939122   -102.06737    15605.588    4.4551395    4.4551395    4.4551395    15605.588   -14516.226    56994.372    4338.6177    9044.7117    11924.979   -13958.896    88.426806 
   13600    2361.2763    -104.1587    2.1365325   -102.02217   -34456.075    4.4791023    4.4791023    4.4791023   -34456.075   -55914.235   -66347.227    18893.238   -641.25137   -21699.271     5886.255    89.861353 
   13700    2004.9353   -103.79795    1.8141076   -101.98384     8088.725    4.4684266    4.4684266    4.4684266     8088.725   -9473.6544    46989.353   -13249.524    21895.475   -3004.9476   -5246.6627    89.220345 
   13800    1644.8536   -103.48196    1.4882981   -101.99367    37965.149    4.4517074    4.4517074    4.4517074    37965.149   -24232.853    34772.846    103355.45   -16817.256   -33045.357    -3724.201    88.222596 
   13900    2371.9292   -104.16375    2.1461714   -102.01758   -4661.9739    4.4481358    4.4481358    4.4481358   -4661.9739   -30429.855   -16062.831    32506.764     4159.842    9898.0311   -12372.475    88.010425 
   14000    1508.7756   -103.39691    1.3651719   -102.03174    49872.631    4.4356291    4.4356291    4.4356291    49872.631    29497.399    21075.885    99044.609   -8663.9641   -24660.799    22670.803    87.270142 
   14100    1777.0255   -103.67235      1.60789   -102.06446   -19851.556     4.453131     4.453131     4.453131   -19851.556    -18632.61   -39837.956   -1084.1022    19362.937   -9596.7651   -17984.206     88.30726 
   14200    2532.7902   -104.33886    2.2917218   -102.04714   -20259.985    4.4636893    4.4636893    4.4636893   -20259.985   -43054.188    22589.965   -40315.731    613.74063    -9577.058    17942.466    88.936878 
   14300    1701.7803   -103.58728    1.5398066   -102.04748    6489.7854    4.4511681    4.4511681    4.4511681    6489.7854   -43112.771    59688.162    2893.9652      10978.3   -5472.0715   -24381.377     88.19054 
   14400     1733.469   -103.61806    1.5684791   -102.04958   -23321.528    4.4448121    4.4448121    4.4448121   -23321.528   -22928.112   -18539.247   -28497.225   -14084.343    9030.7214    8461.0055    87.813283 
   14500    2009.4821   -103.85906    1.8182217   -102.04083     51119.36     4.433276     4.433276     4.433276     51119.36    49006.496    22700.339    81651.244      14814.8    18392.737    6681.2312    87.131324 
   14600    1711.7065   -103.63538     1.548788   -102.08659    -10017.61    4.4473485    4.4473485    4.4473485    -10017.61    9112.3802   -56168.018    17002.809   -24697.441   -19964.008    -17165.33    87.963702 
   14700    1765.0801   -103.65611    1.5970816   -102.05903    22174.048    4.4537185    4.4537185    4.4537185    22174.048    53113.985   -4410.8876    17819.045    11762.734   -21709.844    5365.9033    88.342215 
   14800    2034.9807   -103.88367    1.8412933   -102.04238   -9075.7593    4.4436869    4.4436869    4.4436869   -9075.7593   -27857.995   -46672.561    47303.278   -8871.0227   -9823.2778   -12989.591    87.746611 
   14900    2066.9011   -103.89694    1.8701756   -102.02676    32682.635    4.4468803    4.4468803    4.4468803    32682.635    22324.684    4717.2678    71005.954    356.49034    12880.808    24316.734     87.93592 
   15000     1421.081   -103.32266     1.285824   -102.03684    531.67557    4.4544379    4.4544379    4.4544379    531.67557    11495.479   -34211.986    24311.533     -7786.25   -22499.747    1061.7605    88.385032 
   15100    2375.1555     -104.157    2.1490906   -102.00791    25178.381     4.461807     4.461807     4.461807    25178.381   -22087.583    30096.174    67526.552    13983.582   -8063.6237    17932.216    88.824414 
   15200    1133.9192    -103.0449    1.0259939    -102.0189   -43269.032    4.4722504    4.4722504    4.4722504   -43269.032   -63565.166   -109095.66     42853.73   -45572.911   -15312.729    2138.3923    89.449586 
   15300    2090.3172   -103.86605    1.8913629   -101.97469    47546.761    4.4481408    4.4481408    4.4481408    47546.761     25312.37    -32707.38    150035.29    2220.2942   -25339.715   -4765.9924    88.010719 
   15400    1377.3431    -103.2516     1.246249   -102.00535    60405.573    4.4266814    4.4266814    4.4266814    60405.573   -39513.144     59188.38    161541.48   -38440.932    8581.3837    7097.5301    86.743072 
   15500    2691.5555   -104.47493     2.435376   -102.03955   -7867.7459    4.4494006    4.4494006    4.4494006   -7867.7459   -51855.445    33384.876   -5132.6688   -3083.9688   -9189.7793   -5736.9997    88.085524 
   15600    1458.7206    -103.3265     1.319881   -102.00662   -56935.267    4.4616017    4.4616017    4.4616017   -56935.267   -90657.502   -96139.968    15991.669   -40532.495   -8471.8047   -10634.166     88.81215 
   15700    2921.7453   -104.59815    2.6436566   -101.95449    4077.1076    4.4482633    4.4482633    4.4482633    4077.1076   -20749.755    14322.277      18658.8     12965.13   -13025.852   -14713.475    88.017995 
   15800    1447.2028   -103.30209    1.3094595   -101.99263    -20842.32    4.4541409    4.4541409    4.4541409    -20842.32   -67946.236   -11265.661    16684.937   -16123.134   -10921.753    -1810.654    88.367353 
   15900     2425.766    -104.1697    2.1948841   -101.97482    18130.717    4.4382559    4.4382559    4.4382559    18130.717    40422.831    9046.2601    4923.0598    13411.886    438.58654   -14357.843    87.425279 
   16000    1836.0073   -103.66196     1.661258    -102.0007   -60.963228     4.434905     4.434905     4.434905   -60.963228   -14072.366    -7323.517    21212.994   -22000.753   -4713.7886    7588.8027    87.227404 
   16100    2407.6034   -104.18716    2.1784501   -102.00871   -3907.4056    4.4351496    4.4351496    4.4351496   -3907.4056    27365.533   -41807.066    2719.3162    45625.503    2441.1198    17850.496    87.241843 
   16200    1720.2556   -103.58932    1.5565234    -102.0328    37039.405    4.4222604    4.4222604    4.4222604    37039.405    6230.6413    38072.681    66814.893   -42596.263   -16437.566   -9865.4083    86.483434 
   16300    2189.9687    -104.0223    1.9815297   -102.04077    19671.224      4.42951      4.42951      4.42951    19671.224    24569.932   -4965.8676    39409.609    33256.848    19143.992    22629.842    86.909459 
   16400    2053.8594   -103.89137    1.8583751     -102.033   -24310.203    4.4428092    4.4428092    4.4428092   -24310.203    -26070.52   -26941.427   -19918.663   -48050.448   -3698.4421    -11203.12    87.694628 
   16500    2329.8356   -104.11555    2.1080842   -102.00747   -8387.8919    4.4498185    4.4498185    4.4498185   -8387.8919    17740.205   -25703.528   -17200.353      19213.6    8263.5657    19558.981    88.110344 
   16600    1392.5265   -103.27369    1.2599873    -102.0137   -38290.241    4.4488192    4.4488192    4.4488192   -38290.241   -61416.392   -59328.478    5874.1479   -59339.372   -2988.9746   -20795.419    88.050995 
   16700    2724.7701   -104.46975    2.4654293   -102.00432   -1877.1771    4.4234556    4.4234556    4.4234556   -1877.1771   -3873.9235    43087.079   -44844.686    21185.035    13369.029    31759.588    86.553574 
   16800    1695.9656   -103.57341    1.5345454   -102.03887   -47453.891    4.4216818    4.4216818    4.4216818   -47453.891   -49796.742   -56828.019   -35736.913   -48292.801   -5295.0219   -23814.962    86.449497 
   16900    2327.6334   -104.15634    2.1060916   -102.05024   -8886.2797    4.4272014    4.4272014    4.4272014   -8886.2797    -38985.24    40722.228   -28395.827    14924.256    5693.5723    2261.9011    86.773644 
   17000    2501.3659   -104.31795    2.2632885   -102.05467   -20826.659    4.4276457    4.4276457    4.4276457   -20826.659   -40767.278    -8892.698   -12820.001    -14994.59   -4644.9138    3178.4516    86.799769 
   17100    1833.6465   -103.72025    1.6591219   -102.06113   -35649.636    4.4401372    4.4401372    4.4401372   -35649.636   -36120.264   -7600.2547    -63228.39     3419.231    24361.246   -5350.4309    87.536496 
   17200    2145.4469   -103.96716    1.9412454   -102.02591    1452.9319    4.4513657    4.4513657    4.4513657    1452.9319   -1038.1273   -28100.906    33497.829   -221.80801   -24468.548    18791.318    88.202283 
   17300    2013.0612   -103.80749    1.8214601   -101.98603   -21410.672    4.4601373    4.4601373    4.4601373   -21410.672    15980.171   -53069.177   -27143.009   -2505.1222   -1326.6284   -9852.9555    88.724728 
   17400    1748.4316   -103.56621    1.5820176   -101.98419     11266.84    4.4342678    4.4342678    4.4342678     11266.84   -8769.6324   -4465.9009    47036.052    2705.6122   -33032.171    14786.991    87.189813 
   17500    2043.2826   -103.84464     1.848805   -101.99583    18808.917     4.407602     4.407602     4.407602    18808.917    -7227.238     19440.05    44213.939   -16439.349   -18561.322   -33126.566    85.626287 
   17600    2066.6506   -103.91131    1.8699489   -102.04137    9464.1292    4.4180707    4.4180707    4.4180707    9464.1292     11685.19   -34032.403    50739.601   -17094.789    -16274.13    26357.524    86.237865 
   17700    1383.3445   -103.32073    1.2516792   -102.06905    1366.6182    4.4385417    4.4385417    4.4385417    1366.6182    -51378.75    67812.426   -12333.821   -24649.856   -33476.456   -19734.439    87.442165 
   17800    2375.9419   -104.18475    2.1498021   -102.03495    28493.565    4.4317442    4.4317442    4.4317442    28493.565    472.89065     63724.99    21282.814   -15081.891    3180.9612    19234.051    87.041038 
   17900    1545.2053   -103.45604    1.3981343   -102.05791    2425.1658    4.4241695    4.4241695    4.4241695    2425.1658   -49019.729    29845.416    26449.811   -32351.565   -29363.034   -7725.6033    86.595492 
   18000    2382.9805   -104.19029    2.1561708   -102.03412     20153.47    4.4205837    4.4205837    4.4205837     20153.47    -11894.03     73199.26   -844.81933    8051.7306    14588.782   -15463.994    86.385105 
   18100    1664.2447   -103.57732    1.5058436   -102.07148   -22039.014    4.4090749    4.4090749    4.4090749   -22039.014   -9475.9133   -64598.508    7957.3799   -38936.479   -20096.884    10416.946    85.712157 
   18200      2809.69   -104.61316    2.5422666   -102.07089    7986.4726    4.4113929    4.4113929    4.4113929    7986.4726    -8825.713     50873.12   -18087.989    1096.8382    13431.849    -22594.55    85.847415 
   18300    972.14208   -102.97971   0.87961458   -102.10009   -10356.862    4.4189689    4.4189689    4.4189689   -10356.862    46005.164   -78052.288    976.53754   -42451.577   -4487.7054    18244.763    86.290471 
   18400    2725.0622   -104.54717    2.4656936   -102.08147   -6317.8048     4.423439     4.423439     4.423439   -6317.8048    12411.418   -33754.324     2389.491   -6878.0201   -12776.744   -1307.4584    86.552602 
   18500    1684.0306   -103.61306    1.5237462   -102.08931   -33435.131    4.4204856    4.4204856    4.4204856   -33435.131   -41798.881   -41564.153   -16942.359   -25931.709    16182.753    8211.0042    86.379349 
   18600    1848.7899   -103.74818    1.6728239   -102.07536    21615.878    4.3994923    4.3994923    4.3994923    21615.878     58379.21   -40739.744    47208.168   -10986.044   -12426.891    21577.069    85.154516 
   18700    2353.7325   -104.21086    2.1297067   -102.08115    98.702363    4.4028979    4.4028979    4.4028979    98.702363   -11121.199   -16340.975    27758.281   -5051.3213   -1745.0162   -7188.3917    85.352418 
   18800    1672.4082    -103.6028    1.5132301   -102.08957   -30901.299    4.4125904    4.4125904    4.4125904   -30901.299   -10852.327   -62672.559   -19179.011   -30967.883   -1294.6022    36981.649    85.917344 
   18900    2397.6994    -104.2478    2.1694888   -102.07832    8911.4618    4.4198771    4.4198771    4.4198771    8911.4618    5593.9834    19258.005     1882.397    19132.823   -19732.434    -21436.71    86.343686 
   19000     1428.098   -103.37827    1.2921731   -102.08609   -24981.809    4.4213715    4.4213715    4.4213715   -24981.809   -9004.2288   -86958.702    21017.504   -48933.895     1511.296    36764.156    86.431298 
   19100    2781.6193   -104.55822    2.5168676   -102.04136    3954.4213    4.4113687    4.4113687    4.4113687    3954.4213    10812.748   -3701.4463     4751.962    29928.004   -11281.015   -18136.482    85.846004 
   19200     1428.018   -103.35194    1.2921007   -102.05984   -15948.736     4.430155     4.430155     4.430155   -15948.736    10711.264   -79540.054    20982.583   -61650.492    4119.0275    28911.508    86.947433 
   19300    2593.5387   -104.36349    2.3466883   -102.01681   -14148.435    4.4369557    4.4369557    4.4369557   -14148.435    18368.373   -40440.599   -20373.078    21112.544   -14912.071   -32255.703    87.348464 
   19400    1500.8115   -103.38459    1.3579658   -102.02662   -20145.336    4.4184802    4.4184802    4.4184802   -20145.336     26378.61   -58122.777   -28691.841   -67268.294     6281.741    37328.663    86.261845 
   19500    2350.5145   -104.16351    2.1267949   -102.03672    11991.272    4.3941581    4.3941581    4.3941581    11991.272    42654.197    12222.134   -18902.514    16379.281   -7016.3032    13886.177    84.845154 
   19600    1710.0308   -103.61558    1.5472718   -102.06831    5086.8169    4.3987983    4.3987983    4.3987983    5086.8169    21000.895   -1047.9981    -4692.446   -52290.184   -11259.189    9499.9452    85.114223 
   19700    2050.0919   -103.94451    1.8549662   -102.08954   -27297.953    4.4289702    4.4289702    4.4289702   -27297.953    44177.456   -60012.572   -66058.744    12363.351   -2211.1328    47227.539    86.877692 
   19800    2242.6675   -104.08643    2.0292127   -102.05722   -18083.502    4.4290331    4.4290331    4.4290331   -18083.502   -29883.812    -19211.81   -5154.8827   -1737.6101   -4267.1407     -13120.8    86.881394 
   19900    1186.7787   -103.14638    1.0738223   -102.07255   -9133.4521    4.4160887    4.4160887    4.4160887   -9133.4521    96858.938   -82240.531   -42018.763   -24962.693    2510.4557    56011.997     86.12185 
   20000    3085.8779   -104.84992    2.7921672   -102.05776    32514.566    4.4117421    4.4117421    4.4117421    32514.566    37671.733    36871.894     23000.07    18084.853    11908.745   -9147.2481    85.867802 
   20100    1120.4672   -103.09802    1.0138222    -102.0842   -16153.473    4.4295516    4.4295516    4.4295516   -16153.473    74048.615   -74455.733   -48053.299   -25618.084   -4875.3768    53473.316     86.91191 
   20200      2913.72   -104.67254     2.636395   -102.03614   -28080.825    4.4443255    4.4443255    4.4443255   -28080.825   -13830.843    -44379.13   -26032.501    16950.651    7745.5295    -32183.24    87.784444 
   20300    1537.0363   -103.41928    1.3907428   -102.02853    2137.1404    4.4356711    4.4356711    4.4356711    2137.1404    7122.3721   -16945.786    16234.836     -15685.1    12388.718    59203.597    87.272622 
   20400    2308.8828   -104.09932    2.0891257    -102.0102    3294.1523    4.4274638    4.4274638    4.4274638    3294.1523    33468.547   -33404.113     9818.023    4245.3482   -851.47982    -48092.49    86.789074 
   20500    1543.4296   -103.43879    1.3965275   -102.04226   -5774.1367    4.4169943    4.4169943    4.4169943   -5774.1367    8621.7118   -52110.455    26166.333   -9286.8965   -6365.8104     69148.24    86.174846 
   20600    2694.9669   -104.49185    2.4384626   -102.05338   -19117.582    4.4249797    4.4249797    4.4249797   -19117.582   -25486.859   -21397.998   -10467.889   -4796.3416    4597.9729   -21518.732    86.643075 
   20700    1338.6117   -103.29253     1.211204   -102.08132   -26555.222    4.4353225    4.4353225    4.4353225   -26555.222   -7859.3099   -70307.461   -1498.8945   -10595.262   -10340.653    56075.414    87.252045 
   20800     2852.813   -104.62399    2.5812852    -102.0427    -7797.132    4.4297611    4.4297611    4.4297611    -7797.132    2902.1066   -3422.1486   -22871.354   -2644.2875   -22809.505   -8259.1841    86.924243 
   20900    1210.4108   -103.15421    1.0952051   -102.05901   -5376.5473    4.4378943    4.4378943    4.4378943   -5376.5473    56944.065   -82577.771    9504.0636   -4521.4461   -3725.7866    35348.643    87.403908 
   21000    2519.5845   -104.29955     2.279773   -102.01978     6768.422    4.4440354    4.4440354    4.4440354     6768.422    40121.496   -4471.5288   -15344.701   -4916.3434    -28455.28   -2752.8655    87.767255 
   21100      1315.45   -103.22657    1.1902468   -102.03632   -13944.893    4.4450988    4.4450988    4.4450988   -13944.893    82720.015   -53962.687   -70592.007    2715.6259    2695.6725    24783.547    87.830278 
   21200    2870.0996   -104.59978    2.5969264   -102.00285    7441.5099    4.4424383    4.4424383    4.4424383    7441.5099    24451.077    23346.827   -25473.375     5720.911    5678.2827   -10712.769    87.672668 
   21300     1346.598   -103.23268    1.2184302   -102.01425    -2241.902     4.432451     4.432451     4.432451    -2241.902    70157.175   -47008.469   -29874.411    -1091.555   -324.13057    24788.235    87.082686 
   21400    2429.4665   -104.20417    2.1982323   -102.00593    6052.2102    4.4434739    4.4434739    4.4434739    6052.2102   -5312.6096    11300.466    12168.774    3033.8482    27462.226    2168.1524    87.733996 
   21500    1199.4271   -103.10524    1.0852669   -102.01997   -41732.875     4.451222     4.451222     4.451222   -41732.875    33398.526   -67420.347   -91176.804    -8019.143    15189.062    29190.074    88.193742 
   21600    2479.6313   -104.22848    2.2436225   -101.98486    22956.703    4.4328508    4.4328508    4.4328508    22956.703   -1367.4609    32186.614    38050.957   -12579.312    16154.384     -4537.61    87.106256 
   21700    1311.0935   -103.22092     1.186305   -102.03462    24678.953    4.4397329    4.4397329    4.4397329    24678.953    70783.579    1782.9472    1470.3333    3246.4959    21076.891    38111.233    87.512586 
   21800    2171.9356   -103.95594     1.965213   -101.99073    17224.631    4.4558377    4.4558377    4.4558377    17224.631    21156.554   -3260.2416    33777.582   -379.14797    21987.282    1974.5838    88.468381 
   21900    1247.5456   -103.13192    1.1288055   -102.00312   -197.54284    4.4519507    4.4519507    4.4519507   -197.54284    3522.1716    1359.9186   -5474.7187   -13368.962    13365.013    22218.123    88.237059 
   22000     2814.545   -104.51345    2.5466594   -101.96679    1850.2047    4.4466143    4.4466143    4.4466143    1850.2047   -42410.354    45779.956    2181.0124   -2389.1681     19119.37   -11759.478    87.920141 
   22100    1204.9311   -103.10644     1.090247   -102.01619   -50717.753    4.4460795    4.4460795    4.4460795   -50717.753   -31292.539   -57723.845   -63136.874    2715.7304    17244.051    61861.615    87.888422 
   22200    3086.6898   -104.78286    2.7929018   -101.98996    3530.1227    4.4351103    4.4351103    4.4351103    3530.1227   -23032.238    33461.565    161.04175    1948.3065   -3239.3137   -16933.477     87.23952 
   22300    1341.7834   -103.25869    1.2140739   -102.04462   -40175.252    4.4310692    4.4310692    4.4310692   -40175.252    2277.2375   -32876.024   -89926.969   -12559.115    28117.708    56561.594    87.001273 
   22400    2616.9904   -104.39366    2.3679079   -102.02575    10134.335    4.4321068    4.4321068    4.4321068    10134.335   -11616.908    37318.509    4701.4029    4794.8942   -406.75496   -12849.042    87.062403 
   22500    1699.7857   -103.57512    1.5380018   -102.03711   -18669.809    4.4348268    4.4348268    4.4348268   -18669.809    8155.3531   -15408.728   -48756.053   -5975.8353    25687.238     42261.21    87.222795 
   22600    2312.6918   -104.10713    2.0925721   -102.01456    4481.5368    4.4456471    4.4456471    4.4456471    4481.5368   -4360.4432    22050.195   -4245.1413   -3465.4054      6945.07   -13155.955    87.862782 
   22700      1811.64   -103.66028    1.6392099   -102.02107   -33179.276    4.4398795    4.4398795    4.4398795   -33179.276    9781.1319   -49657.751    -59661.21   -2120.9443    18207.777    27958.819    87.521259 
   22800    2418.3898   -104.19536    2.1882099   -102.00715    3365.1607    4.4290205    4.4290205    4.4290205    3365.1607   -16431.537    18552.303     7974.716   -13946.744     3813.555   -18766.195    86.880652 
   22900    1651.3779   -103.53691    1.4942014   -102.04271   -9283.2807    4.4248473    4.4248473    4.4248473   -9283.2807     53583.07   -44774.988   -36657.925    11324.032    5228.8341    31886.507    86.635296 
   23000    2344.0343   -104.15278    2.1209315   -102.03185    2601.3913      4.42622      4.42622      4.42622    2601.3913    19097.582    9483.4032   -20776.811    2544.1558    13961.428   -13569.181    86.715949 
   23100    1582.4607   -103.47374    1.4318437   -102.04189   -47598.454    4.4393739    4.4393739    4.4393739   -47598.454    14375.002   -70215.528   -86954.837   -827.39419   -13222.084    47468.882     87.49136 
   23200    2761.8445   -104.50055     2.498975   -102.00157    3204.8767    4.4469565    4.4469565    4.4469565    3204.8767    14052.935    16404.659   -20842.965   -8040.1879    2709.4615   -6778.0167    87.940442 
   23300    844.25645    -102.7781   0.76390098    -102.0142   -17219.723    4.4380876    4.4380876    4.4380876   -17219.723    12545.642    34366.744   -98571.554     7929.205   -21869.429    25194.639    87.415334 
   23400     3477.527   -105.12814    3.1465395    -101.9816   -1042.7216    4.4299429    4.4299429    4.4299429   -1042.7216   -9078.7567    2257.6133    3692.9785   -13857.584   -4347.8972   -19002.478    86.934944 
   23500    1273.6304   -103.16739    1.1524075   -102.01499     -33683.8    4.4405697    4.4405697    4.4405697     -33683.8   -20859.662    20238.363    -100430.1    3536.2602   -9020.6442    34035.357    87.562083 
   23600    3042.3085   -104.74862    2.7527447   -101.99587    5379.4107    4.4447434    4.4447434    4.4447434    5379.4107    17031.242    16805.187   -17698.197    -11061.99   -13495.753   -11210.057    87.809212 
   23700    2009.1407   -103.82632    1.8179128    -102.0084   -67843.647    4.4635288    4.4635288    4.4635288   -67843.647   -34822.555   -54406.422   -114301.96   -11723.016   -9916.3476    49752.026    88.927285 
   23800    2771.6722    -104.4644    2.5078672   -101.95654   -6035.6086     4.461311     4.461311     4.461311   -6035.6086    22670.969   -34988.381   -5789.4133   -5523.4516     -15153.1   -14841.758    88.794794 
   23900     1682.657   -103.49563    1.5225034   -101.97313   -15150.852    4.4645362    4.4645362    4.4645362   -15150.852    37170.235   -43766.074   -38856.717   -2713.5041    15963.548    55656.268    88.987509 
   24000    2832.6328   -104.50921    2.5630257   -101.94619   -14028.575    4.4591537    4.4591537    4.4591537   -14028.575   -28490.599   -29345.565    15750.437   -7285.5369   -4700.2847   -10451.641    88.666043 
   24100    1535.0213   -103.39214    1.3889195   -102.00322    2822.7963    4.4184728    4.4184728    4.4184728    2822.7963   -15205.314    27644.049   -3970.3458    -8356.059    16704.422    45432.541    86.261414 
   24200    2191.0313   -104.00726    1.9824912   -102.02477    78146.883    4.4133708    4.4133708    4.4133708    78146.883    9148.0685    87855.297    137437.28    2535.7586    -11518.27   -3449.7484    85.962935 
   24300    1357.6512   -103.31154    1.2284313    -102.0831   -39996.944    4.4489847    4.4489847    4.4489847   -39996.944    11015.281   -46723.604   -84282.508   -12907.204     21467.84    58674.523    88.060822 
   24400    2855.7217    -104.6016     2.583917   -102.01768   -34540.492    4.4608319    4.4608319    4.4608319   -34540.492   -52215.098   -48895.199   -2511.1785    4960.1069    -23894.15   -9001.6998    88.766192 
   24500    1745.4311   -103.58169    1.5793027   -102.00238    -39725.47    4.4618898    4.4618898    4.4618898    -39725.47   -36153.622    2341.1297   -85363.918   -18853.949    13473.634     61000.27    88.829358 
   24600    2412.8523   -104.16347    2.1831995   -101.98027    817.27205    4.4543251    4.4543251    4.4543251    817.27205   -26494.412   -43123.853    72070.081   -6048.6265   -824.27969   -17317.471     88.37832 
   24700    1587.9384   -103.42626       1.4368   -101.98946   -12882.101    4.4303808    4.4303808    4.4303808   -12882.101   -21737.749   -9335.7461   -7572.8076    2141.7251     5805.046    33892.883    86.960731 
   24800    2583.4331    -104.3407    2.3375446   -102.00315    27870.948     4.415068     4.415068     4.415068    27870.948    -10476.67    31908.485    62181.027   -2066.6857    2866.7912    26192.158     86.06215 
   24900    1581.3205   -103.47663     1.430812   -102.04582    14324.226    4.4307292    4.4307292    4.4307292    14324.226    39758.725   -10581.316    13795.268    -5663.337   -680.82703    20358.852    86.981243 
   25000    1835.0863    -103.7139    1.6604247   -102.05348   -6335.1849    4.4450006    4.4450006    4.4450006   -6335.1849   -13361.342   -17817.339    12173.126   -4629.1377    14244.415    27168.903    87.824456 
   25100    2319.1704   -104.13865    2.0984341   -102.04022   -22304.261     4.440032     4.440032     4.440032   -22304.261   -44361.547   -62420.782    39869.548   -10778.772   -5167.7093   -1804.9089    87.530279 
   25200    1769.4616   -103.63916    1.6010461   -102.03812    10257.533    4.4173207    4.4173207    4.4173207    10257.533   -2623.5042    5589.8074    27806.295    11886.056    12033.503    40991.191    86.193953 
   25300    2087.0592   -103.93909     1.888415   -102.05068    12890.967    4.4159343    4.4159343    4.4159343    12890.967   -25400.543    21940.253    42133.192   -10100.332    1272.7466   -15214.202    86.112822 
   25400     2185.139   -104.04239    1.9771597   -102.06523   -9121.1408    4.4210096    4.4210096    4.4210096   -9121.1408    16076.659   -51810.278    8370.1966    7569.9804   -13964.783    25547.058    86.410073 
   25500    1344.3021   -103.30533    1.2163528   -102.08897    47624.809    4.4296129    4.4296129    4.4296129    47624.809   -16373.094    83333.669    75913.853    2583.0808   -3492.2959   -42493.865    86.915518 
   25600    2264.0781   -104.12149    2.0485854   -102.07291   -40875.536    4.4441153    4.4441153    4.4441153   -40875.536   -40839.737   -36961.435   -44825.435    10303.207   -13068.956   -8558.2937     87.77199 
   25700    1936.3776    -103.8087    1.7520752   -102.05663    393.31648    4.4217867    4.4217867    4.4217867    393.31648   -54506.738    7252.5897    48434.098    12145.387    4937.4492   -8816.7146    86.455648 
   25800    2120.0223   -103.98215    1.9182407   -102.06391    7207.4873    4.4102608    4.4102608    4.4102608    7207.4873    23612.823   -3523.4853    1533.1244   -4634.9973   -8569.1617   -54058.374     85.78134 
   25900    2113.8493   -103.98815    1.9126553   -102.07549   -18872.579    4.4250826    4.4250826    4.4250826   -18872.579   -54392.321    13421.269   -15646.684    20226.882   -2820.8917    4872.3338    86.649117 
   26000    1770.3335   -103.66746    1.6018349   -102.06562    1379.3612    4.4475725    4.4475725    4.4475725    1379.3612    30256.556   -32845.006     6726.533   -4335.6473    1274.3121   -48548.292    87.976994 
   26100    2103.4442    -103.9134    1.9032405   -102.01016   -15182.537    4.4540516    4.4540516    4.4540516   -15182.537   -37370.761     25884.75   -34061.601    9805.5921    9384.3759    24792.011    88.362042 
   26200     1869.773    -103.6808    1.6918099   -101.98899   -11714.164    4.4355527    4.4355527    4.4355527   -11714.164    37000.331   -52191.468   -19951.354   -9960.1718    6016.1131   -75597.395     87.26563 
   26300    3050.0489    -104.7237    2.7597483   -101.96395    149.43399    4.4244574    4.4244574    4.4244574    149.43399    27167.143   -28262.996    1544.1549    -6746.927    5089.2366    6721.1715    86.612396 
   26400    1140.0652   -103.06317     1.031555   -102.03162   -35149.709    4.4312716    4.4312716    4.4312716   -35149.709    23351.494   -32821.379   -95979.241   -8863.7852   -27591.603   -80134.286    87.013196 
   26500    2466.1392   -104.25296    2.2314146   -102.02155    22411.255    4.4310688    4.4310688    4.4310688    22411.255    107094.32   -24791.333   -15069.218    11102.186   -3747.0376    16630.878    87.001247 
   26600    1718.8313    -103.6198    1.5552347   -102.06457   -27847.646    4.4320722    4.4320722    4.4320722   -27847.646    65227.213   -61503.892    -87266.26    -13665.27   -25307.421   -61681.149    87.060364 
   26700    2490.0864    -104.2956    2.2530825   -102.04251   -8014.1192     4.427468     4.427468     4.427468   -8014.1192   -7991.0969    8711.3332   -24762.594    7495.2051   -15853.363    23443.185     86.78932 
   26800    1588.8566   -103.50156    1.4376308   -102.06393   -13457.147      4.43777      4.43777      4.43777   -13457.147    -24715.89   -7675.9061   -7979.6457    6489.2855   -5732.1599   -62161.852    87.396565 
   26900    2051.6619   -103.88485    1.8563868   -102.02846    10679.908    4.4539651    4.4539651    4.4539651    10679.908   -7319.4743    26107.616    13251.583   -10237.509   -40714.651    12082.186    88.356891 
   27000     1454.392   -103.30543    1.3159644   -101.98947   -356.10583     4.464405     4.464405     4.464405   -356.10583    18740.983   -57743.947    37934.647    3200.6346   -28453.404   -40664.189    88.979662 
   27100     1975.591   -103.74911    1.7875562   -101.96155    9454.5111    4.4568703    4.4568703    4.4568703    9454.5111    36871.731   -5039.6734    -3468.524   -10007.055   -22003.753    6997.4861    88.529901 
   27200      2071.73   -103.85232    1.8745449   -101.97778    22552.102    4.4344987    4.4344987    4.4344987    22552.102    39574.425    44003.987   -15922.104    6444.3823   -776.00665   -41901.091    87.203435 
   27300    1510.9976   -103.37513    1.3671824   -102.00795    40565.591    4.4279447    4.4279447    4.4279447    40565.591    77070.325    13816.049      30810.4   -8877.5166   -28821.878    17234.037    86.817357 
   27400    2310.9613   -104.13182    2.0910063   -102.04081    5450.9853    4.4459768    4.4459768    4.4459768    5450.9853    48078.665   -51312.213    19586.503    7648.7062   -9870.5875   -24808.328    87.882334 
   27500    1652.5345     -103.522    1.4952479   -102.02675   -16126.691    4.4634393    4.4634393    4.4634393   -16126.691   -21098.375    14799.665   -42081.362   -7605.5669   -11829.428    12089.165    88.921932 
   27600    1844.6507   -103.65846    1.6690787   -101.98938    46.408249    4.4564445    4.4564445    4.4564445    46.408249    15361.135    3539.4096    -18761.32     10414.47    1966.4665   -1752.8175    88.504534 
   27700    2237.1806   -104.00512     2.024248   -101.98087   -22672.482    4.4427588    4.4427588    4.4427588   -22672.482   -27735.938   -25388.341   -14893.167    17720.207   -21770.656    15234.058    87.691641 
   27800    2015.6504   -103.81897    1.8238028   -101.99517   -8639.2085    4.4243755    4.4243755    4.4243755   -8639.2085   -26798.553    -25705.61    26586.537    6937.0382     13365.38    11196.993    86.607589 
   27900    1687.6257   -103.55148    1.5269992   -102.02448    23998.842    4.4167052    4.4167052    4.4167052    23998.842   -54137.332    77290.178    48843.679    3782.4385   -27533.007   -2530.4917    86.157926 
   28000    2182.4691   -104.03197    1.9747439   -102.05723   -13706.248    4.4245028    4.4245028    4.4245028   -13706.248   -18369.337   -5922.9868   -16826.421   -1446.3827   -1498.2391    18908.238    86.615064 
   28100    1798.0069   -103.68722    1.6268745   -102.06034   -7176.1205    4.4317858    4.4317858    4.4317858   -7176.1205   -59595.103   -674.73406    38741.475    -13363.33   -21457.389   -13371.009    87.043491 
   28200     2268.112   -104.09865    2.0522354   -102.04641   -29159.588    4.4306869    4.4306869    4.4306869   -29159.588   -816.98304   -32811.753   -53850.028    6307.3906   -23687.603    34871.429    86.978752 
   28300    2122.3884   -103.95858    1.9203816   -102.03819    8237.5157     4.421276     4.421276     4.421276    8237.5157    2080.6534   -17350.848    39982.742   -29591.288    1605.6013    -15341.49    86.425695 
   28400    1854.7442    -103.7269    1.6782115   -102.04868   -12314.566    4.4216678    4.4216678    4.4216678   -12314.566    30365.413   -23266.772   -44042.338    12661.298    -37971.66    39576.437    86.448672 
   28500    2418.4427   -104.23815    2.1882578   -102.04989   -10861.758    4.4318231    4.4318231    4.4318231   -10861.758   -15118.926   -23573.654    6107.3058   -42210.056     20547.44    3620.5763    87.045687 
   28600    1879.4823     -103.748    1.7005951    -102.0474   -12457.106    4.4473814    4.4473814    4.4473814   -12457.106   -3666.6209   -33308.686    -396.0123    11696.708   -11666.929     14569.63    87.965652 
   28700    2317.8458   -104.12138    2.0972356   -102.02414   -29655.756    4.4506897    4.4506897    4.4506897   -29655.756   -18372.341   -54041.073   -16553.854   -33713.348    2626.4321    15845.046    88.162106 
   28800    1928.3322    -103.7667    1.7447955    -102.0219     17683.94    4.4167061    4.4167061    4.4167061     17683.94   -13879.101    6821.9556    60108.964    2394.8989   -12781.436   -13627.017    86.157981 
   28900    1774.7159   -103.63773    1.6058002   -102.03193    43165.669    4.4033423    4.4033423    4.4033423    43165.669   -3826.7134    51523.055    81800.665   -24274.958    8738.2131    31046.396    85.378268 
   29000    2102.7681   -103.97313    1.9026288    -102.0705     -10204.7    4.4330898    4.4330898    4.4330898     -10204.7   -16951.961   -31284.493    17622.355   -123.78365    9768.5665   -27175.123    87.120344 
   29100    1639.5526   -103.54505    1.4835016   -102.06155   -9814.8776    4.4520085    4.4520085    4.4520085   -9814.8776   -38088.847    12700.499   -4056.2845   -15653.326    2663.8573    8662.3037    88.240497 
   29200    1843.3548   -103.70595    1.6679061   -102.03805   -10580.156    4.4374294    4.4374294    4.4374294   -10580.156   -9685.2613   -40159.664    18104.456   -7391.7355    3466.8028   -26407.856    87.376445 
   29300    1898.8268   -103.74709    1.7180984     -102.029    22568.352    4.4074127    4.4074127    4.4074127    22568.352    5392.4519    24511.952    37800.653   -1771.9019   -24927.096   -21022.535    85.615255 
   29400    1896.2396   -103.77314    1.7157574   -102.05738    21786.053    4.4024032    4.4024032    4.4024032    21786.053    1683.2728   -19654.302    83329.187   -33965.828     24724.34    999.79055    85.323653 
   29500    1921.4964   -103.84275    1.7386103   -102.10414   -18199.952     4.430598     4.430598     4.430598   -18199.952   -18947.463   -47345.221    11692.828    4430.6034   -16835.109   -10751.753    86.973521 
   29600    1669.4895   -103.59087    1.5105892   -102.08028   -23841.559    4.4523913    4.4523913    4.4523913   -23841.559   -12183.597   -82680.889    23339.809   -23908.627   -11172.429    2814.2794    88.263262 
   29700    2405.3316   -104.21228    2.1763946   -102.03588   -100.72589    4.4398293    4.4398293    4.4398293   -100.72589    3531.0072    -21244.23    17411.046    13643.758    12667.004    12447.065    87.518291 
   29800    1303.4647   -103.22505    1.1794023   -102.04565    -8544.744    4.4251615    4.4251615    4.4251615    -8544.744   -52319.561   -24292.904    50978.232   -50499.916   -37127.873   -13029.181     86.65375 
   29900    2736.3093   -104.50892    2.4758701   -102.03305    25671.402     4.419237     4.419237     4.419237    25671.402   -1313.2887    63.834123     78263.66    21622.753    22295.466    26345.652    86.306176 
   30000    1877.9064   -103.77205    1.6991692   -102.07288    -41756.36    4.4334531    4.4334531    4.4334531    -41756.36   -70289.797   -47464.737   -7514.5456   -62691.582   -42951.963    1196.6211    87.141767 
   30100      2437.78   -104.25031    2.2057545   -102.04456    -12391.07    4.4482445    4.4482445    4.4482445    -12391.07    15223.503   -42720.207   -9676.5078    14674.018   -21028.865    16767.288    88.016874 
   30200    1781.2639   -103.63809     1.611725   -102.02637   -11106.255    4.4629513    4.4629513    4.4629513   -11106.255   -46122.648   -3927.1736    16731.056   -38764.844   -26911.885   -18580.317    88.892768 
   30300    2367.7946   -104.11085    2.1424304   -101.96842    9198.4764    4.4671043    4.4671043    4.4671043    9198.4764   -9481.4153    58641.615   -21564.771     8310.675   -6741.5598   -6468.8291    89.141157 
   30400    1343.7387   -103.18487     1.215843   -101.96903    10577.158    4.4468848    4.4468848    4.4468848    10577.158    52837.391   -41383.522    20277.605   -54112.676   -11948.399   -26969.755    87.936191 
   30500    2868.4835   -104.56319    2.5954642   -101.96772    4395.4921    4.4463737    4.4463737    4.4463737    4395.4921    27900.296   -24133.187    9419.3673   -2731.3513    6285.3444   -15080.936    87.905871 
   30600    1368.6472   -103.23924    1.2383807   -102.00086   -18547.132    4.4578805    4.4578805    4.4578805   -18547.132    26376.381   -54322.299   -27695.476   -60862.814   -1266.6236   -16261.266    88.590118 
   30700    2200.9247   -103.99498    1.9914429   -102.00354    14167.945    4.4516598    4.4516598    4.4516598    14167.945   -6121.3093   -4456.5521    53081.698    7133.2775   -8467.3092    -11140.93    88.219766 
   30800    2006.1899   -103.84966    1.8152428   -102.03442   -39507.786    4.4256423    4.4256423    4.4256423   -39507.786   -90342.034   -47431.419    19250.095    -57198.77    27128.901   -11025.655       86.682 
   30900    2510.2442   -104.29479    2.2713217   -102.02347    49947.152    4.4156105    4.4156105    4.4156105    49947.152    20748.813    46391.355    82701.289    17854.092   -7955.3153   -12273.531    86.093881 
   31000    965.14944   -102.94837   0.87328749   -102.07508   -51097.922    4.4589992    4.4589992    4.4589992   -51097.922   -88258.585   -50448.188   -14586.992     -51495.1    13805.599    3333.6518    88.656828 
   31100    3015.1017    -104.7283    2.7281274   -102.00017   -17852.138    4.4666056    4.4666056    4.4666056   -17852.138   -17755.629   -47480.419    11679.633    25591.099   -105.49662   -7154.3156    89.111307 
   31200    1554.4963   -103.40396    1.4065409   -101.99742   -49284.772    4.4520679    4.4520679    4.4520679   -49284.772   -43109.175    -85447.99   -19297.151   -62866.301    25833.341   -8088.4813    88.244032 
   31300    2736.3198   -104.45693    2.4758797   -101.98105   -1752.7587    4.4185048    4.4185048    4.4185048   -1752.7587    18489.904   -11992.286   -11755.894    22531.844    12641.651   -3535.1076    86.263286 
   31400    2102.1375   -103.91652    1.9020582   -102.01446    32386.211     4.408676     4.408676     4.408676    32386.211    44292.506   -10127.278    62993.404   -60003.836   -13226.706   -10993.665    85.688898 
   31500    1788.0232   -103.65832     1.617841   -102.04048   -17657.615    4.4352494    4.4352494    4.4352494   -17657.615   -8387.8128    26833.267   -71418.298    24174.675     22977.76    11613.669     87.24773 
   31600    1925.3521   -103.75923     1.742099   -102.01713   -10453.621    4.4396468    4.4396468    4.4396468   -10453.621    21444.711   -47339.317   -5466.2581   -72357.714   -21221.804     31.40058    87.507496 
   31700    2327.7483   -104.11336    2.1061956   -102.00717   -1653.1121    4.4313791    4.4313791    4.4313791   -1653.1121   -1296.6869    42509.376   -46172.026    11534.136    14121.955   -16357.985    87.019525 
   31800    1113.7754   -103.04239    1.0077673   -102.03462   -22046.192    4.4323316    4.4323316    4.4323316   -22046.192   -30117.098   -4062.8763     -31958.6    -88946.35   -7580.5362   -1733.2197    87.075651 
   31900    2690.7664   -104.45635     2.434662   -102.02169    13356.639     4.438955     4.438955     4.438955    13356.639    22392.155    61008.365   -43330.601    10774.569    14353.052    5728.8181    87.466594 
   32000    1130.6889   -103.05879    1.0230711   -102.03572   -36064.471    4.4513197    4.4513197    4.4513197   -36064.471   -73381.451   -246.47881   -34565.483   -78441.205    5514.6119    6398.4221    88.199549 
   32100    2755.7098   -104.49023    2.4934241   -101.99681   -6262.4735    4.4369376    4.4369376    4.4369376   -6262.4735   -7938.0065    30381.576    -41230.99    14424.668   -7634.1025   -20650.992    87.347396 
   32200    2233.8228   -104.04358    2.0212098   -102.02237   -20574.764    4.4155294    4.4155294    4.4155294   -20574.764   -31750.947   -33507.414    3534.0699   -53234.262    1526.8916   -67.879054    86.089137 
   32300    2539.4129   -104.35338    2.2977142   -102.05567   -3682.7907     4.416714     4.416714     4.416714   -3682.7907   -5750.3514    37606.005   -42904.026    17759.418   -20844.318   -13624.304    86.158439 
   32400    1968.3971   -103.85594    1.7810471   -102.07489   -14996.138    4.4351174    4.4351174    4.4351174   -14996.138   -46564.419    13718.982   -12142.979   -46057.767    2708.3248   -23400.381     87.23994 
   32500    2043.6367   -103.91002    1.8491254   -102.06089   -7857.4709    4.4513346    4.4513346    4.4513346   -7857.4709    49165.071   -21834.466   -50903.018   -9617.9839    6970.3212    12096.412    88.200433 
   32600    2045.4919   -103.87286     1.850804   -102.02206    -31543.53    4.4444209    4.4444209    4.4444209    -31543.53   -46827.901   -71850.291    24047.603   -34728.459    17630.596   -1997.0937    87.790097 
   32700    1787.8748   -103.60649    1.6177067   -101.98878    35898.579    4.4355333    4.4355333    4.4355333    35898.579    141960.57    -22155.95   -12108.882   -8180.2416    12855.952    5511.9697    87.264485 
   32800    1584.2514   -103.43313     1.433464   -101.99967   -28751.736    4.4326384    4.4326384    4.4326384   -28751.736       -45035   -47159.745    5939.5379   -86091.344    137.67805   -14653.258    87.093732 
   32900    2680.9976   -104.41676     2.425823   -101.99094     5393.069    4.4252408    4.4252408    4.4252408     5393.069    10225.702    44262.242   -38308.737     17550.53     14523.65    9746.5717    86.658412 
   33000    1089.2957   -103.02471   0.98561768   -102.03909    1983.8295    4.4437962    4.4437962    4.4437962    1983.8295   -20080.831    19232.463    6799.8567   -78200.004   -11414.684   -14505.284    87.753085 
   33100    2372.9793   -104.14392    2.1471215    -101.9968    16011.657    4.4519773    4.4519773    4.4519773    16011.657   -22075.602    50525.997    19584.577    9495.4196    5046.0104   -9824.8113    88.238644 
   33200    1123.2665   -103.02564    1.0163551   -102.00929   -225.06411    4.4338215    4.4338215    4.4338215   -225.06411    63947.798   -71928.119    7305.1287    -70013.43   -2415.3723   -20992.354    87.163489 
   33300    2819.4201   -104.54627    2.5510706    -101.9952    28142.486    4.4184656    4.4184656    4.4184656    28142.486    16498.025    46565.482    21363.951    21015.222    16668.088    1902.5915    86.260987 
   33400    1890.4325    -103.7711     1.710503    -102.0606   -2486.3413    4.4233673    4.4233673    4.4233673   -2486.3413    9475.3763   -58130.834    41196.433   -63959.678    8723.1069   -7720.9638    86.548395 
   33500    2119.2775   -103.96203    1.9175668   -102.04447    2990.8773     4.451887     4.451887     4.451887    2990.8773   -17415.934    9350.5399    17038.026    12715.442    4896.8756   -5396.7237    88.233275 
[...]
   91300    2816.2173   -104.58658    2.5481726   -102.03841    252.59913    4.4087946    4.4087946    4.4087946    252.59913     16170.75   -20213.292    4800.3392    46701.849    602.78508   -10160.723    85.695813 
   91400    1061.9102   -103.00211   0.96083869   -102.04127   -35544.918    4.4145878    4.4145878    4.4145878   -35544.918   -61191.786   -53840.845    8397.8764   -121797.77   -3566.9747   -2908.4001    86.034072 
   91500    2850.8164   -104.59878    2.5794786    -102.0193    9315.0348    4.3932045    4.3932045    4.3932045    9315.0348    55397.287    12593.576   -40045.759    36186.905   -30227.863    1872.9231    84.789925 
   91600    1110.1375   -103.05592    1.0044757   -102.05144    29466.707    4.3704594    4.3704594    4.3704594    29466.707    30595.711   -6204.0495    64008.458    -112229.2    5015.6287   -8252.8909    83.479776 
   91700    2959.1513   -104.72435    2.6775023   -102.04685    21882.069    4.3819505    4.3819505    4.3819505    21882.069     34255.41    52502.351   -21111.555    39320.189    -28741.03    6906.5366     84.13998 
   91800    1293.2489   -103.23855    1.1701588   -102.06839   -25004.752    4.3985504    4.3985504    4.3985504   -25004.752   -37237.646     -64053.2    26276.588   -120732.67    2352.1867   -6842.7995    85.099837 
   91900    2841.3546   -104.61177    2.5709173   -102.04085    11511.515    4.3996299    4.3996299    4.3996299    11511.515    53953.288     24472.91   -43891.653    34136.534   -16217.507    7007.7574    85.162507 
   92000    815.06363   -102.81092    0.7374867   -102.07343   -52579.562    4.4014182    4.4014182    4.4014182   -52579.562   -127065.75   -86685.868    56012.929   -132943.52   -16740.285    4495.1594    85.266396 
   92100    3264.9897    -104.9536    2.9542313   -101.99937    47476.977    4.3870612    4.3870612    4.3870612    47476.977    51242.385    59944.838    31243.709    46322.669     5722.332    594.62022    84.434723 
   92200    828.76455   -102.80405   0.74988358   -102.05416   -42381.623    4.3987181    4.3987181    4.3987181   -42381.623   -95721.286   -58974.077    27550.493   -125164.09   -23603.733   -2596.0035    85.109572 
   92300    2842.0651   -104.58341    2.5715602   -102.01185    19820.333    4.3942061    4.3942061    4.3942061    19820.333    4709.8592    58362.286   -3611.1462    25290.867   -3569.4579   -13658.414    84.847931 
   92400     1203.025   -103.13057    1.0885223   -102.04205   -21928.377    4.3958821    4.3958821    4.3958821   -21928.377   -62120.651   -42457.772    38793.293   -95503.189   -26693.629    6818.5918    84.945057 
   92500    2596.4895   -104.35642    2.3493582   -102.00706   -4137.4694    4.4002864    4.4002864    4.4002864   -4137.4694   -21924.494    28266.636    -18754.55   -13046.849   -24672.239     9924.358    85.200636 
   92600    1630.5874   -103.50217    1.4753898   -102.02678   -3314.4832     4.394538     4.394538     4.394538   -3314.4832   -66817.838   -5272.8113      62147.2   -64911.233   -682.35102    -10040.66    84.867161 
   92700    2255.2041   -104.06497     2.040556   -102.02442   -2483.4464     4.390784     4.390784     4.390784   -2483.4464   -50086.994    -9.813969    42646.468   -19413.137   -26070.793   -323.95999    84.649858 
   92800    1931.5206   -103.78889    1.7476804   -102.04121    8982.3174    4.3899074    4.3899074    4.3899074    8982.3174   -23868.132    841.67098    49973.413   -62321.981     2966.557    2061.4349    84.599165 
   92900    1846.4734   -103.71656    1.6707279   -102.04583   -1889.7722    4.3916955    4.3916955    4.3916955   -1889.7722   -1241.0594   -38817.865    34389.608    886.18967   -16000.486    3775.6784    84.702586 
   93000    2388.8929   -104.19566    2.1615205   -102.03413   -12003.204    4.4036356    4.4036356    4.4036356   -12003.204   -34191.417   -45345.545    43527.348   -60967.449    8035.6811    -6825.405    85.395333 
   93100    1316.5104   -103.22903    1.1912063   -102.03782   -15084.146    4.4028676    4.4028676    4.4028676   -15084.146    6107.7325   -62591.896    11231.727    6758.8827    5698.5026   -6564.6902    85.350657 
   93200    2820.5733   -104.55208     2.552114   -101.99997    17451.628    4.3975004    4.3975004    4.3975004    17451.628    8591.4878    6432.9237    37330.472   -38484.571        -1860    6560.0071    85.038908 
   93300    1261.8643   -103.17579    1.1417614   -102.03403   -35566.425    4.3957391    4.3957391    4.3957391   -35566.425   -37201.176   -34916.412   -34581.688    13148.882    37415.911   -26551.731    84.936764 
   93400    3235.3925   -104.92465    2.9274511    -101.9972    32857.106    4.3883301    4.3883301    4.3883301    32857.106    17910.343    27694.354    52966.622   -27381.901   -11300.531    5758.3044    84.508008 
   93500    873.43273   -102.84818   0.79030029   -102.05788   -30005.861    4.3944584    4.3944584    4.3944584   -30005.861   -51067.049   -24012.679   -14937.856    39492.998    19127.756    -14703.16    84.862551 
   93600    2937.2929   -104.66882    2.6577243   -102.01109    4192.0332    4.4082459    4.4082459    4.4082459    4192.0332   -18084.095    11588.418    19071.776   -16512.012   -26807.782    4612.0025    85.663822 
   93700    1323.2135   -103.21215    1.1972713   -102.01487   -43893.032    4.4194538    4.4194538    4.4194538   -43893.032   -37089.038   -54043.912   -40546.145    31059.223    2031.8199    9060.5224    86.318879 
   93800    2153.2495    -103.9475    1.9483054    -101.9992    13767.597     4.391263     4.391263     4.391263    13767.597   -16629.597    7233.7501    50698.638   -31044.648   -39071.892   -18113.472    84.677563 
   93900    2053.2393   -103.87901     1.857814   -102.02119    9472.3975    4.3724033    4.3724033    4.3724033    9472.3975    19866.452    6311.1878    2239.5526    14041.425   -19978.274    24825.137    83.591217 
   94000    1621.4889   -103.50385    1.4671572    -102.0367    14116.396    4.3802077    4.3802077    4.3802077    14116.396    -7616.952    15214.551    34751.589    -28799.39   -2769.7828   -11166.851    84.039625 
   94100    2402.1931   -104.22391    2.1735548   -102.05036   -7008.3115    4.4101649    4.4101649    4.4101649   -7008.3115    11868.837   -18842.516   -14051.256   -9242.7549   -30131.768     15675.09    85.775744 
   94200     1266.469   -103.17283    1.1459278    -102.0269   -50116.284     4.427978     4.427978     4.427978   -50116.284   -108089.15   -18381.916   -23877.791    25146.356    12537.903    4844.3403    86.819317 
   94300    2825.4554   -104.53206    2.5565314   -101.97553    15811.013    4.4005815    4.4005815    4.4005815    15811.013    16076.062    10191.434    21165.543   -21110.758   -17690.221   -3876.0513    85.217777 
   94400    1112.9669   -103.01673    1.0070358   -102.00969   -25149.148    4.3759116    4.3759116    4.3759116   -25149.148   -74041.351   -50022.031    48615.938    53491.417     15611.54    8848.6062    83.792589 
   94500    2951.0615   -104.64923    2.6701825   -101.97905    58138.832    4.3738359    4.3738359    4.3738359    58138.832    41237.061    62801.497    70377.937   -4168.2564    4266.9498    1395.2073     83.67341 
   94600    1253.0466   -103.17595    1.1337829   -102.04217   -30066.752    4.4037114    4.4037114    4.4037114   -30066.752   -53261.664   -58504.128    21565.535    57910.716    15567.959    8560.3302    85.399737 
   94700    2610.4272   -104.35255    2.3619694   -101.99058   -6398.8577    4.4172006    4.4172006    4.4172006   -6398.8577   -37266.375   -5472.3016    23542.103    11018.238    13713.215   -12204.276    86.186919 
   94800    1759.4774   -103.59315    1.5920121   -102.00114   -11505.801    4.4028772    4.4028772    4.4028772   -11505.801    994.65791   -33342.153   -2169.9077    54022.652   -666.93727    18834.707    85.351215 
   94900    1663.9379   -103.50433    1.5055659   -101.99876   -7778.9785    4.3940171    4.3940171    4.3940171   -7778.9785   -66694.168   -42087.663    85444.895    69875.213    18436.216    741.80424    84.836984 
   95000    2564.7993   -104.31731    2.3206843   -101.99663   -3084.2062    4.3836161    4.3836161    4.3836161   -3084.2062   -17238.774   -12075.675    20061.831    31185.839   -19739.182    16242.687    84.235964 
   95100    1150.7014   -103.08269    1.0411788   -102.04152   -12227.488    4.3857999    4.3857999    4.3857999   -12227.488   -63363.694   -40927.864    67609.095    100924.69    15105.903   -6183.6284    84.361918 
   95200    3037.8233   -104.76943    2.7486864   -102.02075   -1446.9348    4.4061378    4.4061378    4.4061378   -1446.9348   -9250.6312   -434.03468    5343.8616   -24536.918   -26088.531    22068.865    85.540978 
   95300    1000.0316   -102.93929   0.90484959   -102.03444    1352.4801    4.4056433    4.4056433    4.4056433    1352.4801    189.75293   -18535.011    22402.698    118740.88    10429.921    1108.0442    85.512182 
   95400    3211.2443   -104.88775    2.9056013   -101.98215    20336.204    4.4078551    4.4078551    4.4078551    20336.204    32048.685    52418.559   -23458.632   -38394.632    -6457.329    8860.8282    85.641039 
   95500    776.99963   -102.72459   0.70304559   -102.02154   -50913.532    4.4030233    4.4030233    4.4030233   -50913.532   -94853.054   -123216.62    65329.076    117632.16   -9879.6835    1841.8018    85.359716 
   95600    3362.7378   -105.01677    3.0426759   -101.97409    34092.411    4.3915216    4.3915216    4.3915216    34092.411    76703.806    39199.101   -13625.674    -19384.02    6204.0481    2411.7528    84.692524 
   95700    861.89081   -102.82975   0.77985692    -102.0499   -59832.219    4.3965427    4.3965427    4.3965427   -59832.219    -114409.7   -106198.42    41111.463    129337.25   -14266.761    9807.8003    84.983361 
   95800    3149.7447   -104.86382    2.8499552   -102.01387    11878.061    4.3954702    4.3954702    4.3954702    11878.061    20324.766    15421.009   -111.59188   -28509.289    12999.966   -1658.1907    84.921181 
   95900    1304.9986   -103.22876    1.1807902   -102.04797   -59316.904    4.4163174    4.4163174    4.4163174   -59316.904    -99874.55   -76799.892    -1276.269    103179.66   -13075.876    15757.017    86.135233 
   96000      2097.85   -103.88731    1.8981788   -101.98913    29333.733      4.41274      4.41274      4.41274    29333.733    52878.748   -1618.3698    36740.821    37960.828   -14197.922    8775.7559    85.926083 
   96100     2362.612   -104.09684     2.137741    -101.9591   -20201.607     4.421793     4.421793     4.421793   -20201.607   -40901.958   -15920.334   -3782.5292    26227.508    11845.893    623.97055    86.456019 
   96200    1534.9296   -103.37834    1.3888366   -101.98951     -14309.7    4.4035476    4.4035476    4.4035476     -14309.7   -7190.1165   -86748.892    51009.908    71293.378   -9040.5757    12453.839    85.390209 
   96300    2678.4729   -104.41265    2.4235385   -101.98911    46391.845    4.3730263    4.3730263    4.3730263    46391.845    13925.627    41960.314    83289.594    7224.3413    22421.138    -21769.52    83.626955 
   96400    941.93085    -102.9068   0.85227883   -102.05452   -19463.086    4.3757469    4.3757469    4.3757469   -19463.086   -63421.117   -65200.051    70231.908    104939.85    7416.8291    16317.317    83.783132 
   96500    2865.0415   -104.65691    2.5923497   -102.06456    27146.559    4.3950488    4.3950488    4.3950488    27146.559   -12127.893    89771.999    3795.5714   -21612.251   -8269.2636    2396.4121    84.896761 
   96600    1413.9987   -103.34866    1.2794157   -102.06925   -48136.842    4.4168658    4.4168658    4.4168658   -48136.842   -97540.226    -91413.66     44543.36    128777.48    10096.467   -373.22644    86.167327 
   96700    2592.2373   -104.35782    2.3455108   -102.01231    1275.8024    4.4079131    4.4079131    4.4079131    1275.8024   -25352.806    48342.813     -19162.6   -35688.237    -20535.94    26204.635    85.644422 
   96800    1503.2766   -103.38631    1.3601962   -102.02611   -28098.738     4.393156     4.393156     4.393156   -28098.738   -75422.053   -60497.692    51623.531    123080.69    9036.0393   -9525.7636    84.787118 
   96900    2553.2562   -104.31733    2.3102398   -102.00709    32109.881    4.3765845    4.3765845    4.3765845    32109.881    32982.112    56003.444    7344.0862   -40134.623   -11050.355    27031.276    83.831253 
   97000    1349.9923   -103.28324    1.2215014   -102.06174   -20364.647    4.3896537    4.3896537    4.3896537   -20364.647   -63141.447   -71628.765    73676.272    106552.02    702.47833   -533.66194    84.584498 
   97100      3093.91   -104.82619    2.7994348   -102.02675    12330.338     4.393938     4.393938     4.393938    12330.338    15543.854    18025.045     3422.116   -33667.237   -5522.9168    7178.9929    84.832402 
   97200    952.09985   -102.92835   0.86147996   -102.06687    3060.0899    4.3891416    4.3891416    4.3891416    3060.0899    -4805.648   -43901.092    57887.009    92417.944   -4746.3202     11806.68    84.554902 
   97300    2443.3595   -104.23766     2.210803   -102.02686   -16848.478    4.3969715    4.3969715    4.3969715   -16848.478   -5902.3447   -9875.7478   -34767.341   -31207.322   -1480.6474   -34056.828    85.008227 
   97400    1832.1692   -103.69393    1.6577852   -102.03615   -9618.2622    4.3887101    4.3887101    4.3887101   -9618.2622   -48545.419   -3262.7481    22953.381    63525.978   -9273.8498    21527.518    84.529966 
   97500    1720.7767   -103.58632    1.5569949   -102.02933   -25702.805     4.391031     4.391031     4.391031   -25702.805    10772.301   -33985.374   -53895.343   -21653.327    4035.5526    -58045.22    84.664141 
   97600    2065.3369   -103.91156    1.8687602    -102.0428   -13917.285    4.3866243    4.3866243    4.3866243   -13917.285   -69555.639    25416.568    2387.2167    7719.3097     5982.613    12556.774    84.409497 
   97700    1464.2941   -103.37418    1.3249241   -102.04926    12275.817    4.3844464    4.3844464    4.3844464    12275.817    35630.474   -6317.8177    7514.7939    1757.5844   -2598.8768   -33783.574    84.283834 
   97800    2517.2709   -104.31686    2.2776796   -102.03918   -10412.399     4.398019     4.398019     4.398019   -10412.399   -36210.673    26644.738   -21671.262    -23062.39    14526.858   -6641.2299    85.068993 
   97900    1184.0816   -103.11774    1.0713819   -102.04636   -6157.8655    4.4022182    4.4022182    4.4022182   -6157.8655    -6480.864   -3128.8586   -8863.8739    11271.657   -5767.3409   -12570.145    85.312895 
   98000    2993.3896   -104.72554    2.7084818   -102.01706   -7581.9892    4.4005007    4.4005007    4.4005007   -7581.9892   -514.79931    4093.9943   -26325.163   -13876.271    17454.129   -20899.647    85.213085 
   98100    933.01908   -102.88962   0.84421527   -102.04541   -7976.0828    4.3917305    4.3917305    4.3917305   -7976.0828   -17911.893   -10111.577    4095.2216    21723.943    -12247.04   -1005.2531    84.704611 
   98200    3046.0285    -104.7656    2.7561106   -102.00949    9085.8896    4.3864533    4.3864533    4.3864533    9085.8896    20832.155    22908.271   -16482.757   -16656.178    15681.381   -33343.084    84.399627 
   98300    1279.9582   -103.20288    1.1581331   -102.04474   -6772.3706     4.385252     4.385252     4.385252   -6772.3706   -23699.219   -10113.851    13495.959    5270.7645   -11718.268     16806.94    84.330302 
   98400    3004.5061   -104.72361    2.7185403   -102.00507     15572.55    4.3931264    4.3931264    4.3931264     15572.55    15411.842    27683.907    3621.9013   -10831.117    20789.126   -24646.138    84.785405 
   98500    1097.0881   -103.03424   0.99266834   -102.04158   -31004.278    4.3960542    4.3960542    4.3960542   -31004.278   -65700.325   -34910.809     7598.299   -15885.211    4118.7548    19136.379    84.955035 
   98600    2959.2829   -104.68315    2.6776214   -102.00553    16957.963    4.3927234    4.3927234    4.3927234    16957.963    39448.294   -201.15244    11626.747    -14719.97    8778.0953    6034.8276    84.762073 
   98700    1174.2792   -103.11085    1.0625125   -102.04834   -14527.422    4.3895085    4.3895085    4.3895085   -14527.422   -52236.826    6523.6687    2130.8912   -32918.413    14832.643    3979.6426    84.576105 
   98800    2539.2161   -104.31992    2.2975361   -102.02239    24515.641    4.3871608    4.3871608    4.3871608    24515.641    36735.346   -6102.4639    42914.042   -27310.923    -16723.49    14374.575    84.440476 
   98900     1376.576   -103.29738    1.2455549   -102.05182   -17651.103    4.3926222    4.3926222    4.3926222   -17651.103   -43305.467   -50476.742    40828.902   -51243.692    18489.235    -8283.433    84.756214 
   99000    2755.9318   -104.51379     2.493625   -102.02017   -3174.9513    4.3966457    4.3966457    4.3966457   -3174.9513    13080.345   -38014.911    15409.712   -23508.309   -12082.882   -721.44828    84.989333 
   99100     1382.926   -103.30629    1.2513005   -102.05499   -21884.676    4.3887674    4.3887674    4.3887674   -21884.676   -36126.651   -48129.129    18601.751   -59914.389   -5761.0631    -6012.567    84.533272 
   99200    2356.5173   -104.15599    2.1322264   -102.02377    7443.9005    4.3863012    4.3863012    4.3863012    7443.9005    20484.547    -28349.79    30196.944    -26628.86   -6864.1059   -15125.277    84.390848 
   99300    1338.9666   -103.27204    1.2115251   -102.06051   -21670.594     4.394576     4.394576     4.394576   -21670.594   -68694.943   -10490.533    14173.694   -27557.608   -28740.562    4884.4542    84.869361 
   99400    2310.0955   -104.12837     2.090223   -102.03815    34019.187     4.390339     4.390339     4.390339    34019.187    34449.444   -13540.033    81148.149   -41546.793    24436.599   -6611.0228    84.624122 
   99500    1779.3891   -103.64997    1.6100286   -102.03994    -7913.062     4.395089     4.395089     4.395089    -7913.062   -10274.989   -26960.587     13496.39   -19431.425   -24159.585    5681.0024    84.899089 
   99600     2105.991   -103.93604    1.9055449   -102.03049   -5669.6562    4.3978965    4.3978965    4.3978965   -5669.6562    12375.344   -57469.941    28085.629   -57060.386    17198.804    9571.1556    85.061886 
   99700    2011.3604     -103.861    1.8199211   -102.04108    406.63753    4.3858705    4.3858705    4.3858705    406.63753   -47940.642   -13256.192    62416.746   -25984.999    5681.0232   -311.12836    84.365989 
   99800    1535.2944   -103.42753    1.3891667   -102.03836    36093.824    4.3838055    4.3838055    4.3838055    36093.824    24605.592   -13785.592    97461.471   -75457.217     10510.31    6378.0777    84.246883 
   99900    2499.9754   -104.27346    2.2620303   -102.01143    4699.7226     4.405763     4.405763     4.405763    4699.7226   -37314.962    14308.314    37105.816    22266.132    25431.879   -7471.0766    85.519154 
  100000    1222.1733   -103.11617    1.1058481   -102.01032   -20166.426    4.4079914    4.4079914    4.4079914   -20166.426   -40053.124   -68342.147    47895.994   -105115.35   -2666.8828    9774.6893    85.648985 
Loop time of 21.8933 on 1 procs for 100000 steps with 8 atoms

Pair  time (%) = 6.50667 (29.7199)
Kspce time (%) = 5.39324 (24.6342)
Neigh time (%) = 0.255765 (1.16824)
Comm  time (%) = 0.90958 (4.15461)
Outpt time (%) = 0.0285563 (0.130434)
Other time (%) = 8.79948 (40.1926)

Nlocal:    8 ave 8 max 8 min
Histogram: 1 0 0 0 0 0 0 0 0 0
Nghost:    1720 ave 1720 max 1720 min
Histogram: 1 0 0 0 0 0 0 0 0 0
Neighs:    2065 ave 2065 max 2065 min
Histogram: 1 0 0 0 0 0 0 0 0 0

Total # of neighbors = 2065
Ave neighs/atom = 258.125
Neighbor list builds = 3415
Dangerous builds = 0
unfix 20
unfix 21
print "seeds:4180821"
seeds:4180821
