# ['Ni']

10 atoms
1 atom types

    0.0000     3.5069 xlo xhi
    0.0000     2.5104 ylo yhi
    0.0000    25.1036 zlo zhi

    0.0000     0.0000     0.0000 xy xz yz

Atoms

1 1     0.0000     0.0000     0.0000
2 1     1.7534     1.2552     1.2552
3 1     0.0000     0.0000     2.5104
4 1     1.7534     1.2552     3.7655
5 1     0.0000     0.0000     5.0207
6 1     1.7534     1.2552     6.2759
7 1     0.0000     0.0000     7.5311
8 1     1.7534     1.2552     8.7863
9 1     0.0000     0.0000    10.0414
10 1     1.7534     1.2552    11.2966
