   2   2   0   0
  0.1090254E+02  0.2793739E-09  0.2793739E-09  0.2793739E-09  0.5000000E-15
  1.000000000000000E-004
  CAR 
 automatically generated by pyflamestk   
     29.83151140     -0.72077728  301      9.24820375      1.00000000
     -0.721  0.0000E+00  0.0000E+00  0.0000E+00  0.0000E+00
     -0.619  0.0000E+00  0.0000E+00  0.0000E+00  0.0000E+00
     -0.517  0.0000E+00  0.0000E+00  0.0000E+00  0.0000E+00
     -0.415  0.0000E+00 -0.1964E-30  0.0000E+00 -0.2000E-31
     -0.313 -0.1716E-27 -0.7957E-27 -0.1748E-28 -0.8106E-28
     -0.212 -0.4551E-24 -0.1912E-23 -0.4637E-25 -0.1948E-24
     -0.110 -0.7155E-21 -0.2721E-20 -0.7291E-22 -0.2773E-21
     -0.008 -0.6660E-18 -0.2293E-17 -0.6790E-19 -0.2338E-18
      0.094 -0.3667E-15 -0.1143E-14 -0.3742E-16 -0.1167E-15
      0.196 -0.1154E-12 -0.3252E-12 -0.1179E-13 -0.3324E-13
      0.298 -0.2200E-10 -0.5603E-10 -0.2252E-11 -0.5740E-11
      0.399 -0.2459E-08 -0.5659E-08 -0.2527E-09 -0.5821E-09
      0.501 -0.1605E-06 -0.3333E-06 -0.1660E-07 -0.3453E-07
      0.603 -0.6068E-05 -0.1135E-04 -0.6346E-06 -0.1190E-05
      0.705 -0.1310E-03 -0.2197E-03 -0.1397E-04 -0.2356E-04
      0.807 -0.1571E-02 -0.2344E-02 -0.1739E-03 -0.2623E-03
      0.909 -0.9814E-02 -0.1275E-01 -0.1173E-02 -0.1561E-02
      1.011 -0.2557E-01 -0.2593E-01 -0.3778E-02 -0.4202E-02
      1.112  0.1699E-01  0.4333E-01 -0.2047E-02  0.2109E-03
      1.214  0.2360E+00  0.2929E+00  0.2199E-01  0.3004E-01
      1.316  0.4884E+00  0.5064E+00  0.7173E-01  0.8161E-01
      1.418  0.4232E+00  0.3739E+00  0.1148E+00  0.1197E+00
      1.520  0.1404E+00  0.9557E-01  0.1291E+00  0.1294E+00
      1.622 -0.1295E-01 -0.2128E-01  0.1278E+00  0.1273E+00
      1.723 -0.2102E-01 -0.1763E-01  0.1257E+00  0.1255E+00
      1.825 -0.5665E-02 -0.4031E-02  0.1251E+00  0.1250E+00
      1.927 -0.7160E-03 -0.4501E-03  0.1250E+00  0.1250E+00
      2.029 -0.4856E-04 -0.2730E-04  0.1250E+00  0.1250E+00
      2.131 -0.1851E-05 -0.9358E-06  0.1250E+00  0.1250E+00
      2.233 -0.4053E-07 -0.1847E-07  0.1250E+00  0.1250E+00
      2.334 -0.5157E-09 -0.2122E-09  0.1250E+00  0.1250E+00
      2.436 -0.1262E-10 -0.5245E-11  0.1250E+00  0.1250E+00
      2.538 -0.1213E-08 -0.5741E-09  0.1250E+00  0.1250E+00
      2.640 -0.9811E-07 -0.5056E-07  0.1250E+00  0.1250E+00
      2.742 -0.4611E-05 -0.2592E-05  0.1250E+00  0.1250E+00
      2.844 -0.1245E-03 -0.7655E-04  0.1250E+00  0.1250E+00
      2.945 -0.1894E-02 -0.1278E-02  0.1248E+00  0.1249E+00
      3.047 -0.1551E-01 -0.1161E-01  0.1232E+00  0.1237E+00
      3.149 -0.6032E-01 -0.5171E-01  0.1171E+00  0.1184E+00
      3.251 -0.4726E-01 -0.6582E-01  0.1123E+00  0.1117E+00
      3.353  0.3820E+00  0.2726E+00  0.1512E+00  0.1395E+00
      3.455  0.1231E+01  0.1103E+01  0.2765E+00  0.2518E+00
      3.557  0.1484E+01  0.1523E+01  0.4277E+00  0.4069E+00
      3.658  0.7548E+00  0.8984E+00  0.5045E+00  0.4984E+00
      3.760  0.7051E-01  0.1406E+00  0.5117E+00  0.5127E+00
      3.862 -0.7766E-01 -0.7747E-01  0.5038E+00  0.5048E+00
      3.964 -0.3195E-01 -0.3935E-01  0.5006E+00  0.5008E+00
      4.066 -0.8123E-02 -0.7363E-02  0.4997E+00  0.5001E+00
      4.168 -0.2125E-01 -0.9327E-03  0.4976E+00  0.5000E+00
      4.269 -0.6891E-01 -0.3172E-02  0.4906E+00  0.4997E+00
      4.371 -0.1471E-01 -0.2225E-01  0.4891E+00  0.4974E+00
      4.473  0.5159E+00 -0.7071E-01  0.5416E+00  0.4902E+00
      4.575  0.1350E+01 -0.4613E-02  0.6791E+00  0.4897E+00
      4.677  0.1406E+01  0.5503E+00  0.8222E+00  0.5458E+00
      4.779  0.5771E+00  0.1375E+01  0.8810E+00  0.6858E+00
      4.880 -0.6353E-01  0.1387E+01  0.8745E+00  0.8271E+00
      4.982 -0.6126E-01  0.5660E+00  0.8683E+00  0.8847E+00
      5.084  0.5602E+00 -0.1450E-01  0.9253E+00  0.8832E+00
      5.186  0.1345E+01 -0.1333E+00  0.1062E+01  0.8697E+00
      5.288  0.1506E+01 -0.9107E-01  0.1216E+01  0.8604E+00
      5.390  0.1519E+01  0.2871E+00  0.1370E+01  0.8896E+00
      5.492  0.2011E+01  0.1117E+01  0.1575E+01  0.1003E+01
      5.593  0.2119E+01  0.1913E+01  0.1791E+01  0.1198E+01
      5.695  0.1336E+01  0.2512E+01  0.1927E+01  0.1454E+01
      5.797  0.4995E+00  0.2553E+01  0.1978E+01  0.1714E+01
      5.899  0.7033E+00  0.1442E+01  0.2050E+01  0.1861E+01
      6.001  0.2264E+01  0.3014E+00  0.2280E+01  0.1892E+01
      6.103  0.3928E+01  0.2885E+00  0.2680E+01  0.1921E+01
      6.204  0.4226E+01  0.7888E+00  0.3111E+01  0.2001E+01
      6.306  0.3401E+01  0.1150E+01  0.3457E+01  0.2118E+01
      6.408  0.2060E+01  0.1806E+01  0.3667E+01  0.2302E+01
      6.510  0.1088E+01  0.2507E+01  0.3777E+01  0.2558E+01
      6.612  0.1857E+01  0.2826E+01  0.3967E+01  0.2845E+01
      6.714  0.3237E+01  0.3336E+01  0.4296E+01  0.3185E+01
      6.815  0.2878E+01  0.3278E+01  0.4589E+01  0.3519E+01
      6.917  0.1746E+01  0.1870E+01  0.4767E+01  0.3709E+01
      7.019  0.2397E+01  0.7666E+00  0.5011E+01  0.3787E+01
      7.121  0.3848E+01  0.1369E+01  0.5403E+01  0.3927E+01
      7.223  0.3350E+01  0.2820E+01  0.5744E+01  0.4214E+01
      7.325  0.1494E+01  0.3938E+01  0.5896E+01  0.4615E+01
      7.426  0.4459E+00  0.4296E+01  0.5942E+01  0.5053E+01
      7.528  0.2313E+00  0.3891E+01  0.5965E+01  0.5449E+01
      7.630  0.1153E+00  0.2843E+01  0.5977E+01  0.5738E+01
      7.732  0.6886E+00  0.1329E+01  0.6047E+01  0.5874E+01
      7.834  0.2255E+01  0.1793E+00  0.6277E+01  0.5892E+01
      7.936  0.3167E+01 -0.4018E-01  0.6599E+01  0.5888E+01
      8.038  0.2735E+01  0.2429E+00  0.6878E+01  0.5913E+01
      8.139  0.2955E+01  0.5127E+00  0.7179E+01  0.5965E+01
      8.241  0.4218E+01  0.9469E+00  0.7608E+01  0.6061E+01
      8.343  0.4645E+01  0.1707E+01  0.8081E+01  0.6235E+01
      8.445  0.4264E+01  0.2352E+01  0.8516E+01  0.6475E+01
      8.547  0.3992E+01  0.2731E+01  0.8922E+01  0.6753E+01
      8.649  0.3973E+01  0.3224E+01  0.9327E+01  0.7081E+01
      8.750  0.4465E+01  0.4259E+01  0.9782E+01  0.7515E+01
      8.852  0.4246E+01  0.5320E+01  0.1021E+02  0.8057E+01
      8.954  0.2473E+01  0.5340E+01  0.1047E+02  0.8601E+01
      9.056  0.6125E+00  0.4048E+01  0.1053E+02  0.9013E+01
      9.158 -0.1553E+00  0.2642E+01  0.1051E+02  0.9282E+01
      9.260 -0.2033E+00  0.2520E+01  0.1049E+02  0.9539E+01
      9.361  0.7371E-01  0.3237E+01  0.1050E+02  0.9868E+01
      9.463  0.8321E+00  0.3444E+01  0.1058E+02  0.1022E+02
      9.565  0.1510E+01  0.2316E+01  0.1074E+02  0.1045E+02
      9.667  0.1160E+01  0.6676E+00  0.1086E+02  0.1052E+02
      9.769  0.3176E+00 -0.1610E+00  0.1089E+02  0.1051E+02
      9.871 -0.5909E-01 -0.1303E+00  0.1088E+02  0.1049E+02
      9.973 -0.5542E-01  0.5008E+00  0.1088E+02  0.1054E+02
     10.074 -0.1317E-01  0.1359E+01  0.1088E+02  0.1068E+02
     10.176 -0.1515E-02  0.1398E+01  0.1088E+02  0.1083E+02
     10.278 -0.9444E-04  0.5842E+00  0.1088E+02  0.1088E+02
     10.380 -0.3322E-05  0.6019E-02  0.1088E+02  0.1089E+02
     10.482 -0.6729E-07 -0.7233E-01  0.1088E+02  0.1088E+02
     10.584 -0.5179E-08 -0.2372E-01  0.1087E+02  0.1088E+02
     10.685 -0.3049E-06 -0.3436E-02  0.1087E+02  0.1088E+02
     10.787 -0.1229E-04 -0.2629E-03  0.1087E+02  0.1088E+02
     10.889 -0.2833E-03 -0.1127E-04  0.1087E+02  0.1088E+02
     10.991 -0.3645E-02 -0.2270E-05  0.1087E+02  0.1087E+02
     11.093 -0.2471E-01 -0.6131E-04  0.1087E+02  0.1087E+02
     11.195 -0.7331E-01 -0.1067E-02  0.1086E+02  0.1087E+02
     11.296  0.1341E-01 -0.1014E-01  0.1087E+02  0.1087E+02
     11.398  0.6065E+00 -0.4785E-01  0.1093E+02  0.1087E+02
     11.500  0.1410E+01 -0.7110E-01  0.1107E+02  0.1086E+02
     11.602  0.1334E+01  0.2287E+00  0.1121E+02  0.1089E+02
     11.704  0.4558E+00  0.1042E+01  0.1125E+02  0.1099E+02
     11.806 -0.9339E-01  0.1524E+01  0.1124E+02  0.1115E+02
     11.908  0.2025E+00  0.9255E+00  0.1126E+02  0.1124E+02
     12.009  0.1223E+01  0.8800E-01  0.1139E+02  0.1125E+02
     12.111  0.1949E+01 -0.3542E-02  0.1159E+02  0.1125E+02
     12.213  0.1392E+01  0.7984E+00  0.1173E+02  0.1133E+02
     12.315  0.3594E+00  0.1754E+01  0.1177E+02  0.1151E+02
     12.417 -0.7500E-01  0.1675E+01  0.1176E+02  0.1168E+02
     12.519 -0.6619E-01  0.7391E+00  0.1175E+02  0.1175E+02
     12.620 -0.1578E-01  0.6590E-01  0.1175E+02  0.1176E+02
     12.722 -0.1843E-02 -0.7351E-01  0.1175E+02  0.1175E+02
     12.824 -0.1173E-03 -0.3350E-01  0.1175E+02  0.1175E+02
     12.926 -0.4232E-05 -0.6589E-02  0.1175E+02  0.1175E+02
     13.028 -0.8806E-07 -0.7013E-03  0.1175E+02  0.1175E+02
     13.130 -0.1068E-08 -0.4256E-04  0.1175E+02  0.1175E+02
     13.231 -0.7589E-11 -0.1499E-05  0.1175E+02  0.1175E+02
     13.333 -0.3189E-13 -0.3084E-07  0.1175E+02  0.1175E+02
     13.435  0.0000E+00 -0.3725E-09  0.1175E+02  0.1175E+02
     13.537  0.0000E+00 -0.2646E-11  0.1175E+02  0.1175E+02
     13.639  0.0000E+00 -0.1117E-13  0.1175E+02  0.1175E+02
     13.741  0.0000E+00  0.0000E+00  0.1175E+02  0.1175E+02
     13.842  0.0000E+00  0.0000E+00  0.1175E+02  0.1175E+02
     13.944  0.0000E+00  0.0000E+00  0.1175E+02  0.1175E+02
     14.046 -0.9781E-29  0.0000E+00  0.1175E+02  0.1175E+02
     14.148 -0.3250E-25  0.0000E+00  0.1175E+02  0.1175E+02
     14.250 -0.6401E-22 -0.1699E-28  0.1175E+02  0.1175E+02
     14.352 -0.7468E-19 -0.5452E-25  0.1175E+02  0.1175E+02
     14.454 -0.5157E-16 -0.1037E-21  0.1175E+02  0.1175E+02
     14.555 -0.2037E-13 -0.1169E-18  0.1175E+02  0.1175E+02
     14.657 -0.4890E-11 -0.7798E-16  0.1175E+02  0.1175E+02
     14.759 -0.6882E-09 -0.2979E-13  0.1175E+02  0.1175E+02
     14.861 -0.5669E-07 -0.6893E-11  0.1175E+02  0.1175E+02
     14.963 -0.2715E-05 -0.9365E-09  0.1175E+02  0.1175E+02
     15.065 -0.7482E-04 -0.7444E-07  0.1175E+02  0.1175E+02
     15.166 -0.1163E-02 -0.3439E-05  0.1175E+02  0.1175E+02
     15.268 -0.9787E-02 -0.9127E-04  0.1175E+02  0.1175E+02
     15.370 -0.4005E-01 -0.1363E-02  0.1174E+02  0.1175E+02
     15.472 -0.4494E-01 -0.1094E-01  0.1174E+02  0.1175E+02
     15.574  0.1901E+00 -0.4152E-01  0.1176E+02  0.1174E+02
     15.676  0.7319E+00 -0.3101E-01  0.1183E+02  0.1174E+02
     15.777  0.1226E+01  0.2498E+00  0.1196E+02  0.1177E+02
     15.879  0.1568E+01  0.7678E+00  0.1212E+02  0.1184E+02
     15.981  0.1586E+01  0.9649E+00  0.1228E+02  0.1194E+02
     16.083  0.9090E+00  0.9917E+00  0.1237E+02  0.1204E+02
     16.185  0.1542E+00  0.1383E+01  0.1239E+02  0.1219E+02
     16.287 -0.7939E-01  0.1364E+01  0.1238E+02  0.1232E+02
     16.389 -0.4327E-01  0.5921E+00  0.1238E+02  0.1238E+02
     16.490 -0.8479E-02  0.1207E-01  0.1238E+02  0.1239E+02
     16.592 -0.8403E-03 -0.7382E-01  0.1238E+02  0.1238E+02
     16.694 -0.4585E-04 -0.2498E-01  0.1238E+02  0.1238E+02
     16.796 -0.6147E-05 -0.3701E-02  0.1237E+02  0.1238E+02
     16.898 -0.1194E-03 -0.2954E-03  0.1237E+02  0.1238E+02
     17.000 -0.1689E-02 -0.1712E-03  0.1237E+02  0.1237E+02
     17.101 -0.1276E-01 -0.2118E-02  0.1237E+02  0.1237E+02
     17.203 -0.4436E-01 -0.1497E-01  0.1237E+02  0.1237E+02
     17.305 -0.1717E-01 -0.4729E-01  0.1237E+02  0.1237E+02
     17.407  0.3163E+00 -0.2125E-02  0.1240E+02  0.1237E+02
     17.509  0.8740E+00  0.3699E+00  0.1249E+02  0.1241E+02
     17.611  0.9379E+00  0.9180E+00  0.1258E+02  0.1250E+02
     17.712  0.4120E+00  0.9156E+00  0.1263E+02  0.1259E+02
     17.814  0.1270E+00  0.3522E+00  0.1264E+02  0.1263E+02
     17.916  0.3399E+00 -0.4363E-02  0.1267E+02  0.1263E+02
     18.018  0.4834E+00  0.1278E+00  0.1272E+02  0.1264E+02
     18.120  0.2643E+00  0.4363E+00  0.1275E+02  0.1269E+02
     18.222  0.9742E-02  0.4572E+00  0.1275E+02  0.1273E+02
     18.323 -0.2187E-01  0.1728E+00  0.1275E+02  0.1275E+02
     18.425  0.1896E+00  0.7509E-02  0.1277E+02  0.1275E+02
     18.527  0.4679E+00  0.1785E+00  0.1282E+02  0.1277E+02
     18.629  0.4475E+00  0.4629E+00  0.1286E+02  0.1282E+02
     18.731  0.1549E+00  0.4473E+00  0.1288E+02  0.1286E+02
     18.833 -0.6753E-01  0.1658E+00  0.1287E+02  0.1288E+02
     18.935 -0.6353E-01 -0.3390E-01  0.1286E+02  0.1287E+02
     19.036  0.4065E+00 -0.9911E-01  0.1290E+02  0.1286E+02
     19.138  0.1261E+01  0.3682E-01  0.1303E+02  0.1287E+02
     19.240  0.1469E+01  0.6888E+00  0.1318E+02  0.1294E+02
     19.342  0.7171E+00  0.1457E+01  0.1326E+02  0.1309E+02
     19.444  0.5463E-01  0.1284E+01  0.1326E+02  0.1322E+02
     19.546 -0.7693E-01  0.4369E+00  0.1325E+02  0.1326E+02
     19.647 -0.2988E-01 -0.3519E-01  0.1325E+02  0.1326E+02
     19.749 -0.4817E-02 -0.6411E-01  0.1325E+02  0.1325E+02
     19.851 -0.4048E-03 -0.1761E-01  0.1325E+02  0.1325E+02
     19.953 -0.4324E-04 -0.2257E-02  0.1325E+02  0.1325E+02
     20.055 -0.5104E-03 -0.1660E-03  0.1325E+02  0.1325E+02
     20.157 -0.5967E-02 -0.2699E-03  0.1325E+02  0.1325E+02
     20.258 -0.3701E-01 -0.3555E-02  0.1325E+02  0.1325E+02
     20.360 -0.1007E+00 -0.2586E-01  0.1324E+02  0.1325E+02
     20.462  0.3033E-01 -0.8881E-01  0.1324E+02  0.1324E+02
     20.564  0.8414E+00 -0.4604E-01  0.1332E+02  0.1323E+02
     20.666  0.2020E+01  0.5871E+00  0.1353E+02  0.1329E+02
     20.768  0.2172E+01  0.1801E+01  0.1375E+02  0.1348E+02
     20.870  0.1078E+01  0.2288E+01  0.1386E+02  0.1371E+02
     20.971  0.2823E+00  0.1358E+01  0.1389E+02  0.1385E+02
     21.073  0.7301E+00  0.3692E+00  0.1396E+02  0.1389E+02
     21.175  0.1454E+01  0.6044E+00  0.1411E+02  0.1395E+02
     21.277  0.1159E+01  0.1388E+01  0.1423E+02  0.1409E+02
     21.379  0.3255E+00  0.1270E+01  0.1426E+02  0.1422E+02
     21.481 -0.5765E-01  0.4369E+00  0.1426E+02  0.1426E+02
     21.582 -0.5615E-01 -0.3485E-01  0.1425E+02  0.1426E+02
     21.684 -0.1350E-01 -0.6425E-01  0.1425E+02  0.1425E+02
     21.786 -0.1566E-02 -0.1769E-01  0.1425E+02  0.1425E+02
     21.888 -0.9836E-04 -0.2271E-02  0.1425E+02  0.1425E+02
     21.990 -0.3486E-05 -0.1561E-03  0.1425E+02  0.1425E+02
     22.092 -0.7121E-07 -0.6031E-05  0.1425E+02  0.1425E+02
     22.193 -0.1344E-07 -0.1340E-06  0.1425E+02  0.1425E+02
     22.295 -0.7700E-06 -0.2547E-07  0.1425E+02  0.1425E+02
     22.397 -0.2722E-04 -0.1341E-05  0.1425E+02  0.1425E+02
     22.499 -0.5482E-03 -0.4372E-04  0.1425E+02  0.1425E+02
     22.601 -0.6103E-02 -0.8095E-03  0.1425E+02  0.1425E+02
     22.703 -0.3493E-01 -0.8229E-02  0.1425E+02  0.1425E+02
     22.804 -0.7819E-01 -0.4220E-01  0.1424E+02  0.1424E+02
     22.906  0.9888E-01 -0.7608E-01  0.1425E+02  0.1424E+02
     23.008  0.8169E+00  0.1689E+00  0.1433E+02  0.1425E+02
     23.110  0.1505E+01  0.9485E+00  0.1448E+02  0.1435E+02
     23.212  0.1177E+01  0.1529E+01  0.1460E+02  0.1451E+02
     23.314  0.3328E+00  0.1056E+01  0.1464E+02  0.1461E+02
     23.416 -0.5653E-01  0.2379E+00  0.1463E+02  0.1464E+02
     23.517 -0.5662E-01 -0.7010E-01  0.1463E+02  0.1463E+02
     23.619 -0.1371E-01 -0.4868E-01  0.1463E+02  0.1463E+02
     23.721 -0.1601E-02 -0.1044E-01  0.1463E+02  0.1463E+02
     23.823 -0.1011E-03 -0.1110E-02  0.1463E+02  0.1463E+02
     23.925 -0.3599E-05 -0.6433E-04  0.1463E+02  0.1463E+02
     24.027 -0.7375E-07 -0.2111E-05  0.1463E+02  0.1463E+02
     24.128 -0.8791E-09 -0.3996E-07  0.1463E+02  0.1463E+02
     24.230 -0.1989E-10 -0.4405E-09  0.1462E+02  0.1463E+02
     24.332 -0.1815E-08 -0.5165E-10  0.1462E+02  0.1462E+02
     24.434 -0.1400E-06 -0.5635E-08  0.1462E+02  0.1462E+02
     24.536 -0.6275E-05 -0.3801E-06  0.1462E+02  0.1462E+02
     24.638 -0.1614E-03 -0.1485E-04  0.1462E+02  0.1462E+02
     24.739 -0.2332E-02 -0.3318E-03  0.1462E+02  0.1462E+02
     24.841 -0.1803E-01 -0.4128E-02  0.1462E+02  0.1462E+02
     24.943 -0.6481E-01 -0.2692E-01  0.1462E+02  0.1462E+02
     25.045 -0.3262E-01 -0.7515E-01  0.1461E+02  0.1461E+02
     25.147  0.4477E+00  0.3046E-01  0.1466E+02  0.1462E+02
     25.249  0.1294E+01  0.6549E+00  0.1479E+02  0.1468E+02
     25.351  0.1451E+01  0.1439E+01  0.1494E+02  0.1483E+02
     25.452  0.6770E+00  0.1311E+01  0.1501E+02  0.1496E+02
     25.554  0.3310E-01  0.4672E+00  0.1501E+02  0.1501E+02
     25.656 -0.1099E+00 -0.3483E-01  0.1500E+02  0.1501E+02
     25.758 -0.1061E+00 -0.1050E+00  0.1499E+02  0.1500E+02
     25.860  0.8626E-01 -0.9644E-01  0.1500E+02  0.1499E+02
     25.962  0.7991E+00  0.1342E+00  0.1508E+02  0.1500E+02
     26.063  0.1499E+01  0.8910E+00  0.1523E+02  0.1509E+02
     26.165  0.1193E+01  0.1521E+01  0.1535E+02  0.1525E+02
     26.267  0.3461E+00  0.1110E+01  0.1539E+02  0.1536E+02
     26.369 -0.5751E-01  0.2751E+00  0.1538E+02  0.1539E+02
     26.471 -0.8116E-01 -0.8485E-01  0.1537E+02  0.1538E+02
     26.573 -0.8629E-01 -0.1196E+00  0.1537E+02  0.1537E+02
     26.674  0.2634E-02 -0.3360E-01  0.1537E+02  0.1536E+02
     26.776  0.5788E+00  0.4888E+00  0.1542E+02  0.1541E+02
     26.878  0.1395E+01  0.1330E+01  0.1557E+02  0.1555E+02
     26.980  0.1367E+01  0.1426E+01  0.1571E+02  0.1569E+02
     27.082  0.5394E+00  0.6307E+00  0.1576E+02  0.1576E+02
     27.184 -0.8096E-02  0.2168E-01  0.1576E+02  0.1576E+02
     27.285 -0.7259E-01 -0.7518E-01  0.1575E+02  0.1575E+02
     27.387 -0.3834E-01 -0.3386E-01  0.1575E+02  0.1575E+02
     27.489 -0.5199E-01 -0.3915E-01  0.1574E+02  0.1575E+02
     27.591  0.9308E-02 -0.4287E-01  0.1574E+02  0.1574E+02
     27.693  0.4061E+00  0.1911E+00  0.1579E+02  0.1576E+02
     27.795  0.9423E+00  0.7478E+00  0.1588E+02  0.1584E+02
     27.897  0.8972E+00  0.1013E+01  0.1597E+02  0.1594E+02
     27.998  0.3401E+00  0.5858E+00  0.1601E+02  0.1600E+02
     28.100 -0.1087E-01  0.8667E-01  0.1601E+02  0.1601E+02
     28.202 -0.4571E-01 -0.5187E-01  0.1600E+02  0.1600E+02
     28.304 -0.1371E-01 -0.2551E-01  0.1600E+02  0.1600E+02
     28.406 -0.1869E-02 -0.4688E-02  0.1600E+02  0.1600E+02
     28.508 -0.1356E-03 -0.4394E-03  0.1600E+02  0.1600E+02
     28.609 -0.5508E-05 -0.2269E-04  0.1600E+02  0.1600E+02
     28.711 -0.1283E-06 -0.6667E-06  0.1600E+02  0.1600E+02
     28.813 -0.1735E-08 -0.1132E-07  0.1600E+02  0.1600E+02
     28.915 -0.1371E-10 -0.1121E-09  0.1600E+02  0.1600E+02
     29.017 -0.6377E-13 -0.6508E-12  0.1600E+02  0.1600E+02
     29.119  0.0000E+00 -0.2180E-14  0.1600E+02  0.1600E+02
     29.220  0.0000E+00  0.0000E+00  0.1600E+02  0.1600E+02
     29.322  0.0000E+00  0.0000E+00  0.1600E+02  0.1600E+02
     29.424  0.0000E+00  0.0000E+00  0.1600E+02  0.1600E+02
     29.526  0.0000E+00  0.0000E+00  0.1600E+02  0.1600E+02
     29.628  0.0000E+00  0.0000E+00  0.1600E+02  0.1600E+02
     29.730  0.0000E+00  0.0000E+00  0.1600E+02  0.1600E+02
     29.832  0.0000E+00  0.0000E+00  0.1600E+02  0.1600E+02
