# ['Ni']

107 atoms
1 atom types

    0.0000     9.7415 xlo xhi
    0.0000     9.7415 ylo yhi
    0.0000     9.7415 zlo zhi

    0.0000    -0.0000    -0.0000 xy xz yz

Atoms

1 1     1.6236     1.6236     0.0000
2 1     1.6236     0.0000     1.6236
3 1     0.0000     1.6236     1.6236
4 1     0.0000     0.0000     3.2472
5 1     1.6236     1.6236     3.2472
6 1     1.6236     0.0000     4.8708
7 1     0.0000     1.6236     4.8708
8 1     0.0000     0.0000     6.4944
9 1     1.6236     1.6236     6.4944
10 1     1.6236     0.0000     8.1179
11 1     0.0000     1.6236     8.1179
12 1     0.0000     3.2472     0.0000
13 1     1.6236     4.8708     0.0000
14 1     1.6236     3.2472     1.6236
15 1     0.0000     4.8708     1.6236
16 1     0.0000     3.2472     3.2472
17 1     1.6236     4.8708     3.2472
18 1     1.6236     3.2472     4.8708
19 1     0.0000     4.8708     4.8708
20 1     0.0000     3.2472     6.4944
21 1     1.6236     4.8708     6.4944
22 1     1.6236     3.2472     8.1179
23 1     0.0000     4.8708     8.1179
24 1     0.0000     6.4944     0.0000
25 1     1.6236     8.1179     0.0000
26 1     1.6236     6.4944     1.6236
27 1     0.0000     8.1179     1.6236
28 1     0.0000     6.4944     3.2472
29 1     1.6236     8.1179     3.2472
30 1     1.6236     6.4944     4.8708
31 1     0.0000     8.1179     4.8708
32 1     0.0000     6.4944     6.4944
33 1     1.6236     8.1179     6.4944
34 1     1.6236     6.4944     8.1179
35 1     0.0000     8.1179     8.1179
36 1     3.2472     0.0000     0.0000
37 1     4.8708     1.6236     0.0000
38 1     4.8708     0.0000     1.6236
39 1     3.2472     1.6236     1.6236
40 1     3.2472     0.0000     3.2472
41 1     4.8708     1.6236     3.2472
42 1     4.8708     0.0000     4.8708
43 1     3.2472     1.6236     4.8708
44 1     3.2472     0.0000     6.4944
45 1     4.8708     1.6236     6.4944
46 1     4.8708     0.0000     8.1179
47 1     3.2472     1.6236     8.1179
48 1     3.2472     3.2472     0.0000
49 1     4.8708     4.8708     0.0000
50 1     4.8708     3.2472     1.6236
51 1     3.2472     4.8708     1.6236
52 1     3.2472     3.2472     3.2472
53 1     4.8708     4.8708     3.2472
54 1     4.8708     3.2472     4.8708
55 1     3.2472     4.8708     4.8708
56 1     3.2472     3.2472     6.4944
57 1     4.8708     4.8708     6.4944
58 1     4.8708     3.2472     8.1179
59 1     3.2472     4.8708     8.1179
60 1     3.2472     6.4944     0.0000
61 1     4.8708     8.1179     0.0000
62 1     4.8708     6.4944     1.6236
63 1     3.2472     8.1179     1.6236
64 1     3.2472     6.4944     3.2472
65 1     4.8708     8.1179     3.2472
66 1     4.8708     6.4944     4.8708
67 1     3.2472     8.1179     4.8708
68 1     3.2472     6.4944     6.4944
69 1     4.8708     8.1179     6.4944
70 1     4.8708     6.4944     8.1179
71 1     3.2472     8.1179     8.1179
72 1     6.4944     0.0000     0.0000
73 1     8.1179     1.6236     0.0000
74 1     8.1179     0.0000     1.6236
75 1     6.4944     1.6236     1.6236
76 1     6.4944     0.0000     3.2472
77 1     8.1179     1.6236     3.2472
78 1     8.1179     0.0000     4.8708
79 1     6.4944     1.6236     4.8708
80 1     6.4944     0.0000     6.4944
81 1     8.1179     1.6236     6.4944
82 1     8.1179     0.0000     8.1179
83 1     6.4944     1.6236     8.1179
84 1     6.4944     3.2472     0.0000
85 1     8.1179     4.8708     0.0000
86 1     8.1179     3.2472     1.6236
87 1     6.4944     4.8708     1.6236
88 1     6.4944     3.2472     3.2472
89 1     8.1179     4.8708     3.2472
90 1     8.1179     3.2472     4.8708
91 1     6.4944     4.8708     4.8708
92 1     6.4944     3.2472     6.4944
93 1     8.1179     4.8708     6.4944
94 1     8.1179     3.2472     8.1179
95 1     6.4944     4.8708     8.1179
96 1     6.4944     6.4944     0.0000
97 1     8.1179     8.1179     0.0000
98 1     8.1179     6.4944     1.6236
99 1     6.4944     8.1179     1.6236
100 1     6.4944     6.4944     3.2472
101 1     8.1179     8.1179     3.2472
102 1     8.1179     6.4944     4.8708
103 1     6.4944     8.1179     4.8708
104 1     6.4944     6.4944     6.4944
105 1     8.1179     8.1179     6.4944
106 1     8.1179     6.4944     8.1179
107 1     6.4944     8.1179     8.1179
