# ['Ni']

107 atoms
1 atom types

    0.0000    10.5841 xlo xhi
    0.0000    10.5841 ylo yhi
    0.0000    10.5841 zlo zhi

    0.0000    -0.0000    -0.0000 xy xz yz

Atoms

1 1     1.7640     1.7640     0.0000
2 1     1.7640     0.0000     1.7640
3 1     0.0000     1.7640     1.7640
4 1     0.0000     0.0000     3.5280
5 1     1.7640     1.7640     3.5280
6 1     1.7640     0.0000     5.2921
7 1     0.0000     1.7640     5.2921
8 1     0.0000     0.0000     7.0561
9 1     1.7640     1.7640     7.0561
10 1     1.7640     0.0000     8.8201
11 1     0.0000     1.7640     8.8201
12 1     0.0000     3.5280     0.0000
13 1     1.7640     5.2921     0.0000
14 1     1.7640     3.5280     1.7640
15 1     0.0000     5.2921     1.7640
16 1     0.0000     3.5280     3.5280
17 1     1.7640     5.2921     3.5280
18 1     1.7640     3.5280     5.2921
19 1     0.0000     5.2921     5.2921
20 1     0.0000     3.5280     7.0561
21 1     1.7640     5.2921     7.0561
22 1     1.7640     3.5280     8.8201
23 1     0.0000     5.2921     8.8201
24 1     0.0000     7.0561     0.0000
25 1     1.7640     8.8201     0.0000
26 1     1.7640     7.0561     1.7640
27 1     0.0000     8.8201     1.7640
28 1     0.0000     7.0561     3.5280
29 1     1.7640     8.8201     3.5280
30 1     1.7640     7.0561     5.2921
31 1     0.0000     8.8201     5.2921
32 1     0.0000     7.0561     7.0561
33 1     1.7640     8.8201     7.0561
34 1     1.7640     7.0561     8.8201
35 1     0.0000     8.8201     8.8201
36 1     3.5280     0.0000     0.0000
37 1     5.2921     1.7640     0.0000
38 1     5.2921     0.0000     1.7640
39 1     3.5280     1.7640     1.7640
40 1     3.5280     0.0000     3.5280
41 1     5.2921     1.7640     3.5280
42 1     5.2921     0.0000     5.2921
43 1     3.5280     1.7640     5.2921
44 1     3.5280     0.0000     7.0561
45 1     5.2921     1.7640     7.0561
46 1     5.2921     0.0000     8.8201
47 1     3.5280     1.7640     8.8201
48 1     3.5280     3.5280     0.0000
49 1     5.2921     5.2921     0.0000
50 1     5.2921     3.5280     1.7640
51 1     3.5280     5.2921     1.7640
52 1     3.5280     3.5280     3.5280
53 1     5.2921     5.2921     3.5280
54 1     5.2921     3.5280     5.2921
55 1     3.5280     5.2921     5.2921
56 1     3.5280     3.5280     7.0561
57 1     5.2921     5.2921     7.0561
58 1     5.2921     3.5280     8.8201
59 1     3.5280     5.2921     8.8201
60 1     3.5280     7.0561     0.0000
61 1     5.2921     8.8201     0.0000
62 1     5.2921     7.0561     1.7640
63 1     3.5280     8.8201     1.7640
64 1     3.5280     7.0561     3.5280
65 1     5.2921     8.8201     3.5280
66 1     5.2921     7.0561     5.2921
67 1     3.5280     8.8201     5.2921
68 1     3.5280     7.0561     7.0561
69 1     5.2921     8.8201     7.0561
70 1     5.2921     7.0561     8.8201
71 1     3.5280     8.8201     8.8201
72 1     7.0561     0.0000     0.0000
73 1     8.8201     1.7640     0.0000
74 1     8.8201     0.0000     1.7640
75 1     7.0561     1.7640     1.7640
76 1     7.0561     0.0000     3.5280
77 1     8.8201     1.7640     3.5280
78 1     8.8201     0.0000     5.2921
79 1     7.0561     1.7640     5.2921
80 1     7.0561     0.0000     7.0561
81 1     8.8201     1.7640     7.0561
82 1     8.8201     0.0000     8.8201
83 1     7.0561     1.7640     8.8201
84 1     7.0561     3.5280     0.0000
85 1     8.8201     5.2921     0.0000
86 1     8.8201     3.5280     1.7640
87 1     7.0561     5.2921     1.7640
88 1     7.0561     3.5280     3.5280
89 1     8.8201     5.2921     3.5280
90 1     8.8201     3.5280     5.2921
91 1     7.0561     5.2921     5.2921
92 1     7.0561     3.5280     7.0561
93 1     8.8201     5.2921     7.0561
94 1     8.8201     3.5280     8.8201
95 1     7.0561     5.2921     8.8201
96 1     7.0561     7.0561     0.0000
97 1     8.8201     8.8201     0.0000
98 1     8.8201     7.0561     1.7640
99 1     7.0561     8.8201     1.7640
100 1     7.0561     7.0561     3.5280
101 1     8.8201     8.8201     3.5280
102 1     8.8201     7.0561     5.2921
103 1     7.0561     8.8201     5.2921
104 1     7.0561     7.0561     7.0561
105 1     8.8201     8.8201     7.0561
106 1     8.8201     7.0561     8.8201
107 1     7.0561     8.8201     8.8201
