LAMMPS (11 Aug 2017)
# ---- initialize simulations
clear
units metal
dimension 3
boundary p p p
atom_style atomic
atom_modify map array
# ---- create atoms
read_data /ufrc/phillpot/eragasa/pareto_optimization_3.5NN/rank_58/Ni_hcp.lmps_min_all/lammps.structure
  triclinic box = (0 0 0) to (3.6 6.2354 5.8788) with tilt (0 0 0)
  1 by 1 by 1 MPI processor grid
  reading atoms ...
  4 atoms
# ---- define interatomic potential
include potential.mod
mass 1 58.6934

group Ni type 1
4 atoms in group Ni

pair_style eam/alloy
pair_coeff * * /ufrc/phillpot/eragasa/pareto_optimization_3.5NN/rank_58/Ni_hcp.lmps_min_all/Ni.eam.alloy Ni

neighbor 1.0 bin
neigh_modify every 1 delay 0 check yes
# ---- define settings
compute eng all pe/atom
compute eatoms all reduce sum c_eng
# ---- run minimization
reset_timestep 0
fix 1 all box/relax aniso 0.0 vmax 0.001
thermo 10
thermo_style custom step pe xhi xlo yhi ylo zhi xy xz yz press pxx pyy pzz pxy pxz pyz c_eatoms
min_style cg
minimize 1e-25 1e-25 5000 10000
Neighbor list info ...
  update every 1 steps, delay 0 steps, check yes
  max neighbors/atom: 2000, page size: 100000
  master list distance cutoff = 5.64464
  ghost atom cutoff = 5.64464
  binsize = 2.82232, bins = 2 3 3
  1 neighbor lists, perpetual/occasional/extra = 1 0 0
  (1) pair eam/alloy, perpetual
      attributes: half, newton on
      pair build: half/bin/newton/tri
      stencil: half/bin/3d/newton/tri
      bin: standard
Per MPI rank memory allocation (min/avg/max) = 4.194 | 4.194 | 4.194 Mbytes
Step PotEng Xhi Xlo Yhi Ylo Zhi Xy Xz Yz Press Pxx Pyy Pzz Pxy Pxz Pyz c_eatoms 
       0   -5.1157792          3.6            0       6.2354            0       5.8788            0            0            0   -78628.125   -78628.498   -78627.861   -78628.016 2.695846e-12 -6.739615e-13 2.695846e-12   -5.1157792 
      10   -5.3106056        3.582        0.018    6.2042232  0.031176753    5.8494062            0            0            0   -80665.593    -80665.95   -80665.334   -80665.495 -5.6327027e-12 -2.4419231e-12 -5.5567317e-12   -5.3106056 
      20   -5.5064618        3.564        0.036    6.1730465  0.062353517    5.8200123            0            0            0   -82737.094   -82737.436    -82736.84   -82737.007 7.8879815e-12 5.717388e-12 -5.7285766e-12   -5.5064618 
      30   -5.7032615        3.546        0.054    6.1418697  0.093530294    5.7906185            0            0            0   -84836.575   -84836.899   -84836.327     -84836.5 -3.8768501e-12 9.6921253e-13 -5.9075811e-12   -5.7032615 
      40   -5.9009007        3.528        0.072    6.1106929   0.12470708    5.7612246            0            0            0   -86956.177   -86956.481   -86955.935   -86956.114 5.6656291e-12 -3.8088263e-13            0   -5.9009007 
      50   -6.0992552         3.51         0.09    6.0795161   0.15588388    5.7318307            0            0            0   -89085.844   -89086.126    -89085.61   -89085.795 2.0143172e-12 8.352047e-13 6.2886001e-12   -6.0992552 
      60   -6.2981766        3.492        0.108    6.0483393    0.1870607    5.7024369            0            0            0   -91212.848   -91213.107   -91212.623   -91212.814 3.245721e-12 6.491442e-12 1.8257181e-11   -6.2981766 
      70   -6.4974881        3.474        0.126    6.0171625   0.21823752     5.673043            0            0            0   -93321.211   -93321.443   -93320.996   -93321.193 3.7704951e-12 1.6757756e-12 5.3415347e-12   -6.4974881 
      80     -6.69698        3.456        0.144    5.9859856   0.24941436     5.643649            0            0            0   -95391.004   -95391.206   -95390.802   -95391.004 8.6550821e-13 1.7310164e-12 2.2070459e-11     -6.69698 
      90   -6.8964798        3.438   0.16199999    5.9548088   0.28059125    5.6142551            0            0            0   -97759.337   -97759.164   -97759.488   -97759.358 6.7076705e-12 3.5774243e-12 -2.85076e-11   -6.8964798 
     100   -7.0980246    3.4200001   0.17999993    5.9236318   0.31176825    5.5848611            0            0            0   -101405.72    -101405.5    -101405.9   -101405.77 -9.2450036e-13 -5.5470021e-12 -3.1201887e-12   -7.0980246 
     110   -7.3022105    3.4020001   0.19799987    5.8924548   0.34294525    5.5554672            0            0            0   -104897.33   -104897.05   -104897.54   -104897.41 1.9120294e-12 -3.8240587e-12 1.2667195e-11   -7.3022105 
     120   -7.5084355    3.3840002   0.21599979    5.8612778   0.37412225    5.5260732            0            0            0   -108193.78   -108193.43   -108194.02    -108193.9 -2.9669333e-12 -7.9118222e-12 -9.1480445e-12   -7.5084355 
     130   -7.7160398    3.3660003   0.23399969    5.8301008   0.40529925    5.4966792            0            0            0   -111244.17   -111243.74   -111244.44   -111244.32 1.0234739e-11 6.1408432e-12 2.7633794e-11   -7.7160398 
     140   -7.9242912    3.3480004   0.25199958    5.7989238   0.43647625    5.4672852            0            0            0   -113984.83   -113984.33   -113985.14   -113985.02 3.7085758e-12 6.3575585e-12 -3.7085758e-12   -7.9242912 
     150   -8.1323693    3.3300006   0.26999945    5.7677468   0.46765325    5.4378913            0            0            0   -116336.67   -116336.09   -116337.02   -116336.91 -3.8410122e-12 2.1948641e-12 -8.2307405e-13   -8.1323693 
     160   -8.3393463    3.3120007    0.2879993    5.7365698   0.49883025    5.4084973            0            0            0   -118201.91   -118201.23   -118202.31   -118202.19 -1.1370944e-12 6.8225662e-12 -3.1270095e-11   -8.3393463 
     170    -8.544165    3.2940009   0.30599913    5.7053928   0.53000725    5.3791033            0            0            0    -119460.1   -119459.32   -119460.55   -119460.43 -1.7680367e-12 7.072147e-12 -1.5912331e-11    -8.544165 
     180    -8.745614    3.2760011   0.32399893    5.6742158   0.56118425    5.3497094            0            0            0   -119963.37   -119962.47   -119963.88   -119963.76 -1.8335127e-12 -9.7787347e-12 -3.4225571e-11    -8.745614 
     190   -8.9422972    3.2580013   0.34199871    5.6430388   0.59236125    5.3203154            0            0            0   -119530.58   -119529.56   -119531.16   -119531.03 2.5363494e-12 -1.2681747e-12 -2.409532e-11   -8.9422972 
     200      -9.1326    3.2400016   0.35999845    5.6118618   0.62353825    5.2909214            0            0            0   -117940.26   -117939.11   -117940.91   -117940.78 2.6326558e-12 3.9489838e-12 -3.9489838e-11      -9.1326 
     210    -9.314649    3.2220019   0.37799814    5.5806848   0.65471525    5.2615274            0            0            0   -114921.82   -114920.69   -114922.72   -114922.03 2.0504252e-12 1.2302551e-11 2.1529464e-11    -9.314649 
     220   -9.4858697    3.2041545   0.39584551    5.5497715   0.68562849    5.2321335            0            0            0   -110899.66   -110182.59   -110184.85   -112331.54 2.1298404e-12 2.8397872e-12 -3.3722473e-11   -9.4858697 
     230    -9.643338    3.1866663   0.41333374    5.5194802   0.71591977    5.2027395            0            0            0   -104866.59   -103447.39   -103449.88    -107702.5 7.3742134e-13 1.4748427e-12 1.8435533e-11    -9.643338 
     240   -9.7846304    3.1695669   0.43043308    5.4898624   0.74553758    5.1733455            0            0            0   -96459.819    -94387.65   -94390.367   -100601.44 6.1271759e-12 3.063588e-12 4.9783304e-12   -9.7846304 
     250   -9.9071142    3.1529054   0.44709462    5.4610027   0.77439726    5.1439515            0            0            0   -85293.641   -82656.765   -82659.682   -90564.476 1.0339461e-11 3.1813726e-12 -1.2526655e-11   -9.9071142 
     260   -10.008395    3.1367361   0.46326387    5.4329956   0.80240438    5.1145575            0            0            0   -72768.074   -70185.585   -70187.488   -77931.148 -2.9996512e-12 -9.3021441e-12 -6.9443538e-12   -10.008395 
     270   -10.093904     3.120212   0.47978803    5.4043739   0.83102609    5.0851635            0            0            0   -60975.452   -59953.267   -59955.448   -63017.641            0 -2.0326382e-11 -1.5150931e-11   -10.093904 
     280   -10.161782    3.1026161   0.49738389    5.3738955   0.86150451    5.0558684            0            0            0   -43484.021   -44041.774    -44044.11   -42366.181 1.2008372e-11 3.0048856e-11 5.9259918e-11   -10.161782 
     290   -10.201694    3.0846174   0.51538259    5.3427185   0.89268151    5.0295355            0            0            0   -20090.795   -21770.481    -21772.57   -16729.335 -9.1299503e-12 -1.8376206e-11 -8.8391876e-12   -10.201694 
     300   -10.210703    3.0694892   0.53051082    5.3165101   0.91888994    5.0203054            0            0            0  -0.35058661   -11.667146   -11.688544     22.30393 5.1557143e-11 1.0765993e-11 -1.031741e-11   -10.210703 
     310   -10.210703    3.0694724   0.53052756    5.3164908   0.91890924    5.0203459            0            0            0 1.6720266e-08 1.5215974e-08 1.5018358e-08 1.9926466e-08 4.7848975e-11 2.3924487e-13 -1.5102333e-11   -10.210703 
     312   -10.210703    3.0694724   0.53052756    5.3164908   0.91890924    5.0203459            0            0            0 -4.7641131e-10 1.2416809e-09 1.6706619e-09 -4.3415767e-09 -1.5311672e-11 9.5697949e-13 6.3848475e-11   -10.210703 
Loop time of 0.032357 on 1 procs for 312 steps with 4 atoms

10.8% CPU use with 1 MPI tasks x no OpenMP threads

Minimization stats:
  Stopping criterion = energy tolerance
  Energy initial, next-to-last, final = 
        -5.11577922121     -10.2107032139     -10.2107032139
  Force two-norm initial, final = 11.2172 2.15114e-13
  Force max component initial, final = 6.47627 1.77866e-13
  Final line search alpha, max atom move = 1 1.77866e-13
  Iterations, force evaluations = 312 326

MPI task timing breakdown:
Section |  min time  |  avg time  |  max time  |%varavg| %total
---------------------------------------------------------------
Pair    | 0.0015581  | 0.0015581  | 0.0015581  |   0.0 |  4.82
Neigh   | 6.6996e-05 | 6.6996e-05 | 6.6996e-05 |   0.0 |  0.21
Comm    | 0.00035739 | 0.00035739 | 0.00035739 |   0.0 |  1.10
Output  | 0.029171   | 0.029171   | 0.029171   |   0.0 | 90.16
Modify  | 0          | 0          | 0          |   0.0 |  0.00
Other   |            | 0.001203   |            |       |  3.72

Nlocal:    4 ave 4 max 4 min
Histogram: 1 0 0 0 0 0 0 0 0 0
Nghost:    266 ave 266 max 266 min
Histogram: 1 0 0 0 0 0 0 0 0 0
Neighs:    112 ave 112 max 112 min
Histogram: 1 0 0 0 0 0 0 0 0 0

Total # of neighbors = 112
Ave neighs/atom = 28
Neighbor list builds = 5
Dangerous builds = 0
# ---- define output variables ----
variable natoms equal "count(all)"
variable tot_energy equal "c_eatoms"
variable a11 equal "xhi-xlo"
variable a22 equal "yhi-ylo"
variable a33 equal "zhi-zlo"
variable tilt_xy equal "xy"
variable tilt_xz equal "xz"
variable tilt_yz equal "yz"
variable tot_press equal "press"
variable press_xx equal "pxx"
variable press_yy equal "pyy"
variable press_zz equal "pzz"
variable press_xy equal "pxy"
variable press_xz equal "pxz"
variable press_yz equal "pyz"

# ---- output ----
print "pypospack:output_section:begin"
pypospack:output_section:begin
print "tot_energy = ${tot_energy}"
tot_energy = -10.2107032138967
print "num_atoms = ${natoms}"
num_atoms = 4
print "a11 = ${a11}"
a11 = 2.53894487071447
print "a22 = ${a22}"
a22 = 4.39758151369384
print "a33 = ${a33}"
a33 = 4.16189189815767
print "a12 = ${tilt_xy}"
a12 = 0
print "a13 = ${tilt_xz}"
a13 = 0
print "a23 = ${tilt_yz}"
a23 = 0
print "tot_press = ${tot_press}"
tot_press = -4.76411306287017e-10
print "pxx = ${press_xx}"
pxx = 1.2416808911859e-09
print "pyy = ${press_yy}"
pyy = 1.6706619013886e-09
print "pzz = ${press_zz}"
pzz = -4.34157671143555e-09
print "pxy = ${press_xy}"
pxy = -1.53116718758955e-11
print "pxz = ${press_xz}"
pxz = 9.56979492243467e-13
print "pyz = ${press_yz}"
pyz = 6.38484754981188e-11
print "pypospack:output_section:done"
pypospack:output_section:done
print "pypospack:lammps_sim:done"
pypospack:lammps_sim:done
Total wall time: 0:00:00
