   4   4   0   0
  0.1064635E+02  0.3492102E-09  0.3492102E-09  0.3492102E-09  0.5000000E-15
  1.000000000000000E-004
  CAR 
 automatically generated by pyflamestk   
     33.67470111     -0.87927045  301      9.53517323      1.00000000
     -0.879  0.0000E+00  0.0000E+00  0.0000E+00  0.0000E+00
     -0.764  0.0000E+00  0.0000E+00  0.0000E+00  0.0000E+00
     -0.649  0.0000E+00  0.0000E+00  0.0000E+00  0.0000E+00
     -0.534 -0.4819E-29 -0.4835E-29 -0.5550E-30 -0.5569E-30
     -0.419 -0.4421E-25 -0.4435E-25 -0.5093E-26 -0.5109E-26
     -0.303 -0.2078E-21 -0.2084E-21 -0.2394E-22 -0.2401E-22
     -0.188 -0.4999E-18 -0.5012E-18 -0.5760E-19 -0.5775E-19
     -0.073 -0.6145E-15 -0.6159E-15 -0.7083E-16 -0.7100E-16
      0.042 -0.3722E-12 -0.3731E-12 -0.4295E-13 -0.4304E-13
      0.157 -0.1178E-09 -0.1180E-09 -0.1361E-10 -0.1363E-10
      0.273 -0.1881E-07 -0.1885E-07 -0.2181E-08 -0.2184E-08
      0.388 -0.1505E-05 -0.1508E-05 -0.1756E-06 -0.1758E-06
      0.503 -0.5942E-04 -0.5949E-04 -0.7020E-05 -0.7028E-05
      0.618 -0.1122E-02 -0.1123E-02 -0.1362E-03 -0.1364E-03
      0.733 -0.9375E-02 -0.9381E-02 -0.1216E-02 -0.1217E-02
      0.848 -0.2534E-01 -0.2534E-01 -0.4134E-02 -0.4135E-02
      0.964  0.5073E-01  0.5080E-01  0.1709E-02  0.1716E-02
      1.079  0.3396E+00  0.3397E+00  0.4083E-01  0.4085E-01
      1.194  0.5006E+00  0.5006E+00  0.9849E-01  0.9851E-01
      1.309  0.2497E+00  0.2496E+00  0.1272E+00  0.1273E+00
      1.424  0.9609E-02  0.9567E-02  0.1284E+00  0.1284E+00
      1.540 -0.2281E-01 -0.2280E-01  0.1257E+00  0.1257E+00
      1.655 -0.5766E-02 -0.5762E-02  0.1251E+00  0.1251E+00
      1.770 -0.5458E-03 -0.5453E-03  0.1250E+00  0.1250E+00
      1.885 -0.2573E-04 -0.2570E-04  0.1250E+00  0.1250E+00
      2.000 -0.9758E-04 -0.9772E-04  0.1250E+00  0.1250E+00
      2.115 -0.2100E-02 -0.2103E-02  0.1247E+00  0.1247E+00
      2.231 -0.2054E-01 -0.2055E-01  0.1224E+00  0.1224E+00
      2.346 -0.7223E-01 -0.7225E-01  0.1141E+00  0.1141E+00
      2.461  0.6401E-01  0.6418E-01  0.1214E+00  0.1215E+00
      2.576  0.8404E+00  0.8409E+00  0.2182E+00  0.2183E+00
      2.691  0.1515E+01  0.1515E+01  0.3927E+00  0.3928E+00
      2.806  0.9291E+00  0.9287E+00  0.4997E+00  0.4997E+00
      2.922  0.1043E+00  0.1041E+00  0.5117E+00  0.5117E+00
      3.037 -0.7484E-01 -0.7483E-01  0.5031E+00  0.5031E+00
      3.152 -0.2408E-01 -0.2406E-01  0.5003E+00  0.5003E+00
      3.267 -0.2746E-02 -0.2743E-02  0.5000E+00  0.5000E+00
      3.382 -0.2071E-02 -0.2074E-02  0.4998E+00  0.4998E+00
      3.498 -0.1945E-01 -0.1947E-01  0.4975E+00  0.4975E+00
      3.613 -0.7111E-01 -0.7114E-01  0.4893E+00  0.4893E+00
      3.728  0.5199E-01  0.5224E-01  0.4953E+00  0.4953E+00
      3.843  0.8109E+00  0.8115E+00  0.5887E+00  0.5888E+00
      3.958  0.1512E+01  0.1512E+01  0.7628E+00  0.7629E+00
      4.073  0.9552E+00  0.9545E+00  0.8729E+00  0.8729E+00
      4.189  0.1014E+00  0.1011E+00  0.8845E+00  0.8845E+00
      4.304 -0.9614E-01 -0.9607E-01  0.8735E+00  0.8735E+00
      4.419  0.9268E-01  0.9301E-01  0.8841E+00  0.8842E+00
      4.534  0.3833E+00  0.3836E+00  0.9283E+00  0.9284E+00
      4.649  0.6926E+00  0.6932E+00  0.1008E+01  0.1008E+01
      4.765  0.1300E+01  0.1300E+01  0.1158E+01  0.1158E+01
      4.880  0.1388E+01  0.1388E+01  0.1318E+01  0.1318E+01
      4.995  0.4336E+00  0.4323E+00  0.1368E+01  0.1368E+01
      5.110 -0.2091E-01 -0.2002E-01  0.1365E+01  0.1365E+01
      5.225  0.1146E+01  0.1150E+01  0.1497E+01  0.1498E+01
      5.340  0.2876E+01  0.2878E+01  0.1828E+01  0.1829E+01
      5.456  0.3519E+01  0.3518E+01  0.2234E+01  0.2235E+01
      5.571  0.3329E+01  0.3327E+01  0.2617E+01  0.2618E+01
      5.686  0.1835E+01  0.1832E+01  0.2829E+01  0.2829E+01
      5.801  0.7453E+00  0.7475E+00  0.2914E+01  0.2915E+01
      5.916  0.2820E+01  0.2828E+01  0.3239E+01  0.3240E+01
      6.032  0.5201E+01  0.5202E+01  0.3838E+01  0.3840E+01
      6.147  0.3857E+01  0.3851E+01  0.4282E+01  0.4283E+01
      6.262  0.2486E+01  0.2487E+01  0.4569E+01  0.4570E+01
      6.377  0.3908E+01  0.3911E+01  0.5019E+01  0.5020E+01
      6.492  0.3534E+01  0.3530E+01  0.5426E+01  0.5427E+01
      6.607  0.2348E+01  0.2349E+01  0.5696E+01  0.5697E+01
      6.723  0.3409E+01  0.3411E+01  0.6089E+01  0.6090E+01
      6.838  0.3535E+01  0.3532E+01  0.6496E+01  0.6497E+01
      6.953  0.2642E+01  0.2641E+01  0.6800E+01  0.6801E+01
      7.068  0.3219E+01  0.3223E+01  0.7171E+01  0.7172E+01
      7.183  0.4845E+01  0.4852E+01  0.7729E+01  0.7731E+01
      7.299  0.6699E+01  0.6701E+01  0.8501E+01  0.8503E+01
      7.414  0.6514E+01  0.6508E+01  0.9251E+01  0.9253E+01
      7.529  0.4062E+01  0.4057E+01  0.9719E+01  0.9720E+01
      7.644  0.3200E+01  0.3204E+01  0.1009E+02  0.1009E+02
      7.759  0.5447E+01  0.5456E+01  0.1072E+02  0.1072E+02
      7.874  0.7833E+01  0.7836E+01  0.1162E+02  0.1162E+02
      7.990  0.7228E+01  0.7221E+01  0.1245E+02  0.1245E+02
      8.105  0.3863E+01  0.3854E+01  0.1289E+02  0.1290E+02
      8.220  0.1970E+01  0.1971E+01  0.1312E+02  0.1312E+02
      8.335  0.3469E+01  0.3476E+01  0.1352E+02  0.1352E+02
      8.450  0.4238E+01  0.4236E+01  0.1401E+02  0.1401E+02
      8.565  0.4570E+01  0.4576E+01  0.1454E+02  0.1454E+02
      8.681  0.7234E+01  0.7243E+01  0.1537E+02  0.1537E+02
      8.796  0.7478E+01  0.7469E+01  0.1623E+02  0.1623E+02
      8.911  0.3651E+01  0.3638E+01  0.1665E+02  0.1665E+02
      9.026  0.1882E+01  0.1885E+01  0.1687E+02  0.1687E+02
      9.141  0.4414E+01  0.4425E+01  0.1738E+02  0.1738E+02
      9.257  0.6721E+01  0.6722E+01  0.1815E+02  0.1815E+02
      9.372  0.5884E+01  0.5880E+01  0.1883E+02  0.1883E+02
      9.487  0.6581E+01  0.6589E+01  0.1959E+02  0.1959E+02
      9.602  0.8718E+01  0.8718E+01  0.2059E+02  0.2059E+02
      9.717  0.6062E+01  0.6045E+01  0.2129E+02  0.2129E+02
      9.832  0.1340E+01  0.1329E+01  0.2144E+02  0.2144E+02
      9.948 -0.3469E+00 -0.3478E+00  0.2140E+02  0.2140E+02
     10.063 -0.2024E+00 -0.2015E+00  0.2138E+02  0.2138E+02
     10.178 -0.3269E-01 -0.3245E-01  0.2138E+02  0.2138E+02
     10.293 -0.2334E-02 -0.2312E-02  0.2138E+02  0.2138E+02
     10.408 -0.1130E-03 -0.1124E-03  0.2137E+02  0.2137E+02
     10.524 -0.1092E-02 -0.1100E-02  0.2137E+02  0.2137E+02
     10.639 -0.1730E-01 -0.1740E-01  0.2137E+02  0.2137E+02
     10.754 -0.1178E+00 -0.1182E+00  0.2136E+02  0.2136E+02
     10.869 -0.2082E+00 -0.2077E+00  0.2134E+02  0.2134E+02
     10.984  0.8794E+00  0.8846E+00  0.2144E+02  0.2144E+02
     11.099  0.3643E+01  0.3649E+01  0.2186E+02  0.2186E+02
     11.215  0.4261E+01  0.4257E+01  0.2235E+02  0.2235E+02
     11.330  0.1625E+01  0.1618E+01  0.2253E+02  0.2253E+02
     11.445 -0.9002E-01 -0.9148E-01  0.2252E+02  0.2252E+02
     11.560 -0.1701E+00 -0.1697E+00  0.2250E+02  0.2250E+02
     11.675 -0.3381E-01 -0.3364E-01  0.2250E+02  0.2250E+02
     11.791 -0.3484E-02 -0.3470E-02  0.2250E+02  0.2250E+02
     11.906 -0.1036E-01 -0.1039E-01  0.2250E+02  0.2250E+02
     12.021 -0.5433E-01 -0.5442E-01  0.2249E+02  0.2249E+02
     12.136 -0.3907E-01 -0.3879E-01  0.2249E+02  0.2249E+02
     12.251  0.5037E+00  0.5051E+00  0.2255E+02  0.2255E+02
     12.366  0.1400E+01  0.1401E+01  0.2271E+02  0.2271E+02
     12.482  0.1249E+01  0.1248E+01  0.2285E+02  0.2285E+02
     12.597  0.3222E+00  0.3210E+00  0.2289E+02  0.2289E+02
     12.712 -0.6717E-01 -0.6729E-01  0.2288E+02  0.2288E+02
     12.827 -0.4185E-01 -0.4176E-01  0.2288E+02  0.2288E+02
     12.942 -0.1175E-01 -0.1175E-01  0.2287E+02  0.2287E+02
     13.057 -0.3851E-01 -0.3860E-01  0.2287E+02  0.2287E+02
     13.173 -0.7126E-01 -0.7117E-01  0.2286E+02  0.2286E+02
     13.288  0.2772E+00  0.2785E+00  0.2289E+02  0.2289E+02
     13.403  0.1199E+01  0.1200E+01  0.2303E+02  0.2303E+02
     13.518  0.1433E+01  0.1432E+01  0.2320E+02  0.2320E+02
     13.633  0.5595E+00  0.5579E+00  0.2326E+02  0.2326E+02
     13.749 -0.2674E-01 -0.2712E-01  0.2326E+02  0.2326E+02
     13.864 -0.5791E-01 -0.5781E-01  0.2325E+02  0.2325E+02
     13.979 -0.1170E-01 -0.1166E-01  0.2325E+02  0.2325E+02
     14.094 -0.1906E-02 -0.1906E-02  0.2325E+02  0.2325E+02
     14.209 -0.1436E-01 -0.1441E-01  0.2325E+02  0.2325E+02
     14.324 -0.8945E-01 -0.8963E-01  0.2324E+02  0.2324E+02
     14.440 -0.1242E+00 -0.1239E+00  0.2322E+02  0.2322E+02
     14.555  0.7313E+00  0.7338E+00  0.2331E+02  0.2331E+02
     14.670  0.2586E+01  0.2588E+01  0.2361E+02  0.2361E+02
     14.785  0.2734E+01  0.2731E+01  0.2392E+02  0.2392E+02
     14.900  0.9087E+00  0.9059E+00  0.2403E+02  0.2403E+02
     15.016 -0.9702E-01 -0.9751E-01  0.2401E+02  0.2401E+02
     15.131 -0.1020E+00 -0.1018E+00  0.2400E+02  0.2400E+02
     15.246 -0.1817E-01 -0.1811E-01  0.2400E+02  0.2400E+02
     15.361 -0.1333E-02 -0.1327E-02  0.2400E+02  0.2400E+02
     15.476 -0.4580E-04 -0.4553E-04  0.2400E+02  0.2400E+02
     15.591 -0.7567E-05 -0.7609E-05  0.2400E+02  0.2400E+02
     15.707 -0.2494E-03 -0.2508E-03  0.2400E+02  0.2400E+02
     15.822 -0.4352E-02 -0.4371E-02  0.2400E+02  0.2400E+02
     15.937 -0.3315E-01 -0.3324E-01  0.2400E+02  0.2400E+02
     16.052 -0.7494E-01 -0.7490E-01  0.2399E+02  0.2399E+02
     16.167  0.2140E+00  0.2152E+00  0.2401E+02  0.2401E+02
     16.283  0.1116E+01  0.1118E+01  0.2414E+02  0.2414E+02
     16.398  0.1472E+01  0.1471E+01  0.2431E+02  0.2431E+02
     16.513  0.6378E+00  0.6361E+00  0.2438E+02  0.2438E+02
     16.628 -0.5774E-01 -0.5833E-01  0.2438E+02  0.2438E+02
     16.743 -0.1026E+00 -0.1022E+00  0.2436E+02  0.2436E+02
     16.858  0.4880E+00  0.4895E+00  0.2442E+02  0.2442E+02
     16.974  0.1398E+01  0.1399E+01  0.2458E+02  0.2458E+02
     17.089  0.1251E+01  0.1249E+01  0.2473E+02  0.2473E+02
     17.204  0.3234E+00  0.3222E+00  0.2476E+02  0.2476E+02
     17.319 -0.6713E-01 -0.6725E-01  0.2476E+02  0.2476E+02
     17.434 -0.4403E-01 -0.4395E-01  0.2475E+02  0.2475E+02
     17.550 -0.3434E-01 -0.3439E-01  0.2475E+02  0.2475E+02
     17.665 -0.1263E+00 -0.1264E+00  0.2473E+02  0.2473E+02
     17.780 -0.9426E-02 -0.8722E-02  0.2473E+02  0.2473E+02
     17.895  0.1288E+01  0.1290E+01  0.2488E+02  0.2488E+02
     18.010  0.2942E+01  0.2943E+01  0.2522E+02  0.2522E+02
     18.125  0.2240E+01  0.2237E+01  0.2548E+02  0.2548E+02
     18.241  0.4325E+00  0.4309E+00  0.2553E+02  0.2553E+02
     18.356 -0.1584E+00 -0.1585E+00  0.2551E+02  0.2551E+02
     18.471 -0.9198E-01 -0.9185E-01  0.2550E+02  0.2550E+02
     18.586  0.3440E-01  0.3468E-01  0.2550E+02  0.2550E+02
     18.701  0.3256E+00  0.3261E+00  0.2554E+02  0.2554E+02
     18.816  0.5031E+00  0.5030E+00  0.2560E+02  0.2560E+02
     18.932  0.2635E+00  0.2630E+00  0.2563E+02  0.2563E+02
     19.047  0.1467E-01  0.1449E-01  0.2563E+02  0.2563E+02
     19.162 -0.2374E-01 -0.2372E-01  0.2563E+02  0.2563E+02
     19.277 -0.1231E-01 -0.1232E-01  0.2562E+02  0.2562E+02
     19.392 -0.5320E-01 -0.5331E-01  0.2562E+02  0.2562E+02
     19.508 -0.1515E+00 -0.1515E+00  0.2560E+02  0.2560E+02
     19.623  0.2606E+00  0.2619E+00  0.2563E+02  0.2563E+02
     19.738  0.1959E+01  0.1962E+01  0.2586E+02  0.2586E+02
     19.853  0.3018E+01  0.3018E+01  0.2620E+02  0.2620E+02
     19.968  0.1578E+01  0.1576E+01  0.2639E+02  0.2639E+02
     20.083  0.8683E-01  0.8586E-01  0.2640E+02  0.2640E+02
     20.199 -0.1447E+00 -0.1446E+00  0.2638E+02  0.2638E+02
     20.314 -0.6988E-01 -0.6984E-01  0.2637E+02  0.2637E+02
     20.429 -0.7888E-01 -0.7884E-01  0.2636E+02  0.2636E+02
     20.544  0.2061E+00  0.2068E+00  0.2639E+02  0.2639E+02
     20.659  0.1105E+01  0.1106E+01  0.2651E+02  0.2651E+02
     20.775  0.1477E+01  0.1476E+01  0.2668E+02  0.2668E+02
     20.890  0.6599E+00  0.6588E+00  0.2676E+02  0.2676E+02
     21.005 -0.8421E-04 -0.4208E-03  0.2676E+02  0.2676E+02
     21.120 -0.6482E-01 -0.6476E-01  0.2675E+02  0.2675E+02
     21.235 -0.2895E-01 -0.2895E-01  0.2675E+02  0.2675E+02
     21.350 -0.9126E-01 -0.9138E-01  0.2674E+02  0.2674E+02
     21.466 -0.1247E+00 -0.1245E+00  0.2672E+02  0.2672E+02
     21.581  0.7234E+00  0.7250E+00  0.2681E+02  0.2681E+02
     21.696  0.2528E+01  0.2529E+01  0.2710E+02  0.2710E+02
     21.811  0.2730E+01  0.2729E+01  0.2741E+02  0.2741E+02
     21.926  0.1567E+01  0.1567E+01  0.2759E+02  0.2759E+02
     22.042  0.1381E+01  0.1381E+01  0.2775E+02  0.2775E+02
     22.157  0.9972E+00  0.9965E+00  0.2787E+02  0.2787E+02
     22.272  0.1817E+00  0.1811E+00  0.2789E+02  0.2789E+02
     22.387 -0.1013E+00 -0.1014E+00  0.2788E+02  0.2788E+02
     22.502 -0.1252E+00 -0.1252E+00  0.2786E+02  0.2786E+02
     22.617  0.1457E-01  0.1507E-01  0.2786E+02  0.2786E+02
     22.733  0.9431E+00  0.9447E+00  0.2797E+02  0.2797E+02
     22.848  0.2311E+01  0.2312E+01  0.2824E+02  0.2824E+02
     22.963  0.2382E+01  0.2381E+01  0.2851E+02  0.2851E+02
     23.078  0.1051E+01  0.1050E+01  0.2863E+02  0.2863E+02
     23.193  0.5359E-01  0.5314E-01  0.2864E+02  0.2864E+02
     23.309 -0.1019E+00 -0.1018E+00  0.2863E+02  0.2863E+02
     23.424 -0.6363E-01 -0.6364E-01  0.2862E+02  0.2862E+02
     23.539 -0.1009E+00 -0.1009E+00  0.2861E+02  0.2861E+02
     23.654  0.1027E+00  0.1033E+00  0.2862E+02  0.2862E+02
     23.769  0.1065E+01  0.1067E+01  0.2874E+02  0.2874E+02
     23.884  0.2578E+01  0.2579E+01  0.2904E+02  0.2904E+02
     24.000  0.3501E+01  0.3501E+01  0.2944E+02  0.2944E+02
     24.115  0.2403E+01  0.2401E+01  0.2972E+02  0.2972E+02
     24.230  0.5007E+00  0.4995E+00  0.2978E+02  0.2978E+02
     24.345 -0.1557E+00 -0.1558E+00  0.2976E+02  0.2976E+02
     24.460 -0.7810E-01 -0.7800E-01  0.2975E+02  0.2975E+02
     24.575 -0.1112E-01 -0.1110E-01  0.2975E+02  0.2975E+02
     24.691 -0.7132E-03 -0.7113E-03  0.2975E+02  0.2975E+02
     24.806 -0.8952E-03 -0.8973E-03  0.2975E+02  0.2975E+02
     24.921 -0.1331E-01 -0.1333E-01  0.2975E+02  0.2975E+02
     25.036 -0.8583E-01 -0.8592E-01  0.2974E+02  0.2974E+02
     25.151 -0.1323E+00 -0.1321E+00  0.2972E+02  0.2972E+02
     25.267  0.6638E+00  0.6650E+00  0.2980E+02  0.2980E+02
     25.382  0.2486E+01  0.2487E+01  0.3009E+02  0.3009E+02
     25.497  0.2854E+01  0.2853E+01  0.3041E+02  0.3041E+02
     25.612  0.1606E+01  0.1605E+01  0.3060E+02  0.3060E+02
     25.727  0.9211E+00  0.9208E+00  0.3071E+02  0.3071E+02
     25.842  0.4324E+00  0.4321E+00  0.3076E+02  0.3076E+02
     25.958  0.1424E-01  0.1411E-01  0.3076E+02  0.3076E+02
     26.073 -0.4878E-01 -0.4876E-01  0.3075E+02  0.3075E+02
     26.188 -0.1294E-01 -0.1292E-01  0.3075E+02  0.3075E+02
     26.303 -0.1534E-02 -0.1532E-02  0.3075E+02  0.3075E+02
     26.418 -0.4443E-02 -0.4454E-02  0.3075E+02  0.3075E+02
     26.534 -0.3331E-01 -0.3336E-01  0.3075E+02  0.3075E+02
     26.649 -0.7487E-01 -0.7484E-01  0.3074E+02  0.3074E+02
     26.764  0.2160E+00  0.2166E+00  0.3076E+02  0.3076E+02
     26.879  0.1119E+01  0.1120E+01  0.3089E+02  0.3089E+02
     26.994  0.1471E+01  0.1471E+01  0.3106E+02  0.3106E+02
     27.109  0.6451E+00  0.6441E+00  0.3113E+02  0.3113E+02
     27.225 -0.4374E-02 -0.4647E-02  0.3113E+02  0.3113E+02
     27.340 -0.6301E-01 -0.6296E-01  0.3113E+02  0.3113E+02
     27.455 -0.1405E-01 -0.1402E-01  0.3113E+02  0.3113E+02
     27.570 -0.1233E-02 -0.1230E-02  0.3113E+02  0.3113E+02
     27.685 -0.5388E-03 -0.5397E-03  0.3112E+02  0.3112E+02
     27.801 -0.7242E-02 -0.7254E-02  0.3112E+02  0.3112E+02
     27.916 -0.4500E-01 -0.4505E-01  0.3112E+02  0.3112E+02
     28.031 -0.6160E-01 -0.6152E-01  0.3111E+02  0.3111E+02
     28.146  0.3695E+00  0.3701E+00  0.3115E+02  0.3115E+02
     28.261  0.1296E+01  0.1297E+01  0.3130E+02  0.3130E+02
     28.376  0.1364E+01  0.1363E+01  0.3146E+02  0.3146E+02
     28.492  0.4502E+00  0.4495E+00  0.3151E+02  0.3151E+02
     28.607 -0.4927E-01 -0.4938E-01  0.3151E+02  0.3151E+02
     28.722 -0.5127E-01 -0.5123E-01  0.3150E+02  0.3150E+02
     28.837 -0.1691E-01 -0.1691E-01  0.3150E+02  0.3150E+02
     28.952 -0.4799E-01 -0.4801E-01  0.3149E+02  0.3149E+02
     29.068 -0.5710E-01 -0.5705E-01  0.3149E+02  0.3149E+02
     29.183  0.4019E+00  0.4022E+00  0.3153E+02  0.3153E+02
     29.298  0.1325E+01  0.1326E+01  0.3169E+02  0.3169E+02
     29.413  0.1337E+01  0.1337E+01  0.3184E+02  0.3184E+02
     29.528  0.4163E+00  0.4160E+00  0.3189E+02  0.3189E+02
     29.643 -0.5487E-01 -0.5492E-01  0.3188E+02  0.3188E+02
     29.759 -0.4836E-01 -0.4833E-01  0.3188E+02  0.3188E+02
     29.874 -0.8235E-02 -0.8227E-02  0.3188E+02  0.3188E+02
     29.989 -0.5831E-03 -0.5824E-03  0.3188E+02  0.3188E+02
     30.104 -0.1935E-04 -0.1932E-04  0.3188E+02  0.3188E+02
     30.219 -0.3141E-06 -0.3135E-06  0.3188E+02  0.3188E+02
     30.334 -0.2542E-08 -0.2536E-08  0.3188E+02  0.3188E+02
     30.450 -0.1036E-10 -0.1034E-10  0.3188E+02  0.3188E+02
     30.565 -0.9112E-13 -0.9077E-13  0.3187E+02  0.3187E+02
     30.680 -0.2641E-10 -0.2653E-10  0.3187E+02  0.3187E+02
     30.795 -0.5082E-08 -0.5102E-08  0.3187E+02  0.3187E+02
     30.910 -0.4911E-06 -0.4928E-06  0.3187E+02  0.3187E+02
     31.026 -0.2353E-04 -0.2360E-04  0.3187E+02  0.3187E+02
     31.141 -0.5453E-03 -0.5465E-03  0.3187E+02  0.3187E+02
     31.256 -0.5762E-02 -0.5771E-02  0.3187E+02  0.3187E+02
     31.371 -0.2280E-01 -0.2281E-01  0.3187E+02  0.3187E+02
     31.486  0.9567E-02  0.9663E-02  0.3187E+02  0.3187E+02
     31.601  0.2496E+00  0.2498E+00  0.3190E+02  0.3190E+02
     31.717  0.5006E+00  0.5007E+00  0.3196E+02  0.3196E+02
     31.832  0.3397E+00  0.3395E+00  0.3200E+02  0.3200E+02
     31.947  0.5080E-01  0.5065E-01  0.3200E+02  0.3200E+02
     32.062 -0.2534E-01 -0.2534E-01  0.3200E+02  0.3200E+02
     32.177 -0.9381E-02 -0.9368E-02  0.3200E+02  0.3200E+02
     32.293 -0.1123E-02 -0.1121E-02  0.3200E+02  0.3200E+02
     32.408 -0.5949E-04 -0.5933E-04  0.3200E+02  0.3200E+02
     32.523 -0.1508E-05 -0.1503E-05  0.3200E+02  0.3200E+02
     32.638 -0.1885E-07 -0.1877E-07  0.3200E+02  0.3200E+02
     32.753 -0.1180E-09 -0.1175E-09  0.3200E+02  0.3200E+02
     32.868 -0.3730E-12 -0.3711E-12  0.3200E+02  0.3200E+02
     32.984 -0.7229E-15 -0.7229E-15  0.3200E+02  0.3200E+02
     33.099  0.0000E+00  0.0000E+00  0.3200E+02  0.3200E+02
     33.214  0.0000E+00  0.0000E+00  0.3200E+02  0.3200E+02
     33.329  0.0000E+00  0.0000E+00  0.3200E+02  0.3200E+02
     33.444  0.0000E+00  0.0000E+00  0.3200E+02  0.3200E+02
     33.560  0.0000E+00  0.0000E+00  0.3200E+02  0.3200E+02
     33.675  0.0000E+00  0.0000E+00  0.3200E+02  0.3200E+02
