# ['Ni']

20 atoms
1 atom types

    0.0000     3.1031 xlo xhi
    0.0000     3.1031 ylo yhi
    0.0000    31.0312 zlo zhi

    0.0000    -0.0000     0.0000 xy xz yz

Atoms

1 1     0.0000     0.0000     0.0000
2 1     1.5516     1.5516     0.0000
3 1     1.5516     0.0000     1.5516
4 1     0.0000     1.5516     1.5516
5 1     0.0000     0.0000     3.1031
6 1     1.5516     1.5516     3.1031
7 1     1.5516     0.0000     4.6547
8 1     0.0000     1.5516     4.6547
9 1     0.0000     0.0000     6.2062
10 1     1.5516     1.5516     6.2062
11 1     1.5516     0.0000     7.7578
12 1     0.0000     1.5516     7.7578
13 1     0.0000     0.0000     9.3094
14 1     1.5516     1.5516     9.3094
15 1     1.5516     0.0000    10.8609
16 1     0.0000     1.5516    10.8609
17 1     0.0000     0.0000    12.4125
18 1     1.5516     1.5516    12.4125
19 1     1.5516     0.0000    13.9641
20 1     0.0000     1.5516    13.9641
