# ['Al']

10 atoms
1 atom types

    0.0000     3.9344 xlo xhi
    0.0000     2.8164 ylo yhi
    0.0000    28.1641 zlo zhi

    0.0000     0.0000     0.0000 xy xz yz

Atoms

1 1     0.0000     0.0000     0.0000
2 1     1.9672     1.4082     1.4082
3 1     0.0000     0.0000     2.8164
4 1     1.9672     1.4082     4.2246
5 1     0.0000     0.0000     5.6328
6 1     1.9672     1.4082     7.0410
7 1     0.0000     0.0000     8.4492
8 1     1.9672     1.4082     9.8574
9 1     0.0000     0.0000    11.2656
10 1     1.9672     1.4082    12.6738
