LAMMPS (10 Feb 2015)
# ---- initialize simulations
clear
units metal
dimension 3
boundary p p p
atom_style charge
atom_modify map array
# ---- create atoms
read_data /Users/eugeneragasa/pyflamestk_git/pypospack/tests/tests_integration/workflow/WorkflowLammpsThermalExpansion/MgO_NaCl_unit.npt.T400/lammps.structure
  triclinic box = (0 0 0) to (4.2565 4.2565 4.2565) with tilt (0 0 0)
  1 by 1 by 1 MPI processor grid
  reading atoms ...
  8 atoms
# ---- define interatomic potential
include potential.mod
mass 1 24.305
mass 2 15.999

group Mg type 1
4 atoms in group Mg
group O type 2
4 atoms in group O

set group Mg charge 1.7
  4 settings made for charge
set group O charge -1.7
  4 settings made for charge

variable R_cut equal 10.0

pair_style buck/coul/long ${R_cut}
pair_style buck/coul/long 10
pair_coeff 1 1 0.0 0.5 0.0 ${R_cut}
pair_coeff 1 1 0.0 0.5 0.0 10
pair_coeff 1 2 929.69 0.29909 0.0 ${R_cut}
pair_coeff 1 2 929.69 0.29909 0.0 10
pair_coeff 2 2 4870 0.2679 77 ${R_cut}
pair_coeff 2 2 4870 0.2679 77 10

kspace_style pppm 1.0e-5

neighbor 1.0 bin
neigh_modify every 1 delay 0 check yes
# ---- define settings
compute eng all pe/atom
compute eatoms all reduce sum c_eng
# ---- run minimization
reset_timestep 0
fix 1 all box/relax iso 0.0 vmax 0.001
thermo 10
thermo_style custom step pe lx ly lz xy xz yz press pxx pyy pzz pxy pxz pyz c_eatoms
min_style cg
minimize 1e-25 1e-25 5000 10000
PPPM initialization ...
  G vector (1/distance) = 0.353152
  grid = 8 8 8
  stencil order = 5
  estimated absolute RMS force accuracy = 4.10333e-05
  estimated relative force accuracy = 2.84961e-06
  using double precision FFTs
  3d grid and FFT values/proc = 3375 512
Neighbor list info ...
  1 neighbor list requests
  update every 1 steps, delay 0 steps, check yes
  master list distance cutoff = 11
Memory usage per processor = 4.06549 Mbytes
Step PotEng Lx Ly Lz Xy Xz Yz Press Pxx Pyy Pzz Pxy Pxz Pyz eatoms 
       0   -119.82944       4.2565       4.2565       4.2565            0            0            0   -43102.631   -43102.631   -43102.631   -43102.631 -1.1410716e-10 2.0651384e-11 1.0044018e-10   -119.82944 
       9    -119.8549     4.222448     4.222448     4.222448            0            0            0   -490.28356   -490.28356   -490.28356   -490.28356 -3.7927136e-11 -7.2182599e-11 3.2130495e-11    -119.8549 
Loop time of 0.068505 on 1 procs for 9 steps with 8 atoms

Minimization stats:
  Stopping criterion = linesearch alpha is zero
  Energy initial, next-to-last, final = 
        -119.829437963     -119.854898204     -119.854898204
  Force two-norm initial, final = 6.22404 0.0696885
  Force max component initial, final = 6.22404 0.069669
  Final line search alpha, max atom move = 1.75215e-06 1.2207e-07
  Iterations, force evaluations = 9 35

Pair  time (%) = 0.0307183 (44.841)
Kspce time (%) = 0.00962925 (14.0563)
Neigh time (%) = 0 (0)
Comm  time (%) = 0.00578022 (8.43766)
Outpt time (%) = 0 (0)
Other time (%) = 0.0223773 (32.6651)

Nlocal:    8 ave 8 max 8 min
Histogram: 1 0 0 0 0 0 0 0 0 0
Nghost:    2189 ave 2189 max 2189 min
Histogram: 1 0 0 0 0 0 0 0 0 0
Neighs:    2344 ave 2344 max 2344 min
Histogram: 1 0 0 0 0 0 0 0 0 0

Total # of neighbors = 2344
Ave neighs/atom = 293
Neighbor list builds = 0
Dangerous builds = 0
unfix 1
# ---- define output variables ----
variable natoms equal "count(all)"
variable tot_energy equal "c_eatoms"
variable length_x equal "lx"
variable length_y equal "ly"
variable length_z equal "lz"
variable tilt_xy equal "xy"
variable tilt_xz equal "xz"
variable tilt_yz equal "yz"
variable tot_press equal "press"
variable press_xx equal "pxx"
variable press_yy equal "pyy"
variable press_zz equal "pzz"
variable press_xy equal "pxy"
variable press_xz equal "pxz"
variable press_yz equal "pyz"

# ---- output ----
print "pypospack:output_section:begin"
pypospack:output_section:begin
print "tot_energy = ${tot_energy}"
tot_energy = -119.854898204259
print "num_atoms = ${natoms}"
num_atoms = 8
print "xx = ${length_x}"
xx = 4.222448
print "yy = ${length_y}"
yy = 4.222448
print "zz = ${length_z}"
zz = 4.222448
print "xy = ${tilt_xy}"
xy = 0
print "xz = ${tilt_xz}"
xz = 0
print "yz = ${tilt_yz}"
yz = 0
print "tot_press = ${tot_press}"
tot_press = -490.283556338482
print "pxx = ${press_xx}"
pxx = -490.283556338668
print "pyy = ${press_yy}"
pyy = -490.283556338614
print "pzz = ${press_zz}"
pzz = -490.283556338163
print "pxy = ${press_xy}"
pxy = -3.79271362347293e-11
print "pxz = ${press_xz}"
pxz = -7.2182599384956e-11
print "pyz = ${press_yz}"
pyz = 3.21304951944417e-11
print "pypospack:output_section:done"
pypospack:output_section:done
print "pypospack:lammps_sim:done"
pypospack:lammps_sim:done
#------------------------------------------------------------------------------
# RUN THERMOSTAT
# running using an NPT Nose-Hoover style thermostat
#------------------------------------------------------------------------------
variable tempdamp equal 0.1
variable pressdamp equal 1.0
# set initial velocities
velocity all create 400 4338993 mom yes dist gaussian loop all
# fix for Nose-Hoover style thermostat
fix 20 all npt temp 400 400 0.1 aniso 0.0 0.0 1.0 drag 1.0 couple xyz
variable boxx equal lx
variable boxy equal ly
variable boxz equal lz
variable boxp equal press
variable boxt equal temp
# calculate averages every 10000 steps
reset_timestep 0
fix 21 all ave/time 10 10 100 v_boxx v_boxy v_boxz v_boxp v_boxt file lattice.out
thermo_style custom step temp pe ke etotal press lx ly lz press pxx pyy pzz pxy pxz pyz vol
thermo_modify flush yes
thermo 100
run 100000
PPPM initialization ...
  G vector (1/distance) = 0.353501
  grid = 8 8 8
  stencil order = 5
  estimated absolute RMS force accuracy = 4.03791e-05
  estimated relative force accuracy = 2.80417e-06
  using double precision FFTs
  3d grid and FFT values/proc = 3375 512
Memory usage per processor = 3.06549 Mbytes
Step Temp PotEng KinEng TotEng Press Lx Ly Lz Press Pxx Pyy Pzz Pxy Pxz Pyz Volume 
       0          400    -119.8549   0.36192841   -119.49297    4645.2398     4.222448     4.222448     4.222448    4645.2398    158.60337    7320.0313    6457.0846    33.992798    1348.8343   -4472.8753    75.282309 
     100    52.994111    -119.4863  0.047950185   -119.43835     -3087.07    4.2428865    4.2428865    4.2428865     -3087.07   -18078.643     13025.26   -4207.8272   -1653.5291   -3042.6138    139.48492    76.380805 
     200    428.54828   -119.73351   0.38775949   -119.34575    1611.9396    4.2260754    4.2260754    4.2260754    1611.9396   -2475.6142    2738.4659    4572.9671   -652.69052   -150.58938   -4057.1657    75.476497 
     300    186.66413   -119.42984   0.16889763   -119.26094   -1446.8389    4.2508101    4.2508101    4.2508101   -1446.8389    -23559.12    5234.2039      13984.4   -819.53794   -1379.8301     3981.174    76.809529 
     400    545.97795   -119.68566   0.49401232   -119.19165    1003.2497    4.2341884    4.2341884    4.2341884    1003.2497   -8732.1014    5488.8365     6253.014   -2570.6668    183.52216   -1491.0362    75.912015 
     500    251.95495   -119.37738   0.22797413   -119.14941   -1333.7998    4.2453336    4.2453336    4.2453336   -1333.7998   -16514.453   -438.57316    12951.626    1403.3931    1702.8605    7939.8479     76.51304 
     600    461.49495   -119.54486   0.41757033   -119.12729   -2410.5958    4.2453826    4.2453826    4.2453826   -2410.5958   -14582.309     13684.54   -6334.0183   -856.82451   -2196.0796    4386.8696    76.515689 
     700    473.27934   -119.55202   0.42823309   -119.12379   -7653.3942    4.2445237    4.2445237    4.2445237   -7653.3942   -18843.967   -1101.0261   -3015.1901    881.15036    407.29744    3206.3438    76.469262 
     800     289.9809   -119.38855   0.26238081   -119.12617    7468.0012    4.2391128    4.2391128    4.2391128    7468.0012   -5972.1655     32090.99   -3714.8206    1318.0704   -1821.7486    6556.5201    76.177185 
     900    473.11131   -119.55699   0.42808105   -119.12891   -12070.437    4.2497839    4.2497839    4.2497839   -12070.437   -21091.778   -13176.181   -1943.3515    1252.3027    1776.5012    180.32712    76.753916 
    1000    326.25829   -119.42553   0.29520536   -119.13033    13095.287    4.2373219    4.2373219    4.2373219    13095.287   -2800.1439    33241.839    8844.1644     2195.479   -1935.5326    6560.6964    76.080677 
    1100     520.6978   -119.60328   0.47113831   -119.13214   -5028.0877    4.2434249    4.2434249    4.2434249   -5028.0877   -21218.167   -5375.6419    11509.546    454.38598     184.1069   -1170.6843    76.409886 
    1200    294.65135   -119.39845   0.26660674   -119.13185     1989.395    4.2466306    4.2466306    4.2466306     1989.395   -11834.387    9617.2825    8185.2898    2145.6218    554.06724    3114.3819    76.583191 
    1300    433.43065   -119.52252   0.39217716   -119.13034    4784.5486    4.2359676    4.2359676    4.2359676    4784.5486   -13134.901    23001.116    4487.4313     146.0329    2868.3238   -4398.6415    76.007754 
    1400    460.91881   -119.54717   0.41704903   -119.13013   -8119.1372    4.2457828    4.2457828    4.2457828   -8119.1372   -19563.276    6408.3236   -11202.459    1208.7993    3159.6889    6635.5638    76.537332 
    1500    360.33773   -119.45653   0.32604115   -119.13049    2511.3389    4.2427638    4.2427638    4.2427638    2511.3389   -21837.391    21396.723    7974.6846   -1132.8443   -2284.6388   -3302.1286     76.37418 
    1600    368.59584   -119.46469   0.33351326   -119.13118   -6669.9159    4.2408894    4.2408894    4.2408894   -6669.9159   -11066.957    6471.5211   -15414.312   -446.46698    4166.4166    11565.395    76.273003 
    1700    532.01116   -119.61485   0.48137487   -119.13348   -7463.4872    4.2446623    4.2446623    4.2446623   -7463.4872   -27111.219     12902.28   -8181.5228   -2.4813797   -1056.7884   -2931.6682    76.476751 
    1800     253.6299   -119.36436   0.22948967   -119.13487    7101.3074    4.2441429    4.2441429    4.2441429    7101.3074   -6244.5374    21992.062    5556.3971    -1380.309      3024.14    10224.544    76.448681 
    1900    540.90084   -119.62024   0.48941845   -119.13082   -6484.1597    4.2408164    4.2408164    4.2408164   -6484.1597   -16850.097    6826.4828   -9428.8646   -828.10603   -1524.9297   -2960.8494    76.269064 
    2000    223.45419   -119.33302   0.20218605   -119.13084    13023.226    4.2430256    4.2430256    4.2430256    13023.226   -6556.4132    45979.068   -352.97827   -2227.7999    615.61995    2039.1656    76.388319 
    2100    541.68642   -119.61953   0.49012926    -119.1294   -1177.1816    4.2425461    4.2425461    4.2425461   -1177.1816   -12694.263     7491.628    1671.0899   -808.50968    2765.2174   -2062.5155    76.362423 
    2200    340.01251   -119.43691   0.30765047   -119.12926    5755.3401    4.2427436    4.2427436    4.2427436    5755.3401   -13384.521    37821.317   -7170.7752   -1789.0017    -149.1396   -8427.2258    76.373089 
    2300    371.75659   -119.46599   0.33637317   -119.12962   -934.53455      4.24034      4.24034      4.24034   -934.53455    -12770.84    12800.196   -2832.9597   -1081.0554    2414.0381   -712.82761    76.243362 
    2400    429.96189   -119.51987   0.38903855   -119.13084   -8292.4114    4.2478801    4.2478801    4.2478801   -8292.4114   -18171.332    13248.027   -19953.929     1023.357   -2390.7683   -10527.599    76.650808 
    2500    374.62573   -119.46992   0.33896923   -119.13095   -4560.4579    4.2412593    4.2412593    4.2412593   -4560.4579   -16989.552    7313.7102   -4005.5317    -266.3443    3729.6763     7493.103     76.29296 
    2600    423.80122   -119.51385   0.38346425   -119.13038   -8334.8762    4.2440425    4.2440425    4.2440425   -8334.8762   -15002.513    5282.4942    -15284.61    1780.8573   -852.74979    -6296.976    76.443253 
    2700    387.21337   -119.47895    0.3503588   -119.12859    140.58708    4.2455233    4.2455233    4.2455233    140.58708   -20627.417    18445.022    2604.1563    2443.2562   -1743.0919    6531.1144    76.523298 
    2800    424.35778   -119.51271   0.38396784   -119.12874    3759.2978    4.2400094    4.2400094    4.2400094    3759.2978   -11772.271    28602.783   -5552.6187   -615.18635    362.89005   -2168.2126     76.22553 
    2900    420.14931   -119.51166   0.38015993    -119.1315    4288.3591    4.2419025    4.2419025    4.2419025    4288.3591   -20885.488    20704.511    13046.054    3513.4615   -3475.1915    2780.4567    76.327677 
    3000    378.01217   -119.47267   0.34203335   -119.13064    2136.6765    4.2440703    4.2440703    4.2440703    2136.6765   -16315.267    21789.012    936.28419   -477.67586    2022.0331   -264.67654    76.444759 
    3100    418.98837   -119.50902   0.37910948   -119.12991    2078.9681    4.2392596    4.2392596    4.2392596    2078.9681   -19193.114    19410.692    6019.3266    3765.2983    -6487.093    2292.3094      76.1851 
    3200    413.19828   -119.50527   0.37387049    -119.1314   -5632.8703    4.2450992    4.2450992    4.2450992   -5632.8703   -22344.025    10200.587    -4755.173   -529.38599   -691.18624    2282.2591    76.500367 
    3300    366.45896   -119.46439   0.33157977   -119.13281   -4359.6834    4.2424099    4.2424099    4.2424099   -4359.6834   -23538.991    6694.9758    3764.9646     1068.693    -306.1872    2366.9879    76.355073 
    3400    427.07229   -119.51828   0.38642398   -119.13185   -6070.9484    4.2394538    4.2394538    4.2394538   -6070.9484   -16514.233    13341.969   -15040.582    342.50245   -2363.8075    1779.2803    76.195567 
    3500    331.42979   -119.43244   0.29988464   -119.13255    1121.5083    4.2474979    4.2474979    4.2474979    1121.5083   -26504.282    10588.222    19280.585   -2501.0882    320.63581   -6222.6524    76.630124 
    3600    591.60146   -119.66555   0.53529343   -119.13025    582.42812    4.2371385    4.2371385    4.2371385    582.42812   -9054.5319    9296.4365    1505.3798   -23.289319   -3961.7087   -1186.3575      76.0708 
    3700    128.43412    -119.2501   0.11620989   -119.13389    12448.747    4.2442021    4.2442021    4.2442021    12448.747   -14576.813    33068.824    18854.231   -2508.2065    3125.5086   -12413.848    76.451878 
    3800      629.592    -119.7026   0.56966808   -119.13293   -12719.541     4.243474     4.243474     4.243474   -12719.541   -22358.877   -11413.402   -4386.3459    705.79821   -2837.7364    2416.3942     76.41254 
    3900    176.86715    -119.2951   0.16003312   -119.13507    13498.422    4.2373305    4.2373305    4.2373305    13498.422   -7711.7436    20336.921    27870.089   -1490.9453    3002.0599   -12148.697    76.081141 
    4000    625.13953   -119.69848   0.56563938   -119.13284   -19981.681    4.2473419    4.2473419    4.2473419   -19981.681   -26621.548   -13001.499   -20321.997    1398.7185   -2892.1707    8159.6404     76.62168 
    4100    163.38752   -119.28304   0.14783646   -119.13521    9641.3704    4.2410905    4.2410905    4.2410905    9641.3704   -13017.145    20705.627    21235.629   -1461.1595    4999.7219   -6888.8845    76.283854 
    4200    617.10165   -119.69188   0.55836654   -119.13352   -4445.6987     4.239269     4.239269     4.239269   -4445.6987   -15997.236    1379.5289    1280.6113    160.96393   -66.761201    9148.4581    76.185607 
    4300    262.55579   -119.36979     0.237566   -119.13223    2677.6008    4.2483814    4.2483814    4.2483814    2677.6008    -24086.91    12047.985    20071.728    96.553012    155.31285   -4885.7917    76.677952 
    4400    446.84825    -119.5343   0.40431769   -119.12998    159.18064    4.2377399    4.2377399    4.2377399    159.18064    -14154.76    14179.029    453.27328    -1759.883   -433.94644   -585.01947    76.103193 
    4500    373.50242   -119.46926   0.33795284    -119.1313   -2898.1102     4.243518     4.243518     4.243518   -2898.1102   -23165.613   -338.83764     14810.12    659.33946   -1336.1898   -5274.0689    76.414916 
    4600     453.5795   -119.54034   0.41040826   -119.12993   -3098.2586     4.245379     4.245379     4.245379   -3098.2586   -18740.657    19312.331   -9866.4488   -2104.1402    593.02192   -5761.1364    76.515495 
    4700     317.7338     -119.418   0.28749222   -119.13051    988.91393    4.2385517    4.2385517    4.2385517    988.91393    -18700.14    17194.838    4472.0438    25.512574   -6544.7892   -1677.1399    76.146938 
    4800    422.22349   -119.51198   0.38203668   -119.12994   -1266.2112    4.2449714    4.2449714    4.2449714   -1266.2112   -16691.271    19629.788   -6737.1503   -790.33753    1120.2223   -6170.8041    76.493462 
    4900    382.11127   -119.47482   0.34574231   -119.12908   -1285.5282    4.2443123    4.2443123    4.2443123   -1285.5282   -24067.617    16390.079    3820.9535    -1269.856    -2367.504    3144.6891    76.457835 
    5000    426.64499   -119.51529   0.38603736   -119.12925      1860.95    4.2400307    4.2400307    4.2400307      1860.95   -12361.432    10596.919    7347.3623    375.16527   -731.34183   -1075.0431    76.226677 
    5100    345.40145   -119.44386   0.31252649   -119.13133    2275.9343     4.246525     4.246525     4.246525    2275.9343   -22541.257    24888.024    4481.0353   -755.10333   -1512.2565    8325.0459     76.57748 
    5200    453.09631   -119.54245   0.40997106   -119.13247   -4927.1332    4.2403683    4.2403683    4.2403683   -4927.1332   -13957.102   -2060.2536    1235.9561   -1290.3313   -1479.3061    2105.0131    76.244887 
    5300    322.41668   -119.42568   0.29172939   -119.13395    7712.9689    4.2383868    4.2383868    4.2383868    7712.9689   -15621.512    19702.043    19058.375    -3361.355    1610.7943    6822.6846    76.138054 
    5400    499.06579   -119.58429   0.45156521   -119.13272   -14109.293    4.2492331    4.2492331    4.2492331   -14109.293   -28725.161    8524.6093   -22127.328   -1310.8155   -932.23768   -3231.9828    76.724078 
    5500    346.97565   -119.44576   0.31395086   -119.13181    6046.8613    4.2370578    4.2370578    4.2370578    6046.8613   -6707.2979    22966.545    1881.3371   -1469.3034    381.92017    2506.1139    76.066454 
    5600    391.50721   -119.48516   0.35424396   -119.13092   -6826.4463     4.244678     4.244678     4.244678   -6826.4463   -19998.524    3254.8854   -3735.7009   -404.65057   -580.47222   -1583.5373    76.477599 
    5700    452.17756   -119.53772   0.40913976   -119.12858   -6001.1043    4.2481899    4.2481899    4.2481899   -6001.1043   -24416.267     11143.52   -4730.5656    1015.0333    595.29419    1023.3833    76.667584 
    5800    375.10375   -119.46795   0.33940175   -119.12855    6297.3556    4.2374995    4.2374995    4.2374995    6297.3556   -4332.7062    14895.671    8329.1018    1333.7146   -1478.7761    1287.4456    76.090243 
    5900     447.0504   -119.53296    0.4045006   -119.12845   -5412.2517    4.2448434    4.2448434    4.2448434   -5412.2517   -22114.649   -270.10664    6148.0007    1226.1705   -426.81903    876.43648    76.486539 
    6000    276.15538    -119.3779   0.24987119   -119.12803    11997.163    4.2452153    4.2452153    4.2452153    11997.163    -9657.829    25107.004    20542.313    4146.6437   -2719.5677    5232.9603    76.506643 
    6100    573.91685   -119.64562   0.51929203   -119.12633   -1945.0153    4.2367907    4.2367907    4.2367907   -1945.0153   -18364.317    12475.405    53.866859   -1133.8738   -876.89221    2855.6326    76.052071 
    6200    324.60928   -119.42081    0.2937133    -119.1271     9560.598     4.245103     4.245103     4.245103     9560.598   -11052.781    18806.211    20928.364    3607.0606   -642.64195     3766.829    76.500574 
    6300    321.27944   -119.41877   0.29070039   -119.12807   -6222.5521    4.2474709    4.2474709    4.2474709   -6222.5521   -26614.496    12168.979   -4222.1396    1197.9105    413.84563   -825.91787    76.628662 
    6400    511.66987   -119.59156   0.46296965   -119.12859   -4221.2221    4.2373285    4.2373285    4.2373285   -4221.2221   -6943.0093   -1826.0446   -3894.6123    872.50162   -1114.9683   -5988.3313    76.081033 
    6500     320.6504   -119.42088   0.29013122   -119.13075    181.20775    4.2469353    4.2469353    4.2469353    181.20775   -24241.688    25109.263   -323.95229    2876.1903    1038.8931   -7042.5076    76.599677 
    6600    498.24564   -119.57874   0.45082312   -119.12792   -17039.002    4.2470393    4.2470393    4.2470393   -17039.002   -23369.409   -15175.562   -12572.036   -1570.5664    709.35136   -1710.8981    76.605303 
    6700    222.37077   -119.33141   0.20120574    -119.1302    13599.519    4.2342821    4.2342821    4.2342821    13599.519    -4622.739    29314.577    16106.719    2950.8222   -639.12446    -11425.77     75.91706 
    6800    522.07487   -119.60466   0.47238431   -119.13227   -7406.4384    4.2484479    4.2484479    4.2484479   -7406.4384   -18233.105    14184.678   -18170.888  -0.29328177      2556.57    2611.6077     76.68155 
    6900    384.93306   -119.48117   0.34829552   -119.13287    2521.1035    4.2426079    4.2426079    4.2426079    2521.1035   -13279.204    9205.8848    11636.629    1627.0105   -982.93504   -8141.7559    76.365759 
    7000    322.04713   -119.42242   0.29139501   -119.13103    6139.5004    4.2355961    4.2355961    4.2355961    6139.5004    5284.9215    14967.258   -1833.6785   -2414.7391    3123.4154    11855.561    75.987758 
    7100    530.07579   -119.61027   0.47962371   -119.13064   -11485.798    4.2511002    4.2511002    4.2511002   -11485.798   -25005.999   -1989.8984   -7461.4972   -477.61014    1095.0145    -3987.139    76.825257 
    7200    319.82153   -119.42022   0.28938124   -119.13084    4688.5825    4.2397337    4.2397337    4.2397337    4688.5825   -3248.5443    9840.4159     7473.876   -2922.9634    1802.7561    10937.159    76.210663 
    7300    424.68928   -119.51373   0.38426779   -119.12946   -2289.9404    4.2424106    4.2424106    4.2424106   -2289.9404   -10688.116    6453.2187   -2634.9242   -4334.5635    3772.3745   -2982.4441     76.35511 
    7400    391.25971   -119.48193   0.35402001   -119.12791    5101.2738    4.2441365    4.2441365    4.2441365    5101.2738   -11095.753    24674.357    1725.2181   -2036.3696    346.72301    10361.337    76.448337 
    7500    428.29611   -119.51452   0.38753133   -119.12699    2453.2078    4.2426379    4.2426379    4.2426379    2453.2078    -15882.08    19673.992     3567.712   -4107.2582    4132.2678    1029.7063    76.367382 
    7600    452.45831   -119.53537   0.40939379   -119.12598    2130.4551    4.2396003    4.2396003    4.2396003    2130.4551    -7292.384     17180.54   -3496.7902   -565.73741   -661.50426    493.77496    76.203466 
    7700    227.08946   -119.33366   0.20547532   -119.12819    116.47291    4.2469345    4.2469345    4.2469345    116.47291   -11489.736    14581.888   -2742.7332    158.23674    2698.4961    6513.2969    76.599631 
    7800    620.78332   -119.69053   0.56169779   -119.12884   -14779.948    4.2430664    4.2430664    4.2430664   -14779.948   -21720.011   -9795.6618   -12824.172   -744.56604   -1441.1691   -3327.4374    76.390525 
    7900    210.34833   -119.32267   0.19032759   -119.13234    5997.4677    4.2394275    4.2394275    4.2394275    5997.4677    5753.1601     14307.05   -2067.8068    2812.8844    150.95863     17569.23    76.194153 
    8000    604.27034   -119.67658    0.5467565   -119.12982   -17642.073    4.2479949    4.2479949    4.2479949   -17642.073   -22932.886   -17400.188   -12593.146    3127.4159   -2687.9664   -6054.8817    76.657024 
    8100    193.98862   -119.30667   0.17552498   -119.13115    10608.917    4.2396635    4.2396635    4.2396635    10608.917    3957.1192    20440.404    7429.2286    1093.9408    62.559943    16413.964    76.206875 
    8200    545.52166   -119.62261   0.49359946   -119.12901   -2395.0362    4.2399738    4.2399738    4.2399738   -2395.0362   -10006.583    5757.5338   -2936.0598    1715.2137   -142.34443    1045.9317    76.223611 
    8300    323.76697   -119.42206   0.29295115   -119.12911      5710.48    4.2470043    4.2470043    4.2470043      5710.48   -10094.334    32185.755   -4959.9809   -481.93311    1714.8186    8610.1018    76.603412 
    8400    394.45919   -119.48456   0.35691497   -119.12765    1929.0535    4.2412266    4.2412266    4.2412266    1929.0535   -9841.9803    4267.7716    11361.369   -495.55154    174.50679    1734.1621    76.291195 
    8500    478.13037     -119.559   0.43262241   -119.12638    1457.1301    4.2419979    4.2419979    4.2419979    1457.1301   -9584.3265    22699.359   -8743.6426    -4610.431    1549.0827    2667.1313    76.332825 
    8600    284.10434   -119.38519   0.25706357   -119.12813   -1189.1969    4.2479013    4.2479013    4.2479013   -1189.1969    -13109.16    10880.647   -1339.0774   -1806.7589    2590.5086     3753.562    76.651959 
    8700    487.29657   -119.56817   0.44091618   -119.12726   -9604.5216    4.2408546    4.2408546    4.2408546   -9604.5216   -8401.7138   -10283.196   -10128.655   -4743.8441    2396.1518   -5597.4736    76.271125 
    8800    253.01238   -119.35874   0.22893092   -119.12981    5983.5429    4.2419507    4.2419507    4.2419507    5983.5429   -774.11863    14598.949    4125.7979   -3172.9606    2694.3525    13776.686    76.330282 
    8900    594.53252    -119.6654   0.53794552   -119.12746   -16499.369    4.2477414    4.2477414    4.2477414   -16499.369   -24752.128   -7563.3508   -17182.629    -168.9289    558.69347   -9693.8651    76.643305 
    9000    275.04054   -119.37735   0.24886246   -119.12849    13762.564    4.2371312    4.2371312    4.2371312    13762.564    6590.4623    18186.915    16510.313   -2306.8279    2025.1965    13530.747    76.070405 
    9100    433.57247   -119.52116   0.39230549   -119.12885   -6326.5528    4.2447832    4.2447832    4.2447832   -6326.5528   -13583.546    15.267404   -5411.3795    2092.6751     148.3979   -4778.8791    76.483284 
    9200    374.75066   -119.46876   0.33908228   -119.12967    6601.0502    4.2453794    4.2453794    4.2453794    6601.0502    -11015.68    23570.552    7248.2778    1495.2632   -1152.9623    6942.1223     76.51552 
    9300    447.52895    -119.5333    0.4049336   -119.12836    2615.1696    4.2383695    4.2383695    4.2383695    2615.1696   -4749.3001    1525.5063    11069.302   -2449.9434   -2357.9123   -2263.0734    76.137119 
    9400    429.05966   -119.51737    0.3882222   -119.12915   -7503.4204    4.2475479    4.2475479    4.2475479   -7503.4204   -14694.938   -7675.5225   -139.80043       4282.2    -2813.202     1520.728    76.632828 
    9500    322.62753   -119.42172   0.29192017    -119.1298    4939.5523     4.241233     4.241233     4.241233    4939.5523   -8690.7245    16277.148    7232.2335   -4836.2007   -2976.2858   -5943.8758    76.291542 
    9600    479.57957   -119.56311   0.43393367   -119.12917   -6168.5335    4.2415425    4.2415425    4.2415425   -6168.5335   -10215.978   -5996.2121     -2293.41    1259.6454   -3616.8446   -2631.9505    76.308247 
    9700    344.46054   -119.43941   0.31167513   -119.12773     2146.905    4.2464346    4.2464346    4.2464346     2146.905   -12877.464    15545.182    3772.9967   -4128.2227   -3009.7823    503.07771    76.572589 
    9800    426.49422   -119.51265   0.38590093   -119.12675    -3531.644    4.2419468    4.2419468    4.2419468    -3531.644   -10243.912   -2642.2719    2291.2521   -2029.9128      -2460.8   -3834.5257    76.330068 
    9900    460.79989   -119.54445   0.41694143   -119.12751    949.03053    4.2417219    4.2417219    4.2417219    949.03053   -13082.004    12984.175    2944.9207   -1677.6979    1756.9065    1781.5332    76.317931 
   10000    350.15549   -119.44421   0.31682804   -119.12738    -1722.185    4.2473955    4.2473955    4.2473955    -1722.185   -9839.7053   -2659.4944    7332.6446    -3698.201   -1141.6909    702.06359    76.624581 
   10100    415.46497   -119.50381   0.37592144   -119.12789   -6803.9697    4.2424306    4.2424306    4.2424306   -6803.9697   -15540.697   -8299.1773    3427.9651    108.00113    3460.3665    5723.2784    76.356186 
   10200    423.49334   -119.51317   0.38318568   -119.12998     4159.136    4.2408345    4.2408345    4.2408345     4159.136   -9782.6287    6986.7196    15273.317   -4753.7838    -187.0579    -233.6113    76.270041 
   10300    474.10169   -119.55799   0.42897717   -119.12901    -8122.752    4.2478665    4.2478665    4.2478665    -8122.752    -22560.95    -3159.582    1352.2757    2512.4831    3995.7334    3159.1627    76.650076 
   10400    317.33901   -119.41477   0.28713501   -119.12764    3537.3334    4.2396897    4.2396897    4.2396897    3537.3334   -4450.8492    8538.0402    6524.8094   -5006.8208    30.029644   -6349.8393    76.208292 
   10500    451.80946   -119.53717    0.4088067   -119.12836   -250.26282    4.2410017    4.2410017    4.2410017   -250.26282    -15723.87    7034.9561    7938.1255    419.14386    1305.3051   -789.09105    76.279063 
   10600    382.57846   -119.47684   0.34616503   -119.13067    702.76939    4.2478426    4.2478426    4.2478426    702.76939   -14226.466    22747.443    -6412.669   -3354.3335    1339.4327   -5751.6952     76.64878 
   10700    458.52917   -119.54425   0.41488683   -119.12937    1180.0102    4.2354082    4.2354082    4.2354082    1180.0102   -6746.2049    235.43926    10050.796   -769.03742   -4222.8303   -3400.1525    75.977644 
   10800    298.76843   -119.40135   0.27033196   -119.13101   -1518.0581    4.2454796    4.2454796    4.2454796   -1518.0581   -15504.027    3597.6775    7352.1753   -1383.3375    1030.3281   -7357.9909    76.520934 
   10900    472.92313    -119.5582   0.42791078   -119.13029   -5496.1251    4.2454747    4.2454747    4.2454747   -5496.1251   -12796.314   -12183.286    8491.2245    2228.2159    -8412.917    3327.2286    76.520672 
   11000    406.61229   -119.49859   0.36791134   -119.13067    3817.1746    4.2359156    4.2359156    4.2359156    3817.1746    -6491.605    40.665566    17902.463    1296.2405   -1631.9234   -3297.9898    76.004955 
   11100    353.72066   -119.44934   0.32005389   -119.12929   -3862.2244    4.2489648    4.2489648    4.2489648   -3862.2244   -13087.896   -16642.264    18143.487     5446.717    -4092.801    2681.1776    76.709544 
   11200    408.48421   -119.49731    0.3696051    -119.1277    4863.0179    4.2397769    4.2397769    4.2397769    4863.0179    -10506.49    19977.069    5118.4743    3876.0709   -1199.4824   -4405.9653    76.212992 
   11300    438.84543   -119.52483   0.39707657   -119.12775     1119.601    4.2421771    4.2421771    4.2421771     1119.601   -2822.9505    1848.3849    4333.3686    3301.5184   -1389.8917   -152.15819    76.342501 
   11400     333.5301   -119.42979   0.30178504   -119.12801    1267.5802    4.2467521    4.2467521    4.2467521    1267.5802   -13840.662    16726.667    916.73561    4444.5225     2600.795   -3876.9314    76.589762 
   11500    377.93603   -119.46817   0.34196446    -119.1262   -6354.4505    4.2430843    4.2430843    4.2430843   -6354.4505   -10314.441    -9798.652    1049.7413    1030.7914   -1745.7962    1817.1676    76.391492 
   11600    414.01987   -119.50106   0.37461388   -119.12645    3306.5046    4.2423975    4.2423975    4.2423975    3306.5046   -2110.1856    9698.4354     2331.264   -840.38853    3159.3939     378.0867    76.354399 
   11700    436.35823   -119.52075   0.39482609   -119.12592   -7820.2938    4.2485133    4.2485133    4.2485133   -7820.2938   -17187.907   -11646.319    5373.3452   -966.78693   -586.09002   -1072.8454    76.685094 
   11800    327.07634   -119.42134   0.29594555   -119.12539   -568.09589    4.2414412    4.2414412    4.2414412   -568.09589   -770.04626   -15577.088    14642.847   -4033.5977      1024.01    4797.2191    76.302778 
   11900    444.29155    -119.5283   0.40200433    -119.1263    1935.5721    4.2414814    4.2414814    4.2414814    1935.5721   -4611.7137    2862.2084    7556.2215   -4526.2151     1257.211   -2673.9992    76.304948 
   12000    435.04704   -119.52072    0.3936397   -119.12708   -3736.0949    4.2472642    4.2472642    4.2472642   -3736.0949   -13364.192   -10284.982    12440.889   -1567.5269    37.619184    8148.0157    76.617476 
   12100    359.58718    -119.4527   0.32536203   -119.12734    6450.3135    4.2390888    4.2390888    4.2390888    6450.3135    1758.6472     15131.95     2460.343   -6936.8212    1882.1948   -5313.8382     76.17589 
   12200    407.08688   -119.49562   0.36834076   -119.12728    -58.03825    4.2418581    4.2418581    4.2418581    -58.03825   -3362.0241   -5145.4569    8333.3663   -1165.2622   -2411.1208    5744.3899    76.325281 
   12300    414.48627   -119.50361   0.37503589   -119.12858    1943.6072    4.2462603    4.2462603    4.2462603    1943.6072   -10769.732    18183.874   -1583.3198   -1870.8312    494.43684   -993.25893    76.563157 
   12400    484.54074   -119.56617   0.43842264   -119.12774   -4120.5724    4.2404962    4.2404962    4.2404962   -4120.5724   -7484.4082   -10550.233    5672.9244    1053.9942   -3230.1297    6254.6227     76.25179 
   12500    259.28725   -119.36318   0.23460856   -119.12857    2424.6376    4.2420443    4.2420443    4.2420443    2424.6376   -3581.4169    2896.0628    7959.2668    454.45469    1294.7102     3905.883    76.335332 
   12600    542.34901   -119.61873   0.49072878     -119.128   -13040.921    4.2491912    4.2491912    4.2491912   -13040.921   -18150.471   -24869.594     3897.304    2664.4735   -2353.9038   -2049.2505    76.721807 
   12700    317.56432   -119.41723   0.28733887   -119.12989    6086.7087    4.2362029    4.2362029    4.2362029    6086.7087    4084.2631    7057.0926    7118.7703    -456.3491    1484.3352    11030.508     76.02042 
   12800    479.88053   -119.56382   0.43420599   -119.12962   -6236.3617    4.2449541    4.2449541    4.2449541   -6236.3617   -14022.413   -13829.578    9142.9061    3986.7775     1404.374   -3168.4494    76.492524 
   12900    282.06395   -119.38398   0.25521739   -119.12876    4818.6846    4.2458999    4.2458999    4.2458999    4818.6846    -3306.766    12855.124    4907.6957   -2315.1463    4237.5717    11804.406    76.543664 
   13000    523.93598   -119.60272   0.47406828   -119.12865    374.14083    4.2364314    4.2364314    4.2364314    374.14083     -9115.69    2366.2177    7871.8948   -2457.8553    2516.0988   -7258.7207    76.032722 
   13100    372.54378    -119.4669   0.33708544   -119.12981    3946.3485    4.2457085    4.2457085    4.2457085    3946.3485   -7071.8393    17272.703    1638.1816   -3451.5252    6231.9256    8792.1865    76.533314 
   13200    373.47188   -119.46617   0.33792521   -119.12824   -3589.5517    4.2453788    4.2453788    4.2453788   -3589.5517   -18138.445   -3069.9358    10439.726   -1291.9385    1896.5384   -3847.0828    76.515483 
   13300    455.43943   -119.53944   0.41209117   -119.12735   -529.84485    4.2373775    4.2373775    4.2373775   -529.84485   -2564.8282   -5387.7143     6363.008   -5695.3842    3329.9088    4418.0891    76.083675 
   13400    324.20394   -119.42304   0.29334654    -119.1297   -349.53723    4.2479943    4.2479943    4.2479943   -349.53723   -19651.428    14398.502    4204.3142   -1918.2831   -479.27908   -418.33428    76.656991 
   13500    510.55882   -119.59012   0.46196435   -119.12816   -11444.876    4.2450522    4.2450522    4.2450522   -11444.876   -13923.833   -21410.791    999.99477   -3195.0704   -845.32363    5514.3349    76.497826 
   13600    265.08565   -119.36864   0.23985507   -119.12878    8726.8145    4.2375372    4.2375372    4.2375372    8726.8145   -340.53332    21628.244    4892.7324   -1987.2901    951.07207    6174.5913    76.092276 
   13700    480.40995   -119.56167   0.43468502   -119.12698   -7301.2841    4.2477145    4.2477145    4.2477145   -7301.2841   -23772.083   -7888.6708     9756.902    595.59569   -3328.6078    888.15477    76.641846 
   13800    382.13777   -119.47212   0.34576628   -119.12636    4167.8515     4.243111     4.243111     4.243111    4167.8515   -11369.302    13414.995    10457.862   -2694.9799   -135.51643    8275.9904    76.392929 
   13900    392.64228   -119.48122   0.35527099   -119.12595    4445.6114     4.237748     4.237748     4.237748    4445.6114   -2251.7458   -7939.9595     23528.54    405.23144   -43.372864   -7216.4872    76.103635 
   14000    409.40592   -119.49912   0.37043908   -119.12868   -7969.6193    4.2488415    4.2488415    4.2488415   -7969.6193   -22558.738   -1833.6209    483.50143    2140.4469    1872.6044    7720.2525    76.702864 
   14100    375.83251   -119.47106   0.34006115     -119.131    234.54142    4.2419154    4.2419154    4.2419154    234.54142     -15190.9     885.1187    15009.405    1500.8707    144.16874   -7487.0943    76.328373 
   14200    428.81041   -119.51825   0.38799667   -119.13026   -375.87955    4.2388637    4.2388637    4.2388637   -375.87955   -11188.859   -7933.5345    17994.755   -521.80206     2810.094    3592.1533    76.163756 
   14300    415.04612   -119.50404   0.37554245    -119.1285    -8272.417    4.2495718    4.2495718    4.2495718    -8272.417   -25490.094   -5707.1444    6379.9875    3423.3548    1706.0445   -8589.5546    76.742426 
   14400    375.31282   -119.46822   0.33959093   -119.12863    8667.1528    4.2384765    4.2384765    4.2384765    8667.1528   -9278.9467    16826.608    18453.797    1557.6389    840.88065    2835.4277    76.142885 
   14500    451.72593   -119.53776   0.40873112   -119.12903   -4092.2926    4.2415085    4.2415085    4.2415085   -4092.2926   -19247.917    2526.4052     4444.634    1317.2698    3748.8752   -961.18072    76.306409 
   14600    314.58258   -119.41449   0.28464093   -119.12985    7651.5882    4.2453115    4.2453115    4.2453115    7651.5882   -11953.635    14559.034    20349.365    459.26344   -3649.8609    1539.7429    76.511848 
   14700      494.607   -119.57605   0.44753081   -119.12852   -3741.6793    4.2399593    4.2399593    4.2399593   -3741.6793   -15908.272   -242.51446    4925.7489   -1859.1942    2813.1073    4160.1354     76.22283 
   14800    381.47995   -119.47443   0.34517107   -119.12925   -336.67874     4.243267     4.243267     4.243267   -336.67874   -11806.954    6228.6731    4568.2443     2794.676   -2459.5883    -116.3893    76.401358 
   14900    361.18762   -119.45592   0.32681015   -119.12911   -10076.552    4.2466215    4.2466215    4.2466215   -10076.552   -27785.278   -17711.283    15266.906   -1753.6945   -74.156446    4201.5306    76.582699 
   15000    410.37986   -119.49912   0.37132032    -119.1278   -4980.0923    4.2411015    4.2411015    4.2411015   -4980.0923   -9482.3794    -3256.876   -2201.0215    410.26155   -801.45414    320.36367    76.284447 
   15100    360.90333   -119.45523   0.32655292   -119.12867     2176.231    4.2449353    4.2449353    4.2449353     2176.231    -23031.59    5918.5984    23641.684   -1668.7264   -1261.1451   -3694.3277    76.491507 
   15200    511.98715   -119.59186   0.46325673    -119.1286   -7140.3446    4.2429905    4.2429905    4.2429905   -7140.3446   -15179.937   -4886.4803   -1354.6162    1248.9926    1032.6125    60.436813    76.386426 
   15300    191.46007   -119.30337   0.17323709   -119.13014    17275.338    4.2398254    4.2398254    4.2398254    17275.338   -14281.081    33222.881    32884.215    -1227.734    -3572.697   -5618.3372    76.215605 
   15400    632.24396    -119.7002   0.57206763   -119.12813   -9246.2917    4.2434648    4.2434648    4.2434648   -9246.2917   -21045.703   -1611.4862    -5081.686   -1622.9436    2664.8227   -5503.4405    76.412045 
   15500     170.7117   -119.28567   0.15446353    -119.1312    16638.882    4.2418401    4.2418401    4.2418401    16638.882   -18229.958    23199.489    44947.115   -2226.8209   -4401.7027   -5856.9749    76.324311 
   15600    599.35279   -119.67199     0.542307   -119.12969   -9528.8385    4.2425194    4.2425194    4.2425194   -9528.8385   -14463.101   -10791.116   -3332.2986   -2218.5844    1744.3542   -5156.7903    76.360984 
   15700    193.04469   -119.30615   0.17467089   -119.13148     6729.471    4.2427691    4.2427691    4.2427691     6729.471   -20538.022    9616.5896    31109.845   -695.00736   -1487.7898    422.10691    76.374465 
   15800    556.18978   -119.63184    0.5032522   -119.12859   -7953.0277    4.2436575    4.2436575    4.2436575   -7953.0277     -16377.4    -12257.83    4776.1477   -4477.2986   -618.61366   -1206.8691    76.422456 
   15900    280.21676   -119.38278   0.25354602   -119.12923   -2862.7309    4.2440238    4.2440238    4.2440238   -2862.7309   -23901.164   -4807.6868    20120.658   -662.46395    1959.5838    1629.5374    76.442246 
   16000    491.02854   -119.57245   0.44429294   -119.12816   -2597.6319    4.2412171    4.2412171    4.2412171   -2597.6319   -9056.9824   -10580.267    11844.353    1317.6106   -1667.3707   -1158.5023    76.290686 
   16100     323.8881   -119.42308   0.29306076   -119.13002   -1680.4833    4.2463493    4.2463493    4.2463493   -1680.4833   -26684.333    12346.801     9296.082    1051.7821    3281.8549    258.43818     76.56797 
   16200    461.74642   -119.54639   0.41779786   -119.12859   -3991.7445     4.240746     4.240746     4.240746   -3991.7445   -14143.216   -1646.6634    3814.6462   -1531.1059   -2168.4552   -133.09442    76.265265 
   16300    345.54237   -119.44123   0.31265399   -119.12857    8691.7362    4.2414919    4.2414919    4.2414919    8691.7362   -17714.067    14734.847    29054.429    2844.2344    3913.2304    -3612.651    76.305516 
   16400    469.35395   -119.55199   0.42468132   -119.12731   -8402.9033     4.246591     4.246591     4.246591   -8402.9033   -16599.619    359.22602   -8968.3166    1493.9569    -458.7943   -6256.9045    76.581046 
   16500    347.65585   -119.44326   0.31456632   -119.12869    9076.7714    4.2374503    4.2374503    4.2374503    9076.7714   -14770.141    21835.355      20165.1    1842.6785    863.86829   -8318.6873    76.087593 
   16600    438.14294   -119.52672   0.39644094   -119.13028   -2584.7949     4.244381     4.244381     4.244381   -2584.7949   -12356.979     2394.945    2207.6487    1338.3899     4056.379   -7993.1763    76.461547 
   16700    434.29122   -119.52205   0.39295582    -119.1291   -4137.3545    4.2449597    4.2449597    4.2449597   -4137.3545   -21621.379    16244.689    -7035.374    1013.5141   -3122.7969   -6007.9415    76.492827 
   16800    288.37612   -119.39032   0.26092877   -119.12939    6599.8865    4.2365664    4.2365664    4.2365664    6599.8865   -4953.3316    21129.418    3623.5727      2449.78    6511.2901   -633.91456    76.039989 
   16900    580.42684   -119.65553    0.5251824   -119.13035   -17651.004     4.249027     4.249027     4.249027   -17651.004   -20518.375   -17129.938   -15304.697     1626.938   -2035.7982    377.62259    76.712913 
   17000    240.44354   -119.34987   0.21755837   -119.13231    10070.779    4.2393149    4.2393149    4.2393149    10070.779   -15001.616    32677.424    12536.529   -3186.7591    6383.0087    8089.5043    76.188082 
   17100    501.14587   -119.58425   0.45344732    -119.1308   -7212.6692    4.2410418    4.2410418    4.2410418   -7212.6692    -8380.937   -1078.0257   -12179.045    691.89967    94.825116    240.55831    76.281222 
   17200    288.97766   -119.39202   0.26147306   -119.13055    8721.7819    4.2449132    4.2449132    4.2449132    8721.7819   -18908.979    31553.436    13520.888    1572.8299    2609.0109    6423.5424    76.490315 
   17300    454.56084    -119.5413    0.4112962   -119.13001    2541.4634    4.2405035    4.2405035    4.2405035    2541.4634   -8717.8425    9722.8845    6619.3483    1206.9853    2015.0928   -540.30045    76.252182 
   17400    446.57733   -119.53372   0.40407256   -119.12965   -2842.7273    4.2432863    4.2432863    4.2432863   -2842.7273   -18663.748    10258.327   -122.76006    61.800923   -2185.3451     3802.279      76.4024 
   17500    293.96203   -119.39544   0.26598303   -119.12946     -4.55226     4.244131     4.244131     4.244131     -4.55226   -9450.2722   -2052.3087    11488.924    185.89333    2694.4517     -1089.79    76.448039 
   17600    462.30801   -119.54536     0.418306   -119.12705   -12039.204    4.2429333    4.2429333    4.2429333   -12039.204   -21857.682    -4932.514   -9327.4168    1060.3668   -7197.6685    4356.0715    76.383332 
   17700    313.43931    -119.4119   0.28360648   -119.12829    7549.0752    4.2406355    4.2406355    4.2406355    7549.0752   -4163.5686     26430.99    379.80436    636.10954    2209.8703   -6617.0803    76.259303 
   17800    519.96044   -119.59821   0.47047113   -119.12774   -13120.641    4.2472067    4.2472067    4.2472067   -13120.641   -18129.162   -3547.6087   -17685.152   -306.35466   -2184.9385    1515.8358     76.61436 
   17900    186.30305   -119.29861   0.16857091   -119.13004    12936.386    4.2399155    4.2399155    4.2399155    12936.386   -2797.8973    44403.873   -2796.8171   -295.35662   -1696.3301   -5961.1327    76.220469 
   18000    626.11923   -119.69457   0.56652584   -119.12805     -6853.57    4.2411212    4.2411212    4.2411212     -6853.57   -17359.243    2947.6941   -6149.1615    1660.1626    1596.7799    -3408.231    76.285509 
   18100    257.57009    -119.3628   0.23305483   -119.12974    8962.1533    4.2470201    4.2470201    4.2470201    8962.1533   -11197.365    31781.741    6302.0844    1286.5276   -2411.0011   -1169.6474    76.604266 
   18200    470.13809   -119.55435   0.42539083   -119.12896   -5650.2937    4.2415104    4.2415104    4.2415104   -5650.2937   -8436.9702   -7918.3006   -595.61013   -755.91988    2647.2192   -4963.1452    76.306512 
   18300    327.45853   -119.42548   0.29629136   -119.12919    4702.6885    4.2408743    4.2408743    4.2408743    4702.6885   -3905.0304    4806.4141    13206.682    535.60779   -2987.3692    10453.388    76.272185 
   18400    467.95995   -119.55037      0.42342   -119.12695   -5345.5496     4.248702     4.248702     4.248702   -5345.5496   -19760.208    736.80666    2986.7525   -509.98188    919.64263   -1597.8791    76.695311 
   18500     343.9832    -119.4367   0.31124323   -119.12546   -676.32005    4.2411113    4.2411113    4.2411113   -676.32005   -5042.9773    2320.1175    693.89972    2661.9586   -2907.3723    10456.737    76.284978 
   18600     376.3876   -119.46661   0.34056341   -119.12604    1134.0371    4.2410817    4.2410817    4.2410817    1134.0371   -10094.529    17812.107   -4315.4672    2659.9561   -1149.0724    5810.7221    76.283376 
   18700    535.53465    -119.6099   0.48456301   -119.12534   -8815.4771    4.2478875    4.2478875    4.2478875   -8815.4771   -18610.654   -1225.9575   -6609.8199    971.69299   -2342.8832     3767.845    76.651213 
   18800    314.41057   -119.41081   0.28448529   -119.12633    5827.7974    4.2400533    4.2400533    4.2400533    5827.7974   -5017.7608    28455.427   -5954.2745    3269.4696   -5168.2006    5220.9471    76.227898 
   18900    450.32584   -119.53434   0.40746429   -119.12687    -6387.051    4.2407354    4.2407354    4.2407354    -6387.051   -6356.8896    -6825.505   -5978.7586    3249.5368   -218.03961    704.74274    76.264694 
   19000     239.3624   -119.34544   0.21658013   -119.12886    5794.0446    4.2491235    4.2491235    4.2491235    5794.0446   -5907.7675    13438.632    9851.2692     1733.223   -3129.3689    4273.5871    76.718142 
   19100     653.3528   -119.71803   0.59116734   -119.12686   -4599.0662    4.2379062    4.2379062    4.2379062   -4599.0662   -5579.8144   -3545.8324   -4671.5517    708.15958    1588.7582   -2794.8449    76.112153 
   19200    194.41759   -119.30626   0.17591312   -119.13035    9302.2403    4.2437804    4.2437804    4.2437804    9302.2403    3784.5339    10142.344    13979.843   -174.73925   -4599.5988    8271.8796    76.429091 
   19300    519.38791   -119.59814    0.4699531   -119.12819   -9127.4612    4.2466073    4.2466073    4.2466073   -9127.4612   -19366.717    1787.6168   -9803.2835    783.31068    1931.5265   -2986.5043    76.581931 
   19400    261.89453    -119.3664   0.23696767   -119.12944    7562.8307    4.2380731    4.2380731    4.2380731    7562.8307    4721.1083    10847.702    7119.6815    1179.1687   -4981.8827    15599.204    76.121149 
   19500    561.33877   -119.63517   0.50791112   -119.12726   -8666.3808    4.2452551    4.2452551    4.2452551   -8666.3808   -12317.817    1078.1081   -14759.434   -421.07275    2941.8408   -1491.4856    76.508796 
   19600    269.88193   -119.37087   0.24419484   -119.12667    1114.6532    4.2443679    4.2443679    4.2443679    1114.6532   -2406.1652    10073.052   -4322.9275    1796.4706   -6100.0642    10641.027    76.460842 
   19700    404.16037    -119.4927    0.3656928   -119.12701   -190.66086    4.2407587    4.2407587    4.2407587   -190.66086   -3774.6895    11566.645   -8363.9377    676.09328    760.03737     849.4087    76.265948 
   19800    409.19279   -119.49871   0.37024624   -119.12847    1752.7794    4.2454936    4.2454936    4.2454936    1752.7794   -8015.6892    3386.0916    9887.9359    2257.5374   -1348.1474    2459.6253    76.521692 
   19900    368.88955   -119.46121   0.33377901   -119.12743     3359.124     4.242221     4.242221     4.242221     3359.124   -2766.7001    19557.224   -6713.1517   -1063.5777      372.704    4961.9574    76.344874 
   20000    462.37803   -119.54454   0.41836935   -119.12617    4310.6557    4.2402458    4.2402458    4.2402458    4310.6557    6905.9117   -644.88298    6670.9383    2609.9362   -1934.8817   -6549.4313    76.238281 
   20100    317.02002   -119.41497   0.28684637   -119.12812    3592.7653    4.2439999    4.2439999    4.2439999    3592.7653   -8525.1045    24724.986   -5421.5855   -347.48979     1226.952    6605.2768    76.440951 
   20200    490.06071   -119.57211   0.44341722   -119.12869   -2426.4757     4.242071     4.242071     4.242071   -2426.4757    -6121.002   -2388.9501    1230.5248     650.5953   -766.88517   -3578.5043    76.336776 
   20300    310.00671   -119.40893   0.28050059   -119.12843   -692.68433     4.241474     4.241474     4.241474   -692.68433    7011.1553    12240.264   -21329.472   -1650.6802   -2045.5767    9303.9494     76.30455 
   20400    410.33918    -119.4986   0.37128351   -119.12732   -12458.917    4.2448855    4.2448855    4.2448855   -12458.917   -18974.716   -5624.3611   -12777.674   -4239.9308    1829.8364    -1202.545    76.488816 
   20500    451.13015   -119.53654   0.40819204   -119.12835   -5855.9327    4.2445288    4.2445288    4.2445288   -5855.9327   -11490.531    10032.604   -16109.872   -2332.8958   -8613.0914   -188.69729    76.469534 
   20600    366.06901    -119.4603   0.33122693   -119.12907   -1928.5886    4.2414144    4.2414144    4.2414144   -1928.5886   -5545.7817    7444.3849    -7684.369   -3448.8708    5480.0798    1396.7816    76.301335 
   20700    384.36015   -119.47577   0.34777714   -119.12799   -2734.3833    4.2446338    4.2446338    4.2446338   -2734.3833    -14630.33    9535.9123   -3108.7326   -3511.2986   -823.76134    380.34259    76.475211 
   20800    378.96336   -119.47129   0.34289401   -119.12839    10016.473    4.2406584    4.2406584    4.2406584    10016.473   -2571.2761    14666.067    17954.628    333.10339    579.02709    3300.5751    76.260536 
   20900    499.84666    -119.5808   0.45227176   -119.12853      1755.62    4.2415936    4.2415936    4.2415936      1755.62   -6660.5835    4311.2029    7616.2407   -2190.5376   -216.37361    3655.6631    76.311003 
   21000      286.145   -119.38743   0.25891001   -119.12852    9738.3203    4.2439466    4.2439466    4.2439466    9738.3203   -1690.8919      18798.6    12107.253    1754.1862   -2093.2169    6979.2892    76.438074 
   21100    474.21066   -119.55726   0.42907577   -119.12818   -7251.7267    4.2413941    4.2413941    4.2413941   -7251.7267   -12668.899   -4517.8441   -4568.4376    3955.9981    1707.8276    2200.9196    76.300238 
   21200    308.52821    -119.4089    0.2791628   -119.12974    3757.7308    4.2423395    4.2423395    4.2423395    3757.7308    2883.3405    9204.5384   -814.68656     2756.546   -3548.9905    10039.372    76.351268 
   21300    509.16506   -119.58919   0.46070324   -119.12849   -13565.335    4.2473513    4.2473513    4.2473513   -13565.335   -16720.978   -11709.434   -12265.593    5329.7899    315.23237   -3840.3264    76.622188 
   21400    281.31291   -119.38277   0.25453783   -119.12823    364.32143    4.2407143    4.2407143    4.2407143    364.32143   -6037.3597    13381.866   -6251.5423    567.36272   -5379.2583     3854.557    76.263556 
   21500    447.49813   -119.53354   0.40490572   -119.12863   -3163.5141    4.2431505    4.2431505    4.2431505   -3163.5141   -13464.203     -4994.99     8968.651    -782.0778    5265.7541    994.45548    76.395066 
   21600    405.24449   -119.49379   0.36667373   -119.12712   -2946.9079    4.2460503    4.2460503    4.2460503   -2946.9079   -6579.5837    4754.6314   -7015.7713   -577.78589   -2224.9262    2240.5303    76.551799 
   21700    344.52363   -119.43811   0.31173222   -119.12637    9238.8056    4.2398267    4.2398267    4.2398267    9238.8056   -6260.0211    10162.996    23813.442   -7257.7426    1373.9484    1732.8093    76.215679 
   21800    474.85623   -119.55544   0.42965989   -119.12578   -2180.5606    4.2428948    4.2428948    4.2428948   -2180.5606   -8453.3422    6485.9618   -4574.3015   -1678.7422    2639.6532    4721.1103    76.381253 
   21900    323.31139   -119.41949   0.29253894   -119.12695     8841.591     4.244573     4.244573     4.244573     8841.591   -7884.2868    19109.776    15299.284   -8055.8794    369.47779    1883.3033    76.471924 
   22000     514.3347   -119.59257   0.46538085   -119.12719   -5160.4612    4.2397588    4.2397588    4.2397588   -5160.4612    695.36589   -1041.8983   -15134.851    -4757.276    3872.2962     8058.626    76.212018 
   22100    224.49801   -119.33136   0.20313052   -119.12823    5048.9193    4.2430973    4.2430973    4.2430973    5048.9193    3929.2092    12464.289   -1246.7398   -5206.5186   -69.220303    3539.2653     76.39219 
   22200    574.50835   -119.64634   0.51982723   -119.12651   -16903.116    4.2472276    4.2472276    4.2472276   -16903.116    -24938.81   -11267.155   -14503.384   -3202.2005    612.38177   -3438.9201    76.615494 
   22300    261.84741   -119.36639   0.23692504   -119.12946    9641.1655    4.2386642    4.2386642    4.2386642    9641.1655    14146.668    7493.3148    7283.5133   -1340.5573   -1357.8096    4855.4785    76.153002 
   22400    511.17327   -119.59298   0.46252032   -119.13046   -12822.212    4.2471796    4.2471796    4.2471796   -12822.212   -20358.418   -11117.657   -6990.5608    2198.6504   -1433.5572   -3985.6952    76.612896 
   22500    182.42547   -119.29377    0.1650624   -119.12871    7047.4922    4.2440718    4.2440718    4.2440718    7047.4922   -11636.832    15468.831    17310.478    74.302261   -3419.9161    5240.9716    76.444838 
   22600     621.7675   -119.68871    0.5625883   -119.12612    -4058.801    4.2393843    4.2393843    4.2393843    -4058.801   -3527.6525   -6661.3969   -1987.3538    2254.9157    1227.7949   -5836.6048    76.191821 
   22700    289.78303   -119.39085   0.26220178   -119.12865    6109.2777    4.2460195    4.2460195    4.2460195    6109.2777   -7193.9952    19329.239    6192.5897    1559.3114   -130.53098    5038.2705    76.550133 
   22800    416.11628   -119.50359   0.37651076   -119.12708   -5361.3461    4.2447965    4.2447965    4.2447965   -5361.3461   -10481.386    8328.1036   -13930.756    1510.3683    1412.1259    -1327.104    76.484004 
   22900    380.25161   -119.46946   0.34405965    -119.1254    9470.9362    4.2376339    4.2376339    4.2376339    9470.9362    15963.617    9984.4573     2464.734   -2124.6423    3910.2912    4968.4486    76.097486 
   23000    493.24133   -119.57111   0.44629512   -119.12482   -6256.5866    4.2482064    4.2482064    4.2482064   -6256.5866   -10823.865    8465.0319   -16410.927   -1748.7908     1654.427   -1016.9284    76.668477 
   23100    372.30931   -119.46227   0.33687329   -119.12539    -1522.715    4.2431469    4.2431469    4.2431469    -1522.715    9594.1253   -5831.6597   -8330.6107   -4860.3274    3060.1682    3846.3941    76.394869 
   23200    281.04901   -119.38034   0.25429905   -119.12604    1264.2545    4.2388516    4.2388516    4.2388516    1264.2545    1622.9276    6058.1678   -3888.3318   -3746.8174    1723.9099     7148.054    76.163105 
   23300    528.28942   -119.60366   0.47800737   -119.12565   -8104.0929    4.2477366    4.2477366    4.2477366   -8104.0929   -7458.8411    -13381.41   -3472.0271   -4308.4026   -46.416548   -1762.1635    76.643044 
   23400    358.74498   -119.45131       0.3246   -119.12671    3323.5839    4.2427141    4.2427141    4.2427141    3323.5839    -1707.863    14596.998   -2918.3835   -4431.0825   -624.69624    7755.4453    76.371499 
   23500    412.60826   -119.49998   0.37333662   -119.12665     -707.566      4.23938      4.23938      4.23938     -707.566    -10159.15    432.34497    7604.1067    1392.1855   -748.72518   -3221.9837     76.19159 
   23600    331.95941    -119.4282   0.30036385   -119.12783    1761.3453    4.2476715    4.2476715    4.2476715    1761.3453   -10601.189    24835.474   -8950.2489    3338.2227   -5676.7919    8062.4923    76.639517 
   23700    484.57098   -119.56507   0.43845001   -119.12662   -996.38539    4.2435503    4.2435503    4.2435503   -996.38539   -6910.8295    3286.8169    634.85646    4038.0539   -2010.8581     147.2434    76.416661 
   23800    360.79008   -119.45401   0.32645044   -119.12756    2132.3398    4.2390424    4.2390424    4.2390424    2132.3398   -6121.4079    14730.697   -2212.2698    7449.9972   -5505.0657    5702.8559    76.173389 
   23900    378.89732   -119.47135   0.34283426   -119.12852   -2340.0636    4.2479808    4.2479808    4.2479808   -2340.0636   -2553.5758    11002.253   -15468.868    6423.6841   -4426.0833    2510.8562    76.656263 
   24000    486.41296   -119.56721   0.44011666   -119.12709   -3859.1473    4.2419159    4.2419159    4.2419159   -3859.1473   -3710.6484   -7107.5557   -759.23778    5819.0459   -1666.6654    5045.4056    76.328401 
   24100    294.66032   -119.39476   0.26661485   -119.12815    6656.5419      4.23799      4.23799      4.23799    6656.5419    20273.378    9389.6029   -9693.3549    8790.9846   -1080.5373    9104.3985    76.116669 
   24200    492.01364   -119.57224   0.44518428   -119.12705   -9904.0847    4.2483308    4.2483308    4.2483308   -9904.0847   -21181.888   -4998.8103   -3531.5561    262.84373   -29.907856   -2446.1921    76.675208 
   24300    295.09208   -119.39565   0.26700552   -119.12865    8753.0702    4.2409465    4.2409465    4.2409465    8753.0702    11012.636    23869.704   -8623.1299    1194.6084   -331.24723    5637.6696    76.276082 
   24400    583.84192   -119.65589   0.52827244   -119.12762   -6763.4687    4.2406138    4.2406138    4.2406138   -6763.4687   -11498.651   -3660.1854   -5131.5698   -897.90922   -856.19384   -1456.3006    76.258133 
   24500    127.40286   -119.24464   0.11527678   -119.12936    7758.8994    4.2474657    4.2474657    4.2474657    7758.8994   -14068.677    46116.987   -8771.6122   -2561.6678   -1200.8925    5573.2821    76.628378 
   24600    604.86697   -119.67491   0.54729635   -119.12762   -13021.997    4.2422956    4.2422956    4.2422956   -13021.997   -17955.264   -6581.3589   -14529.369   -2028.4761    2123.9593   -3944.6234    76.348901 
   24700    272.65942   -119.37576   0.24670798   -119.12905    10279.063    4.2382568    4.2382568    4.2382568    10279.063    6215.6212    33121.829   -8500.2611   -948.25007   -3960.8818   -228.46542    76.131049 
   24800    500.88733   -119.58093   0.45321339   -119.12772   -17814.052    4.2508632    4.2508632    4.2508632   -17814.052   -30192.248   -10119.766   -13130.141   -455.64046    2042.9807    2850.5439     76.81241 
   24900    269.47655    -119.3717   0.24382805   -119.12787    7542.2222    4.2385001    4.2385001    4.2385001    7542.2222    19964.185     14921.86   -12259.379    5510.1762    -938.3303   -1907.5304    76.144161 
   25000    496.20957   -119.57663   0.44898084   -119.12765   -4128.5763    4.2414635    4.2414635    4.2414635   -4128.5763   -7509.0143    -74.46498   -4802.2497    4956.7108     -264.073    3043.6884    76.303984 
   25100    321.39474   -119.41788   0.29080472   -119.12707    3788.7056     4.248086     4.248086     4.248086    3788.7056    7940.4637     16570.69   -13145.037    6785.9444    381.78633   -4175.3305    76.661956 
   25200     470.6894   -119.55132   0.42588966   -119.12543     2700.141    4.2374623    4.2374623    4.2374623     2700.141    800.34426    8524.4669   -1224.3881    6461.5322   -3008.8519    4464.0185    76.088243 
   25300    328.81913   -119.42558   0.29752246   -119.12806     6670.025    4.2415327    4.2415327    4.2415327     6670.025    6405.3567    22694.142   -9089.4239    5109.8486    2827.1643   -2341.3341    76.307718 
   25400    462.33364   -119.54623   0.41832919    -119.1279   -6561.8295    4.2480668    4.2480668    4.2480668   -6561.8295   -13531.045    9827.3161    -15981.76    2645.2193   -5848.5916    5333.1573    76.660919 
   25500    310.73393   -119.41038   0.28115859   -119.12922    3493.9507    4.2357247    4.2357247    4.2357247    3493.9507    2383.0332    9591.5267   -1492.7079   -643.91725    5309.8354   -5307.7885    75.994678 
   25600    513.15533   -119.59382   0.46431373   -119.12951   -9824.2167     4.244765     4.244765     4.244765   -9824.2167   -14200.939    5572.2993   -20844.011   -4752.6689   -5758.9677    6128.3475    76.482301 
   25700    246.75069   -119.35336   0.22326521   -119.13009    368.17017     4.246675     4.246675     4.246675    368.17017    16340.235   -1169.9039    -14065.82   -2492.0641    7397.6297    1353.7961    76.585591 
   25800    566.10307    -119.6404   0.51222195   -119.12817   -566.00831    4.2343021    4.2343021    4.2343021   -566.00831    4957.8108    2905.6085   -9561.4442   -3565.7615   -3091.4251     3140.271    75.918133 
   25900     262.1012   -119.36777   0.23715467   -119.13061     6790.086    4.2483278    4.2483278    4.2483278     6790.086    18649.115    13385.277   -11664.134   -2875.2999    7829.7093    311.62252    76.675048 
   26000    465.13425   -119.54863   0.42086325   -119.12777   -5156.2339    4.2414163    4.2414163    4.2414163   -5156.2339    2346.5844   -2305.6376   -15509.648   -792.24912   -317.74597   -225.05673    76.301436 
   26100    332.40584   -119.42959   0.30076779   -119.12882    12614.326    4.2364683    4.2364683    4.2364683    12614.326     21265.04    11259.094    5318.8458   -1645.8041    2558.5837    -1859.205    76.034707 
   26200    509.76756   -119.58909    0.4612484   -119.12784   -11810.258    4.2506626    4.2506626    4.2506626   -11810.258   -13104.714    1082.7198   -23408.781    3994.0345    760.08449   -2834.4867    76.801536 
   26300    339.41301   -119.43424   0.30710803   -119.12714    2814.9192    4.2397678    4.2397678    4.2397678    2814.9192    14646.972   -5897.2716   -304.94254    1556.1774    151.76811   -5786.9175    76.212503 
   26400    383.82928   -119.47375   0.34729679   -119.12646   -1657.5822    4.2388378    4.2388378    4.2388378   -1657.5822    6061.9731   -2454.2016    -8580.518   -521.96028    1113.1271   -7996.5314    76.162363 
   26500    470.43842   -119.55218   0.42566257   -119.12652   -9615.1537    4.2520208    4.2520208    4.2520208   -9615.1537    -2251.406   -7195.2562   -19398.799   -1360.5149   -364.68458   -1409.2959    76.875181 
   26600    381.16846   -119.47071   0.34488923   -119.12582    6278.2339    4.2378186    4.2378186    4.2378186    6278.2339    21364.233     2565.692   -5095.2232    2943.9904    2981.1592   -8096.6619    76.107437 
   26700    415.28527   -119.50275   0.37575884   -119.12699   -3835.7892    4.2409871    4.2409871    4.2409871   -3835.7892    5160.7506   -5076.6993   -11591.419   -4754.9807   -4943.5151   -1915.4987    76.278276 
   26800    307.43085   -119.40612    0.2781699   -119.12795    3485.6601    4.2498585    4.2498585    4.2498585    3485.6601    12312.655    14619.406   -16475.081   -451.18626    1631.3044   -868.39508    76.757958 
   26900    542.72959   -119.61706   0.49107314   -119.12599   -1729.0775    4.2382067    4.2382067    4.2382067   -1729.0775     184.6353    386.80916   -5758.6768   -11199.679   -7221.6128   -1869.4789    76.128346 
   27000    218.45381   -119.32715    0.1976616   -119.12949    9019.0834    4.2394894    4.2394894    4.2394894    9019.0834    29505.785    8692.4644   -11140.999   -1870.4692   -1769.1838    2605.3252    76.197491 
   27100    513.62969   -119.59474   0.46474294      -119.13   -13236.313    4.2504893    4.2504893    4.2504893   -13236.313   -12758.564   -9828.8549   -17121.521   -4421.9547    502.85874    133.35082    76.792141 
   27200    338.32248   -119.43736   0.30612129   -119.13124    4642.2799    4.2358952    4.2358952    4.2358952    4642.2799    15387.102    3332.3208   -4792.5826    5787.5264   -3623.5396    1652.3734    76.003854 
   27300    387.67235   -119.48257   0.35077408    -119.1318   -1786.3221    4.2396085    4.2396085    4.2396085   -1786.3221    12330.261   -14803.603   -2885.6244   -5395.4651    5529.6698    342.91942    76.203913 
   27400    454.91087   -119.54283   0.41161292   -119.13122    -9322.744    4.2496984    4.2496984    4.2496984    -9322.744    3819.0193   -15973.857   -15813.394      7673.85   -3066.8783    1275.8871    76.749282 
   27500    329.74536    -119.4306   0.29836053   -119.13224    10927.052    4.2363607    4.2363607    4.2363607    10927.052    29198.617    2683.3935    899.14447   -6266.6173    3655.3753   -894.57823    76.028914 
   27600    572.75787   -119.64884   0.51824335    -119.1306   -6733.7584    4.2410123    4.2410123    4.2410123   -6733.7584    1955.8247   -13186.327   -8970.7732    3432.1224   -6097.6319    1878.1628    76.279634 
   27700    198.57853   -119.30954   0.17967802   -119.12986    4457.1272    4.2481836    4.2481836    4.2481836    4457.1272    21279.334      2533.92   -10441.872   -6290.8232    908.39651    550.14435    76.667239 
   27800    491.13756   -119.57142   0.44439159   -119.12703   -7027.7248    4.2415712    4.2415712    4.2415712   -7027.7248   -779.85009   -1835.8399   -18467.484    1549.8928   -2134.6094    759.25336    76.309796 
   27900    442.08637   -119.52707   0.40000904   -119.12706    4724.2511    4.2396772    4.2396772    4.2396772    4724.2511    18252.562    1460.0614   -5539.8697   -2324.3692   -491.02496    4955.7155    76.207618 
   28000    381.37146   -119.47188   0.34507292   -119.12681   -6934.0095    4.2499825    4.2499825    4.2499825   -6934.0095   -6914.4408    2527.2379   -16414.826   -3864.5717     2345.994    -2048.898    76.764679 
   28100     331.2119   -119.42538   0.29968749   -119.12569    1201.0146    4.2396797    4.2396797    4.2396797    1201.0146    16580.178   -4139.4353   -8837.6993    1637.1218   -2991.6499    4946.7718     76.20775 
   28200    371.64986   -119.46304    0.3362766   -119.12677    5335.2787    4.2399576    4.2399576    4.2399576    5335.2787    12961.534    1962.8568    1081.4455   -4381.2633    4276.1895    4128.0289    76.222738 
   28300    502.21691   -119.58003   0.45441641   -119.12561   -5201.1045    4.2477334    4.2477334    4.2477334   -5201.1045    891.14464   -4496.1578     -11998.3    4635.7183   -514.05858    1574.6509    76.642871 
   28400    282.25753   -119.38048   0.25539254   -119.12509    9202.1387    4.2398815    4.2398815    4.2398815    9202.1387    13544.512     7958.948    6102.9558   -2333.3675    3264.2022    2998.8288    76.218636 
   28500    489.54476   -119.56882   0.44295038   -119.12587   -2400.9917    4.2403105    4.2403105    4.2403105   -2400.9917    6565.2055   -5309.7255    -8458.455     2109.779   -674.31399   -1047.8375     76.24177 
   28600    294.43776   -119.39487   0.26641347   -119.12846    4353.5554    4.2477522    4.2477522    4.2477522    4353.5554    3208.0396    15268.074   -5415.4479    -3724.615    4838.9109    5171.7315    76.643886 
   28700     549.6757   -119.62334   0.49735813   -119.12598   -4846.6463    4.2391507    4.2391507    4.2391507   -4846.6463    3475.8646   -7450.9138    -10564.89    2576.0751   -1445.1671    21.677878    76.179227 
   28800    191.51743     -119.302   0.17328899   -119.12871    4040.0482    4.2419798    4.2419798    4.2419798    4040.0482    24732.978   -1447.4548   -11165.379   -7132.5587    2943.4001    7376.8465    76.331849 
   28900    619.50612   -119.68863   0.56054216   -119.12809   -15452.004    4.2476971    4.2476971    4.2476971   -15452.004   -17301.463   -11331.005   -17723.542    804.10213   -2324.2223   -3686.7761    76.640902 
   29000    270.78584   -119.37498   0.24501272   -119.12997    6133.1196    4.2379606    4.2379606    4.2379606    6133.1196     30094.33   -6064.2269   -5630.7445   -5795.0887    6094.5639    10401.178    76.115088 
   29100     483.0391   -119.56619   0.43706393   -119.12913   -12512.673    4.2425381    4.2425381    4.2425381   -12512.673   -741.17714   -18910.067   -17886.775    4923.2349    2412.2697    2130.5262     76.36199 
   29200    327.16932    -119.4257   0.29602968   -119.12967    3634.3915    4.2448881    4.2448881    4.2448881    3634.3915    11516.055    163.23905   -776.11983    320.64951    5855.1958    2332.2239    76.488958 
   29300    483.52515   -119.56739   0.43750371   -119.12989    453.88898    4.2389897    4.2389897    4.2389897    453.88898    15072.015   -1645.0843   -12065.264    3592.7819     2726.305    6437.0136     76.17055 
   29400    423.46152   -119.51367   0.38315688   -119.13051    6334.7087    4.2401923    4.2401923    4.2401923    6334.7087    11842.032    1462.0264    5700.0676   -512.13754   -708.70007   -1089.1151    76.235397 
   29500    251.50297   -119.35778   0.22756517   -119.13022    5117.3674    4.2466974    4.2466974    4.2466974    5117.3674    11791.429    15533.674   -11973.001    175.87821    616.73058    7961.4506    76.586803 
   29600    580.13071   -119.65378   0.52491446   -119.12887   -2178.3336    4.2384812    4.2384812    4.2384812   -2178.3336    4695.7482   -4221.3916   -7009.3573   -1660.9733   -4342.6526    -3719.988     76.14314 
   29700    294.23732    -119.3968   0.26623211   -119.13056     3855.295    4.2434387    4.2434387    4.2434387     3855.295    8255.6512    12974.841   -9664.6072   -265.30812   -1.9928259    1817.3105    76.410635 
   29800    421.02097   -119.50959   0.38094862   -119.12865   -11446.257     4.245589     4.245589     4.245589   -11446.257   -11578.859   -19087.384    -3672.527   -6875.7656    856.12008   -900.91308    76.526854 
   29900    290.03015   -119.39102   0.26242537   -119.12859    175.46718    4.2393541    4.2393541    4.2393541    175.46718    19297.662    3524.8622   -22296.123    6880.9063    1216.9965    3363.0467    76.190192 
   30000    502.59517   -119.58287   0.45475867   -119.12811    -3283.534    4.2422246    4.2422246    4.2422246    -3283.534    704.28984   -10650.272    95.380378   -906.59288     4048.252    1911.3197    76.345063 
   30100    360.77125   -119.45441   0.32643341   -119.12797   -1548.7564    4.2460899    4.2460899    4.2460899   -1548.7564    5709.0731      8860.17   -19215.512    5195.2044    3730.5234   -2160.2759     76.55394 
   30200    355.34984   -119.44911   0.32152801   -119.12758    5935.7471    4.2377965    4.2377965    4.2377965    5935.7471    20974.187   -3929.8094    762.86376    1174.5836    5749.7607    7968.6535    76.106244 
   30300    412.92602   -119.50205   0.37362414   -119.12843    4360.9624    4.2437366    4.2437366    4.2437366    4360.9624    4417.6635    24346.704    -15681.48    790.94462    4252.9638   -960.15826    76.426727 
   30400    427.38298   -119.51556    0.3867051   -119.12886    95.064117    4.2443903    4.2443903    4.2443903    95.064117    5909.3742   -3575.0464   -2049.1355   -524.60413    3388.2538    7136.8348    76.462052 
   30500    379.91914   -119.47159   0.34375882   -119.12783    48.088773    4.2384977    4.2384977    4.2384977    48.088773    9216.9954    845.02845   -9917.7576   -2005.2829      1053.11   -5463.1612    76.144029 
   30600    388.22424    -119.4796   0.35127345   -119.12833   -5559.5404    4.2436367    4.2436367    4.2436367   -5559.5404    1215.4711    -8669.253   -9224.8392   -2010.5288    290.72373     4719.994    76.421332 
   30700    489.02128   -119.57082   0.44247673   -119.12834   -9326.9341    4.2455205    4.2455205    4.2455205   -9326.9341   -9298.1123   -7975.2253   -10707.465   -6187.1985   -1996.8244    314.09887    76.523149 
   30800    326.81894   -119.42418   0.29571265   -119.12847    665.15054    4.2385499    4.2385499    4.2385499    665.15054    23245.102   -11709.975    -9539.675     3521.138   -973.34745    -760.0424    76.146844 
   30900    432.43487   -119.52021   0.39127616   -119.12893   -7328.9006    4.2454343    4.2454343    4.2454343   -7328.9006   -4665.1187    3586.4224   -20908.005   -3006.2377   -1883.6361   -4095.4347    76.518486 
   31000    389.05365   -119.48213   0.35202392    -119.1301    7869.6743    4.2435644    4.2435644    4.2435644    7869.6743    21339.748    7842.5665   -5573.2922    6983.2785    1805.1215   -3179.3791    76.417424 
   31100    500.03181   -119.58203   0.45243929   -119.12959    2039.2749    4.2373908    4.2373908    4.2373908    2039.2749    14920.106    3157.2173   -11959.499   -2730.3969   -816.57739   -2520.7253    76.084391 
   31200    328.66364   -119.42693   0.29738177   -119.12955    2034.1076     4.244373     4.244373     4.244373    2034.1076    7760.3123    8204.5206     -9862.51    9245.0553    4661.5223   -4002.2036    76.461116 
   31300    392.03879   -119.48383   0.35472494    -119.1291   -4478.0882    4.2433631    4.2433631    4.2433631   -4478.0882    10835.538    -10901.28   -13368.522   -2395.0577    2924.0719   -1639.0737    76.406549 
   31400    443.50144   -119.53014   0.40128942   -119.12885    -6107.276    4.2390971    4.2390971    4.2390971    -6107.276    847.98245   -7680.8445   -11488.966    8620.3953    2327.0807   -6316.6796    76.176339 
   31500    336.69456   -119.43456   0.30464831   -119.12991   -442.96692    4.2442865    4.2442865    4.2442865   -442.96692    14743.565   -8494.4952   -7577.9702    1680.0764    5404.6527    3831.1013    76.456442 
   31600    432.68716   -119.52043   0.39150444   -119.12892   -5926.3748    4.2432191    4.2432191    4.2432191   -5926.3748    14032.022   -8445.8176   -23365.328   -2104.8571   -751.67055   -3393.2312    76.398771 
   31700    337.51433   -119.43514   0.30539006   -119.12975    9216.1654    4.2381549    4.2381549    4.2381549    9216.1654    21712.832    13385.352   -7449.6877     2998.956    3829.8262    883.47064    76.125558 
   31800    462.12222   -119.54794    0.4181379    -119.1298   -1444.3052    4.2447546    4.2447546    4.2447546   -1444.3052    4361.6769    9131.4329   -17826.025   -5372.1544   -1119.3251   -3204.4112    76.481742 
   31900    379.46184   -119.47162   0.34334504   -119.12828    4539.6634    4.2414579    4.2414579    4.2414579    4539.6634    20261.801   -1216.3919    -5426.419    6003.2177    2013.7338    4267.5433     76.30368 
   32000    377.12493   -119.47028   0.34123056   -119.12905   -432.66787    4.2417269    4.2417269    4.2417269   -432.66787    2799.6789    13853.597    -17951.28   -2351.3152   -861.78849   -2116.8095    76.318199 
   32100    404.67167   -119.49526   0.36615543   -119.12911   -4541.7004     4.245596     4.245596     4.245596   -4541.7004     3147.182   -10971.578    -5800.705    5711.9086    3029.4091    857.80243    76.527231 
   32200    437.57467   -119.52482   0.39592675    -119.1289   -1420.2092    4.2395014    4.2395014    4.2395014   -1420.2092    15461.255   -2347.9562   -17373.927    1364.8541      1802.91   -1657.1764    76.198136 
   32300    404.14831    -119.4942   0.36568189   -119.12852    -5080.636    4.2436234    4.2436234    4.2436234    -5080.636    2494.1152   -11642.203   -6093.8198     8835.212    3394.1247   -1920.7895    76.420609 
   32400      368.497   -119.46142   0.33342383     -119.128    4353.1987    4.2410235    4.2410235    4.2410235    4353.1987    14520.728     13045.93   -14507.062    2386.3739    1903.7947     1207.201    76.280235 
   32500    458.18176   -119.54424   0.41457248   -119.12967    59.020305    4.2420987    4.2420987    4.2420987    59.020305    19256.766   -10270.442   -8809.2638    4848.2099   -50.266829   -5533.3674    76.338268 
   32600    416.91817   -119.50815   0.37723632   -119.13092    868.65553    4.2424931    4.2424931    4.2424931    868.65553   -750.19479    19733.749   -16377.588   -150.45241   -34.653434    35.159982    76.359562 
   32700    347.21166   -119.44542   0.31416441   -119.13125   -4296.7821     4.241848     4.241848     4.241848   -4296.7821    9751.0405     -10140.2   -12501.187    287.20924   -2753.1474   -3826.1978    76.324734 
   32800    412.40283   -119.50332   0.37315074   -119.13017   -5145.3628    4.2448177    4.2448177    4.2448177   -5145.3628   -12093.614    7831.4949   -11173.969   -2375.6632   -1531.9257    3874.2903    76.485149 
   32900    467.28775   -119.55245   0.42281177   -119.12964    -3493.172    4.2405769    4.2405769    4.2405769    -3493.172    13631.129   -11100.606   -13010.039   -6589.5192    1557.4056   -3506.5402     76.25614 
   33000     329.6488   -119.42823   0.29827316   -119.12996    705.24303    4.2420285    4.2420285    4.2420285    705.24303   -354.62141    17815.388   -15345.037     624.3068    2021.3431    4706.8089    76.334477 
   33100    391.96517   -119.48281   0.35465832   -119.12815    4454.8494    4.2438835    4.2438835    4.2438835    4454.8494    12966.088    2789.1091   -2390.6485   -2676.6441    3649.9562   -1128.2083    76.434662 
   33200    432.59892   -119.51909   0.39142459   -119.12766    4612.5812    4.2407614    4.2407614    4.2407614    4612.5812   -480.97547    26528.338   -12209.619    6376.8281    4532.8567    1764.1261    76.266098 
   33300    416.52626   -119.50486   0.37688172   -119.12798    7227.1138    4.2407751    4.2407751    4.2407751    7227.1138    14098.834    9873.7578   -2291.2508   -380.46964    4781.7302   -829.70532    76.266836 
   33400    266.38643   -119.36903   0.24103204     -119.128   -406.11702    4.2467686    4.2467686    4.2467686   -406.11702   -13089.163      22936.2   -11065.388    8174.7127    3685.9016   -5301.8277    76.590658 
   33500    493.33333    -119.5748   0.44637837   -119.12842   -5111.5861    4.2406252    4.2406252    4.2406252   -5111.5861   -2334.1651    896.35861   -13896.952    2551.1594    1715.2218   -794.17774    76.258747 
   33600    358.74103   -119.45324   0.32459642   -119.12864   -1749.0015     4.243247     4.243247     4.243247   -1749.0015    136.30998    7283.2365   -12666.551     31.02374    -1392.749   -10287.339    76.400278 
   33700    405.33703   -119.49412   0.36675747   -119.12737   -11757.364    4.2462755    4.2462755    4.2462755   -11757.364   -10387.597   -5974.0941     -18910.4    -585.2459    1608.6444    3306.1885     76.56398 
   33800    338.83984   -119.43409    0.3065894    -119.1275    3008.0461    4.2405646    4.2405646    4.2405646    3008.0461    10690.515    13016.825   -14683.201   -1310.3358   -3435.7481   -10744.815    76.255481 
[...]
   91300    424.71642   -119.51055   0.38429234   -119.12626    2249.3958    4.2369233    4.2369233    4.2369233    2249.3958    3161.8409    7285.5532   -3699.2068    1375.6512    6646.9145    2839.7148    76.059207 
   91400    338.74664   -119.43392   0.30650507   -119.12742    -95.39852    4.2407526    4.2407526    4.2407526    -95.39852    1676.8064    5393.1303   -7356.1323    1156.4717   -99.214271   -5301.6896    76.265619 
   91500    505.15162   -119.58431    0.4570718   -119.12723   -5496.8244    4.2449658    4.2449658    4.2449658   -5496.8244    1773.4872   -9795.6961   -8468.2642   -3313.1081    624.06463    -492.7018    76.493159 
   91600    287.64731   -119.38856   0.26026933   -119.12829    1755.3806    4.2375953    4.2375953    4.2375953    1755.3806    11766.821   -1784.1422   -4716.5374    -783.7838   -3642.2636    -1726.522    76.095408 
   91700    474.11609   -119.55838    0.4289902   -119.12939   -8946.2852    4.2435733    4.2435733    4.2435733   -8946.2852    1597.1408   -19485.168   -8950.8285    3410.1418    5681.3552   -1191.5271    76.417907 
   91800    298.25961   -119.39957   0.26987157   -119.12969    6601.3248    4.2433386    4.2433386    4.2433386    6601.3248    30515.342    8369.4785   -19080.847    2679.3251   -2499.9621   -324.78303    76.405224 
   91900    506.06078   -119.58515   0.45789443   -119.12726   -5057.2302    4.2374047    4.2374047    4.2374047   -5057.2302    3510.2225   -9078.5354   -9603.3779    6231.4608    1186.5052   -1716.7564    76.085136 
   92000    253.69793   -119.35814   0.22955121   -119.12859    7833.2195    4.2435729    4.2435729    4.2435729    7833.2195    30894.772    12937.084   -20332.198    7020.5376   -2446.9513    1963.4518    76.417881 
   92100    613.38804   -119.68215   0.55500639   -119.12714   -10894.209    4.2421634    4.2421634    4.2421634   -10894.209   -5683.8293   -7611.6275   -19387.171    4443.3049    3246.1438    4857.2459    76.341763 
   92200    275.17078   -119.37817    0.2489803   -119.12919      8378.93    4.2356482    4.2356482    4.2356482      8378.93    11198.643    31296.112   -17357.965    7525.7651    7483.4782    2298.1318    75.990561 
   92300    459.87749   -119.54364   0.41610682   -119.12754   -12474.768     4.245481     4.245481     4.245481   -12474.768   -9660.8816   -18202.211   -9561.2115    -411.6483   -1863.6536   -977.05283    76.521012 
   92400    252.92646   -119.35805   0.22885317   -119.12919    4615.1177    4.2403423    4.2403423    4.2403423    4615.1177    20756.775    2217.8998   -9129.3214   -2077.2498    1284.5516     1816.931    76.243485 
   92500    635.35826   -119.70325   0.57488551   -119.12836   -3798.3318    4.2388108    4.2388108    4.2388108   -3798.3318   -5392.2199   -2577.4395   -3425.3358   -1541.8635    -158.3286   -1979.8188    76.160903 
   92600    180.78742    -119.2945   0.16358026   -119.13092    6985.1423    4.2436899    4.2436899    4.2436899    6985.1423    33257.501    -3712.626   -8589.4484   -3268.8129    2575.4864   -174.40335    76.424202 
   92700    445.85696   -119.53315   0.40342075   -119.12973   -3021.3483    4.2396368    4.2396368    4.2396368   -3021.3483    7734.9323   -11530.823   -5268.1539   -2170.5025   -1965.2151   -5023.2878    76.205437 
   92800    345.29287   -119.44251   0.31242825   -119.13008    10112.285    4.2385736    4.2385736    4.2385736    10112.285    16735.009    30774.997   -17173.152   -994.43625    1534.3264   -464.88927    76.148121 
   92900    595.16128   -119.66642   0.53851444   -119.12791    -7408.185    4.2418996    4.2418996    4.2418996    -7408.185   -1865.4022   -8361.6695   -11997.483   -4854.7839   -2214.4044    328.12231    76.327518 
   93000    206.17913   -119.31541   0.18655521   -119.12885    5460.4682    4.2415721    4.2415721    4.2415721    5460.4682    4814.9951    28656.022   -17089.613    2719.0186    8555.3004   -819.77281    76.309842 
   93100    442.85896   -119.52948   0.40070809   -119.12878   -9233.6585     4.239396     4.239396     4.239396   -9233.6585   -7648.8567   -4162.5924   -15889.526    1964.8495    4907.7307   -911.68178    76.192456 
   93200    342.32629   -119.43914   0.30974402    -119.1294    1005.7245    4.2442258    4.2442258    4.2442258    1005.7245    16894.268    4642.1318   -18519.226    1270.4076    124.36223   -6149.5116    76.453159 
   93300    552.20576   -119.62634   0.49964738   -119.12669   -10035.551    4.2415168    4.2415168    4.2415168   -10035.551   -7733.2924   -8849.5319   -13523.827    5381.1309    5378.5642    2471.1041    76.306858 
   93400    245.48994   -119.34993   0.22212446    -119.1278    1260.0429     4.240283     4.240283     4.240283    1260.0429    20340.136   -2441.5705   -14118.437   -4196.1526   -709.28956   -4667.4751    76.240288 
   93500    524.28979   -119.60192   0.47438842   -119.12753   -5967.5655    4.2435332    4.2435332    4.2435332   -5967.5655   -220.48916    -5057.152   -12625.055      4488.53    3622.8006    -4189.505    76.415741 
   93600    346.14023   -119.44164   0.31319496   -119.12844    4165.2474    4.2403645    4.2403645    4.2403645    4165.2474    1549.0183    12102.642   -1155.9182    -3474.475   -4784.3616   -3009.6803    76.244685 
   93700     494.7862   -119.57447   0.44769296   -119.12678    1161.6023    4.2391095    4.2391095    4.2391095    1161.6023    2191.5884    6240.4207   -4947.2022    2674.5994   -592.05639    2031.9941    76.177006 
   93800     356.9938   -119.45123   0.32301549   -119.12822    4595.9054    4.2422925    4.2422925    4.2422925    4595.9054     4702.758    4866.5617    4218.3965   -1874.2896   -1728.2396    1238.1895    76.348734 
   93900    437.35545   -119.52374   0.39572841   -119.12801    1195.3215    4.2396171    4.2396171    4.2396171    1195.3215    3294.5973    7906.4395   -7615.0723    3601.5999    1270.9568    1789.8302    76.204376 
   94000    374.52356   -119.46657   0.33887679    -119.1277    2686.2028    4.2417157    4.2417157    4.2417157    2686.2028    22903.493   -5556.2673   -9288.6167    -773.1548   -510.74761   -2813.8459    76.317596 
   94100    321.79831   -119.41846   0.29116987   -119.12729   -5526.1671    4.2418903    4.2418903    4.2418903   -5526.1671    12401.696   -15497.666   -13482.531    3973.5272     377.0576   -671.21344    76.327019 
   94200    522.89236   -119.60006   0.47312399   -119.12693   -8067.1461    4.2413144    4.2413144    4.2413144   -8067.1461    572.69643   -6641.1274   -18133.007   -2941.4321    -2368.562    4994.8533    76.295934 
   94300    377.96635   -119.47076    0.3419919   -119.12877   -4208.5575    4.2425155    4.2425155    4.2425155   -4208.5575    6568.2922   -1424.4902   -17769.474   -5855.9853    5956.3121    -4617.537     76.36077 
   94400    384.03427   -119.47757   0.34748228   -119.13009   -4467.2239    4.2381381    4.2381381    4.2381381   -4467.2239    3206.5478   -7843.1164   -8765.1032   -937.59121    1749.5162     105.6046     76.12465 
   94500    320.78715   -119.42081   0.29025495   -119.13056    7770.7302    4.2405897    4.2405897    4.2405897    7770.7302   -5991.2832    32672.987   -3369.5128   -6513.8784    2435.4285   -1863.5801     76.25683 
   94600    532.08512   -119.61203    0.4814418   -119.13059   -906.74944    4.2397142    4.2397142    4.2397142   -906.74944    10913.507   -2547.7887   -11085.967    6188.2255    2026.2301    3217.2423    76.209609 
   94700    245.76705    -119.3544   0.22237519   -119.13203    11410.793    4.2374507    4.2374507    4.2374507    11410.793    9648.8062    11757.252    12826.322   -2472.6022   -1134.4918    2562.0945    76.087614 
   94800    429.62353   -119.51943    0.3887324    -119.1307    -9729.996    4.2450717    4.2450717    4.2450717    -9729.996    2559.3272   -16043.371   -15705.944    3314.9062    2378.4454   -1183.2216    76.498884 
   94900    383.58754   -119.47793   0.34707807   -119.13085     6548.893    4.2374097    4.2374097    4.2374097     6548.893     7360.116    15022.526   -2735.9625   -6486.2686   -3902.7805   -4838.8887    76.085406 
   95000     490.9975   -119.57451   0.44426485   -119.13024   -7335.9825    4.2418894    4.2418894    4.2418894   -7335.9825   -15.024736   -9756.1933    -12236.73    1786.0222   -575.53872     1385.344    76.326968 
   95100    198.65439   -119.30858   0.17974667   -119.12883   -1297.1187    4.2449168    4.2449168    4.2449168   -1297.1187   -7262.8288    19391.154   -16019.681   -3015.1073   -3603.0375   -430.42909    76.490506 
   95200    481.22734   -119.56284   0.43542461   -119.12742    18.856195    4.2368639    4.2368639    4.2368639    18.856195    5329.6538    7253.5314   -12526.617    785.68023    1177.3771    5096.8971    76.056012 
   95300    492.10347   -119.57337   0.44526556    -119.1281   -4095.8728    4.2434213    4.2434213    4.2434213   -4095.8728   -10263.307    12079.926   -14104.238   -4771.0126   -1183.4239   -387.56628    76.409692 
   95400    417.33526   -119.50425   0.37761372   -119.12664    -2355.501    4.2431825    4.2431825    4.2431825    -2355.501   -4566.4887    7532.5555    -10032.57   -903.89261   -568.71543    5217.0933    76.396794 
   95500    289.47756   -119.38919   0.26192538   -119.12727    2136.1289    4.2362817    4.2362817    4.2362817    2136.1289    5773.4203    3894.9599   -3259.9935    1746.6023   -115.09062    8461.0543    76.024659 
   95600    449.29631   -119.53431   0.40653274   -119.12778   -845.58882    4.2442505    4.2442505    4.2442505   -845.58882   -2810.1808    199.25758    74.156716   -4022.7785   -366.64161    4915.6565    76.454494 
   95700    476.67703   -119.55769   0.43130739   -119.12638   -9.7893086    4.2437348    4.2437348    4.2437348   -9.7893086    3137.2005    14750.456   -17917.025    2553.0816    797.18782    1971.6372    76.426629 
   95800    387.47155    -119.4774    0.3505924   -119.12681    2610.7284      4.23612      4.23612      4.23612    2610.7284    5613.8768    -63.91098    2282.2194   -7057.6397    477.36587   -85.923133    76.015957 
   95900    313.22272   -119.41283    0.2834105   -119.12942    1770.7942    4.2466262    4.2466262    4.2466262    1770.7942    2782.4338    16545.842   -14015.894    3890.1543    2821.8932     179.1571     76.58295 
   96000    492.95972   -119.57457   0.44604031   -119.12853   -4417.5408    4.2420747    4.2420747    4.2420747   -4417.5408    -4107.234    694.85873   -9840.2472   -3178.9566    1461.2955    1598.6199    76.336971 
   96100    252.03286   -119.35649   0.22804463   -119.12845    8015.6437    4.2342395    4.2342395    4.2342395    8015.6437    11980.536    16700.286   -4633.8916    5159.7924    5951.3856   -370.29627    75.914768 
   96200    530.02822   -119.60711   0.47958068   -119.12753   -13741.952    4.2476948    4.2476948    4.2476948   -13741.952   -14418.747   -8817.9147   -17989.193   -2082.9374    783.05465   -3590.2783    76.640782 
   96300    283.54589   -119.38739   0.25655828   -119.13084    2909.0984    4.2403477    4.2403477    4.2403477    2909.0984    9807.9438     18346.09   -19426.739    5484.2039    749.39465    4404.2172    76.243779 
   96400    575.31668   -119.64916   0.52055863    -119.1286   -4047.0111    4.2340446    4.2340446    4.2340446   -4047.0111   -969.02475   -1176.0124   -9995.9962    3107.4717   -588.11478    2389.6931    75.904285 
   96500     217.0731   -119.32576    0.1964123   -119.12935   -2193.3987    4.2508928    4.2508928    4.2508928   -2193.3987   -3902.7254    25230.215   -27907.685    6037.1919   -2258.7094    742.21868    76.814015 
   96600    557.69099   -119.63238   0.50461053   -119.12777   -4936.9597    4.2381871    4.2381871    4.2381871   -4936.9597     -4871.91   -2739.8407   -7199.1286   -1056.4722     278.1629   -434.17076     76.12729 
   96700    352.95638   -119.44951   0.31936235   -119.13014    8163.4441    4.2358162    4.2358162    4.2358162    8163.4441     8561.916    25304.713   -9376.2967    784.89316     -3667.36     -2885.27    75.999601 
   96800    420.40266   -119.50874   0.38038916   -119.12835   -11563.094    4.2506763    4.2506763    4.2506763   -11563.094   -8830.1237   -12879.043   -12980.116   -2840.9756   -760.91641    1119.9057    76.802279 
   96900    266.07906   -119.36833   0.24075393   -119.12758     9269.094    4.2344626    4.2344626    4.2344626     9269.094    5213.7635    17890.599    4702.9191    4286.9208    1619.0761   -2120.1704    75.926764 
   97000    523.19576   -119.60181   0.47339852   -119.12841    92.385733    4.2375234    4.2375234    4.2375234    92.385733    2887.5622    5370.1143   -7980.5192   -2646.8743    1362.5022   -2241.6659    76.091532 
   97100    343.30896   -119.44008   0.31063316   -119.12944    3271.2554    4.2489071    4.2489071    4.2489071    3271.2554    3334.2857    17542.648   -11063.167   -1365.6472   -2323.7197   -3250.0871    76.706416 
   97200    376.53916   -119.46869   0.34070054   -119.12799    4967.6818    4.2352334    4.2352334    4.2352334    4967.6818    16016.793   -2100.7463    986.99915   -468.08221     17.91619    1201.3769    75.968236 
   97300    360.81015   -119.45486   0.32646861   -119.12839    3402.0162    4.2397894    4.2397894    4.2397894    3402.0162    1192.1867    18856.352   -9842.4904   -4434.5804   -2160.3567   -1451.1281    76.213666 
   97400     502.6364   -119.58318   0.45479598   -119.12839   -9501.0522    4.2497224    4.2497224    4.2497224   -9501.0522    491.98131   -7697.3953   -21297.743     2144.276    3032.8727    62.745094    76.750581 
   97500     308.3601   -119.40624    0.2790107   -119.12723   -3687.7746    4.2342777    4.2342777    4.2342777   -3687.7746   -2326.4456   -3992.0348   -4744.8435   -11098.614   -1499.7185   -4850.4367     75.91682 
   97600    359.21107   -119.45297   0.32502173   -119.12795   -3749.8648    4.2403378    4.2403378    4.2403378   -3749.8648   -5878.4472    11843.616   -17214.763   -4649.0311    -5712.741   -3813.8814    76.243246 
   97700    470.60823   -119.55265   0.42581622   -119.12683   -6304.3927    4.2483983    4.2483983    4.2483983   -6304.3927   -1883.7586    1271.6825   -18301.102   -6676.0489    3480.2334    125.36361    76.678863 
   97800    518.72459   -119.59591   0.46935291   -119.12656    7601.3095     4.230631     4.230631     4.230631    7601.3095    6326.1304    19039.156   -2561.3576   -2611.2782   -3147.8566   -3436.0986    75.720841 
   97900    289.80196   -119.39048    0.2622189   -119.12826    3554.3705    4.2441914    4.2441914    4.2441914    3554.3705    2406.4307      18732.3   -10475.619   -6821.8194   -1103.0432   -4480.6752    76.451304 
   98000    417.85094   -119.50603   0.37808031   -119.12795   -5425.4036    4.2456187    4.2456187    4.2456187   -5425.4036    425.27602   -4982.2442   -11719.243   -2042.1779   -4719.1562   -5158.8089     76.52846 
   98100    460.50679   -119.54354   0.41667622   -119.12686     7495.026    4.2315744    4.2315744    4.2315744     7495.026    9319.3327    9457.8627    3707.8825   -6329.0343   -1107.5629   -2550.1438     75.77151 
   98200    411.73667   -119.50047   0.37254799   -119.12793   -11658.412    4.2477223    4.2477223    4.2477223   -11658.412   -4038.9197   -14309.527   -16626.788    3474.4364   -1657.2091      1680.27    76.642266 
   98300    359.76208   -119.45432   0.32552029    -119.1288   -5953.6174    4.2420674    4.2420674    4.2420674   -5953.6174   -6498.8018   -614.92238   -10747.128   -1121.7598    -1954.719   -909.60763    76.336582 
   98400    391.82686   -119.48483   0.35453318    -119.1303    6091.4863    4.2333953    4.2333953    4.2333953    6091.4863    10722.282    2651.0391    4901.1378   -5405.5081   -3442.6516   -3377.1685    75.869366 
   98500    441.45075   -119.52892   0.39943392   -119.12949   -2763.7345    4.2462292    4.2462292    4.2462292   -2763.7345   -6052.8199    23232.261   -25470.645   -661.36707    -714.5724    4765.9633    76.561473 
   98600    263.86912   -119.36617   0.23875433   -119.12741    10511.605    4.2401452    4.2401452    4.2401452    10511.605    34769.741    1401.9425   -4636.8691   -6023.5309    2577.1218    2728.7859    76.232856 
   98700    512.84749   -119.59295   0.46403518   -119.12891    612.75459    4.2360913    4.2360913    4.2360913    612.75459     7288.076    6481.1233   -11930.936    608.52366   -993.40884    1394.6831    76.014411 
   98800     346.5835   -119.44423   0.31359603   -119.13063    -1920.898     4.247976     4.247976     4.247976    -1920.898      19511.5   -5318.0391   -19956.155   -4833.2335    929.78482   -1286.7925    76.656002 
   98900    430.04108   -119.51727    0.3891102   -119.12816   -9971.0782    4.2377477    4.2377477    4.2377477   -9971.0782    3720.1078   -15012.651   -18620.692   -195.82199   -905.96628   -2411.9561    76.103614 
   99000    300.54462   -119.40092   0.27193909   -119.12898   -3248.4703    4.2400829    4.2400829    4.2400829   -3248.4703    14196.736   -19346.131   -4596.0154   -4987.1531   -2028.1275    5386.3342    76.229493 
   99100    513.09517   -119.59358   0.46425929   -119.12932   -5601.0611     4.244637     4.244637     4.244637   -5601.0611    3687.7716   -868.89776   -19622.057   -1153.6861   -2778.5844   -2148.9819    76.475386 
   99200    392.08868    -119.4836   0.35477008   -119.12883    1380.9185    4.2365371    4.2365371    4.2365371    1380.9185    13023.328   -9138.7732    258.20082   -2268.5298   -4300.9508   -4201.9192    76.038414 
   99300     303.1849    -119.4024   0.27432807   -119.12807    11169.959    4.2381907    4.2381907    4.2381907    11169.959      15726.4    15871.367    1912.1097   -5630.3018   -3959.3896   -1964.9132    76.127484 
   99400    421.60902   -119.50903    0.3814807   -119.12755    1310.0564    4.2438905    4.2438905    4.2438905    1310.0564    13379.061    3397.2855   -12846.177    -2442.718    361.89952    2367.7363    76.435044 
   99500    450.20905    -119.5347   0.40735861   -119.12734    13717.342     4.236622     4.236622     4.236622    13717.342    26722.525    8788.8343    5640.6671   -70.041121   -2316.0038    545.65254    76.042984 
   99600    366.85821   -119.45964   0.33194102    -119.1277   -1180.2496    4.2426454    4.2426454    4.2426454   -1180.2496     4728.075    1911.2365    -10180.06   -905.86572   -1510.9282   -706.00855    76.367786 
   99700    331.71718   -119.42845   0.30014467   -119.12831   -10326.344    4.2451497    4.2451497    4.2451497   -10326.344   -5833.3155    -9112.314   -16033.403    4702.4617   -2453.9338   -647.41867    76.503097 
   99800    415.83232   -119.50477   0.37625382   -119.12851   -2899.3818    4.2362923    4.2362923    4.2362923   -2899.3818    9392.1475   -6635.5239   -11454.769   -5811.2679    -5311.943     3523.329    76.025233 
   99900    433.16038   -119.52008   0.39193261   -119.12815   -13364.792    4.2439488    4.2439488    4.2439488   -13364.792    -7541.086    -14645.74   -17907.551    1775.5241    999.44712    5308.9517    76.438191 
  100000     283.6617   -119.38345   0.25666306   -119.12678    -1276.114     4.242924     4.242924     4.242924    -1276.114    14449.341    578.15638   -18855.839    1144.0862   -6531.0454   -6019.2828    76.382833 
Loop time of 223.359 on 1 procs for 100000 steps with 8 atoms

Pair  time (%) = 76.0079 (34.0295)
Kspce time (%) = 56.0678 (25.1021)
Neigh time (%) = 0 (0)
Comm  time (%) = 10.7805 (4.82654)
Outpt time (%) = 0.346721 (0.155231)
Other time (%) = 80.1557 (35.8865)

Nlocal:    8 ave 8 max 8 min
Histogram: 1 0 0 0 0 0 0 0 0 0
Nghost:    2189 ave 2189 max 2189 min
Histogram: 1 0 0 0 0 0 0 0 0 0
Neighs:    2472 ave 2472 max 2472 min
Histogram: 1 0 0 0 0 0 0 0 0 0

Total # of neighbors = 2472
Ave neighs/atom = 309
Neighbor list builds = 0
Dangerous builds = 0
unfix 20
unfix 21
print "seeds:4338993"
seeds:4338993
