# ['Ni']

107 atoms
1 atom types

    0.0000    10.9248 xlo xhi
    0.0000    10.9248 ylo yhi
    0.0000    10.9248 zlo zhi

    0.0000    -0.0000    -0.0000 xy xz yz

Atoms

1 1     1.8208     1.8208     0.0000
2 1     1.8208     0.0000     1.8208
3 1     0.0000     1.8208     1.8208
4 1     0.0000     0.0000     3.6416
5 1     1.8208     1.8208     3.6416
6 1     1.8208     0.0000     5.4624
7 1     0.0000     1.8208     5.4624
8 1     0.0000     0.0000     7.2832
9 1     1.8208     1.8208     7.2832
10 1     1.8208     0.0000     9.1040
11 1     0.0000     1.8208     9.1040
12 1     0.0000     3.6416     0.0000
13 1     1.8208     5.4624     0.0000
14 1     1.8208     3.6416     1.8208
15 1     0.0000     5.4624     1.8208
16 1     0.0000     3.6416     3.6416
17 1     1.8208     5.4624     3.6416
18 1     1.8208     3.6416     5.4624
19 1     0.0000     5.4624     5.4624
20 1     0.0000     3.6416     7.2832
21 1     1.8208     5.4624     7.2832
22 1     1.8208     3.6416     9.1040
23 1     0.0000     5.4624     9.1040
24 1     0.0000     7.2832     0.0000
25 1     1.8208     9.1040     0.0000
26 1     1.8208     7.2832     1.8208
27 1     0.0000     9.1040     1.8208
28 1     0.0000     7.2832     3.6416
29 1     1.8208     9.1040     3.6416
30 1     1.8208     7.2832     5.4624
31 1     0.0000     9.1040     5.4624
32 1     0.0000     7.2832     7.2832
33 1     1.8208     9.1040     7.2832
34 1     1.8208     7.2832     9.1040
35 1     0.0000     9.1040     9.1040
36 1     3.6416     0.0000     0.0000
37 1     5.4624     1.8208     0.0000
38 1     5.4624     0.0000     1.8208
39 1     3.6416     1.8208     1.8208
40 1     3.6416     0.0000     3.6416
41 1     5.4624     1.8208     3.6416
42 1     5.4624     0.0000     5.4624
43 1     3.6416     1.8208     5.4624
44 1     3.6416     0.0000     7.2832
45 1     5.4624     1.8208     7.2832
46 1     5.4624     0.0000     9.1040
47 1     3.6416     1.8208     9.1040
48 1     3.6416     3.6416     0.0000
49 1     5.4624     5.4624     0.0000
50 1     5.4624     3.6416     1.8208
51 1     3.6416     5.4624     1.8208
52 1     3.6416     3.6416     3.6416
53 1     5.4624     5.4624     3.6416
54 1     5.4624     3.6416     5.4624
55 1     3.6416     5.4624     5.4624
56 1     3.6416     3.6416     7.2832
57 1     5.4624     5.4624     7.2832
58 1     5.4624     3.6416     9.1040
59 1     3.6416     5.4624     9.1040
60 1     3.6416     7.2832     0.0000
61 1     5.4624     9.1040     0.0000
62 1     5.4624     7.2832     1.8208
63 1     3.6416     9.1040     1.8208
64 1     3.6416     7.2832     3.6416
65 1     5.4624     9.1040     3.6416
66 1     5.4624     7.2832     5.4624
67 1     3.6416     9.1040     5.4624
68 1     3.6416     7.2832     7.2832
69 1     5.4624     9.1040     7.2832
70 1     5.4624     7.2832     9.1040
71 1     3.6416     9.1040     9.1040
72 1     7.2832     0.0000     0.0000
73 1     9.1040     1.8208     0.0000
74 1     9.1040     0.0000     1.8208
75 1     7.2832     1.8208     1.8208
76 1     7.2832     0.0000     3.6416
77 1     9.1040     1.8208     3.6416
78 1     9.1040     0.0000     5.4624
79 1     7.2832     1.8208     5.4624
80 1     7.2832     0.0000     7.2832
81 1     9.1040     1.8208     7.2832
82 1     9.1040     0.0000     9.1040
83 1     7.2832     1.8208     9.1040
84 1     7.2832     3.6416     0.0000
85 1     9.1040     5.4624     0.0000
86 1     9.1040     3.6416     1.8208
87 1     7.2832     5.4624     1.8208
88 1     7.2832     3.6416     3.6416
89 1     9.1040     5.4624     3.6416
90 1     9.1040     3.6416     5.4624
91 1     7.2832     5.4624     5.4624
92 1     7.2832     3.6416     7.2832
93 1     9.1040     5.4624     7.2832
94 1     9.1040     3.6416     9.1040
95 1     7.2832     5.4624     9.1040
96 1     7.2832     7.2832     0.0000
97 1     9.1040     9.1040     0.0000
98 1     9.1040     7.2832     1.8208
99 1     7.2832     9.1040     1.8208
100 1     7.2832     7.2832     3.6416
101 1     9.1040     9.1040     3.6416
102 1     9.1040     7.2832     5.4624
103 1     7.2832     9.1040     5.4624
104 1     7.2832     7.2832     7.2832
105 1     9.1040     9.1040     7.2832
106 1     9.1040     7.2832     9.1040
107 1     7.2832     9.1040     9.1040
