# ['Ni']

10 atoms
1 atom types

    0.0000     3.5625 xlo xhi
    0.0000     2.5502 ylo yhi
    0.0000    25.5016 zlo zhi

    0.0000     0.0000     0.0000 xy xz yz

Atoms

1 1     0.0000     0.0000     0.0000
2 1     1.7812     1.2751     1.2751
3 1     0.0000     0.0000     2.5502
4 1     1.7812     1.2751     3.8252
5 1     0.0000     0.0000     5.1003
6 1     1.7812     1.2751     6.3754
7 1     0.0000     0.0000     7.6505
8 1     1.7812     1.2751     8.9256
9 1     0.0000     0.0000    10.2006
10 1     1.7812     1.2751    11.4757
