LAMMPS (11 Aug 2017)
Reading data file ...
  triclinic box = (0 0 0) to (3.5167 3.5167 3.5167) with tilt (0 -0 0)
  1 by 1 by 1 MPI processor grid
  reading atoms ...
  4 atoms
4 atoms in group Ni
Neighbor list info ...
  update every 1 steps, delay 0 steps, check yes
  max neighbors/atom: 2000, page size: 100000
  master list distance cutoff = 5.64464
  ghost atom cutoff = 5.64464
  binsize = 2.82232, bins = 2 2 2
  1 neighbor lists, perpetual/occasional/extra = 1 0 0
  (1) pair eam/alloy, perpetual
      attributes: half, newton on
      pair build: half/bin/newton/tri
      stencil: half/bin/3d/newton/tri
      bin: standard
Setting up cg style minimization ...
  Unit style    : metal
  Current step  : 0
WARNING: Energy due to 3 extra global DOFs will be included in minimizer energies
Per MPI rank memory allocation (min/avg/max) = 4.211 | 4.211 | 4.211 Mbytes
Step PotEng Xhi Xlo Yhi Ylo Zhi Xy Xz Yz Press Pxx Pyy Pzz Pxy Pxz Pyz c_eatoms 
       0   -27.389251       3.5167            0       3.5167            0       3.5167            0           -0            0   -644814.72   -644814.72   -644814.72   -644814.72 -2.4539509e-11 -3.6809264e-11 2.8118188e-12   -27.389251 
      10   -27.907963    3.4991165    0.0175835    3.4991165    0.0175835    3.4991165            0           -0            0   -641132.31   -641132.31   -641132.31   -641132.31 1.2908778e-11 -3.5828445e-11 8.9044225e-11   -27.907963 
      20   -28.411444     3.481533     0.035167     3.481533     0.035167     3.481533            0           -0            0   -632358.28   -632358.28   -632358.28   -632358.28 5.1602413e-12 7.414452e-11 5.1330822e-11   -28.411444 
      30   -28.895702    3.4639495    0.0527505    3.4639495    0.0527505    3.4639495            0           -0            0   -617556.72   -617556.72   -617556.72   -617556.72 -2.128595e-11 2.8007828e-11 4.2011743e-11   -28.895702 
      40   -29.356239     3.446366     0.070334     3.446366     0.070334     3.446366            0           -0            0   -595644.09   -595644.09   -595644.09   -595644.09 -1.2712578e-11 1.3868266e-11 3.6982044e-11   -29.356239 
      50   -29.787994    3.4287825    0.0879175    3.4287825    0.0879175    3.4287825            0           -0            0   -565366.61   -565366.61   -565366.61   -565366.61 2.0869972e-11 1.3714553e-11 -3.518081e-11   -29.787994 
      60   -30.185273     3.411199     0.105501     3.411199     0.105501     3.411199            0           -0            0   -525274.22   -525274.22   -525274.22   -525274.22 9.4174323e-11 1.3726061e-10 1.3479854e-10   -30.185273 
      70   -30.541787    3.3936155    0.1230845    3.3936155    0.1230845    3.3936155            0           -0            0   -474543.17   -474543.17   -474543.17   -474543.17 -1.9067644e-12 -8.2626459e-12 -4.1948818e-11   -30.541787 
      80   -30.851549     3.376032     0.140668     3.376032     0.140668     3.376032            0           -0            0    -411945.4    -411945.4    -411945.4    -411945.4 3.1513917e-11 7.6158634e-11            0   -30.851549 
      90   -31.106835    3.3584485    0.1582515    3.3584485    0.1582515    3.3584485            0           -0            0   -333828.67   -333828.67   -333828.67   -333828.67 4.070537e-12 1.3568457e-11 4.7489599e-11   -31.106835 
     100   -31.298612     3.340865     0.175835     3.340865     0.175835     3.340865            0           -0            0   -237622.19   -237622.19   -237622.19   -237622.19 1.4025783e-12 1.5428361e-11 2.8051565e-11   -31.298612 
     110   -31.416747    3.3232815    0.1934185    3.3232815    0.1934185    3.3232815            0           -0            0   -120354.99   -120354.99   -120354.99   -120354.99 2.5381814e-11 -2.6832204e-11 4.2786487e-11   -31.416747 
     120   -31.450815    3.3081471   0.20855289    3.3081471   0.20855289    3.3081471            0           -0            0    51.523864    51.523864    51.523864    51.523864 5.0025435e-11 5.7491918e-11 6.9438291e-11   -31.450815 
     130   -31.450815    3.3081531   0.20854691    3.3081531   0.20854691    3.3081531            0           -0            0 1.7779979e-09 2.1488289e-09 2.1100036e-09 1.0751611e-09 1.8441999e-10 1.6127416e-10 1.3812833e-10   -31.450815 
Loop time of 0.00258183 on 1 procs for 130 steps with 4 atoms

100.0% CPU use with 1 MPI tasks x no OpenMP threads

Minimization stats:
  Stopping criterion = energy tolerance
  Energy initial, next-to-last, final = 
        -27.3892508071     -31.4508153311     -31.4508153311
  Force two-norm initial, final = 30.3173 6.87541e-14
  Force max component initial, final = 17.5037 4.53148e-14
  Final line search alpha, max atom move = 1 4.53148e-14
  Iterations, force evaluations = 130 142

MPI task timing breakdown:
Section |  min time  |  avg time  |  max time  |%varavg| %total
---------------------------------------------------------------
Pair    | 0.0013561  | 0.0013561  | 0.0013561  |   0.0 | 52.53
Neigh   | 2.0027e-05 | 2.0027e-05 | 2.0027e-05 |   0.0 |  0.78
Comm    | 0.00026703 | 0.00026703 | 0.00026703 |   0.0 | 10.34
Output  | 0.00012541 | 0.00012541 | 0.00012541 |   0.0 |  4.86
Modify  | 0          | 0          | 0          |   0.0 |  0.00
Other   |            | 0.0008132  |            |       | 31.50

Nlocal:    4 ave 4 max 4 min
Histogram: 1 0 0 0 0 0 0 0 0 0
Nghost:    360 ave 360 max 360 min
Histogram: 1 0 0 0 0 0 0 0 0 0
Neighs:    172 ave 172 max 172 min
Histogram: 1 0 0 0 0 0 0 0 0 0

Total # of neighbors = 172
Ave neighs/atom = 43
Neighbor list builds = 1
Dangerous builds = 0
pypospack:output_section:begin
tot_energy = -31.4508153310526
num_atoms = 4
a11 = 3.09960618628209
a22 = 3.09960618628209
a33 = 3.09960618628209
a12 = 0
a13 = -0
a23 = 0
tot_press = 1.77799786194734e-09
pxx = 2.14882888298619e-09
pyy = 2.11000362172306e-09
pzz = 1.07516108113277e-09
pxy = 1.84419990999857e-10
pxz = 1.61274162169916e-10
pyz = 1.38128333339974e-10
pypospack:output_section:done
pypospack:lammps_sim:done
Total wall time: 0:00:00
