# ['Ni']

107 atoms
1 atom types

    0.0000    10.4887 xlo xhi
    0.0000    10.4887 ylo yhi
    0.0000    10.4887 zlo zhi

    0.0000    -0.0000    -0.0000 xy xz yz

Atoms

1 1     1.7481     1.7481     0.0000
2 1     1.7481     0.0000     1.7481
3 1     0.0000     1.7481     1.7481
4 1     0.0000     0.0000     3.4962
5 1     1.7481     1.7481     3.4962
6 1     1.7481     0.0000     5.2444
7 1     0.0000     1.7481     5.2444
8 1     0.0000     0.0000     6.9925
9 1     1.7481     1.7481     6.9925
10 1     1.7481     0.0000     8.7406
11 1     0.0000     1.7481     8.7406
12 1     0.0000     3.4962     0.0000
13 1     1.7481     5.2444     0.0000
14 1     1.7481     3.4962     1.7481
15 1     0.0000     5.2444     1.7481
16 1     0.0000     3.4962     3.4962
17 1     1.7481     5.2444     3.4962
18 1     1.7481     3.4962     5.2444
19 1     0.0000     5.2444     5.2444
20 1     0.0000     3.4962     6.9925
21 1     1.7481     5.2444     6.9925
22 1     1.7481     3.4962     8.7406
23 1     0.0000     5.2444     8.7406
24 1     0.0000     6.9925     0.0000
25 1     1.7481     8.7406     0.0000
26 1     1.7481     6.9925     1.7481
27 1     0.0000     8.7406     1.7481
28 1     0.0000     6.9925     3.4962
29 1     1.7481     8.7406     3.4962
30 1     1.7481     6.9925     5.2444
31 1     0.0000     8.7406     5.2444
32 1     0.0000     6.9925     6.9925
33 1     1.7481     8.7406     6.9925
34 1     1.7481     6.9925     8.7406
35 1     0.0000     8.7406     8.7406
36 1     3.4962     0.0000     0.0000
37 1     5.2444     1.7481     0.0000
38 1     5.2444     0.0000     1.7481
39 1     3.4962     1.7481     1.7481
40 1     3.4962     0.0000     3.4962
41 1     5.2444     1.7481     3.4962
42 1     5.2444     0.0000     5.2444
43 1     3.4962     1.7481     5.2444
44 1     3.4962     0.0000     6.9925
45 1     5.2444     1.7481     6.9925
46 1     5.2444     0.0000     8.7406
47 1     3.4962     1.7481     8.7406
48 1     3.4962     3.4962     0.0000
49 1     5.2444     5.2444     0.0000
50 1     5.2444     3.4962     1.7481
51 1     3.4962     5.2444     1.7481
52 1     3.4962     3.4962     3.4962
53 1     5.2444     5.2444     3.4962
54 1     5.2444     3.4962     5.2444
55 1     3.4962     5.2444     5.2444
56 1     3.4962     3.4962     6.9925
57 1     5.2444     5.2444     6.9925
58 1     5.2444     3.4962     8.7406
59 1     3.4962     5.2444     8.7406
60 1     3.4962     6.9925     0.0000
61 1     5.2444     8.7406     0.0000
62 1     5.2444     6.9925     1.7481
63 1     3.4962     8.7406     1.7481
64 1     3.4962     6.9925     3.4962
65 1     5.2444     8.7406     3.4962
66 1     5.2444     6.9925     5.2444
67 1     3.4962     8.7406     5.2444
68 1     3.4962     6.9925     6.9925
69 1     5.2444     8.7406     6.9925
70 1     5.2444     6.9925     8.7406
71 1     3.4962     8.7406     8.7406
72 1     6.9925     0.0000     0.0000
73 1     8.7406     1.7481     0.0000
74 1     8.7406     0.0000     1.7481
75 1     6.9925     1.7481     1.7481
76 1     6.9925     0.0000     3.4962
77 1     8.7406     1.7481     3.4962
78 1     8.7406     0.0000     5.2444
79 1     6.9925     1.7481     5.2444
80 1     6.9925     0.0000     6.9925
81 1     8.7406     1.7481     6.9925
82 1     8.7406     0.0000     8.7406
83 1     6.9925     1.7481     8.7406
84 1     6.9925     3.4962     0.0000
85 1     8.7406     5.2444     0.0000
86 1     8.7406     3.4962     1.7481
87 1     6.9925     5.2444     1.7481
88 1     6.9925     3.4962     3.4962
89 1     8.7406     5.2444     3.4962
90 1     8.7406     3.4962     5.2444
91 1     6.9925     5.2444     5.2444
92 1     6.9925     3.4962     6.9925
93 1     8.7406     5.2444     6.9925
94 1     8.7406     3.4962     8.7406
95 1     6.9925     5.2444     8.7406
96 1     6.9925     6.9925     0.0000
97 1     8.7406     8.7406     0.0000
98 1     8.7406     6.9925     1.7481
99 1     6.9925     8.7406     1.7481
100 1     6.9925     6.9925     3.4962
101 1     8.7406     8.7406     3.4962
102 1     8.7406     6.9925     5.2444
103 1     6.9925     8.7406     5.2444
104 1     6.9925     6.9925     6.9925
105 1     8.7406     8.7406     6.9925
106 1     8.7406     6.9925     8.7406
107 1     6.9925     8.7406     8.7406
