# ['Ni']

28 atoms
1 atom types

    0.0000    12.8023 xlo xhi
    0.0000    22.1743 ylo yhi
    0.0000   146.3430 zlo zhi

    0.0000     0.0000     0.0000 xy xz yz

Atoms

1 1     0.0000     0.0000     0.0000
2 1     6.4012    11.0872     0.0000
3 1     6.4012     3.6957    10.4531
4 1     0.0000    14.7829    10.4531
5 1     0.0000     7.3914    20.9061
6 1     6.4012    18.4786    20.9061
7 1     0.0000     0.0000    31.3593
8 1     6.4012    11.0872    31.3593
9 1     6.4012     3.6957    41.8122
10 1     0.0000    14.7829    41.8122
11 1     0.0000     7.3914    52.2654
12 1     6.4012    18.4786    52.2654
13 1     0.0000     0.0000    62.7184
14 1     6.4012    11.0872    62.7184
15 1     0.0000     7.3914    73.1715
16 1     6.4012    18.4786    73.1715
17 1     0.0000     0.0000    83.6246
18 1     6.4012    11.0872    83.6246
19 1     6.4012     3.6957    94.0776
20 1     0.0000    14.7829    94.0776
21 1     0.0000     7.3914   104.5307
22 1     6.4012    18.4786   104.5307
23 1     0.0000     0.0000   114.9837
24 1     6.4012    11.0872   114.9837
25 1     6.4012     3.6957   125.4369
26 1     0.0000    14.7829   125.4369
27 1     0.0000     7.3914   135.8898
28 1     6.4012    18.4786   135.8898
