# ['Ni']

28 atoms
1 atom types

    0.0000     2.4694 xlo xhi
    0.0000     4.2771 ylo yhi
    0.0000    28.2273 zlo zhi

    0.0000     0.0000     0.0000 xy xz yz

Atoms

1 1     0.0000     0.0000     0.0000
2 1     1.2347     2.1385     0.0000
3 1     1.2347     0.7128     2.0162
4 1     0.0000     2.8514     2.0162
5 1     0.0000     1.4257     4.0325
6 1     1.2347     3.5642     4.0325
7 1     0.0000     0.0000     6.0487
8 1     1.2347     2.1385     6.0487
9 1     1.2347     0.7128     8.0649
10 1     0.0000     2.8514     8.0649
11 1     0.0000     1.4257    10.0812
12 1     1.2347     3.5642    10.0812
13 1     0.0000     0.0000    12.0974
14 1     1.2347     2.1385    12.0974
15 1     0.0000     1.4257    14.1137
16 1     1.2347     3.5642    14.1137
17 1     0.0000     0.0000    16.1299
18 1     1.2347     2.1385    16.1299
19 1     1.2347     0.7128    18.1461
20 1     0.0000     2.8514    18.1461
21 1     0.0000     1.4257    20.1624
22 1     1.2347     3.5642    20.1624
23 1     0.0000     0.0000    22.1786
24 1     1.2347     2.1385    22.1786
25 1     1.2347     0.7128    24.1949
26 1     0.0000     2.8514    24.1949
27 1     0.0000     1.4257    26.2111
28 1     1.2347     3.5642    26.2111
