LAMMPS (10 Feb 2015)
Reading data file ...
  triclinic box = (0 0 0) to (4.2565 4.2565 4.2565) with tilt (0 0 0)
  1 by 1 by 1 MPI processor grid
  reading atoms ...
  8 atoms
4 atoms in group Mg
4 atoms in group O
Setting atom values ...
  4 settings made for charge
Setting atom values ...
  4 settings made for charge
PPPM initialization ...
  G vector (1/distance) = 0.352172
  grid = 8 8 8
  stencil order = 5
  estimated absolute RMS force accuracy = 3.68665e-05
  estimated relative force accuracy = 2.56024e-06
  using double precision FFTs
  3d grid and FFT values/proc = 3375 512
Neighbor list info ...
  1 neighbor list requests
  update every 1 steps, delay 0 steps, check yes
  master list distance cutoff = 11
Setting up minimization ...
Memory usage per processor = 4.06549 Mbytes
Step PotEng Lx Ly Lz Xy Xz Yz Press Pxx Pyy Pzz Pxy Pxz Pyz eatoms 
       0   -101.30442       4.2565       4.2565       4.2565            0            0            0    88329.967    88329.967    88329.967    88329.967 -1.1961844e-11 -2.4099438e-10 5.9240466e-12   -101.30442 
      10    -101.3918     4.299065     4.299065     4.299065            0            0            0    35693.934    35693.934    35693.934    35693.934 1.4632835e-11 -2.3788485e-11 -3.8066587e-11    -101.3918 
      20   -101.41159    4.3315082    4.3315082    4.3315082            0            0            0   -5.9294003   -5.9294003   -5.9294003   -5.9294003 1.7198652e-10 1.1926792e-10 -5.3176444e-11   -101.41159 
Loop time of 0.013032 on 1 procs for 20 steps with 8 atoms

Minimization stats:
  Stopping criterion = linesearch alpha is zero
  Energy initial, next-to-last, final = 
        -101.304424021     -101.411593199     -101.411593199
  Force two-norm initial, final = 12.7549 0.00088671
  Force max component initial, final = 12.7549 0.000886651
  Final line search alpha, max atom move = 0.015625 1.38539e-05
  Iterations, force evaluations = 20 34

Pair  time (%) = 0.00350213 (26.8734)
Kspce time (%) = 0.00219512 (16.8441)
Neigh time (%) = 0 (0)
Comm  time (%) = 0.000396013 (3.03879)
Outpt time (%) = 2.00272e-05 (0.153677)
Other time (%) = 0.00691867 (53.09)

Nlocal:    8 ave 8 max 8 min
Histogram: 1 0 0 0 0 0 0 0 0 0
Nghost:    2189 ave 2189 max 2189 min
Histogram: 1 0 0 0 0 0 0 0 0 0
Neighs:    2344 ave 2344 max 2344 min
Histogram: 1 0 0 0 0 0 0 0 0 0

Total # of neighbors = 2344
Ave neighs/atom = 293
Neighbor list builds = 0
Dangerous builds = 0
pypospack:output_section:begin
tot_energy = -101.411593198701
num_atoms = 8
xx = 4.33150823558717
yy = 4.33150823558717
zz = 4.33150823558717
xy = 0
xz = 0
yz = 0
tot_press = -5.92940031006952
pxx = -5.92940030994687
pyy = -5.92940031012476
pzz = -5.92940031013695
pxy = 1.71986520125442e-10
pxz = 1.19267916823708e-10
pyz = -5.31764436793611e-11
pypospack:output_section:done
pypospack:lammps_sim:done
PPPM initialization ...
  G vector (1/distance) = 0.351443
  grid = 8 8 8
  stencil order = 5
  estimated absolute RMS force accuracy = 3.81088e-05
  estimated relative force accuracy = 2.64651e-06
  using double precision FFTs
  3d grid and FFT values/proc = 3375 512
Setting up run ...
Memory usage per processor = 3.06549 Mbytes
Step Temp PotEng KinEng TotEng Press Lx Ly Lz Press Pxx Pyy Pzz Pxy Pxz Pyz Volume 
       0          900    -101.4116   0.81433891   -100.59726    10695.337    4.3315082    4.3315082    4.3315082    10695.337     14591.37    5389.8627    12104.777    -2856.161   -7785.1077   -2044.8902      81.2676 
     100    175.84572   -100.64911    0.1591089      -100.49    9586.0102    4.3643163    4.3643163    4.3643163    9586.0102     12242.52   -14250.739    30766.249    5885.2488    5200.3423   -713.63625    83.128251 
     200    754.94091   -100.94842    0.6830864   -100.26533    -25773.85    4.3860024    4.3860024    4.3860024    -25773.85    -38114.17   -36707.813   -2499.5658   -397.91045   -673.36608   -1001.8272    84.373601 
     300     745.6017   -100.75129   0.67463609   -100.07665    17420.917     4.359532     4.359532     4.359532    17420.917     18142.72   -19589.175    53709.206   -3558.4203    1923.1739    3512.0844     82.85517 
     400    680.35131   -100.54719   0.61559616   -99.931589    4027.3615    4.3695703    4.3695703    4.3695703    4027.3615    -2175.293   -7174.3977    21431.775    5216.2719    508.33213    7120.4419    83.428839 
     500    1111.2919   -100.83068    1.0055203   -99.825162   -35484.542    4.4013466    4.4013466    4.4013466   -35484.542   -45915.789   -43286.151   -17251.685   -546.96459    2150.2096    4664.5063    85.262237 
     600    850.42123   -100.53703     0.769479   -99.767555    2897.4544    4.3846067    4.3846067    4.3846067    2897.4544    11649.764   -25615.516    22658.114    -3132.303     1409.316   -133.42032     84.29308 
     700    718.13143   -100.39619   0.64978041   -99.746413    17110.482    4.3686449    4.3686449    4.3686449    17110.482   -28643.024   -18480.518    98454.988     2832.463   -3231.3796    2030.8787     83.37584 
     800    1123.7487    -100.7846    1.0167915   -99.767809   -23477.883    4.3911933    4.3911933    4.3911933   -23477.883   -24870.205   -42417.111   -3146.3332    971.43049    10105.995   -179.71779     84.67353 
     900    929.03622   -100.60696   0.84061149   -99.766347   -9531.8874    4.3904549    4.3904549    4.3904549   -9531.8874   -25137.171   -33307.629    29849.138   -3722.9813   -10540.284    -2315.675    84.630822 
    1000    603.60876   -100.31784   0.54615789   -99.771683    16553.053    4.3655672    4.3655672    4.3655672    16553.053   -30179.422   -19207.401    99045.982    2777.0871    2606.3724    2405.3057    83.199755 
    1100    1069.0474   -100.75732   0.96729654   -99.790026   -9794.9084    4.3817919    4.3817919    4.3817919   -9794.9084    -18057.47   -34812.796    23485.542    829.81566   -2206.4067    2192.0109    84.130844 
    1200    697.29329   -100.41561   0.63092562   -99.784688   -13760.265    4.3867926    4.3867926    4.3867926   -13760.265   -38581.185   -32326.703    29627.093    496.07327   -355.40337    5338.3757    84.419216 
    1300    1088.0941   -100.76131   0.98453044   -99.776778     6804.279    4.3694674    4.3694674    4.3694674     6804.279   -14670.096   -26304.613    61387.546   -3313.3387   -1242.1683    941.71293    83.422945 
    1400    1095.1692   -100.77712    0.9909321   -99.786185   -12166.154     4.379393     4.379393     4.379393   -12166.154   -33661.073   -39457.761    36620.372    7472.7754    8655.0883   -3655.0141    83.992741 
    1500    595.89866   -100.33013   0.53918163   -99.790945   -5751.0034    4.3877336    4.3877336    4.3877336   -5751.0034   -25020.667   -34068.498    41836.154   -3996.0012   -2122.8856   -5481.6672    84.473553 
    1600    1277.3974   -100.93879     1.155816   -99.782977   -7221.4078    4.3812741    4.3812741    4.3812741   -7221.4078   -10723.378   -42374.541    31433.696    2986.9293    15506.417   -1183.1824    84.101023 
    1700    625.59127   -100.34913   0.56604813   -99.783084    610.00201    4.3821362    4.3821362    4.3821362    610.00201   -32214.208    -29425.64    63469.855   -1429.0422   -421.73725   -5239.4345    84.150675 
    1800    1077.2793   -100.75177   0.97474496   -99.777021   -7466.3745    4.3785929    4.3785929    4.3785929   -7466.3745   -10186.486   -15116.989    2904.3508    683.75765    660.27689    5982.6408    83.946713 
    1900    987.33934   -100.66707   0.89336539   -99.773701    1228.2665    4.3874348    4.3874348    4.3874348    1228.2665   -13447.666   -37362.501    54494.966    3880.9286   -4684.0627    1835.4535    84.456293 
    2000    496.80615   -100.22468   0.44952064    -99.77516    12015.623    4.3810744    4.3810744    4.3810744    12015.623   -48332.661   -18876.023    103255.55    48.418697   -2769.6867    3577.4657    84.089521 
    2100     1034.847   -100.71614   0.93635129    -99.77979      5950.91    4.3721714    4.3721714    4.3721714      5950.91   -1173.5836   -14779.373    33805.686   -170.38051   -3237.3318    895.82018    83.577914 
    2200     984.5454   -100.68185   0.89083737    -99.79101   -21693.469    4.3868122    4.3868122    4.3868122   -21693.469   -29523.169    -39452.99    3895.7512    9349.7098    6488.9661   -7536.9325    84.420345 
    2300     1123.598   -100.78861     1.016655   -99.771958   -18532.084    4.3875321    4.3875321    4.3875321   -18532.084   -38738.378    -20875.09    4017.2163   -2149.7249    -6514.153   -462.62298    84.461917 
    2400    752.19919   -100.44565   0.68060564   -99.765044    7571.5525    4.3765067    4.3765067    4.3765067    7571.5525    8531.5423   -27121.976    41305.091    6874.0163    10693.766   -7335.2934    83.826781 
    2500    603.40433   -100.31118   0.54597292   -99.765205    18710.918    4.3805391    4.3805391    4.3805391    18710.918   -11284.671   -17788.766    85206.191    2149.3866   -2992.0578    5493.3008    84.058704 
    2600    1049.1343    -100.7237   0.94927879   -99.774418   -10857.776    4.3852496    4.3852496    4.3852496   -10857.776   -17278.782   -26592.554    11298.009    4594.5758    1118.1785   -4314.5862    84.330164 
    2700    1032.0956    -100.7058   0.93386183   -99.771934    6629.0594    4.3746492    4.3746492    4.3746492    6629.0594    20528.428   -27235.237    26593.987   -7886.7864   -3870.1545     1667.997    83.720092 
    2800     825.6177   -100.52275   0.74703625   -99.775715    2110.2521    4.3819147    4.3819147    4.3819147    2110.2521    1583.9079   -7746.5044    12493.353    9337.1913    6504.1998    5838.9496    84.137919 
    2900    907.06664   -100.58722   0.82073296   -99.766485    2427.8731    4.3895608    4.3895608    4.3895608    2427.8731    4562.3876   -40597.091    43318.323   -1631.5196     8162.385    -5395.626     84.57913 
    3000    747.89486   -100.43461   0.67671098   -99.757901    8201.9983    4.3797876    4.3797876    4.3797876    8201.9983    32512.377   -23991.804    16085.421   -1031.7719   -3102.8177    6966.3517    84.015449 
    3100    922.67528   -100.59459   0.83485598   -99.759737    392.14927    4.3783414    4.3783414    4.3783414    392.14927   -13522.813   -13739.258    28438.519    10662.136    8869.6568   -8412.9728    83.932253 
    3200    1103.9526   -100.76511    0.9988795   -99.766228   -7136.1183    4.3809592    4.3809592    4.3809592   -7136.1183    22310.645   -35632.858   -8086.1416   -5754.0433   -4561.7552   -138.10607    84.082887 
    3300    751.95286   -100.45501   0.68038275   -99.774631   -2063.3482    4.3881192    4.3881192    4.3881192   -2063.3482    -12342.94   -18176.595    24329.491    5353.2901    9393.9057   -7127.6823    84.495825 
    3400    1129.5573   -100.79017    1.0220472   -99.768124   -5688.2141    4.3814762    4.3814762    4.3814762   -5688.2141   -29638.238   -26608.218    39181.814    3693.8207   -84.579734   -4630.0054    84.112661 
    3500    696.49929    -100.4009    0.6302072   -99.770691    16646.739    4.3768493    4.3768493    4.3768493    16646.739    11983.379    -24080.04    62036.879    -1877.951    6863.4603     3364.824    83.846468 
    3600    1013.9126    -100.6862   0.91740946   -99.768791   -16175.373    4.3883615    4.3883615    4.3883615   -16175.373   -16444.105   -20726.641   -11355.372     24.67737   -5345.7795   -2039.6543     84.50982 
    3700    1135.2757   -100.79728    1.0272213   -99.770059    -11998.71    4.3786199    4.3786199    4.3786199    -11998.71   -27802.843   -36409.929    28216.641    8422.3594    11506.688    9075.3817    83.948267 
    3800    726.92625   -100.43184   0.65773815   -99.774101    15784.625    4.3781896    4.3781896    4.3781896    15784.625    5464.0511   -17823.363    59713.187   -4034.7027   -11734.427   -4014.2893    83.923519 
    3900    736.66625    -100.4404   0.66655111   -99.773848   -20087.348      4.39207      4.39207      4.39207   -20087.348   -40789.701   -34463.814    14991.471    10248.234   -4116.7034     1894.231    84.724256 
    4000    1277.8286   -100.91934    1.1562062   -99.763131   -10948.525    4.3791961    4.3791961    4.3791961   -10948.525   -10215.871   -16287.147    -6342.557   -3650.8237    926.03919   -4323.5888    83.981412 
    4100    749.35063   -100.44984   0.67802819   -99.771816    1410.9644    4.3801784    4.3801784    4.3801784    1410.9644   -28708.178   -28071.738    61012.809    3222.3253    3098.0182   -3166.7932    84.037941 
    4200    814.38379   -100.50681   0.73687157    -99.76994    7609.7633    4.3843652    4.3843652    4.3843652    7609.7633   -814.44057   -14740.361    38384.091    10380.706    7725.4341    6037.5049    84.279151 
    4300    969.86523   -100.64697   0.87755444   -99.769418   -4499.9874    4.3863379    4.3863379    4.3863379   -4499.9874   -13017.066   -26586.978    26104.082    3076.8215    4879.0575   -369.51897    84.392966 
    4400    809.08213   -100.50466   0.73207452   -99.772588    10134.127    4.3763396    4.3763396    4.3763396    10134.127   -4698.1079   -1243.0026     36343.49   -2813.4816    6406.1206    3768.8901    83.817179 
    4500    976.35873   -100.65918    0.8834299    -99.77575   -641.12354    4.3784519    4.3784519    4.3784519   -641.12354    8378.7101    -20022.13    9720.0489    4492.9262   -8399.5713   -4460.0143    83.938605 
    4600     914.2638   -100.60391    0.8272451   -99.776665     -7117.78    4.3854018    4.3854018    4.3854018     -7117.78    -3390.783   -13833.348   -4129.2094    -6132.601     1097.682    266.99924    84.338946 
    4700    768.86498   -100.46469   0.69568519   -99.769006    5924.6624    4.3824093    4.3824093    4.3824093    5924.6624   -22455.078     3953.555     36275.51    5015.6903    2335.4823    -2830.289    84.166413 
    4800     1068.701   -100.73327   0.96698313   -99.766286   -11116.708    4.3824278    4.3824278    4.3824278   -11116.708    23876.927   -28137.695   -29089.357    989.19453    932.69305    3636.2659    84.167476 
    4900    853.50351   -100.53608   0.77226792   -99.763808   -8530.0318     4.386149     4.386149     4.386149   -8530.0318   -44684.863    6929.8148    12164.953   -3679.1915    18893.666   -801.30063    84.382063 
    5000    962.51591   -100.63036   0.87090462    -99.75946    -7141.894    4.3829865    4.3829865    4.3829865    -7141.894    1835.7785    -29454.35    6192.8895    9336.1006   -7984.4333     3141.159    84.199672 
    5100    886.45298   -100.56177   0.80208128   -99.759693   -19.330801    4.3831357    4.3831357    4.3831357   -19.330801    1208.1545   -11755.937     10489.79   -1541.0546    8027.7947    4337.6507    84.208272 
    5200    679.93137   -100.37606   0.61521619   -99.760843    6099.1582    4.3792073    4.3792073    4.3792073    6099.1582     -32657.9    566.75494    50388.619    8624.9793   -716.62725    1188.2102    83.982057 
    5300    1217.3646   -100.86606    1.1014971   -99.764566   -8154.5779    4.3842852    4.3842852    4.3842852   -8154.5779    19921.482   -25952.858   -18432.358     6623.169   -4954.1305   -2093.4564     84.27454 
    5400    576.80348   -100.28863   0.52190391   -99.766724    4428.4112    4.3839205    4.3839205    4.3839205    4428.4112    -21878.87    12629.955    22534.148    8883.7138    54.466497    3114.2477    84.253511 
    5500    1168.0494   -100.82203    1.0568756   -99.765158   -15560.337    4.3801264    4.3801264    4.3801264   -15560.337   -6586.0828    -21558.56   -18536.368    195.57763    5705.3334   -4166.8867    84.034946 
    5600    841.23763   -100.52758   0.76116949   -99.766415    6466.5518    4.3809428    4.3809428    4.3809428    6466.5518    5325.5102     2665.488    11408.657    10093.387    3135.5735    4084.7169    84.081943 
    5700    943.56028   -100.62248   0.85375317   -99.768726   -20579.669     4.383207     4.383207     4.383207   -20579.669   -6408.0978   -25710.184   -29620.725   -2210.2184    3450.3677    1752.3543    84.212381 
    5800    879.26808   -100.56684   0.79558024   -99.771259    6743.1392     4.376686     4.376686     4.376686    6743.1392    1241.7215     10117.78    8869.9157   -2984.2328   -5706.0071   -3266.0631    83.837087 
    5900    1011.9711   -100.68753   0.91565269   -99.771876   -5162.3058    4.3763476    4.3763476    4.3763476   -5162.3058    19131.929   -17103.277   -17515.569   -5578.2392   -2799.0427    1538.2106    83.817641 
    6000    574.29779    -100.2904   0.51963671   -99.770767   -2659.7499    4.3903349    4.3903349    4.3903349   -2659.7499    23000.311   -9655.5837   -21323.977    3600.7159   -7714.4215    3801.9286    84.623884 
    6100    1099.4012   -100.75212   0.99476133    -99.75736   -3736.3457    4.3750593    4.3750593    4.3750593   -3736.3457   -4458.3311   -14073.837     7323.131     14.70661    -4505.816    8390.3733    83.743638 
    6200     821.4691   -100.50671    0.7432825   -99.763431    6859.5209    4.3783905    4.3783905    4.3783905    6859.5209    48824.214   -14044.808   -14200.844   -4841.5799   -4727.0628    908.44276    83.935075 
    6300    837.47231   -100.52216   0.75776255   -99.764394   -16707.693    4.3869015    4.3869015    4.3869015   -16707.693   -40046.611   -11213.132     1136.664    3625.0401    -1689.266    1268.3705      84.4255 
    6400    924.35878   -100.59811   0.83637925   -99.761728    7131.6628     4.376867     4.376867     4.376867    7131.6628    14863.967   -1566.8829    8097.9038    812.73492    11731.685     10446.93    83.847489 
    6500    1124.9927   -100.77539    1.0179171   -99.757469   -20411.081    4.3860352    4.3860352    4.3860352   -20411.081    -16492.47    -23578.72   -21162.054   -3226.4086   -2829.1476   -2176.3433    84.375493 
    6600    618.62066   -100.31832   0.55974098   -99.758576    7856.6419     4.377617     4.377617     4.377617    7856.6419    14893.427    6514.6844    2161.8144   -2473.6302    6506.7464    4462.1546    83.890598 
    6700    1085.8218   -100.74372   0.98247443   -99.761247   -2190.6516    4.3818068    4.3818068    4.3818068   -2190.6516     24253.03   -25629.472   -5195.5129   -1876.5713    7342.0999    6058.9069    84.131703 
    6800    880.14288   -100.55517   0.79637177   -99.758802   -5559.1323    4.3807007    4.3807007    4.3807007   -5559.1323    10018.402    -5652.007   -21043.792   -6492.7688   -3786.1774    2944.1596    84.068006 
    6900     901.7566   -100.57551   0.81592833   -99.759584    4434.6669     4.381617     4.381617     4.381617    4434.6669   -6215.1213    684.74621    18834.376   -10678.782    7232.6781     6508.905    84.120771 
    7000    1034.8539   -100.69546   0.93635755   -99.759101   -1361.0182    4.3821747    4.3821747    4.3821747   -1361.0182    6744.6546    2218.0381   -13045.747    2570.8454    1247.6635    1521.2591    84.152895 
    7100    814.28265   -100.49518   0.73678005   -99.758399    8463.6959    4.3828189    4.3828189    4.3828189    8463.6959   -7368.9433    14969.866    17790.165   -6830.2588    2362.5957    2292.7626    84.190011 
    7200     1077.582   -100.72934   0.97501885   -99.754321    520.48704    4.3802541    4.3802541    4.3802541    520.48704   -4866.0372    8643.2352   -2215.7369    5968.2036    2123.1656    5489.1918    84.042298 
    7300    863.37406    -100.5411   0.78119899   -99.759904    5228.9654    4.3812724    4.3812724    4.3812724    5228.9654    2509.0133   -8022.6497    21200.532    111.89786   -147.07689    1759.0225    84.100925 
    7400    939.19736   -100.60739   0.84980551   -99.757589    5663.6021    4.3795914    4.3795914    4.3795914    5663.6021    3982.9646     20528.99   -7521.1486    282.65115   -3462.6303    2574.1544    84.004157 
    7500    1006.2343   -100.67436   0.91046196   -99.763894    -8187.496    4.3796389    4.3796389    4.3796389    -8187.496   -12724.659   -16397.483    4559.6539    2559.5765     3893.559    7768.2968    84.006891 
    7600    593.05082   -100.30208   0.53660485   -99.765475    22665.365    4.3852098    4.3852098    4.3852098    22665.365    30959.277    38486.233   -1449.4162   -9712.4465   -11126.587   -2357.8712    84.327869 
    7700    1001.3371    -100.6656   0.90603088   -99.759571   -13828.852     4.380745     4.380745     4.380745   -13828.852   -19479.539    -7500.994   -14506.024    8761.9246   -439.76781    7901.6013    84.070559 
    7800    842.66982   -100.52365   0.76246536   -99.761186    15667.119    4.3745587    4.3745587    4.3745587    15667.119    21667.604    33737.793   -8404.0395   -10876.122    1790.8288    3474.2862    83.714897 
    7900    809.06688   -100.49378   0.73206072   -99.761723   -9628.1176    4.3908664    4.3908664    4.3908664   -9628.1176    -5456.818   -5145.0299   -18282.505    8298.0661   -11434.541   -1616.6168    84.654623 
    8000    807.33903   -100.48806   0.73049732    -99.75756   -3333.1475    4.3786781    4.3786781    4.3786781   -3333.1475   -17528.433    -3131.719    10660.709    8904.0668    6138.8043    7490.3107    83.951616 
    8100    1017.9743   -100.68348   0.92108456   -99.762395     9674.571    4.3756954    4.3756954    4.3756954     9674.571    10381.902    45691.257   -27049.446    7150.1173   -5607.3563    3289.3199     83.78017 
    8200    698.19307   -100.39942   0.63173976   -99.767681   -5007.8362    4.3866256    4.3866256    4.3866256   -5007.8362   -12113.163   -357.69681   -2552.6485    17399.718    -768.6258   -464.58271    84.409576 
    8300    825.75272   -100.50969   0.74715842   -99.762529    14856.157    4.3824554    4.3824554    4.3824554    14856.157   -2784.8519    51800.464   -4447.1406   -1709.6386    2364.5383     2547.221     84.16907 
    8400    1000.6851   -100.66718   0.90544093   -99.761741   -18843.066    4.3786531    4.3786531    4.3786531   -18843.066   -4442.8286    -28059.72   -24026.649     5258.237    3942.8201     9053.428     83.95018 
    8500    890.27069   -100.57572   0.80553563   -99.770181    129.74924    4.3763375    4.3763375    4.3763375    129.74924   -6093.8711    17147.168   -10664.049   -743.77319    -1783.984   -612.93248    83.817057 
    8600    777.57445   -100.47861    0.7035657   -99.775041   -2777.6909    4.3878033    4.3878033    4.3878033   -2777.6909   -26620.054    10299.412    7987.5689    2675.2928    12002.204    4934.8008    84.477577 
    8700    991.07281   -100.66387   0.89674351   -99.767124   -8053.2812    4.3770297    4.3770297    4.3770297   -8053.2812   -3011.3676   -837.30515   -20311.171    1100.9522    3561.0327    5048.2734     83.85684 
    8800      932.607   -100.61035   0.84384241    -99.76651    3645.7931    4.3738304    4.3738304    4.3738304    3645.7931    -26634.99    18825.965    18746.404     8238.483   -3780.3175    -3457.812    83.673093 
    8900    793.15689   -100.48838   0.71766502   -99.770718   -2304.3965    4.3838583    4.3838583    4.3838583   -2304.3965    124.97209    16023.131   -23061.293    6894.5511    16160.027    1119.7381    84.249926 
    9000     1108.764    -100.7639     1.003233   -99.760668   -5729.4746    4.3807688    4.3807688    4.3807688   -5729.4746   -1318.7191   -6215.7807    -9653.924   -5447.7009   -6231.8567    2636.5741    84.071926 
    9100    612.44729   -100.32066   0.55415518   -99.766502   -4190.1309    4.3809628    4.3809628    4.3809628   -4190.1309   -18412.158    4268.4698    1573.2954    3328.6761    634.40497    4087.8883    84.083098 
    9200    1083.8192   -100.74484   0.98066243   -99.764181    5392.5072    4.3755007    4.3755007    4.3755007    5392.5072    35887.783   -8125.3808   -11584.881    2145.1176   -7771.3689    1794.2182    83.768989 
    9300    812.92959   -100.50431   0.73555578   -99.768759   -17403.655    4.3868932    4.3868932    4.3868932   -17403.655   -3498.9178   -40854.617   -7857.4305    3446.0122   -1040.5735    3726.1134    84.425023 
    9400    953.87571   -100.62191   0.86308679   -99.758825   -14393.745    4.3815639    4.3815639    4.3815639   -14393.745   -4046.7078   -8210.9747   -30923.554    3483.5995    2709.5948   -1441.2909    84.117712 
    9500    1000.3667   -100.66144   0.90515279    -99.75629    9750.3308    4.3674363    4.3674363    4.3674363    9750.3308    24586.859    1226.2755    3437.8579     664.7704    4976.1638    2158.3808    83.306661 
    9600    982.88862      -100.66   0.88933828    -99.77066   -28511.293    4.3874853    4.3874853    4.3874853   -28511.293   -11844.985   -39204.366   -34484.528    480.37242    9922.6027    6727.0247    84.459214 
    9700    800.85961   -100.48884   0.72463461   -99.764207    7578.3866    4.3820553    4.3820553    4.3820553    7578.3866    12398.515    22163.719   -11827.074    336.23591   -4.6477217    838.57755    84.146019 
    9800    1160.6123    -100.8095    1.0501464   -99.759358   -9217.3644    4.3769471    4.3769471    4.3769471   -9217.3644    13461.015   -21098.019   -20015.089    4086.8586   -2420.6199    11662.801    83.852091 
    9900    678.65182   -100.37402   0.61405843   -99.759965    13375.146    4.3742854    4.3742854    4.3742854    13375.146    29260.054    4009.0445    6856.3405   -2529.7604   -6211.3744   -3645.5041    83.699209 
   10000    871.96191   -100.55503   0.78896946   -99.766057   -12.348532    4.3806606    4.3806606    4.3806606   -12.348532   -16867.314    12966.445    3863.8226    3686.5759   -52.029908    8678.7614    84.065698 
   10100    909.89867   -100.58203   0.82329544   -99.758732    2907.7663    4.3880081    4.3880081    4.3880081    2907.7663     12602.32   -12143.693    8264.6718    6067.4789   -7360.4371    3753.9531    84.489407 
   10200    665.48448    -100.3569   0.60214434   -99.754751    7522.9725     4.374008     4.374008     4.374008    7522.9725    -14954.01    31605.901    5917.0265    174.40214      2014.88     11849.42    83.683285 
   10300    1022.2053   -100.68689   0.92491282   -99.761979    9922.9592    4.3728434    4.3728434    4.3728434    9922.9592     11702.43    11022.309    7044.1382   -6698.5343    1391.9707    5921.8724    83.616457 
   10400    814.25701   -100.50532   0.73675685   -99.768566    2944.9465    4.3848163    4.3848163    4.3848163    2944.9465     464.0946    7960.3154     410.4294   -1057.6335    2733.3742    579.31731    84.305169 
   10500     838.3567   -100.52359   0.75856276   -99.765027     3087.173    4.3789437    4.3789437    4.3789437     3087.173   -7775.7057    15030.161    2007.0641    3325.4232     2304.082    7754.7005    83.966893 
   10600    1045.3582   -100.70957   0.94586209    -99.76371    4004.9519    4.3727276    4.3727276    4.3727276    4004.9519    15037.299     -7719.64     4697.197    5759.3542   -6774.0885   -4068.6191    83.609818 
   10700    1035.1114    -100.7007    0.9365905   -99.764107   -6188.8243    4.3741039    4.3741039    4.3741039   -6188.8243   -4511.1791   -11167.594   -2887.6993    3437.3571   -596.36941     7538.731    83.688787 
   10800    842.10282   -100.53046   0.76195232   -99.768506   -13032.587    4.3866909    4.3866909    4.3866909   -13032.587   -36882.487    444.92344   -2660.1984    5410.4901   -5968.3833   -4143.5933    84.413341 
   10900    1101.1801   -100.76389   0.99637085   -99.767518   -4576.6073    4.3702023    4.3702023    4.3702023   -4576.6073    7922.9762   -10817.957   -10834.841    5264.0527   -169.31603    5890.7395    83.465044 
   11000    859.88743   -100.54972   0.77804422   -99.771679    6565.4485    4.3683758    4.3683758    4.3683758    6565.4485   -21555.437    14141.697    27110.086   -10100.193   -2360.0155    622.93912    83.360435 
   11100    815.89499   -100.51087   0.73823893   -99.772632   -4489.3461    4.3915457    4.3915457    4.3915457   -4489.3461   -13348.622    18123.135   -18242.551    3779.8464   -20.496113    4422.5324    84.693916 
   11200    894.97807   -100.57447   0.80979497   -99.764676    5385.3323    4.3830416    4.3830416    4.3830416    5385.3323   -14676.123    24618.698    6213.4216   -13377.402    342.78153    2372.4909    84.202846 
   11300     816.9525   -100.49698   0.73919579   -99.757783    8973.7197    4.3621422    4.3621422    4.3621422    8973.7197   -12128.928    20527.261    18522.827    3000.9439   -1766.8428   -3598.5869    83.004083 
   11400    805.93323    -100.5038   0.72922532   -99.774574    15036.169     4.381198     4.381198     4.381198    15036.169   -11063.957    37219.913    18952.552   -2336.8911     8368.692     6218.922    84.096639 
   11500    758.06628   -100.45055    0.6859143   -99.764639    -17832.42     4.393285     4.393285     4.393285    -17832.42   -40708.272   -7436.1988    -5352.789   -5572.1151   -7800.9636   -9059.0053    84.794587 
   11600    791.37939   -100.46626    0.7160567   -99.750208    2218.8072    4.3619147    4.3619147    4.3619147    2218.8072   -1606.4638   -11530.331    19793.216    2006.7638    4848.1447    10465.671    82.991099 
   11700    1070.6259   -100.73335   0.96872481   -99.764626    7834.8909    4.3685033    4.3685033    4.3685033    7834.8909    3138.0269     12730.05    7636.5955    5371.0457   -5554.6082   -6693.9685    83.367735 
   11800      814.842   -100.49734   0.73728617   -99.760056   -30618.794    4.3990676    4.3990676    4.3990676   -30618.794   -35588.398   -31141.638   -25126.348    3246.0707    1135.5977   -183.60986    85.129858 
   11900    885.17501   -100.55314   0.80092496   -99.752214     56.28233    4.3695733    4.3695733    4.3695733     56.28233   -2219.7763    1065.7892    1322.8341    298.33228   -9906.1039    4327.1399    83.429011 
   12000    1047.6052     -100.706   0.94789519   -99.758106    13520.365    4.3620451    4.3620451    4.3620451    13520.365    3774.1692     39075.38   -2288.4551    -4330.677   -5910.1518    4836.7695    82.998539 
   12100    857.53956   -100.54556   0.77591981   -99.769643   -9917.4782    4.3856743    4.3856743    4.3856743   -9917.4782   -10137.938   -6959.1634   -12655.333    8762.6125     -5864.82   -6469.2655    84.354668 
   12200    952.14911   -100.62796   0.86152452   -99.766435   -13606.028    4.3865917    4.3865917    4.3865917   -13606.028   -24376.135    9221.3095   -25663.259   -9008.4805   -12566.346    4094.9298    84.407618 
   12300    1147.0117   -100.79401    1.0378403   -99.756166    19941.142     4.357133     4.357133     4.357133    19941.142    34049.061    17794.599    7979.7664    165.53023    5267.0763    1407.0551    82.718463 
   12400    630.57527   -100.34753   0.57055776   -99.776968    -6320.522    4.3753812    4.3753812    4.3753812    -6320.522   -29093.333    32439.652   -22307.884    2761.0457   -18659.136   -5554.3703    83.762127 
   12500    971.58919   -100.64531   0.87911432   -99.766194   -12191.525    4.3929669    4.3929669    4.3929669   -12191.525    5917.4585   -30938.362    -11553.67    295.12622    12527.607    8889.4825    84.776169 
   12600    930.98231   -100.60187   0.84237236   -99.759493   -389.29279    4.3673889    4.3673889    4.3673889   -389.29279   -16753.793     31530.26   -15944.346    4559.1278   -23178.977   -10455.791    83.303953 
   12700     765.5028   -100.45544   0.69264302   -99.762801    7141.0759    4.3644511    4.3644511    4.3644511    7141.0759    13410.211   -13467.611    21480.628    3614.9959    11158.941    4107.4365    83.135955 
   12800    920.14619   -100.60134   0.83256761   -99.768772   -21185.315    4.3891763    4.3891763    4.3891763   -21185.315    -14920.82   -17081.819   -31553.305   -4302.1928   -19125.768   -1786.8139    84.556906 
   12900    941.71798   -100.61577   0.85208621   -99.763688     -7731.48    4.3729435    4.3729435    4.3729435     -7731.48   -14754.027   -1900.3598   -6540.0527   -4885.5429   -6584.9333    488.12138    83.622201 
   13000    834.14243   -100.51979    0.7547496   -99.765044    13219.193    4.3638775    4.3638775    4.3638775    13219.193    38221.377   -7044.2594    8480.4614    2610.4934   -4103.0611    3043.5604    83.103185 
   13100    1025.7605   -100.69514   0.92812968   -99.767013   -26003.022    4.3953035    4.3953035    4.3953035   -26003.022    -25283.95   -10164.682   -42560.433   -8599.8501    -16225.54    2880.5156    84.911517 
   13200    639.01148   -100.33463   0.57819102   -99.756442    18295.293    4.3726596    4.3726596    4.3726596    18295.293    39770.827    3161.9557    11953.098   -9721.3017   -1958.6484   -158.44538    83.605917 
   13300    903.82754   -100.58758   0.81780215   -99.769778   -13003.598    4.3674399    4.3674399    4.3674399   -13003.598   -29545.116    16324.721   -25790.399    3692.2386   -13987.714    4269.7778    83.306866 
   13400    923.79172   -100.60656   0.83586616    -99.77069    7100.1813    4.3795864    4.3795864    4.3795864    7100.1813    14508.435   -1060.1846    7852.2939   -17782.713   -4228.6102   -1260.9525    84.003869 
   13500    900.83196   -100.57864   0.81509169   -99.763545   -14321.788    4.3798503    4.3798503    4.3798503   -14321.788   -47665.151    5686.5147   -986.72767    1844.9631    -5648.619   -453.33021    84.019054 
   13600    966.43798    -100.6302   0.87445339   -99.755743   -1096.3319    4.3744237    4.3744237    4.3744237   -1096.3319   -4131.6074    6125.6168   -5283.0051   -4408.2504    4533.4375    895.24728    83.707148 
   13700    921.97635   -100.59296   0.83422358   -99.758734    18503.071    4.3671178    4.3671178    4.3671178    18503.071    5377.0775    21031.896    29100.239   -9210.7291   -13449.811   -2632.8164    83.288436 
   13800    942.08093   -100.61577   0.85241463   -99.763354   -12877.114    4.3873205    4.3873205    4.3873205   -12877.114   -42141.533    52.852005    3457.3382   -2773.4983    3709.6836    1572.4006    84.449695 
   13900    885.31292   -100.56356   0.80104973   -99.762508   -6746.9377    4.3779004    4.3779004    4.3779004   -6746.9377   -5075.2224    -16579.76    1414.1691    1752.4844   -10862.983   -4469.2278    83.906893 
   14000    967.68385   -100.63201   0.87558068   -99.756432    30298.899    4.3564015    4.3564015    4.3564015    30298.899     9233.711    29931.767    51731.219   -4119.7616   -4956.0648    920.07797    82.676806 
   14100    873.63622   -100.55751   0.79048441   -99.767021   -29248.726    4.3864979    4.3864979    4.3864979   -29248.726   -42713.911   -27526.444   -17505.825   -2884.1983   -5392.4054   -5504.2334    84.402202 
   14200    716.83812   -100.41392   0.64861019   -99.765309    21138.349     4.369091     4.369091     4.369091    21138.349    20686.285    9311.1126    33417.649    641.65579   -15458.732   -8124.5543    83.401388 
   14300    1158.1276   -100.81651    1.0478982   -99.768608    1595.0541    4.3720907    4.3720907    4.3720907    1595.0541   -10371.879    24867.494   -9710.4526   -7697.9707    4173.4025    95.781823    83.573286 
   14400    534.45838   -100.25712   0.48358917    -99.77353    18409.599    4.3774733    4.3774733    4.3774733    18409.599    179.11114    25278.016    29771.671   -4807.0282   -8218.5615    2004.6738    83.882337 
   14500    882.12103   -100.56525   0.79816164   -99.767091    690.70153    4.3836479    4.3836479    4.3836479    690.70153    6959.9007    27440.125   -32327.921    -8424.529    5541.0921    4141.3282    84.237794 
   14600    943.14603   -100.61398   0.85337834   -99.760606    2116.0127    4.3754532    4.3754532    4.3754532    2116.0127   -10562.891    14338.085    2572.8441   -4887.2424   -3192.7943   -1758.6872    83.766261 
   14700    815.13342   -100.49682   0.73754985    -99.75927     6150.948    4.3686536    4.3686536    4.3686536     6150.948    22800.832   -3613.2014   -734.78629    -7894.961    2042.8371    7357.4047    83.376339 
   14800    912.70902    -100.5898    0.8258383   -99.763964   -14162.154     4.388838     4.388838     4.388838   -14162.154     840.8662   -11586.143   -31741.186     -293.751    2895.0204    4341.4559    84.537354 
   14900    1174.4847   -100.81815    1.0626984    -99.75545   -10566.955     4.377023     4.377023     4.377023   -10566.955   -14402.973    -25026.79    7728.8978    -4663.943    4280.2145    6336.4243    83.856451 
   15000    731.40172   -100.41883   0.66178765   -99.757045    6309.0604    4.3717071    4.3717071    4.3717071    6309.0604    21343.111    5203.4026   -7619.3324    377.53509    3365.1211    321.43625    83.551295 
   15100    1096.2293   -100.75473   0.99189135    -99.76284   -22263.034    4.3811312    4.3811312    4.3811312   -22263.034   -25384.834   -23276.077   -18128.193     1095.385   -7564.5918    1955.4559    84.092795 
   15200    1205.3172   -100.85581    1.0905963   -99.765209   -963.18627    4.3728575    4.3728575    4.3728575   -963.18627   -1988.1137   -15061.428    14159.983   -1658.2672     8975.423   -946.85062    83.617269 
   15300    649.27717   -100.35787   0.58747962   -99.770394   -14876.456    4.3811206    4.3811206    4.3811206   -14876.456   -22226.491   -7385.3853   -15017.493    4277.9494   -19116.268    1264.9742    84.092181 
   15400    1193.1484   -100.84217    1.0795858   -99.762582   -386.11728    4.3705226    4.3705226    4.3705226   -386.11728   -16879.149   -14447.259    30168.056   -9159.6635    5631.3202    29.515574    83.483394 
   15500      765.948    -100.4675   0.69304585    -99.77445    9192.3882    4.3745576    4.3745576    4.3745576    9192.3882     1505.065    3000.9265    23071.173   -1542.8314   -9782.8129    2247.8841    83.714832 
   15600    695.69976   -100.40173   0.62948377   -99.772241   -15114.772    4.3868531    4.3868531    4.3868531   -15114.772    -19606.39   -2153.2326   -23584.695     -9993.87    -3444.766    3107.6205    84.422709 
   15700    1135.1035   -100.78627    1.0270655   -99.759205   -819.51871    4.3758357    4.3758357    4.3758357   -819.51871   -11495.413    3667.4355     5369.421   -8848.3252   -2560.8889    2423.9058    83.788228 
   15800    683.88884   -100.37771   0.61879699   -99.758913   -3368.4445    4.3755275    4.3755275    4.3755275   -3368.4445   -13154.576     16242.12   -13192.877   -9040.5466   -12231.871   -3656.0102    83.770526 
   15900    681.06661   -100.37571   0.61624339   -99.759465    491.55964    4.3807959    4.3807959    4.3807959    491.55964    915.18434   -3862.3024     4421.797   -8692.8021   -8164.8361   -7237.1801    84.073485 
   16000     1195.662   -100.83918    1.0818601   -99.757324   -14759.717    4.3781093    4.3781093    4.3781093   -14759.717   -16807.326   -18083.922   -9387.9026   -10975.465   -8583.9089    -2655.726    83.918902 
   16100     505.8575   -100.21515    0.4577105   -99.757438    10222.918    4.3725602    4.3725602    4.3725602    10222.918    12786.671    -4982.048     22864.13   -3838.4459   -7552.0998    2104.9652    83.600214 
   16200    976.87491   -100.64573   0.88389695   -99.761837   -3077.2742    4.3759175    4.3759175    4.3759175   -3077.2742    25722.359   -17479.456   -17474.726   -5714.1296   -11394.987   -9143.6506    83.792931 
   16300    981.56109   -100.64941    0.8881371   -99.761273   -5139.4259    4.3858083    4.3858083    4.3858083   -5139.4259   -6037.6105   -32157.691    22777.024   -7003.2363    -127.4739    7920.2133    84.362404 
   16400    740.09759   -100.42789   0.66965585   -99.758235    967.06455    4.3719385    4.3719385    4.3719385    967.06455    27628.804   -11271.835   -13455.775    8327.5662   -10970.716   -3286.2741    83.564558 
   16500    1012.6891   -100.67891   0.91630236   -99.762603    12392.699    4.3713973    4.3713973    4.3713973    12392.699      3279.07    823.78653     33075.24   -7415.8353     5860.957    4005.7047    83.533529 
   16600    1251.5656   -100.89266    1.1324429    -99.76022   -22248.951    4.3855987    4.3855987    4.3855987   -22248.951   -17485.249   -29545.891   -19715.713    740.03265   -5282.0962      1286.62    84.350307 
   16700    404.25625   -100.12826   0.36577955   -99.762482    24984.262    4.3742752    4.3742752    4.3742752    24984.262    21468.383     13164.88    40319.525   -2530.2067    -5169.593   -5845.3968    83.698621 
   16800    1342.8854   -100.97151    1.2150709   -99.756435   -695.64286    4.3752422    4.3752422    4.3752422   -695.64286   -3114.6426    1698.3594   -670.64537   -10908.399   -2260.0641   -5644.6209     83.75414 
   16900    542.43753   -100.25759   0.49080888   -99.766777    19174.223    4.3767091    4.3767091    4.3767091    19174.223    47211.727   -24235.018    34545.961    -5341.562   -12686.765    4885.0939    83.838415 
   17000    877.36713   -100.55573   0.79386022    -99.76187    5410.3397    4.3789172    4.3789172    4.3789172    5410.3397    15453.327   -803.00538    1580.6978   -7627.4888   -1934.9749   -4063.0153    83.965371 
   17100    716.01351   -100.41405   0.64786407    -99.76619    22791.662    4.3713818    4.3713818    4.3713818    22791.662    18881.474     14998.82    34494.693   -11062.771   -22257.247   -4300.1307    83.532642 
   17200     900.0773   -100.57776   0.81440885   -99.763355    -5157.899    4.3774613    4.3774613    4.3774613    -5157.899    27712.339   -34948.495   -8237.5408    561.66377   -4300.9517    6342.7352    83.881646 
   17300    840.35867   -100.52378   0.76037419   -99.763406   -7484.3216    4.3788228    4.3788228    4.3788228   -7484.3216   -12523.348   -18441.347      8511.73   -9348.0165   -7470.9721    -8031.508    83.959939 
   17400    819.34279   -100.50639   0.74135857   -99.765033    19400.425    4.3775171    4.3775171    4.3775171    19400.425    33751.994    12321.559    12127.722    3448.7107   -1013.1231    -1656.199    83.884853 
   17500    896.20666   -100.57073   0.81090662   -99.759821   -15402.989     4.378206     4.378206     4.378206   -15402.989   -3019.7551   -25175.708   -18013.503    4268.0282   -581.95506    764.84554    83.924466 
   17600    906.24602   -100.57948   0.81999044   -99.759488    -971.7949    4.3733916    4.3733916    4.3733916    -971.7949    15828.143   -11029.846   -7713.6823   -5275.5815    1193.9134   -3837.7535    83.647909 
   17700     1070.356   -100.72838   0.96848061   -99.759901    1666.7342    4.3809079    4.3809079    4.3809079    1666.7342    23838.075    -3331.919   -15505.954    6258.6536   -24.356383   -3094.8185    84.079938 
   17800    803.12896   -100.49096   0.72668796   -99.764275   -16699.239    4.3770634    4.3770634    4.3770634   -16699.239   -14267.527   -13708.218   -22121.972    627.30971   -10789.426    5956.5437    83.858777 
   17900    1086.3822   -100.74492   0.98298146   -99.761936    6510.5614    4.3731813    4.3731813    4.3731813    6510.5614    24305.661   -3094.0454   -1679.9313   -4229.1688   -6194.7729   -3459.6244    83.635846 
   18000    1024.1269   -100.68997    0.9266515   -99.763315   -10527.624    4.3762405    4.3762405    4.3762405   -10527.624   -16596.002   -9763.1557   -5223.7154    5950.6248     -765.696    3014.9867    83.811487 
   18100    683.86105   -100.38346   0.61877185   -99.764684    3851.8629    4.3760118    4.3760118    4.3760118    3851.8629    1531.7735   -14366.382    24390.197    1864.7325   -2518.0039    4929.2889    83.798348 
   18200    973.22113   -100.64713   0.88059093   -99.766538     1848.259    4.3758978    4.3758978    4.3758978     1848.259    11774.647   -18977.013    12747.143   -3730.4397    13141.294   -589.49254    83.791799 
   18300    725.32433   -100.42703    0.6562887   -99.770745      14055.9    4.3751801    4.3751801    4.3751801      14055.9   -19698.816    3873.7166      57992.8    12558.835    232.08394   -2270.3809    83.750577 
   18400    1004.8347    -100.6712   0.90919553   -99.762003   -9266.0198    4.3781322    4.3781322    4.3781322   -9266.0198   -8546.8743   -11921.886   -7329.2988   -55.675519   -712.45355   -3072.6404    83.920222 
   18500    879.51315   -100.55676   0.79580198   -99.760961    2419.5685    4.3755237    4.3755237    4.3755237    2419.5685   -10246.392    65.953128    17439.144    1224.1648    4046.6839   -4504.6499    83.770311 
   18600    1068.1747   -100.72257   0.96650695   -99.756059   -4595.0621    4.3782435    4.3782435    4.3782435   -4595.0621    2207.0784    2339.3087   -18331.573    12692.689   -459.86021   -7377.4641    83.926623 
   18700    581.74352   -100.29011   0.52637376   -99.763732   -6772.8267    4.3744426    4.3744426    4.3744426   -6772.8267   -16633.433   -2166.8033   -1518.2433   -1112.8058   -12959.575    8124.8607    83.708234 
   18800    1238.4565   -100.88369    1.1205814   -99.763113    3192.9231    4.3679021    4.3679021    4.3679021    3192.9231   -12163.511   -659.96335    22402.244    650.94985   -1488.4174    -8374.754    83.333322 
   18900    641.14435   -100.35233   0.58012088   -99.772213    3700.4914    4.3753909    4.3753909    4.3753909    3700.4914   -13169.258   -3342.4328    27613.165    3808.2428   -9233.9695    4503.6355    83.762685 
   19000    866.85101   -100.55153   0.78434501   -99.767182   -5953.0135    4.3801197    4.3801197    4.3801197   -5953.0135   -21627.125   -7334.1493    11102.234    1442.7639   -1942.9501    3275.3275    84.034561 
   19100    1210.1854   -100.86104    1.0950012   -99.766038     3907.206    4.3722265    4.3722265    4.3722265     3907.206   -18119.867   -12954.746    42796.231   -10699.378    2962.8742    -14079.85    83.581077 
   19200    861.97259   -100.55289   0.77993092    -99.77296    5046.6775     4.369502     4.369502     4.369502    5046.6775   -10744.746    10454.161    15430.617    6975.3822    1713.1098    4132.8149    83.424925 
   19300    722.99735   -100.42535    0.6541832   -99.771167   -1862.1468    4.3841896    4.3841896    4.3841896   -1862.1468   -20061.232   -20365.127    34839.919   -3945.9376    4483.7166   -5761.2899    84.269027 
   19400    1075.2361   -100.74016   0.97289624   -99.767269   -3579.7124    4.3748359    4.3748359    4.3748359   -3579.7124   -22727.177   -6376.5745    18364.615   -6937.1454    -5032.333   -4790.0472    83.730813 
   19500    1042.7011   -100.70398   0.94345788   -99.760523   -3494.0213    4.3669191    4.3669191    4.3669191   -3494.0213   -19560.191    8424.7278    653.39943    2612.3861    2868.9456    2386.0525    83.277071 
   19600    820.81095   -100.50996     0.742687   -99.767273   -18381.381    4.3776303    4.3776303    4.3776303   -18381.381    -11673.52   -14584.591   -28886.032   -942.30703   -8017.6612   -934.05519    83.891362 
   19700    1186.6247   -100.83795     1.073683   -99.764262   -3439.9231    4.3772963    4.3772963    4.3772963   -3439.9231   -25480.268   -5034.1409     20194.64    -7286.721   -8594.5116     3580.058    83.872164 
   19800    835.74639   -100.52033   0.75620089    -99.76413   -9595.1545    4.3788093    4.3788093    4.3788093   -9595.1545   -23585.345   -10885.108    5684.9892    1244.5343    3045.9554    -8818.863    83.959159 
   19900    620.59637   -100.32547   0.56152864   -99.763938    11050.243    4.3663653    4.3663653    4.3663653    11050.243   -3735.2587    -10881.94    47767.928   -1195.6812   -19136.709    2351.2028    83.245393 
   20000    1224.5045     -100.879    1.1079574   -99.771038    1832.0289    4.3735531    4.3735531    4.3735531    1832.0289   -16726.101    4508.0918    17714.096   -5085.0106    13159.659   -8441.5736    83.657178 
   20100    783.30093   -100.48116   0.70874714   -99.772413   -20296.099    4.3837929    4.3837929    4.3837929   -20296.099   -36052.863   -10416.823   -14418.611    6182.3589    -10962.95   -6120.4792    84.246155 
   20200    884.65218   -100.56387   0.80045188   -99.763422    11244.567    4.3664035    4.3664035    4.3664035    11244.567   -10187.784   -2545.9364    46467.421   -8413.9335   -889.97372     7253.003    83.247576 
   20300    946.89016   -100.62691   0.85676611   -99.770147   -3760.4937     4.378177     4.378177     4.378177   -3760.4937   -30971.238    9920.5339    9769.2234    1438.5618   -9193.0925   -4584.7857    83.922794 
   20400    768.22425   -100.45916   0.69510545   -99.764052   -11758.622      4.37671      4.37671      4.37671   -11758.622   -36449.538    3885.1519   -2711.4781    425.20335   -2879.4539    2613.1865    83.838466 
   20500    1017.0709   -100.68666   0.92026709   -99.766389   -10986.413    4.3672583    4.3672583    4.3672583   -10986.413   -13199.264    7468.2902   -27228.266   -4741.4797   -11494.002   -8700.7515    83.296475 
   20600    1086.6522    -100.7584   0.98322575   -99.775174   -7457.4569    4.3731359    4.3731359    4.3731359   -7457.4569    -31185.55    15088.886   -6275.7067    2041.0148   -7946.7981    8162.0193    83.633241 
   20700    789.41728   -100.49058   0.71428135   -99.776301   -7569.6867    4.3772356    4.3772356    4.3772356   -7569.6867   -36682.623    23561.473   -9587.9103    -1447.713   -9.6217198    4349.5766    83.868672 
   20800    770.87206   -100.46902   0.69750124   -99.771515   -2993.7542    4.3796234    4.3796234    4.3796234   -2993.7542   -39756.761    7470.4153    23305.083   -5498.8432   -13747.176    2240.1242       84.006 
   20900    1227.2504   -100.87554    1.1104419   -99.765099     704.1404    4.3679806    4.3679806    4.3679806     704.1404   -27999.152    1629.2075    28482.365   -1433.6378    4757.5798    21065.965    83.337812 
   21000    509.70328   -100.23353   0.46119024    -99.77234     7531.987    4.3749763    4.3749763    4.3749763     7531.987   -36979.851    36892.483    22683.329    5172.2347   -9743.3689   -10786.151    83.738873 
   21100    1165.6039   -100.81825    1.0546629   -99.763592   -26046.726    4.3795755    4.3795755    4.3795755   -26046.726   -35253.737   -26091.161   -16795.279   -7905.1684    4956.8521    7029.8425    84.003243 
   21200    1015.9996   -100.68041   0.91929775   -99.761114    1898.6567     4.372138     4.372138     4.372138    1898.6567   -37886.075    34763.053    8818.9925    1596.0533   -9461.2225    8259.6793    83.576003 
   21300    783.77424   -100.46844   0.70917541   -99.759262   -6410.0243    4.3775355    4.3775355    4.3775355   -6410.0243   -26097.561    9540.3071   -2672.8196    6535.8605    5788.7301   -11647.003    83.885911 
   21400    979.89879   -100.64755   0.88663302   -99.760913   -12662.096    4.3713648    4.3713648    4.3713648   -12662.096   -18424.533   -9302.8939   -10258.862   -7679.5911   -303.33288    9462.9921    83.531665 
   21500    965.62039    -100.6386   0.87371362    -99.76489    1740.1852    4.3785086    4.3785086    4.3785086    1740.1852   -44118.538      35348.3    13990.794   -129.42722   -2031.7468   -6509.7462    83.941867 
   21600    764.41058   -100.45744   0.69165475   -99.765788   -15068.032    4.3749543    4.3749543    4.3749543   -15068.032   -22595.634   -10602.647   -12005.817    3915.7397    5222.2796   -2058.9202    83.737609 
   21700    948.39211   -100.61741   0.85812511   -99.759287    7263.9765    4.3702559    4.3702559    4.3702559    7263.9765   -19954.897    27980.841    13765.986   -6552.8109   -2208.4343   -1016.4627    83.468112 
   21800    795.41299   -100.48187   0.71970639   -99.762166   -9574.5332    4.3823156    4.3823156    4.3823156   -9574.5332   -54216.059    3923.5993     21568.86   -5201.4493   -1257.4286   -5360.8747    84.161011 
   21900    1056.9436   -100.70924   0.95634482   -99.752892   -9568.0067    4.3698389    4.3698389    4.3698389   -9568.0067   -16323.964    4264.3834   -16644.439    2614.4237   -4828.4593   -1163.4541    83.444223 
   22000    701.26527   -100.39784   0.63451955   -99.763318    -2796.003    4.3769385    4.3769385    4.3769385    -2796.003    -44902.45    21721.388    14793.053    -14963.04    906.12838    8678.0066    83.851595 
   22100    1131.2739   -100.78616    1.0236004   -99.762557   -11169.205    4.3756295    4.3756295    4.3756295   -11169.205   -29198.035   -9497.6363    5188.0561   -5316.5855   -10008.513   -13737.723    83.776387 
   22200    932.41141   -100.61014   0.84366544   -99.766479   -12438.396    4.3756817    4.3756817    4.3756817   -12438.396   -27858.249    7973.1642   -17430.104    6072.7509    3787.6399    4263.7335    83.779387 
   22300    729.05783   -100.43189   0.65966685   -99.772225   -220.81906    4.3739643    4.3739643    4.3739643   -220.81906   -31916.288    4765.3487    26488.482    -12311.76   -7769.6654    1020.1997    83.680779 
   22400    1350.7167   -100.98748    1.2221569   -99.765324    522.95388    4.3704524    4.3704524    4.3704524    522.95388   -4354.2534    -14565.96    20489.075    5198.1128    3383.1663    -7833.386    83.479376 
   22500    613.56781    -100.3226   0.55516905   -99.767428   -25787.081    4.3820317    4.3820317    4.3820317   -25787.081   -44330.573   -16860.196   -16170.472   -6704.4718    4125.8888    5482.2177    84.144658 
   22600    972.35812   -100.63715   0.87981006   -99.757336    20759.466    4.3651504    4.3651504    4.3651504    20759.466    566.90532    10877.887    50833.606   -4562.9724    2656.9199    -4827.757    83.175922 
   22700    1138.2285   -100.79646    1.0298931   -99.766569   -21185.177    4.3789596    4.3789596    4.3789596   -21185.177   -18923.403    -25444.19   -19187.938    2334.1449    8730.6829   -2414.8575    83.967807 
   22800    733.78024    -100.4287   0.66393978    -99.76476   -17114.975    4.3799477    4.3799477    4.3799477   -17114.975    -21100.26   -11569.977   -18674.688   -2199.1451    727.74351   -433.12287    84.024664 
   22900     915.7582   -100.58615   0.82859726   -99.757552    31511.725    4.3560703    4.3560703    4.3560703    31511.725    27827.731    19216.823    47490.622   -2297.0592     1679.643      6749.91    82.657953 
   23000    1031.3448   -100.69898   0.93318247   -99.765794   -20320.469    4.3836727    4.3836727    4.3836727   -20320.469   -6709.4747   -22020.166   -32231.767    4470.0737   -2268.9971    1124.4552    84.239225 
   23100    594.23465    -100.2974     0.537676   -99.759726    11628.406    4.3732929    4.3732929    4.3732929    11628.406    3070.7274    4086.5572    27727.932   -1859.6579   -5051.1279   -3718.8567    83.642247 
   23200    1122.1165   -100.77927    1.0153146   -99.763954    5960.9917    4.3663147    4.3663147    4.3663147    5960.9917    5388.3022    107.88698    12386.786   -3091.4516   -1389.3513     2485.765    83.242495 
   23300    940.59628   -100.62031   0.85107128   -99.769242   -7222.2802    4.3803295    4.3803295    4.3803295   -7222.2802   -8122.5416   -6127.4388     -7416.86   -1388.7113    59.163203   -10436.662    84.046636 
   23400    536.15626   -100.25175   0.48512545   -99.766624    7404.8224    4.3713326    4.3713326    4.3713326    7404.8224    3610.9937   -2496.3213    21099.795   -9373.3086    7909.0073    353.23813    83.529819 
   23500    1344.3388   -100.97785     1.216386   -99.761468   -2240.4457    4.3724166    4.3724166    4.3724166   -2240.4457   -10739.479    15734.062    -11715.92    4092.9572    3543.4877    7303.9093    83.591981 
   23600     567.9619   -100.27804   0.51390386   -99.764132    1508.6447    4.3740837    4.3740837    4.3740837    1508.6447   -30456.261    17795.507    17186.688   -6290.0178    4365.5076   -1047.9196    83.687632 
   23700    847.19947   -100.53273   0.76656389   -99.766161   -6260.4817    4.3775894    4.3775894    4.3775894   -6260.4817    3980.4626   -6015.2272    -16746.68    9374.0925     4429.163    15317.913    83.889013 
   23800    1038.0092   -100.70366   0.93921251   -99.764447    288.83527    4.3703326    4.3703326    4.3703326    288.83527   -15830.495    14697.532    1999.4692   -5402.1128   -1860.7621   -10224.861     83.47251 
   23900     857.3268    -100.5399   0.77572731   -99.764176   -10279.002    4.3736366    4.3736366    4.3736366   -10279.002    -24033.01    2623.1784   -9427.1751    2595.6097    178.64998    3927.2853    83.661968 
   24000    796.67596   -100.48569   0.72084915   -99.764838   -7170.0492    4.3791383    4.3791383    4.3791383   -7170.0492   -4973.8553    10953.308     -27489.6   -3632.1455   -31.385492   -2374.8838    83.978089 
   24100    1228.4353   -100.87351     1.111514   -99.761997    573.19766    4.3643599    4.3643599    4.3643599    573.19766   -8718.5896    8242.2727    2195.9098   -7504.7759   -861.59419   -5152.8862    83.130743 
   24200    694.44987   -100.39509   0.62835284    -99.76674    -16272.71     4.381494     4.381494     4.381494    -16272.71    3766.3359   -5697.5871    -46886.88   -1751.2984   -7760.0791    15661.751    84.113684 
   24300    1008.4023   -100.67339   0.91242359   -99.760966   -6968.4986    4.3725435    4.3725435    4.3725435   -6968.4986   -591.67119    2381.3242   -22695.149   -7450.9491    7701.1075   -3004.5626    83.599259 
   24400    1155.0802   -100.80357    1.0451409   -99.758428    3823.1707    4.3682992    4.3682992    4.3682992    3823.1707    10710.302   -3400.4402    4159.6507    4627.5818   -1206.5511    5405.3219    83.356052 
   24500    508.63526   -100.22505   0.46022388   -99.764827   -28708.885    4.3881931    4.3881931    4.3881931   -28708.885   -29398.415   -21960.968   -34767.273   -7139.1502      8070.92    4656.9495    84.500094 
   24600    1168.4718    -100.8126    1.0572578   -99.755343    15594.398    4.3648372    4.3648372    4.3648372    15594.398    16298.758     4519.758    25964.676    5482.7539    10703.141   -7177.9138    83.158024 
   24700    825.53537   -100.51275   0.74696175   -99.765786   -9968.3483    4.3730786    4.3730786    4.3730786   -9968.3483   -30380.406   -5449.1207    5924.4816    -2743.785    -18325.43   -5312.3335    83.629951 
   24800    634.65116   -100.34086    0.5742457    -99.76661   -2054.0372    4.3739491    4.3739491    4.3739491   -2054.0372   -401.05281   -14933.099    9172.0407   -6791.9354    4647.4584   -1992.1142    83.679902 
   24900    1111.5186   -100.77183    1.0057254   -99.766101    4034.4324     4.373968     4.373968     4.373968    4034.4324    9024.1627   -953.59319    4032.7275   -1352.8806   -12603.707   -9640.7058    83.680987 
   25000    805.61078   -100.49476   0.72893356   -99.765822   -8943.7032    4.3765991    4.3765991    4.3765991   -8943.7032   -7391.9189    -11058.95    -8380.241   -13368.447   -2641.9018   -475.27347    83.832093 
   25100    817.07852    -100.4978   0.73930981   -99.758492    17298.774    4.3659783    4.3659783    4.3659783    17298.774    17620.957    23318.834     10956.53    1614.5094    2562.6236   -3615.7555    83.223257 
   25200    890.19937   -100.57722    0.8054711   -99.771746   -3056.1436    4.3793283    4.3793283    4.3793283   -3056.1436    8548.0663    1870.2156   -19586.713    2143.0079    2637.1133   -4339.6192    83.989017 
   25300    980.04254   -100.65163   0.88676309   -99.764863   -262.63172    4.3721606    4.3721606    4.3721606   -262.63172   -3009.5436    7588.7769   -5367.1284   -1226.8353   -3584.8848    3900.8765    83.577295 
   25400    589.32113    -100.3036   0.53323014   -99.770368    -3922.237    4.3738029    4.3738029    4.3738029    -3922.237   -10568.437    17699.156   -18897.431    2478.8813   -635.41799   -3548.0471    83.671512 
   25500    1130.7062   -100.78991    1.0230867   -99.766826    1032.3062    4.3715305    4.3715305    4.3715305    1032.3062   -1932.1045    2410.3739    2618.6494   -14470.149    9644.0155    4703.0842    83.541169 
   25600    750.13792   -100.44499   0.67874056   -99.766245    535.76509    4.3681253    4.3681253    4.3681253    535.76509    7020.4003    12187.975    -17601.08   -2062.8613   -7055.9108    4383.3869    83.346099 
   25700    706.61834   -100.41182   0.63936312   -99.772461   -7177.7287    4.3807223    4.3807223    4.3807223   -7177.7287    7276.4477   -18072.635   -10736.999   -11343.553    23071.994   -841.82241    84.069247 
   25800    1055.0826   -100.71878   0.95466094   -99.764116    3797.3859    4.3719403    4.3719403    4.3719403    3797.3859   -8996.8914      15955.4    4433.6494   -5916.4453   -11737.287     7657.053    83.564662 
   25900    532.45472   -100.24816   0.48177622   -99.766381   -6252.9146    4.3693475    4.3693475    4.3693475   -6252.9146    2461.4279    3131.9062   -24352.078   -1811.6438    14222.867    3571.8355    83.416076 
   26000    1040.7092   -100.70739   0.94165559   -99.765737   -9747.9944     4.375605     4.375605     4.375605   -9747.9944   -30681.224    -2671.253    4108.4935   -1403.6114   -3662.2757   -6911.0477    83.774981 
   26100    1104.8952   -100.76484   0.99973241   -99.765105   -14252.896    4.3734249    4.3734249    4.3734249   -14252.896   -12249.524   -3755.5609   -26753.605   -1947.9728   -13624.386    6283.7157    83.649823 
   26200     629.6502   -100.33741   0.56972074   -99.767693    -5639.445    4.3716904    4.3716904    4.3716904    -5639.445   -8976.2788    14.959584   -7957.0159    3293.6506    19475.818   -6083.9917    83.550334 
   26300     1082.243   -100.74696   0.97923616   -99.767725   -8682.5826    4.3742177    4.3742177    4.3742177   -8682.5826   -14366.264   -11314.862    -366.6217    4115.9658   -18625.735   -4231.6924    83.695324 
   26400    840.77737   -100.52848   0.76075303   -99.767731   -5447.2719    4.3757209    4.3757209    4.3757209   -5447.2719   -20506.137   -15990.887    20155.209   -3147.9305    19457.961    3263.4665    83.781638 
   26500    732.16989   -100.42688   0.66248271   -99.764394    8872.0702    4.3664326    4.3664326    4.3664326    8872.0702    11579.237   -3805.6424    18842.616    7031.2297   -2663.7943   -3551.6504    83.249242 
   26600    1180.0802    -100.8356    1.0677614   -99.767841   -13762.638    4.3756783    4.3756783    4.3756783   -13762.638   -3965.3682   -29445.462   -7877.0824   -5251.5793    4738.3916    6727.5855    83.779192 
   26700    684.90041   -100.38588   0.61971228   -99.766169    10909.699    4.3683867    4.3683867    4.3683867    10909.699    -1198.179    8607.7277    25319.549   -2057.3347    -1712.432   -1349.4794    83.361059 
   26800    986.00805   -100.65853    0.8921608   -99.766365   -14604.482    4.3690313    4.3690313    4.3690313   -14604.482   -224.10733   -21484.082   -22105.257   -4043.2984   -1802.7218   -1438.6862     83.39797 
   26900    871.11635    -100.5589   0.78820438   -99.770696   -4789.0832    4.3774672    4.3774672    4.3774672   -4789.0832    -24747.37   -5372.9105    15753.031   -7454.7281    4196.1646   -2753.5765    83.881985 
   27000    961.11845    -100.6312   0.86964017   -99.761562   -4009.7499    4.3628623    4.3628623    4.3628623   -4009.7499   -7407.3754        13907   -18528.874   -5652.4974    -5744.177   -1225.3194    83.045195 
   27100    849.86561   -100.53946   0.76897627   -99.770483   -26018.085    4.3815215    4.3815215    4.3815215   -26018.085   -32203.201   -17936.605   -27914.449   -3471.9991     10298.68   -7177.4669    84.115268 
   27200    1109.2936   -100.76655    1.0037122   -99.762841   -7511.6292    4.3729284    4.3729284    4.3729284   -7511.6292   -25910.628    16757.673   -13381.933   -5025.7872   -7519.3701    523.72512    83.621333 
   27300    803.85323   -100.49327    0.7273433    -99.76593   -5765.9658     4.367098     4.367098     4.367098   -5765.9658   -20233.263    8215.3011   -5279.9359    -3358.667    8893.4385    3333.5744    83.287309 
   27400    944.89702   -100.62295   0.85496268   -99.767984   -692.38792     4.374435     4.374435     4.374435   -692.38792    -23558.82    1557.8229    19923.833    5411.4888   -8858.4258    1788.0802    83.707798 
   27500    919.77694   -100.59665   0.83223351    -99.76442    6917.5718     4.376902     4.376902     4.376902    6917.5718   -20730.388    30535.541    10947.563   -654.69046   -1187.3264    4496.6201      83.8495 
   27600    874.01884     -100.551   0.79083061   -99.760167   -4226.9802    4.3722668    4.3722668    4.3722668   -4226.9802   -22415.005    12466.349   -2732.2848    926.66387   -5763.1259    -720.0477    83.583386 
   27700    1028.6203   -100.69002   0.93071727   -99.759306      13842.6    4.3649337    4.3649337    4.3649337      13842.6   -8934.9724    22298.711    28164.062    7159.6151   -4975.1113    212.53046    83.163537 
   27800    901.07773   -100.58687   0.81531407   -99.771557   -4583.3956    4.3785139    4.3785139    4.3785139   -4583.3956   -19529.047   -834.65546    6613.5158   -2156.8309    4237.3789   -1098.5943     83.94217 
   27900    871.49487   -100.55555   0.78854687   -99.767003    3009.1387    4.3731275    4.3731275    4.3731275    3009.1387   -20253.044    11604.634    17675.826    6032.6753   -14593.395    2812.1175    83.632761 
   28000    878.69723   -100.56313   0.79506372    -99.76807    1490.9173    4.3685621    4.3685621    4.3685621    1490.9173   -5123.9463   -1946.6035    11543.302   -214.86215    13133.931    1507.9486    83.371099 
   28100    1005.4884   -100.67889   0.90978706   -99.769105   -8926.4993    4.3738943    4.3738943    4.3738943   -8926.4993   -17448.432    2482.5696   -11813.635   -5026.4339   -12985.554   -1536.8798     83.67676 
   28200    710.22336   -100.41564   0.64262502   -99.773018   -414.29333    4.3738142    4.3738142    4.3738142   -414.29333    -20626.61    17077.917    2305.8134   -108.79701    8965.6183    7822.5406    83.672162 
   28300    1106.1923   -100.77762    1.0009061   -99.776713    973.14354    4.3675921    4.3675921    4.3675921    973.14354   -3491.0087    9593.8006   -3183.3613   -4558.8781    -1783.833    973.81748    83.315577 
   28400    705.25967   -100.41908   0.63813377   -99.780947    10442.324    4.3728283    4.3728283    4.3728283    10442.324   -20621.138    40655.077    11293.033   -6097.4363    2554.9016    3620.0223    83.615591 
   28500    924.24397   -100.61214   0.83627537    -99.77586    4190.1675    4.3740634    4.3740634    4.3740634    4190.1675   -13809.647    26646.572   -266.42228    3834.0275   -5567.4288    2693.4791    83.686463 
   28600    961.66624   -100.64133   0.87013582   -99.771195    6317.9204    4.3670223    4.3670223    4.3670223    6317.9204    5679.4157    6634.2358    6640.1096   -4563.5185    -192.4433    5153.2675    83.282975 
   28700    793.74196   -100.48958   0.71819441   -99.771387   -668.20372    4.3713991    4.3713991    4.3713991   -668.20372   -13905.352   -1854.2548    13754.996    6207.8768   -1715.6314   -684.17587    83.533633 
   28800    855.80232   -100.54269   0.77434793   -99.768343    2443.5515     4.375306     4.375306     4.375306    2443.5515   -6151.8492     17188.81    -3706.306   -3658.6626   -3330.2023    4645.4514     83.75781 
   28900    987.91929   -100.65592   0.89389013   -99.762034   -1959.9484    4.3699331    4.3699331    4.3699331   -1959.9484   -5308.8978   -1879.8201    1308.8727   -3544.3808    6588.2075   -481.70965    83.449621 
   29000    637.77962   -100.33931   0.57707641   -99.762235    6265.7728    4.3674906    4.3674906    4.3674906    6265.7728   -11447.246    28491.396    1753.1689   -2747.0398   -11900.931    2434.2059    83.309772 
   29100      915.255   -100.59546   0.82814196   -99.767319   -1569.9197     4.374272     4.374272     4.374272   -1569.9197    637.29765    12056.915   -17403.972   -11914.876    5308.6404   -23.160518    83.698439 
   29200    911.93278   -100.58887   0.82513594   -99.763739   -2994.7055    4.3726595    4.3726595    4.3726595   -2994.7055   -14026.972    7772.5033   -2729.6473   -1928.9183   -9824.5096   -8577.4761    83.605909 
   29300    561.57769   -100.27271   0.50812729   -99.764582   -4066.6571    4.3721746    4.3721746    4.3721746   -4066.6571   -9361.8092   -4570.5265    1732.3644   -2482.3699   -4269.7047    1407.0774    83.578102 
   29400    1245.5399   -100.89333    1.1269907   -99.766337   -9130.6356    4.3726903    4.3726903    4.3726903   -9130.6356   -10460.421    4680.0911   -21611.577   -5644.5185   -1201.6194   -3559.9687    83.607675 
   29500    625.74773   -100.33749    0.5661897   -99.771299   -6319.7529    4.3768755    4.3768755    4.3768755   -6319.7529   -2300.5258   -12839.332   -3819.4004    9654.7146   -843.83916    16600.939    83.847978 
   29600    835.74186   -100.51993    0.7561968   -99.763735    3819.7209    4.3608611    4.3608611    4.3608611    3819.7209   -6533.3599    29484.751   -11492.229    2281.9241   -3162.5434     2865.644    82.930975 
   29700    1013.4021   -100.68634   0.91694749   -99.769391    8652.9526    4.3739408    4.3739408    4.3739408    8652.9526   -2265.0583    14809.621    13414.295    3670.7969     4218.981    2854.6384    83.679426 
   29800    764.81816   -100.45838   0.69202354   -99.766359   -14165.354    4.3811025    4.3811025    4.3811025   -14165.354   -20740.559   -786.80319   -20968.701    10703.286   -376.69819    7474.3145    84.091138 
   29900     756.0899    -100.4458   0.68412603    -99.76167    19606.588    4.3657057    4.3657057    4.3657057    19606.588    1011.8725    6403.7473    51404.144    -353.3546   -1883.2822   -8247.1317    83.207669 
   30000    1119.7938   -100.77912     1.013213    -99.76591   -5400.0676    4.3748291    4.3748291    4.3748291   -5400.0676   -7862.4904   -926.33423   -7411.3783    -762.6439    7413.0895    4384.2052    83.730424 
   30100    712.64277   -100.40965   0.64481416   -99.764836    4080.4445    4.3737575    4.3737575    4.3737575    4080.4445   -17532.092   -1451.0626    31224.488    875.98262   -327.60761    1437.4067    83.668907 
   30200    832.14785   -100.52006   0.75294486   -99.767117    372.44464    4.3698165    4.3698165    4.3698165    372.44464    7129.9227     13447.97   -19460.559   -4956.7251    6610.4035    16956.682    83.442943 
   30300    982.31784   -100.65771   0.88882182   -99.768886    12418.219    4.3647475    4.3647475    4.3647475    12418.219   -9103.5673    23904.154    22454.071   -1669.4974   -8486.0611    2525.9249    83.152895 
   30400    764.36703   -100.46202   0.69161536     -99.7704   -4677.9501    4.3731242    4.3731242    4.3731242   -4677.9501    -113.2002    4343.9755   -18264.626   -6146.5015    899.09967    8944.4816    83.632568 
   30500    801.07466   -100.49508   0.72482919   -99.770248   -8684.2982    4.3751621    4.3751621    4.3751621   -8684.2982   -3906.0391   -13576.369   -8570.4866   -1699.6657    4343.2424    10006.401    83.749543 
   30600    1247.4705   -100.89315    1.1287375   -99.764411    3661.5417       4.3618       4.3618       4.3618    3661.5417    4618.9868     264.4459    6101.1926    -1833.016   -13212.515   -990.55421    82.984552 
   30700    485.03291   -100.21781   0.43886797   -99.778937   -8620.3961    4.3766485    4.3766485    4.3766485   -8620.3961     1389.813   -25389.406   -1861.5953   -2644.5859   -1929.2551    13315.658    83.834931 
   30800    1143.1497   -100.80376    1.0343459   -99.769419   -2963.3972     4.376124     4.376124     4.376124   -2963.3972   -7194.0071     1548.106   -3244.2904    9405.7587   -13413.472    2662.9529    83.804795 
   30900    674.40486   -100.37974   0.61021569   -99.769527     7812.764    4.3677533    4.3677533    4.3677533     7812.764   -5310.4142    15592.762    13155.944   -1401.5389     1708.191    16268.265    83.324804 
   31000    795.63672   -100.48648   0.71990882   -99.766572    11920.038    4.3664255    4.3664255    4.3664255    11920.038   -1450.9016    12411.547    24799.467    11623.726   -3541.7381   -5592.4134    83.248837 
   31100    797.21796   -100.48696   0.72133956   -99.765619   -1830.7678     4.382352     4.382352     4.382352   -1830.7678   0.61356517    -7511.925    2019.0081    4849.0523   -5171.6778    15099.145     84.16311 
   31200    884.79334    -100.5576   0.80057961   -99.757015    8321.8106    4.3699694    4.3699694    4.3699694    8321.8106   -4578.7442    15099.847    14444.329    3060.8901   -3372.2272    1653.4469    83.451699 
   31300     753.5884   -100.43912   0.68186262    -99.75726    12937.042    4.3655975    4.3655975    4.3655975    12937.042    13847.542    -7319.945    32283.529    9994.8871   -5310.6276    4592.0596    83.201485 
   31400    875.42366   -100.55573   0.79210172   -99.763626   -8977.6856    4.3807742    4.3807742    4.3807742   -8977.6856    15106.703   -27591.076   -14448.683    2281.1582   -11930.458    12297.777    84.072238 
   31500    1061.6275   -100.71755    0.9605829   -99.756965    2359.3761    4.3665929    4.3665929    4.3665929    2359.3761    5048.6706    -4658.378    6687.8358    585.48681    2245.2244   -6211.4783    83.258411 
   31600    452.01322   -100.18383   0.40899106   -99.774841   -6669.8553    4.3714922    4.3714922    4.3714922   -6669.8553    21306.321    -45375.91    4060.0232   -1537.7392   -511.13076    12838.894     83.53897 
   31700    1301.3346   -100.94239    1.1774749   -99.764918    2288.3215    4.3715422    4.3715422    4.3715422    2288.3215    16821.236    6289.0044   -16245.276   -2544.7233     4788.686   -5711.8271    83.541838 
   31800    534.51576   -100.25376   0.48364109   -99.770122   -12510.712    4.3775332    4.3775332    4.3775332   -12510.712    -19861.07   -16852.203   -818.86259   -14091.544   -1875.1738    8784.2129     83.88578 
   31900    982.19491   -100.64706    0.8887106   -99.758347    13003.697    4.3623723    4.3623723    4.3623723    13003.697    18204.632    12397.772    8408.6874   -1439.5433   -1473.9123    2099.2396    83.017217 
   32000    778.02914   -100.47168   0.70397712   -99.767699    8049.3721    4.3706069    4.3706069    4.3706069    8049.3721   -2859.1232    25113.513    1893.7265   -18090.484    2996.1038    9243.3943    83.488226 
   32100    842.90457   -100.52409   0.76267777    -99.76141    -6528.434    4.3775643    4.3775643    4.3775643    -6528.434   -17156.888    8653.6759    -11082.09   -6721.8452   -968.50286    4941.6855    83.887568 
   32200    752.48062   -100.44035   0.68086028   -99.759495    20292.454    4.3642033    4.3642033    4.3642033    20292.454    26272.621     21242.52    13362.222   -3623.8893    1776.3057    6336.0496    83.121798 
   32300    1139.2541   -100.79513    1.0308211   -99.764313   -17221.933    4.3743202    4.3743202    4.3743202   -17221.933   -17443.788   -28250.779   -5971.2325   -7331.5893   -3391.4563    1573.0939    83.701204 
   32400    912.52097   -100.58666   0.82566815   -99.760992    8138.3318    4.3712108    4.3712108    4.3712108    8138.3318   -398.03853    13889.617    10923.417     7223.657   -5190.5306    3883.3257    83.522841 
   32500    842.51686   -100.52616   0.76232696   -99.763836   -10018.064    4.3706959    4.3706959    4.3706959   -10018.064     2998.221   -38433.506    5381.0937   -2824.0674    -3789.991    8956.5761    83.493327 
   32600    1255.5079   -100.89391    1.1360099   -99.757899    1296.0992    4.3698426    4.3698426    4.3698426    1296.0992   -9955.7797    5987.7577    7856.3196    1792.5944   -106.38296   -1801.6525    83.444436 
   32700    495.69272   -100.21242   0.44851319   -99.763903     2772.895    4.3735472    4.3735472    4.3735472     2772.895   -4281.0581   -4962.7998    17562.543   -13.161425   -2990.1827    13132.014     83.65684 
   32800    1267.9652   -100.90355    1.1472816   -99.756271   -10856.699    4.3717125    4.3717125    4.3717125   -10856.699   -12813.462   -18031.338   -1725.2978   -5181.0988    868.78933    3028.2962    83.551602 
   32900    819.84024   -100.50707   0.74180868   -99.765261    5300.7741    4.3696717    4.3696717    4.3696717    5300.7741   -4590.0371     11138.86    9353.4992   -11282.598    8651.0959    16014.271    83.434646 
   33000    772.08508   -100.46524   0.69859881   -99.766644   -2651.0781    4.3756378    4.3756378    4.3756378   -2651.0781   -2569.2523   -10078.058    4694.0758   -335.96194    3531.2407    1103.8303    83.776864 
   33100    910.05663   -100.58817   0.82343837    -99.76473   -4582.3819    4.3713514    4.3713514    4.3713514   -4582.3819    16278.038   -23181.761   -6843.4233   -17642.583    3145.5876    11364.287    83.530899 
   33200    939.99524   -100.61093   0.85052744   -99.760407     5535.498    4.3633725    4.3633725    4.3633725     5535.498    29427.354    1764.3384   -14585.198   -3225.5493    1773.9853    525.14149    83.074335 
   33300    734.31657     -100.431   0.66442506   -99.766575   -14780.495    4.3771482    4.3771482    4.3771482   -14780.495    51.061925   -32577.049   -11815.499   -5062.1028   -1313.9169    4225.7477    83.863648 
   33400    907.34867   -100.58416   0.82098815   -99.763169   -1033.1981    4.3713402    4.3713402    4.3713402   -1033.1981    28524.714   -20826.898    -10797.41   -3265.5672    -3492.351   -2051.5728     83.53026 
   33500    1217.0673   -100.86028     1.101228   -99.759054   -4081.3835    4.3636146    4.3636146    4.3636146   -4081.3835    -1165.112   -5759.3088   -5319.7298    6466.7492    3839.2885    3019.5131    83.088162 
   33600    581.95388   -100.29384    0.5265641   -99.767273   -7993.8657    4.3767552    4.3767552    4.3767552   -7993.8657    17781.862    -38266.82   -3496.6392   -756.87575   -7263.9138    6522.2256    83.841064 
   33700    1385.5276    -101.0099    1.2536544   -99.756244    -3798.327    4.3726225    4.3726225    4.3726225    -3798.327   -3551.2119   -16757.805    8914.0361    9131.1067    10207.129   -2175.2423    83.603786 
   33800     824.9977   -100.50628   0.74647526   -99.759809   -3364.2745    4.3651371    4.3651371    4.3651371   -3364.2745    18670.799   -18307.284   -10456.339   -591.08045    6025.2693    13990.042    83.175163 
   33900    844.23233   -100.52302   0.76387916   -99.759145    3820.5196    4.3713781    4.3713781    4.3713781    3820.5196    17108.066   -25846.043    20199.536    3333.8921    2314.6512   -4437.4045    83.532433 
   34000    1219.6194   -100.86927    1.1035373   -99.765738   -10719.916    4.3740954    4.3740954    4.3740954   -10719.916      16007.9   -23717.796   -24449.851   -2158.4948    8853.5429    13427.554    83.688299 
   34100    727.53646   -100.42257   0.65829028   -99.764285    9962.6206    4.3664414    4.3664414    4.3664414    9962.6206    27273.226   -16725.101    19339.736   -1375.9129   -9309.7884   -4409.1518    83.249741 
   34200    789.25847   -100.48241   0.71413765   -99.768274   -10086.523    4.3756245    4.3756245    4.3756245   -10086.523   -6206.8436   -29272.761    5220.0369   -8283.4418   -773.48292    1083.3994    83.776101 
   34300    1057.6523   -100.71985   0.95698602   -99.762866    3572.3158    4.3754044    4.3754044    4.3754044    3572.3158    8856.6339   -4813.2469    6673.5605    564.79075   -3774.4931    -4773.448    83.763458 
   34400     463.5045   -100.17717   0.41938861   -99.757782    10032.106    4.3682126    4.3682126    4.3682126    10032.106    2740.9582   -11229.058     38584.42   -12960.419   -11035.354   -9382.0334    83.351092 
   34500     901.8414    -100.5808   0.81600505     -99.7648    69.603983    4.3737932    4.3737932    4.3737932    69.603983   -11162.399    22251.993   -10880.782    1101.8609    6113.3915   -6988.6554    83.670958 
   34600     990.0292   -100.65984   0.89579923   -99.764041   -509.24495    4.3769676    4.3769676    4.3769676   -509.24495   -18642.264    10684.322    6430.2064    4571.6528   -4099.8645   -10232.744    83.853271 
   34700    464.13629   -100.18491   0.41996026   -99.764948    9035.0529    4.3636483    4.3636483    4.3636483    9035.0529    5223.0639    7674.3653    14207.729   -9335.4443    247.74696   -2787.7346    83.090087 
   34800    1259.8129   -100.90419    1.1399052   -99.764287    -9931.796    4.3725103    4.3725103    4.3725103    -9931.796   -11274.209   -12282.493   -6238.6855    12406.345    1380.4309   -1385.3115    83.597353 
   34900     875.3296   -100.56216   0.79201662   -99.770143    4726.5157    4.3725138    4.3725138    4.3725138    4726.5157    2520.4742    273.52726    11385.546   -13011.863    2929.5005    6824.6014    83.597551 
   35000    821.16922   -100.50771   0.74301117   -99.764698   -6665.1702    4.3690337    4.3690337    4.3690337   -6665.1702   -5960.0777    -11815.61   -2219.8229    1443.1716   -2046.2336   -2115.9993    83.398106 
[...]
   91200    942.89504   -100.61933   0.85315125   -99.766182    6095.6001    4.3637631    4.3637631    4.3637631    6095.6001    6039.4832   -1575.0262    13822.343    5203.8548    5741.0995     4760.654    83.096646 
   91300    806.90835   -100.50331   0.73010763   -99.773204   -3642.1363    4.3608959    4.3608959    4.3608959   -3642.1363    -5226.673   -3726.4635   -1973.2724   -11060.945   -2276.3715    13207.074    82.932961 
   91400    1001.8712    -100.6753   0.90651407    -99.76879    2329.2073    4.3553485    4.3553485    4.3553485    2329.2073   -6337.4227    4013.6394    9311.4053   -9664.0218    6242.6606    3136.3113    82.616869 
   91500    801.36639   -100.49735   0.72509315   -99.772258   -7901.8818    4.3622113    4.3622113    4.3622113   -7901.8818    4844.3372   -24356.271   -4193.7116    2904.9511   -6305.7272    6566.5292    83.008028 
   91600    942.96899   -100.62683   0.85321816   -99.773614   -13708.806    4.3644529    4.3644529    4.3644529   -13708.806    -14030.58   -10658.241   -16437.598   -11839.023    158.03323    5460.3386    83.136057 
   91700    1159.0601   -100.81459    1.0487419   -99.765846    9550.8067    4.3549809    4.3549809    4.3549809    9550.8067    21802.442   -6980.7724    13830.751    2703.9068   -2168.9224    4808.3489    82.595951 
   91800    622.91304   -100.34191   0.56362481   -99.778281   -17862.431    4.3605576    4.3605576    4.3605576   -17862.431   -13010.679   -38243.782   -2332.8318   -9517.9934   -9138.0357    3740.2269     82.91366 
   91900      1197.17   -100.85554    1.0832246   -99.772319    9649.9286    4.3607292    4.3607292    4.3607292    9649.9286    13180.752    3121.7305    12647.303   -1213.8904    8487.0609    175.55611    82.923448 
   92000    847.90619   -100.54253   0.76720334   -99.775328   -15513.068    4.3634139    4.3634139    4.3634139   -15513.068   -20124.294   -20697.391    -5717.519   -10940.715    -9956.676    7615.0072      83.0767 
   92100    698.17177   -100.40586   0.63172049   -99.774143    12246.279      4.35019      4.35019      4.35019    12246.279   -5903.8035    7397.5815    35245.058   -1786.2078    144.58687    6.3037237    82.323661 
   92200    1084.4384   -100.75414   0.98122264   -99.772921    12547.352    4.3580256    4.3580256    4.3580256    12547.352    10751.042     15510.91    11380.105   -8140.3768    3731.6805     2436.606    82.769308 
   92300     731.6089   -100.43951    0.6619751    -99.77753   -12983.482    4.3670512    4.3670512    4.3670512   -12983.482   -35864.442    3261.7423   -6347.7468   -8587.1991   -9628.0885    7741.8604    83.284627 
   92400    944.18604   -100.62312   0.85431937   -99.768798    19921.803    4.3503739    4.3503739    4.3503739    19921.803    6093.3001    25543.052    28129.055    3000.7362    3753.5491   -6874.2801    82.334103 
   92500    944.12986    -100.6274   0.85426853   -99.773136   -8767.0725    4.3612011    4.3612011    4.3612011   -8767.0725   -4781.9572    1583.7896    -23103.05   -10680.421    -3580.949    8912.2509    82.950375 
   92600    889.14362   -100.57509   0.80451583   -99.770577   -5685.3752    4.3624253    4.3624253    4.3624253   -5685.3752   -31669.139    22268.919   -7655.9056    2902.8246   -6007.0175   -5020.0389    83.020244 
   92700    1055.9425   -100.72244   0.95543893   -99.767003     1017.105    4.3562793    4.3562793    4.3562793     1017.105   -535.14424   -9758.1264    13344.585   -4415.3998    4137.0805   -3847.6337    82.669849 
   92800    933.34588   -100.61531   0.84451097     -99.7708   -10684.491    4.3599841    4.3599841    4.3599841   -10684.491   -15748.598    5347.8893   -21652.766   -2797.2888   -9136.4163   -866.67248    82.880947 
   92900    994.48218   -100.66709   0.89982838   -99.767263   -1062.4299    4.3603799    4.3603799    4.3603799   -1062.4299   -29534.115    1037.3401    25309.486    1821.8809     5427.298   -7332.1832    82.903525 
   93000    1008.7814   -100.68235   0.91276661   -99.769586   -4178.7621    4.3619916    4.3619916    4.3619916   -4178.7621   -16637.938      5457.23   -1355.5788   -1302.6777    -4724.379    6760.5249    82.995485 
   93100    819.32984   -100.51278   0.74134686   -99.771433    7910.7661    4.3583441    4.3583441    4.3583441    7910.7661   -16548.939    21241.044    19040.193    5184.3347    6306.3859   -4231.5631    82.787455 
   93200    898.51409   -100.58121   0.81299444   -99.768217    1282.1807    4.3608973    4.3608973    4.3608973    1282.1807   -32363.334    24731.628    11478.248   -4196.5833   -3618.0224    12431.128    82.933041 
   93300    777.83998   -100.47962   0.70380596   -99.775818    5897.6617     4.359808     4.359808     4.359808    5897.6617    -19859.81    39705.153   -2152.3584   -471.40101    10926.256    2553.4862    82.870908 
   93400    1060.4089    -100.7288   0.95948024   -99.769319   -53.215228    4.3574768    4.3574768    4.3574768   -53.215228   -7522.2488   -3619.0661    10981.669    4445.6532    4156.8148    4839.4319    82.738042 
   93500    553.67832   -100.27549   0.50097978    -99.77451   -5534.5889    4.3595701    4.3595701    4.3595701   -5534.5889   -37317.684    37899.548    -17185.63   -7329.6254     990.5901    1033.1625    82.857344 
   93600     1142.772   -100.80918    1.0340041   -99.775176   -9779.3897    4.3618404    4.3618404    4.3618404   -9779.3897    -10783.45   -5678.9449   -12875.774    8331.3766     13900.88     -3372.71    82.986858 
   93700    1015.5882   -100.68998    0.9189255   -99.771056   -3356.5038    4.3546719    4.3546719    4.3546719   -3356.5038   -4004.3962    423.60509   -6488.7204    410.77042   -6174.5989    5173.0307     82.57837 
   93800    543.46686   -100.27209   0.49174024   -99.780346   -15234.906    4.3595583    4.3595583    4.3595583   -15234.906   -29621.394    9837.0361   -25920.361    5340.0832     11266.65   -5029.8534    82.856667 
   93900    1264.8534   -100.91594    1.1444659   -99.771471    4772.1267     4.362861     4.362861     4.362861    4772.1267     7652.082    462.39821    6201.8998    7245.4483   -1635.3174    4244.8474    83.045122 
   94000    782.91828   -100.48257   0.70840091   -99.774166   -10276.934    4.3612404    4.3612404    4.3612404   -10276.934   -26859.695     23919.11   -27890.218    2424.6827    5676.1271   -3378.4063    82.952616 
   94100    644.81759   -100.35608   0.58344451   -99.772636    3775.8997    4.3590785    4.3590785    4.3590785    3775.8997   -22083.327    22801.239    10609.788    4961.7878   -29.621218    827.82671    82.829315 
   94200    1203.5439   -100.85938    1.0889919   -99.770389    12823.655    4.3560744    4.3560744    4.3560744    12823.655    6532.6306    25162.749    6775.5846    -5612.973    6027.7804   -1044.6983    82.658184 
   94300    802.01551   -100.50084   0.72568049   -99.775164   -14337.456    4.3636976    4.3636976    4.3636976   -14337.456   -28092.792    2633.3449   -17552.922    4347.6559    259.73981   -13026.935    83.092902 
   94400    742.51592   -100.44489   0.67184401   -99.773043    1383.3968    4.3571293    4.3571293    4.3571293    1383.3968   -15311.097   -3396.7121    22857.999    -9464.059    2676.3303   -1321.6709    82.718253 
   94500    1235.5442    -100.8921    1.1179464   -99.774158   -1316.1626    4.3586045    4.3586045    4.3586045   -1316.1626    16802.749   -9228.8615   -11522.376    3787.9952   -742.19187   -7215.3739    82.802296 
   94600    786.90153   -100.48292   0.71200504    -99.77091   -16622.294    4.3649819    4.3649819    4.3649819   -16622.294   -27946.547   -22402.317    481.98205   -347.66691   -2421.8359   -9235.0844    83.166294 
   94700     764.0848   -100.45799   0.69135999   -99.766629    7267.1661    4.3524709    4.3524709    4.3524709    7267.1661    11002.494    5165.4222     5633.582    1158.8209    3298.9062    2241.4905    82.453223 
   94800    1049.5363   -100.72254   0.94964251   -99.772896   -4851.9113    4.3636955    4.3636955    4.3636955   -4851.9113   -7544.3186    1532.2675   -8543.6829    7809.7296   -9596.0547    -7729.539    83.092785 
   94900    779.67224   -100.47622   0.70546383   -99.770759   -130.12631     4.361603     4.361603     4.361603   -130.12631   -29942.768    23199.706    6352.6833   -2387.0257     5348.573    3912.8729    82.973307 
   95000    721.61493   -100.42398   0.65293236   -99.771047    2806.7245     4.360771     4.360771     4.360771    2806.7245    -5451.149    20865.786   -6994.4632    2828.4275   -6998.3255   -2343.2176    82.925836 
   95100    1126.1055   -100.78901    1.0189239   -99.770089   -6047.0679    4.3601318    4.3601318    4.3601318   -6047.0679   -19729.161   -2365.7285    3953.6855   -10520.138   -2203.8343    262.92387    82.889374 
   95200    944.94127   -100.62512   0.85500272   -99.770114    12849.922    4.3518717    4.3518717    4.3518717    12849.922    7372.2883    24653.115    6524.3625    6540.0364    2758.3158    4923.2077    82.419172 
   95300    659.91529   -100.37078   0.59710522   -99.773671    -14971.93    4.3691175    4.3691175    4.3691175    -14971.93   -27850.176   -12004.324   -5061.2903   -14971.725   -3995.5097   -4180.1802    83.402903 
   95400    1104.8693   -100.77158   0.99970898   -99.771866    4532.8164    4.3514486    4.3514486    4.3514486    4532.8164    7692.5321      6315.32   -409.40297    5481.6976    672.35199    8099.7642    82.395134 
   95500      837.051   -100.53373   0.75738133   -99.776345    10713.523    4.3534867    4.3534867    4.3534867    10713.523   -2283.8695     29910.69      4513.75   -99.449216   -787.31834   -361.30636    82.510965 
   95600    680.49734   -100.38846   0.61572829   -99.772733   -17954.257    4.3689475    4.3689475    4.3689475   -17954.257   -21970.458   -18045.442   -13846.872   -7681.3005    2329.9365    486.02002    83.393171 
   95700    1133.8485   -100.79243    1.0259299   -99.766504   -1047.1555    4.3567626    4.3567626    4.3567626   -1047.1555    8100.1674   -6671.3448   -4570.2892    419.83139   -2404.6191    6808.6358     82.69737 
   95800    856.74438   -100.54647   0.77520032   -99.771273   -5599.2291    4.3565549    4.3565549    4.3565549   -5599.2291   -20615.234    5689.8196   -1872.2724   -18572.761   -1066.3646   -907.88084     82.68554 
   95900    824.48776   -100.51839   0.74601385   -99.772377   -2542.5541    4.3617098    4.3617098    4.3617098   -2542.5541   -9199.8678    14119.491   -12547.285   -3333.3167    1814.2747    12916.638    82.979403 
   96000    1002.4351   -100.68059   0.90702432   -99.773566   -6697.3346    4.3626512    4.3626512    4.3626512   -6697.3346   -19490.035    4280.9158   -4882.8845   -17597.364    -3671.844   -1102.0417    83.033141 
   96100    842.58187   -100.53468   0.76238579   -99.772298    10354.001    4.3502918    4.3502918    4.3502918    10354.001   -3507.6615    41630.896   -7061.2319   -1818.9724   -367.55859    7367.8385    82.329439 
   96200    917.48869   -100.60135   0.83016305    -99.77119   -9157.8801    4.3616236    4.3616236    4.3616236   -9157.8801   -17188.896   -15060.158    4775.4142   -7790.9504     3027.527     6323.759    82.974483 
   96300     964.0362   -100.64367   0.87228021    -99.77139   -5083.1823    4.3646577    4.3646577    4.3646577   -5083.1823   -9264.1675    8837.7877   -14823.167   -8753.3762   -5826.5418    3065.3832    83.147762 
   96400    1026.0595   -100.69518   0.92840019    -99.76678    10123.013    4.3560225    4.3560225    4.3560225    10123.013    3060.7254    31326.868   -4018.5554    1455.5833    3014.2441    13302.212    82.655231 
   96500    709.91242   -100.40985   0.64234367   -99.767503     321.7412    4.3557204    4.3557204    4.3557204     321.7412   -16848.942    5774.7119    12039.454    -13541.33   -881.50072   -19.657024    82.638036 
   96600    923.60185   -100.61182   0.83569437   -99.776122   -2642.4338    4.3640933    4.3640933    4.3640933   -2642.4338    16721.766   -4972.8952   -19676.172    5690.1758    282.30424    16982.426    83.115513 
   96700    1206.0334   -100.86278    1.0912444   -99.771533    2461.3736    4.3603598    4.3603598    4.3603598    2461.3736   -9914.2584    21459.422   -4161.0425   -12565.827   -1449.2102    150.21855    82.902375 
   96800    550.89038   -100.27366   0.49845719   -99.775199   -8142.0728    4.3591648    4.3591648    4.3591648   -8142.0728   -1629.5584   -22376.681   -419.97848    4949.4489    2840.3317     18156.49    82.834236 
   96900    1048.1953   -100.71741   0.94842916   -99.768977    13697.741    4.3587174    4.3587174    4.3587174    13697.741    17175.025    27338.561   -3420.3627   -2229.2158    3751.8571   -7191.9554    82.808735 
   97000    1105.5091   -100.77099    1.0002879   -99.770698   -947.68232    4.3580491    4.3580491    4.3580491   -947.68232   -4820.1957    12466.247   -10489.098   -10835.125   -4144.9778     16577.19     82.77065 
   97100    514.08411   -100.23692   0.46515411   -99.771764    -437.5577    4.3628196    4.3628196    4.3628196    -437.5577    6597.5203   -6119.9061   -1790.2873     10084.01     7769.376   -1597.6284    83.042756 
   97200    1102.1769   -100.76485   0.99727283   -99.767581    8894.6586    4.3543575    4.3543575    4.3543575    8894.6586    9599.4566    27004.292   -9919.7725   -16372.425   -5050.8341    5957.3804     82.56049 
   97300    973.86986   -100.65418   0.88117791   -99.773004   -9649.8708    4.3617937    4.3617937    4.3617937   -9649.8708    3281.2988   -6926.1436   -25304.767    723.65178    3068.9317    8267.9729    82.984188 
   97400    688.27911   -100.39164    0.6227694   -99.768868   -2738.0422     4.359114     4.359114     4.359114   -2738.0422    7812.7729   -2929.2788   -13097.621    672.56687    3489.8952   -3952.5633    82.831338 
   97500    932.85679   -100.61654   0.84406843   -99.772473   -7642.5611    4.3581433    4.3581433    4.3581433   -7642.5611    14641.044   -10770.607    -26798.12     -7003.19   -1997.6481    18160.357    82.776016 
   97600    1102.4847   -100.76708   0.99755129   -99.769533   -13018.704     4.363885     4.363885     4.363885   -13018.704   -2219.9687    724.45578   -37560.598    7479.7032    8462.2096   -12958.922    83.103611 
   97700     650.7463   -100.35731   0.58880893   -99.768502   -2814.4243    4.3579422    4.3579422    4.3579422   -2814.4243    14154.181   -14175.416    -8422.038   -1766.2362   -1427.2802    18134.998    82.764558 
   97800    966.20366   -100.64315   0.87424137   -99.768909   -12437.401    4.3584002    4.3584002    4.3584002   -12437.401   -1201.9231   -4525.2362   -31585.044   -3834.7058    7986.2889   -11114.717    82.790654 
   97900    1085.6436   -100.75211   0.98231318   -99.769797   -1158.6085    4.3551647    4.3551647    4.3551647   -1158.6085   -4829.5737    14041.673   -12687.925    5259.3228   -299.61692    6963.4036    82.606412 
   98000    704.41515   -100.40953   0.63736963   -99.772161   -3928.7597    4.3636935    4.3636935    4.3636935   -3928.7597    12450.939     -17987.3   -6249.9179   -3050.4562     2643.998   -2356.4683    83.092671 
   98100    900.00271   -100.58555   0.81434137   -99.771212    -11162.34    4.3629707    4.3629707    4.3629707    -11162.34   -21623.702    7557.6815       -19421   -244.90195    1562.4993   -7113.2894    83.051387 
   98200     1077.471   -100.74153   0.97491842   -99.766613    16863.608    4.3510355    4.3510355    4.3510355    16863.608    12192.296    27753.028      10645.5    4455.6595    -4097.805    6312.7346    82.371673 
   98300    672.69983   -100.38173   0.60867294   -99.773059   -2948.6352    4.3622405    4.3622405    4.3622405   -2948.6352    7227.9608   -1462.9165    -14610.95   -1995.1734     8397.621   -15251.461    83.009693 
   98400    888.52164    -100.5702   0.80395305    -99.76625    2519.9033    4.3623739    4.3623739    4.3623739    2519.9033   -18324.286    16165.767    9718.2287    4436.8113   -9634.5022    5848.8842    83.017312 
   98500    956.68613   -100.63353   0.86562971   -99.767898    7431.7774    4.3552741    4.3552741    4.3552741    7431.7774    16984.069    26682.174   -21370.911     2053.368    9617.7824   -15471.207    82.612638 
   98600    884.06802    -100.5699   0.79992333   -99.769975   -4289.4031    4.3612841    4.3612841    4.3612841   -4289.4031   -2747.0054   -20095.184      9973.98    482.24068   -2243.1638   -3384.3321     82.95511 
   98700    785.26975     -100.481   0.71052857    -99.77047   -3736.4833    4.3601486    4.3601486    4.3601486   -3736.4833   -11943.359    14530.353   -13796.444   -3918.3183    3076.5186   -8986.3988     82.89033 
   98800    1031.1589    -100.7049   0.93301425   -99.771891   -5397.3104    4.3552357    4.3552357    4.3552357   -5397.3104    3913.6929    5266.5159    -25372.14   -1169.2982    6063.3425   -12563.842    82.610452 
   98900    1085.4184    -100.7506   0.98210938   -99.768495   -2095.1425    4.3601992    4.3601992    4.3601992   -2095.1425   -6294.6258   -17741.546    17750.745   -7463.3519   -3388.1692   -4316.7549    82.893216 
   99000    550.50489   -100.27014    0.4981084   -99.772035   -4637.1963      4.36072      4.36072      4.36072   -4637.1963   -411.11407    20584.738   -34085.213    4234.1753    9839.8922   -13576.029    82.922925 
   99100    1204.7622   -100.85701    1.0900942   -99.766912   -1670.7828    4.3598397    4.3598397    4.3598397   -1670.7828      3968.55   -6569.4585   -2411.4398   -11473.627   -8404.5156   -1858.1892    82.872715 
   99200    890.19124   -100.57685   0.80546374   -99.771391    8586.6083    4.3540205    4.3540205    4.3540205    8586.6083    14532.995    1521.7942    9705.0357    801.57976    8694.2211   -13066.374    82.541319 
   99300    641.65328   -100.35333   0.58058138   -99.772748   -6015.4283    4.3611959    4.3611959    4.3611959   -6015.4283     499.6991    7199.7181   -25745.702   -1630.7311   -8619.6217   -1956.9017    82.950075 
   99400    1025.1074    -100.6988   0.92753875   -99.771257    2835.7438    4.3591416    4.3591416    4.3591416    2835.7438    16315.935    -23794.62    15985.916   -17017.777    2189.2678   -6110.3607    82.832912 
   99500    1008.5227   -100.68468   0.91253255    -99.77215    3757.7195     4.356972     4.356972     4.356972    3757.7195    11939.187    4888.0888   -5554.1177    7750.0701   -2394.7368   -8361.5348    82.709293 
   99600    664.63555   -100.37478   0.60137621   -99.773403   -9092.1702    4.3636396    4.3636396    4.3636396   -9092.1702   -20512.011   -21911.014    15146.514    -20926.54   -3789.3779    4093.8459    83.089593 
   99700    993.02128   -100.67154   0.89850652   -99.773032    4562.5239    4.3529444    4.3529444    4.3529444    4562.5239    4533.8205   -5103.9518    14257.703    418.35551    4594.6427    -9793.522    82.480136 
   99800    1140.5232   -100.80376    1.0319693   -99.771792   -6402.9013    4.3598094    4.3598094    4.3598094   -6402.9013   -8292.0803   -16806.269     5889.646    -10315.63    -9200.243    7447.2375    82.870986 
   99900    543.66435   -100.26157   0.49191893   -99.769649   -8456.9697    4.3626972    4.3626972    4.3626972   -8456.9697   -18702.588   -18011.816    11343.495   -7605.6862    1559.2159   -3525.8007    83.035767 
  100000    1013.2296   -100.68302   0.91679145   -99.766228    2678.6325    4.3547139    4.3547139    4.3547139    2678.6325    10656.391   -3686.3333    1065.8402   -3569.3541    -9187.543   -190.63977    82.580762 
Loop time of 21.5982 on 1 procs for 100000 steps with 8 atoms

Pair  time (%) = 6.68448 (30.9493)
Kspce time (%) = 5.26696 (24.3862)
Neigh time (%) = 0 (0)
Comm  time (%) = 1.07124 (4.95986)
Outpt time (%) = 0.0237198 (0.109823)
Other time (%) = 8.55176 (39.5949)

Nlocal:    8 ave 8 max 8 min
Histogram: 1 0 0 0 0 0 0 0 0 0
Nghost:    2189 ave 2189 max 2189 min
Histogram: 1 0 0 0 0 0 0 0 0 0
Neighs:    2056 ave 2056 max 2056 min
Histogram: 1 0 0 0 0 0 0 0 0 0

Total # of neighbors = 2056
Ave neighs/atom = 257
Neighbor list builds = 0
Dangerous builds = 0
seeds:8306963
