LAMMPS (10 Feb 2015)
Reading data file ...
  triclinic box = (0 0 0) to (15 15 15) with tilt (0 0 0)
  1 by 1 by 1 MPI processor grid
  reading atoms ...
  216 atoms
108 atoms in group Mg
108 atoms in group O
Setting atom values ...
  108 settings made for charge
Setting atom values ...
  108 settings made for charge
PPPM initialization ...
  G vector (1/distance) = 0.346163
  grid = 24 24 24
  stencil order = 5
  estimated absolute RMS force accuracy = 8.03518e-05
  estimated relative force accuracy = 5.58012e-06
  using double precision FFTs
  3d grid and FFT values/proc = 29791 13824
Neighbor list info ...
  1 neighbor list requests
  update every 1 steps, delay 0 steps, check yes
  master list distance cutoff = 11
Setting up minimization ...
Memory usage per processor = 7.83223 Mbytes
Step PotEng Lx Ly Lz Xy Xz Yz Press Pxx Pyy Pzz Pxy Pxz Pyz eatoms 
       0   -4087.5285           15           15           15            0            0            0   -399268.76   -400335.54   -398735.38   -398735.38   -333.44402   -333.44402   -385.23961   -4087.5285 
       1   -4107.4608           15           15           15            0            0            0   -399979.36   -400255.66   -399841.21   -399841.21   -50.292751   -50.292751   -43.708853   -4107.4608 
       2   -4117.0998           15           15           15            0            0            0   -398195.61   -398270.81      -398158      -398158    91.449124    91.449124    145.24306   -4117.0998 
       3   -4119.7438           15           15           15            0            0            0   -395082.93   -395201.69   -395023.55   -395023.55    118.66606    118.66606    221.17434   -4119.7438 
       4   -4121.4947           15           15           15            0            0            0   -394282.48   -394438.49   -394204.48   -394204.48    70.017914    70.017914    199.97862   -4121.4947 
       5   -4123.3708           15           15           15            0            0            0   -390637.06   -391007.66   -390451.76   -390451.76   -71.653505   -71.653505    196.57169   -4123.3708 
       6   -4124.9789           15           15           15            0            0            0   -384665.94   -385474.74   -384261.54   -384261.54   -252.08751   -252.08751    211.67892   -4124.9789 
       7    -4127.285           15           15           15            0            0            0   -379071.03   -379140.38   -379036.36   -379036.36   -302.90898   -302.90898    493.23647    -4127.285 
       8   -4131.5227           15           15           15            0            0            0   -370581.74   -369841.76   -370951.73   -370951.73   -325.74864   -325.74864     1091.418   -4131.5227 
       9   -4136.4194           15           15           15            0            0            0   -364466.74   -362819.02    -365290.6    -365290.6    -776.1929    -776.1929    1603.1322   -4136.4194 
      10   -4143.3281           15           15           15            0            0            0   -352369.57   -349123.45   -353992.62   -353992.62   -1307.3347   -1307.3347    2176.5215   -4143.3281 
      11   -4149.8428           15           15           15            0            0            0   -340580.62   -337506.35   -342117.75   -342117.75   -1681.5032   -1681.5032    2657.2914   -4149.8428 
      12   -4158.4731           15           15           15            0            0            0   -321217.27   -317236.17   -323207.82   -323207.82    -1569.787    -1569.787    3325.3589   -4158.4731 
      13   -4165.3098           15           15           15            0            0            0   -305855.25   -303243.14   -307161.31   -307161.31   -1572.1982   -1572.1982     3984.703   -4165.3098 
      14   -4173.0004           15           15           15            0            0            0    -283735.4   -280028.14   -285589.02   -285589.02   -1129.4181   -1129.4181    4883.8977   -4173.0004 
      15    -4179.151           15           15           15            0            0            0   -266136.27   -262990.07   -267709.37   -267709.37   -799.46583   -799.46583       5920.6    -4179.151 
      16    -4185.555           15           15           15            0            0            0   -245568.26   -241489.54   -247607.62   -247607.62   -83.404797   -83.404797    7121.9724    -4185.555 
      17   -4192.5244           15           15           15            0            0            0   -225251.45    -223278.3   -226238.03   -226238.03     700.9486     700.9486    8272.5752   -4192.5244 
      18    -4198.672           15           15           15            0            0            0   -208193.04   -206419.49   -209079.81   -209079.81    1070.9995    1070.9995    8728.1575    -4198.672 
      19   -4205.4152           15           15           15            0            0            0   -194367.72   -191944.84   -195579.16   -195579.16    1695.4872    1695.4874    8738.0749   -4205.4152 
      20    -4211.181           15           15           15            0            0            0   -179725.18   -175863.77   -181655.89   -181655.89    1482.3453    1482.3451    8501.0436    -4211.181 
      21   -4216.9006           15           15           15            0            0            0    -167355.9   -164208.65   -168929.52   -168929.52    2031.4723    2031.4719    8199.5866   -4216.9006 
      22   -4222.0482           15           15           15            0            0            0   -156702.34   -154726.93   -157690.05   -157690.05    1963.4853    1963.4854    7869.0811   -4222.0482 
      23   -4227.0911           15           15           15            0            0            0   -144787.72   -144380.06   -144991.54   -144991.55    2264.7002       2264.7    6736.2789   -4227.0911 
      24   -4232.9434           15           15           15            0            0            0   -131187.69   -130076.12   -131743.47   -131743.48    1705.8443    1705.8428    5750.1624   -4232.9434 
      25   -4237.0784           15           15           15            0            0            0   -123344.32   -123252.63   -123390.16   -123390.15    1922.5143    1922.5138    5407.0804   -4237.0784 
      26   -4240.5528           15           15           15            0            0            0   -115981.41   -115401.72   -116271.26   -116271.26    1710.0172    1710.0185    5738.5749   -4240.5528 
      27   -4243.5431           15           15           15            0            0            0   -109147.75   -109845.25   -108799.01   -108799.01    2511.8161    2511.8157    5977.0711   -4243.5431 
      28   -4246.0961           15           15           15            0            0            0   -102134.44   -102356.09   -102023.61   -102023.62    2608.7365    2608.7349    6365.7232   -4246.0961 
      29   -4248.1212           15           15           15            0            0            0   -97115.985   -96590.942   -97378.506   -97378.509    2745.1941    2745.1961    6869.6319   -4248.1212 
      30    -4250.666           15           15           15            0            0            0   -92221.041   -91585.149   -92538.987   -92538.987    3010.6807      3010.68    7161.0075    -4250.666 
      31   -4252.7335           15           15           15            0            0            0   -86799.152   -85216.265   -87590.591     -87590.6    3307.4015    3307.3999    8196.1493   -4252.7335 
      32   -4254.7764           15           15           15            0            0            0   -81304.519   -81419.906   -81246.821    -81246.83    4007.2013    4007.1988    8909.3717   -4254.7764 
      33   -4256.6104           15           15           15            0            0            0   -76150.401   -74939.679   -76755.766   -76755.758    3874.8797    3874.8818    9989.6607   -4256.6104 
      34   -4258.0798           15           15           15            0            0            0    -70173.02   -69187.946   -70665.559   -70665.554    4338.9671    4338.9692    10281.646   -4258.0798 
      35   -4259.4964           15           15           15            0            0            0   -63475.829   -61599.815    -64413.84   -64413.833    4573.1544    4573.1479    10392.019   -4259.4964 
      36   -4260.6543           15           15           15            0            0            0   -59413.573   -59155.378   -59542.674   -59542.667     4921.323    4921.3264     10436.57   -4260.6543 
      37   -4261.6926           15           15           15            0            0            0   -55939.925   -57315.354   -55252.212   -55252.208    4968.0149    4968.0205    9367.9397   -4261.6926 
      38   -4262.6029           15           15           15            0            0            0   -54040.262   -57232.028   -52444.378   -52444.379    4979.4743    4979.4733    8087.8956   -4262.6029 
      39   -4263.5025           15           15           15            0            0            0   -52159.494   -55904.178   -50287.145    -50287.16     4892.635    4892.6298    7729.2545   -4263.5025 
      40   -4264.2072           15           15           15            0            0            0   -52207.167   -57574.234   -49523.633   -49523.634    4674.5682    4674.5687    8190.3348   -4264.2072 
      41   -4264.7599           15           15           15            0            0            0   -51646.762   -57965.542   -48487.379   -48487.364    4585.4508    4585.4571    8354.1452   -4264.7599 
      42   -4265.3154           15           15           15            0            0            0   -51352.427   -57865.992   -48095.648   -48095.642    4927.2889    4927.2887    7842.6234   -4265.3154 
      43    -4265.634           15           15           15            0            0            0   -51640.085   -59192.143   -47864.058   -47864.054    5071.5596    5071.5582    7390.6523    -4265.634 
      44    -4265.985           15           15           15            0            0            0   -51598.837   -59574.404   -47611.063   -47611.043     4943.462    4943.4618    7715.6729    -4265.985 
      45   -4266.2175           15           15           15            0            0            0   -51329.394   -59829.628   -47079.271   -47079.281    4884.8628    4884.8615     7768.852   -4266.2175 
      46   -4266.3871           15           15           15            0            0            0   -51220.093   -60215.787   -46722.248   -46722.245    4496.7136    4496.7142    7624.5398   -4266.3871 
      47   -4266.6162           15           15           15            0            0            0    -50325.18   -59529.426   -45723.062   -45723.052    3816.8231    3816.8156    7734.9559   -4266.6162 
      48   -4266.9014           15           15           15            0            0            0   -49382.464   -59420.883   -44363.263   -44363.246    3134.1422    3134.1418    7856.8487   -4266.9014 
      49   -4267.2891           15           15           15            0            0            0   -49223.509     -59624.2   -44023.173   -44023.153     1839.622    1839.6262    7276.1214   -4267.2891 
      50   -4267.6784           15           15           15            0            0            0   -49010.214   -60096.695   -43466.982   -43466.967    1213.0856    1213.0922    6267.2971   -4267.6784 
      51   -4268.0669           15           15           15            0            0            0    -48616.67     -60532.1   -42658.969   -42658.941    464.92541    464.93596    6019.3027   -4268.0669 
      52   -4268.4669           15           15           15            0            0            0   -48165.246   -60291.394   -42102.178   -42102.165   -840.14409   -840.11792    7086.3209   -4268.4669 
      53   -4268.9042           15           15           15            0            0            0   -47472.467   -60617.547    -40899.93   -40899.925   -1725.8456   -1725.8076    7220.2545   -4268.9042 
      54   -4269.2247           15           15           15            0            0            0   -47482.183   -61179.689   -40633.436   -40633.423   -1493.6117   -1493.5839    6254.7813   -4269.2247 
      55   -4269.5313           15           15           15            0            0            0   -47265.345    -60736.77   -40529.643   -40529.621   -1521.9064   -1521.8884    5428.4204   -4269.5313 
      56   -4269.9955           15           15           15            0            0            0     -46048.6    -59449.87   -39347.972   -39347.959   -1365.6475   -1365.6205    4958.8512   -4269.9955 
      57   -4270.3467           15           15           15            0            0            0   -45110.454   -58296.226    -38517.58   -38517.557   -1623.5818   -1623.5495    5236.5915   -4270.3467 
      58   -4270.5751           15           15           15            0            0            0   -44436.567   -57688.686   -37810.524    -37810.49   -1900.8146   -1900.7875    5268.2404   -4270.5751 
      59   -4270.8806           15           15           15            0            0            0   -43711.231   -56929.871   -37101.934   -37101.888   -2112.5501   -2112.5302    5346.4553   -4270.8806 
      60   -4271.2656           15           15           15            0            0            0   -43178.934   -56321.813   -36607.524   -36607.466   -2423.9356   -2423.9102    4974.8178   -4271.2656 
      61   -4271.7429           15           15           15            0            0            0   -43121.047   -55441.599   -36960.792   -36960.751   -2661.4842   -2661.4522    4733.0006   -4271.7429 
      62   -4272.1779           15           15           15            0            0            0   -43219.351   -55628.468   -37014.814    -37014.77    -2411.886   -2411.8477    4628.4129   -4272.1779 
      63   -4272.6399           15           15           15            0            0            0    -43893.78   -56969.313   -37356.048   -37355.978   -2282.0718    -2282.039    4415.6844   -4272.6399 
      64   -4273.1089           15           15           15            0            0            0    -44586.05   -57548.837   -38104.701   -38104.611   -2107.5394   -2107.5089    4271.7069   -4273.1089 
      65   -4273.5302           15           15           15            0            0            0   -45186.439   -58000.455   -38779.458   -38779.405   -2186.0919   -2186.0403    4155.5267   -4273.5302 
      66   -4273.9594           15           15           15            0            0            0   -45581.246   -58057.654   -39343.073   -39343.012   -1885.7996   -1885.7432    4035.7071   -4273.9594 
      67   -4274.3605           15           15           15            0            0            0   -45842.535   -59011.028   -39258.334   -39258.244   -1528.9257   -1528.8739    3771.1387   -4274.3605 
      68   -4274.6958           15           15           15            0            0            0   -45776.896   -58418.215   -39456.288   -39456.184   -1346.9587    -1346.893    3687.5611   -4274.6958 
      69   -4274.9496           15           15           15            0            0            0   -45276.345   -57297.063   -39266.032    -39265.94   -1322.5912     -1322.51    3414.1054   -4274.9496 
      70   -4275.1114           15           15           15            0            0            0   -44291.925    -55157.59   -38859.133   -38859.051   -1222.6654   -1222.5772    3413.9826   -4275.1114 
      71   -4275.4241           15           15           15            0            0            0   -43483.759   -54640.199   -37905.609    -37905.47   -912.45976   -912.36922    3433.4719   -4275.4241 
      72    -4275.544           15           15           15            0            0            0   -43475.794    -55517.87   -37454.841   -37454.671   -1124.6034   -1124.5016    3323.3937    -4275.544 
      73   -4275.6669           15           15           15            0            0            0   -43333.203    -55508.12    -37245.83    -37245.66   -1378.4279   -1378.3214    3342.8561   -4275.6669 
      74   -4275.8425           15           15           15            0            0            0   -43196.472   -55346.338   -37121.629   -37121.448   -1281.6014   -1281.4836    2821.8643   -4275.8425 
      75   -4276.0644           15           15           15            0            0            0   -43666.164   -55570.456   -37714.116   -37713.919   -1639.8591   -1639.7189    2430.8656   -4276.0644 
      76   -4276.2824           15           15           15            0            0            0   -44420.801   -55671.686   -38795.503   -38795.214   -1664.0379   -1663.9027    1988.4872   -4276.2824 
      77   -4276.4822           15           15           15            0            0            0   -45003.652   -56072.986   -39469.177   -39468.791   -1912.2001   -1912.0625    1514.9878   -4276.4822 
      78   -4276.6054           15           15           15            0            0            0   -44901.028   -56348.352   -39177.555   -39177.176   -2056.5753   -2056.4357    1379.8667   -4276.6054 
      79   -4276.6923           15           15           15            0            0            0   -44797.833   -56306.265   -39043.802   -39043.431   -1946.3005   -1946.1526    1140.7369   -4276.6923 
      80    -4276.818           15           15           15            0            0            0   -44720.775   -56536.026   -38813.385   -38812.916   -2196.0432   -2195.8985    944.91451    -4276.818 
      81   -4276.9653           15           15           15            0            0            0   -44753.872   -57469.383   -38396.406   -38395.827   -2558.1991   -2558.0411    426.77767   -4276.9653 
      82   -4277.2078           15           15           15            0            0            0     -44841.7   -58161.197   -38182.307   -38181.597   -2560.6798   -2560.5663   -563.99983   -4277.2078 
      83   -4277.4105           15           15           15            0            0            0   -44905.628   -57957.875   -38379.917   -38379.092   -2930.3575   -2930.3116    -1044.996   -4277.4105 
      84   -4277.6559           15           15           15            0            0            0   -45234.294   -58256.092   -38723.856   -38722.934   -3613.8142     -3613.83   -1550.7401   -4277.6559 
      85   -4277.8988           15           15           15            0            0            0   -45744.018    -59919.93   -38656.545   -38655.577   -3822.8899   -3822.9469   -1608.5079   -4277.8988 
      86   -4278.0444           15           15           15            0            0            0   -45855.945   -61009.211    -38279.87   -38278.753   -4097.2254   -4097.3664   -1547.9085   -4278.0444 
      87   -4278.1619           15           15           15            0            0            0   -45479.931   -60554.703   -37943.182   -37941.908   -4358.9944   -4359.2299   -1629.2726   -4278.1619 
      88    -4278.274           15           15           15            0            0            0   -44945.951   -60451.691   -37193.768   -37192.393   -4664.0317   -4664.4305   -1515.4015    -4278.274 
      89   -4278.4196           15           15           15            0            0            0   -44635.696   -61092.419   -36408.172   -36406.496   -4954.5037    -4955.138   -1087.2299   -4278.4196 
      90   -4278.6051           15           15           15            0            0            0   -43774.014   -61118.775   -35102.874   -35100.393   -5143.6551   -5144.8003   -672.49317   -4278.6051 
      91   -4278.7546           15           15           15            0            0            0   -42906.398   -61214.133   -33754.101   -33750.961   -5435.3408   -5437.1642   -769.47981   -4278.7546 
      92   -4278.8884           15           15           15            0            0            0    -42478.37   -61389.336   -33024.621   -33021.153   -5657.8457   -5660.2722    -1026.178   -4278.8884 
      93   -4279.0155           15           15           15            0            0            0   -42215.884   -61903.466   -32374.167    -32370.02   -5517.6971   -5520.6832   -1344.2848   -4279.0155 
      94    -4279.148           15           15           15            0            0            0   -41826.026   -62160.856   -31661.444   -31655.779     -5276.25   -5280.2443   -2035.2045    -4279.148 
      95   -4279.2808           15           15           15            0            0            0   -41345.403   -62561.366   -30741.076   -30733.766    -5310.019   -5315.2179   -2975.0565   -4279.2808 
      96   -4279.4645           15           15           15            0            0            0    -40836.87   -62641.445   -29939.272   -29929.895   -5307.7941   -5314.1634    -4028.746   -4279.4645 
      97   -4279.6938           15           15           15            0            0            0   -40679.053   -63772.789   -29138.289   -29126.081   -4866.9087   -4874.5819   -4753.6485   -4279.6938 
      98   -4279.9279           15           15           15            0            0            0   -40422.618   -64417.479   -28432.868   -28417.509   -4458.8805   -4467.9866   -5403.4246   -4279.9279 
      99   -4280.1162           15           15           15            0            0            0   -40445.316   -64213.993   -28568.916   -28553.038   -4410.1334   -4420.1755   -5571.4231   -4280.1162 
     100   -4280.2677           15           15           15            0            0            0   -40522.227   -64374.197    -28605.66   -28586.825   -4032.1036   -4045.1606   -6082.7646   -4280.2677 
     101   -4280.5511           15           15           15            0            0            0   -40530.209    -64051.11    -28782.91   -28756.609   -3020.6229    -3039.353   -6790.8447   -4280.5511 
     102   -4280.7754           15           15           15            0            0            0   -40521.243    -64504.83   -28544.025   -28514.875   -2316.7666   -2337.9381    -6611.264   -4280.7754 
     103   -4280.9344           15           15           15            0            0            0   -40496.716   -65444.254    -28039.63   -28006.265   -2387.8591   -2412.0422   -6310.9533   -4280.9344 
     104   -4281.0459           15           15           15            0            0            0   -40533.688   -66054.869   -27790.849   -27755.347   -2474.5332   -2500.5552   -6248.5048   -4281.0459 
     105   -4281.1323           15           15           15            0            0            0    -40493.83   -66283.617   -27619.443   -27578.431   -2623.4077   -2654.1002   -6367.5768   -4281.1323 
     106   -4281.2393           15           15           15            0            0            0   -40328.613   -65708.193   -27662.072   -27615.574   -2685.1754   -2724.1792   -6412.1534   -4281.2393 
     107   -4281.3166           15           15           15            0            0            0   -39995.832   -65376.878    -27330.35   -27280.266   -2872.4971   -2918.8563   -6281.0514   -4281.3166 
     108   -4281.3871           15           15           15            0            0            0   -39680.427    -64761.13   -27169.298   -27110.854    -2976.923   -3036.1836   -6140.6254   -4281.3871 
     109   -4281.4436           15           15           15            0            0            0   -39397.537   -64716.614   -26768.713   -26707.285   -3085.3826   -3153.5084   -5764.8188   -4281.4436 
     110    -4281.499           15           15           15            0            0            0   -39041.176   -64828.484   -26184.645   -26110.398   -3322.1897   -3406.4429   -5412.1242    -4281.499 
     111    -4281.537           15           15           15            0            0            0   -38918.344   -64980.282   -25928.567   -25846.184    -3373.566   -3473.4264   -5393.3472    -4281.537 
     112   -4281.5684           15           15           15            0            0            0   -38874.797   -64989.376   -25866.039   -25768.977   -3495.9728   -3618.8976   -5376.5381   -4281.5684 
     113   -4281.5983           15           15           15            0            0            0   -39131.638   -65100.079   -26200.405   -26094.429   -3566.8789   -3713.3555   -5204.4007   -4281.5983 
     114   -4281.6243           15           15           15            0            0            0   -39380.427    -65123.17   -26572.819   -26445.293   -3740.9423   -3916.5429   -5048.6402   -4281.6243 
     115   -4281.6482           15           15           15            0            0            0    -39702.31   -65183.647    -27033.41   -26889.872   -3917.3251   -4125.9338   -4842.1411   -4281.6482 
     116   -4281.6694           15           15           15            0            0            0   -39768.065   -65150.868   -27155.575   -26997.752   -4032.7342   -4285.7033    -4888.373   -4281.6694 
     117   -4281.6943           15           15           15            0            0            0   -39735.795   -65211.888   -27085.261   -26910.237   -4051.4152   -4371.5902   -4990.0091   -4281.6943 
     118    -4281.717           15           15           15            0            0            0   -39586.964   -65044.153    -26955.88    -26760.86   -4191.1608   -4586.1872   -5213.7613    -4281.717 
     119   -4281.7387           15           15           15            0            0            0   -39317.832   -64875.767   -26643.676   -26434.052    -4249.273   -4730.9431   -5468.9996   -4281.7387 
     120   -4281.7687           15           15           15            0            0            0   -38886.828   -64343.687   -26291.044   -26025.752   -4434.8457   -5105.7724   -5754.8365   -4281.7687 
     121   -4281.8125           15           15           15            0            0            0   -38457.927   -64205.133   -25742.294   -25426.353   -4594.9415    -5541.413   -5862.7929   -4281.8125 
     122   -4281.8683           15           15           15            0            0            0   -37830.157   -63688.145   -25104.165   -24698.159   -4714.1535   -6044.5946   -5958.2251   -4281.8683 
     123   -4281.9497           15           15           15            0            0            0   -37200.572   -63162.069   -24436.978   -24002.668   -4734.0602   -6501.0086   -6134.4373   -4281.9497 
     124   -4282.0919           15           15           15            0            0            0   -36364.061   -62351.008   -23669.759   -23071.416   -4411.2226   -6678.4267   -6283.0874   -4282.0919 
     125    -4282.262           15           15           15            0            0            0   -35556.963   -61158.437   -23021.715   -22490.739   -4046.3568    -6898.161   -6367.7833    -4282.262 
     126   -4282.4045           15           15           15            0            0            0   -34415.913   -59859.108   -21975.187   -21413.443   -3510.5422   -6858.1606   -6436.6886   -4282.4045 
     127   -4282.5358           15           15           15            0            0            0   -33203.567   -58578.802   -20806.219    -20225.68   -3268.1654   -6895.3663   -6123.5249   -4282.5358 
     128    -4282.717           15           15           15            0            0            0   -31679.716   -56499.154   -19432.654   -19107.338   -3071.8159   -7036.9391   -6255.0951    -4282.717 
     129   -4282.9293           15           15           15            0            0            0   -30762.218   -55223.571   -18459.743   -18603.339   -2930.4112   -7015.4555   -6297.0348   -4282.9293 
     130   -4283.1308           15           15           15            0            0            0   -30232.218   -54194.622   -17986.066   -18515.965   -2879.4607   -7283.4467    -6442.673   -4283.1308 
     131   -4283.3407           15           15           15            0            0            0   -29943.609   -53865.206   -17314.744   -18650.875   -2560.7902   -7353.6809   -6993.5217   -4283.3407 
     132   -4283.5172           15           15           15            0            0            0    -29926.77    -53835.84   -17096.138   -18848.331   -1984.9288   -7135.4847   -7794.1831   -4283.5172 
     133   -4283.6854           15           15           15            0            0            0   -29838.206   -53696.538   -17038.547   -18779.533   -1476.8874   -6889.2719   -7995.5441   -4283.6854 
     134   -4283.8553           15           15           15            0            0            0   -29694.361   -53333.489   -17353.573   -18396.021   -838.53653   -6452.4757   -8331.2156   -4283.8553 
     135   -4284.0108           15           15           15            0            0            0    -29402.96   -52835.041   -17396.559    -17977.28   -378.69447   -6261.5441   -8547.8109   -4284.0108 
     136   -4284.1632           15           15           15            0            0            0   -29018.532   -51732.991   -17451.345    -17871.26    242.09385   -5885.6651   -8571.2834   -4284.1632 
     137   -4284.2995           15           15           15            0            0            0   -28530.265   -50672.651   -17491.422   -17426.722    498.95021   -6077.0974   -8211.8334   -4284.2995 
     138   -4284.4571           15           15           15            0            0            0   -27846.974   -49800.449   -17323.428   -16417.046    991.83345   -6103.5921   -7182.1276   -4284.4571 
     139   -4284.6133           15           15           15            0            0            0   -27225.835   -49430.332   -16920.854   -15326.317    1447.3502   -5903.3413   -5857.0669   -4284.6133 
     140   -4284.7831           15           15           15            0            0            0   -26785.951   -49058.486    -16562.44   -14736.927    2246.7767   -5305.0691   -4738.2294   -4284.7831 
     141   -4284.9357           15           15           15            0            0            0   -26359.049   -48818.426   -16032.283   -14226.439    2820.0571   -5103.4957   -4036.0451   -4284.9357 
     142   -4285.1176           15           15           15            0            0            0    -26218.55   -49090.235   -15702.119   -13863.296    3486.1834   -4563.9206    -3758.001   -4285.1176 
     143    -4285.371           15           15           15            0            0            0   -26246.666   -49561.693    -15806.31   -13371.994    4174.9475    -4161.442   -3048.0187    -4285.371 
     144   -4285.6809           15           15           15            0            0            0   -26632.069   -50322.118   -16612.825   -12961.266    4715.0942   -3599.4129   -2674.7901   -4285.6809 
     145   -4285.9563           15           15           15            0            0            0   -26662.154   -51056.726   -16857.433   -12072.303    4920.8278   -3352.4069   -2280.6147   -4285.9563 
     146   -4286.1572           15           15           15            0            0            0   -26681.714   -51733.347   -16897.704    -11414.09    5016.0463   -3169.5687   -2393.1318   -4286.1572 
     147   -4286.3977           15           15           15            0            0            0   -26641.114   -51475.984   -17306.705   -11140.655    4832.8689   -3411.6855   -2939.6335   -4286.3977 
     148   -4286.6343           15           15           15            0            0            0    -26498.88   -51400.997   -16829.936   -11265.706    4863.9759   -3467.1081   -3223.4643   -4286.6343 
     149   -4286.8193           15           15           15            0            0            0   -26563.106   -51771.953   -16833.525   -11083.839    4838.4361   -3264.0522   -3691.9504   -4286.8193 
     150   -4286.9798           15           15           15            0            0            0   -26717.897   -51668.619   -17503.745   -10981.327    4700.3863   -3342.1965   -3881.1569   -4286.9798 
     151   -4287.1311           15           15           15            0            0            0   -26972.281   -51734.539   -18142.115   -11040.191    4616.0105   -3762.9942   -4157.9486   -4287.1311 
     152   -4287.2724           15           15           15            0            0            0   -27084.789    -51477.42   -18503.565   -11273.381    4364.2768   -4425.5078   -4573.3245   -4287.2724 
     153    -4287.404           15           15           15            0            0            0   -27012.265   -50588.133   -18797.385   -11651.277    4128.8129   -4673.3088   -4816.5438    -4287.404 
     154   -4287.5367           15           15           15            0            0            0    -27200.42   -49917.038   -19577.463   -12106.758    3796.6857   -4376.4552   -4885.5714   -4287.5367 
     155   -4287.6998           15           15           15            0            0            0   -27557.548   -49500.712   -20556.922   -12615.011    4270.0035   -3847.1088   -5049.6893   -4287.6998 
     156   -4287.8873           15           15           15            0            0            0   -27833.516   -49473.974   -21740.064    -12286.51    4345.1518   -3566.7342   -4988.0803   -4287.8873 
     157   -4288.0954           15           15           15            0            0            0   -28328.725    -49718.11   -22806.478   -12461.586     3926.264   -2986.5019   -4774.8559   -4288.0954 
     158   -4288.3434           15           15           15            0            0            0   -28606.017   -50015.278   -23507.021   -12295.751    4097.5611   -2493.1107   -4778.7217   -4288.3434 
     159   -4288.5758           15           15           15            0            0            0   -28630.737   -50215.941   -23580.576   -12095.694    4008.9813   -2201.0122   -5035.2524   -4288.5758 
     160   -4288.8303           15           15           15            0            0            0   -27928.189   -49876.205   -22647.229   -11261.133    3990.9134   -2501.9212    -5051.779   -4288.8303 
     161   -4289.1169           15           15           15            0            0            0    -27104.22   -48667.101   -21762.433   -10883.125    4402.0322   -2428.3057     -5181.32   -4289.1169 
     162   -4289.3352           15           15           15            0            0            0   -26931.811   -47859.454   -21954.398   -10981.582    4223.6581   -2436.0389   -5310.8586   -4289.3352 
     163   -4289.4595           15           15           15            0            0            0   -26414.577   -47009.795   -21742.614   -10491.321    3979.8105   -2943.9421   -5422.3031   -4289.4595 
     164   -4289.5733           15           15           15            0            0            0   -25714.795    -46350.37   -20783.946   -10010.067    3743.5252   -3424.7061    -5582.951   -4289.5733 
     165   -4289.6856           15           15           15            0            0            0   -24919.322   -45392.329   -19809.853   -9555.7854    3806.7793   -3418.5374   -5690.6912   -4289.6856 
     166   -4289.7792           15           15           15            0            0            0   -24338.737    -44365.32   -19303.141   -9347.7496     4121.328   -3137.2874   -5620.7268   -4289.7792 
     167   -4289.8708           15           15           15            0            0            0   -23715.261   -43329.855   -18517.072   -9298.8556    4367.7253   -3091.7267   -5646.0838   -4289.8708 
     168   -4289.9721           15           15           15            0            0            0   -22895.591   -42057.809   -17432.906   -9196.0584    4642.8741   -3585.7996   -5544.9234   -4289.9721 
     169   -4290.1089           15           15           15            0            0            0   -22289.653   -40566.975   -16683.548   -9618.4339     4647.038   -4104.5633    -5211.713   -4290.1089 
     170   -4290.2679           15           15           15            0            0            0   -22028.201    -39734.76   -16458.193   -9891.6498    4741.3809   -4038.6162   -4993.1694   -4290.2679 
     171   -4290.4439           15           15           15            0            0            0    -21857.08   -39354.179   -16243.898   -9973.1641    4539.4689   -3777.7664   -4878.2341   -4290.4439 
     172   -4290.6023           15           15           15            0            0            0   -21715.458   -38985.706   -16268.376   -9892.2913    4250.1288    -3394.464   -4821.3908   -4290.6023 
     173   -4290.7545           15           15           15            0            0            0   -21617.637   -38576.753   -16216.633   -10059.526    3846.6846   -3605.3192   -4684.4871   -4290.7545 
     174   -4290.9298           15           15           15            0            0            0   -21484.102   -37960.108   -16366.558   -10125.641    3481.4308   -3530.3459   -4853.2718   -4290.9298 
     175   -4291.0758           15           15           15            0            0            0   -21520.247   -37658.646   -16562.689   -10339.405    2867.4179   -3219.9719   -4649.4494   -4291.0758 
     176   -4291.2319           15           15           15            0            0            0   -21871.738   -37981.502   -17351.436   -10282.275    2656.9124   -2670.7036   -4671.0816   -4291.2319 
     177   -4291.3795           15           15           15            0            0            0   -22336.915   -38877.721   -17496.134   -10636.892    2381.3931   -2619.1028   -4693.6685   -4291.3795 
     178   -4291.5478           15           15           15            0            0            0   -23200.458   -40000.742   -18198.109   -11402.524    2183.8502   -2330.2952   -5031.4482   -4291.5478 
     179   -4291.7524           15           15           15            0            0            0    -24714.22   -41171.732   -19677.444   -13293.483     1731.519   -2029.5648   -4852.7182   -4291.7524 
     180   -4291.9861           15           15           15            0            0            0   -26586.028   -42701.865   -21642.826   -15413.391    1811.8647   -1250.1509   -5046.3351   -4291.9861 
     181   -4292.2403           15           15           15            0            0            0   -27837.955   -43493.377   -22596.818    -17423.67    1888.2877   -434.54173   -5118.8411   -4292.2403 
     182   -4292.5907           15           15           15            0            0            0   -28426.487   -43988.519   -23272.411   -18018.533    1475.7488    120.37395   -5499.3875   -4292.5907 
     183   -4292.7845           15           15           15            0            0            0   -28694.234    -44002.95    -23074.37   -19005.383    1088.8782    480.21181   -5558.0925   -4292.7845 
     184   -4293.1048           15           15           15            0            0            0    -29393.91   -44706.384   -23293.996   -20181.351    885.67209    190.80497   -5498.5662   -4293.1048 
     185   -4293.4066           15           15           15            0            0            0   -30092.634   -45206.222   -23484.506   -21587.173    227.09781   -153.62473   -5031.6515   -4293.4066 
     186   -4293.6989           15           15           15            0            0            0   -30778.283   -45560.759   -24224.164   -22549.926     286.6761   -247.01545   -5235.7273   -4293.6989 
     187   -4293.9754           15           15           15            0            0            0   -31329.929   -46358.311   -24102.971   -23528.504    297.54855   -89.156267   -5212.0504   -4293.9754 
     188   -4294.3101           15           15           15            0            0            0   -31923.646    -47732.78   -24648.554   -23389.603    379.51251    126.28626    -5224.805   -4294.3101 
     189   -4294.5987           15           15           15            0            0            0    -32524.97   -48846.906    -25126.58   -23601.426    432.47478   -276.77798   -5132.2447   -4294.5987 
     190   -4294.7726           15           15           15            0            0            0   -33017.097   -49758.729   -25741.174   -23551.388    759.84628   -531.69628   -5291.9638   -4294.7726 
     191   -4294.9485           15           15           15            0            0            0   -33600.344   -50616.216   -26182.519   -24002.296    524.94189    -416.7217   -5494.9525   -4294.9485 
     192    -4295.141           15           15           15            0            0            0   -34416.513   -51341.223   -27183.537   -24724.779    320.11303   -334.45851   -5454.8108    -4295.141 
     193   -4295.3252           15           15           15            0            0            0    -35405.78   -52680.855   -28735.595   -24800.891    170.35333   -262.85554   -5672.8179   -4295.3252 
     194   -4295.5405           15           15           15            0            0            0   -36663.479    -54579.18   -29913.296    -25497.96   -397.49034    46.359205   -5691.4675   -4295.5405 
     195   -4295.8009           15           15           15            0            0            0   -37710.369   -56088.101   -31494.562   -25548.445   -1053.6139    611.31326    -5470.927   -4295.8009 
     196   -4296.0138           15           15           15            0            0            0   -38114.364   -56583.618   -32189.078   -25570.396   -1590.9899     754.8324   -5285.0819   -4296.0138 
     197   -4296.1527           15           15           15            0            0            0    -38014.84   -56326.604    -31925.32   -25792.594    -1697.763    946.65866   -5358.7898   -4296.1527 
     198   -4296.2824           15           15           15            0            0            0   -37628.747   -55648.101   -31718.457   -25519.683   -1833.3234    967.94507   -5248.7631   -4296.2824 
     199   -4296.4119           15           15           15            0            0            0     -37252.6   -54924.906   -31264.357   -25568.539   -2121.5263    624.01267   -4829.3968   -4296.4119 
     200   -4296.5318           15           15           15            0            0            0   -36727.716   -54747.232   -30830.003   -24605.913   -2547.2157    124.44526   -4464.7177   -4296.5318 
     201   -4296.6175           15           15           15            0            0            0   -36402.602   -54560.121   -30379.786   -24267.898   -2703.9456    48.195336   -4161.8452   -4296.6175 
     202   -4296.6858           15           15           15            0            0            0   -36234.231   -54438.509   -30361.813   -23902.371   -2678.4545   -26.533549   -4173.8451   -4296.6858 
     203   -4296.7431           15           15           15            0            0            0   -36138.008   -54312.629   -30248.957   -23852.438   -2690.2292    128.14869   -4159.5299   -4296.7431 
     204   -4296.7883           15           15           15            0            0            0   -36239.316   -54434.903   -30400.375   -23882.672    -2579.479     69.14769   -4258.7616   -4296.7883 
     205   -4296.8209           15           15           15            0            0            0   -36247.759   -54235.505   -30224.587   -24283.184   -2430.3705   -33.973483   -4376.5898   -4296.8209 
     206   -4296.8496           15           15           15            0            0            0   -36236.568    -54229.02   -30160.173   -24320.512   -2286.1644   -86.752613   -4438.8322   -4296.8496 
     207   -4296.8745           15           15           15            0            0            0   -36265.312   -54397.567   -30047.606   -24350.764    -2105.326   -89.279847   -4459.7993   -4296.8745 
     208   -4296.8923           15           15           15            0            0            0   -36358.585   -54551.853   -30087.476   -24436.425   -1944.8633   -14.241614   -4454.5066   -4296.8923 
     209   -4296.9088           15           15           15            0            0            0   -36469.195   -54772.186   -30134.481   -24500.919    -1840.199   -27.426476   -4356.8442   -4296.9088 
     210   -4296.9246           15           15           15            0            0            0   -36532.328   -54677.445   -30302.754   -24616.783   -1707.6472   -61.421326   -4272.7321   -4296.9246 
     211   -4296.9384           15           15           15            0            0            0   -36525.388   -54485.699   -30399.845   -24690.622   -1625.3947   -174.68107   -4261.2048   -4296.9384 
     212   -4296.9512           15           15           15            0            0            0    -36448.69   -54114.489    -30534.98   -24696.601   -1577.3809   -144.36725     -4322.86   -4296.9512 
     213   -4296.9649           15           15           15            0            0            0   -36296.432   -53649.987   -30732.409     -24506.9   -1554.5945   -183.48597   -4339.0459   -4296.9649 
     214   -4296.9831           15           15           15            0            0            0   -36073.295   -52983.159   -30970.654   -24266.071     -1565.03   -92.065337   -4394.7322   -4296.9831 
     215    -4297.014           15           15           15            0            0            0   -35737.202   -52027.477   -31256.337   -23927.793   -1622.9879   -86.023235   -4446.9699    -4297.014 
     216   -4297.0534           15           15           15            0            0            0   -35451.847   -51249.494   -31567.681   -23538.367   -1595.9141    9.9100163    -4495.081   -4297.0534 
     217   -4297.1202           15           15           15            0            0            0   -35389.225   -50591.932    -31887.57   -23688.172    -1489.454    25.181418   -4619.4848   -4297.1202 
     218   -4297.1677           15           15           15            0            0            0   -35405.896    -50359.17   -32218.714   -23639.803   -1462.8463    134.18071   -4739.3999   -4297.1677 
     219   -4297.2114           15           15           15            0            0            0    -35589.37   -50552.787   -32344.329   -23870.994    -1671.216    291.29245   -4588.7616   -4297.2114 
     220   -4297.2541           15           15           15            0            0            0   -35761.405   -50763.604   -32603.024   -23917.586   -1754.8956    315.49032   -4624.9712   -4297.2541 
     221   -4297.2931           15           15           15            0            0            0   -35963.214   -51095.742   -32755.542   -24038.357   -1881.4281    280.32858   -4592.9251   -4297.2931 
     222   -4297.3259           15           15           15            0            0            0   -36025.654   -51347.019   -32763.266   -23966.677   -2053.8948     270.7589   -4721.0868   -4297.3259 
     223   -4297.3565           15           15           15            0            0            0   -36059.755    -51286.54   -32724.848   -24167.878   -2283.2775    210.50996   -4758.8431   -4297.3565 
     224   -4297.3841           15           15           15            0            0            0   -36009.484   -51197.016   -32871.859   -23959.577   -2399.8115    181.65423   -4839.8355   -4297.3841 
     225   -4297.4072           15           15           15            0            0            0   -35895.333   -51127.542   -32739.821   -23818.635   -2585.0354    135.23627   -4952.7231   -4297.4072 
     226   -4297.4287           15           15           15            0            0            0   -35700.621   -51020.189   -32437.579   -23644.095   -2701.5437    141.76721   -5143.3871   -4297.4287 
     227   -4297.4466           15           15           15            0            0            0   -35460.256   -50824.246   -32182.097   -23374.426   -2734.6687   -65.575859    -5189.751   -4297.4466 
     228   -4297.4621           15           15           15            0            0            0   -35288.245   -50468.593   -32051.626   -23344.515   -2710.7646   -256.91178   -5186.2313   -4297.4621 
     229   -4297.4769           15           15           15            0            0            0   -35181.702   -50216.519   -31880.208    -23448.38   -2694.6758   -421.26438   -5204.9735   -4297.4769 
     230   -4297.4906           15           15           15            0            0            0   -35114.976   -50070.458   -31778.252   -23496.217   -2664.1725   -433.71402   -5293.6697   -4297.4906 
     231   -4297.5036           15           15           15            0            0            0   -35012.232   -49981.787   -31593.317   -23461.593   -2717.6394   -438.16023   -5303.8414   -4297.5036 
     232   -4297.5173           15           15           15            0            0            0   -34865.427   -49701.366   -31350.937   -23543.978   -2637.8096   -378.87661   -5377.3398   -4297.5173 
     233   -4297.5333           15           15           15            0            0            0   -34640.557   -49455.403   -30981.334   -23484.933   -2489.8216   -449.54279   -5460.0429   -4297.5333 
     234   -4297.5509           15           15           15            0            0            0   -34446.393   -49305.514   -30755.025    -23278.64   -2405.6955   -532.54806   -5508.2452   -4297.5509 
     235   -4297.5713           15           15           15            0            0            0   -34233.986   -48950.952   -30413.779   -23337.227   -2412.3646   -665.01231   -5624.3982   -4297.5713 
     236   -4297.5951           15           15           15            0            0            0   -33937.513   -48465.072   -29916.007    -23431.46   -2370.5738   -624.20212   -5873.8595   -4297.5951 
     237    -4297.617           15           15           15            0            0            0   -33675.325   -48056.043   -29288.348   -23681.585   -2324.1777   -650.38678   -6046.0602    -4297.617 
     238   -4297.6385           15           15           15            0            0            0   -33451.187   -47745.916   -28844.561   -23763.085   -2196.1233   -759.21274   -6207.5877   -4297.6385 
     239   -4297.6591           15           15           15            0            0            0   -33295.525   -47523.931   -28387.253   -23975.391   -2122.8881   -971.07491    -6202.515   -4297.6591 
     240    -4297.682           15           15           15            0            0            0   -33124.398   -47382.753   -27932.506   -24057.936   -2002.3739   -1162.2594   -6212.6554    -4297.682 
     241   -4297.7025           15           15           15            0            0            0   -33065.197   -47278.787   -27541.186   -24375.617   -1879.6437   -1363.3299   -6091.3533   -4297.7025 
     242   -4297.7243           15           15           15            0            0            0   -33004.222   -47175.484   -27250.142   -24587.041    -1718.301   -1402.0327   -5975.4624   -4297.7243 
     243   -4297.7467           15           15           15            0            0            0   -32977.307   -47184.579    -26825.05   -24922.291   -1590.2916   -1528.7678   -5811.7624   -4297.7467 
     244   -4297.7692           15           15           15            0            0            0   -32968.987   -47229.947   -26517.512   -25159.502    -1352.114   -1535.5214   -5661.1459   -4297.7692 
     245   -4297.7932           15           15           15            0            0            0   -32964.222   -47234.548    -26202.54   -25455.576   -1135.1863   -1627.8418   -5465.3089   -4297.7932 
     246   -4297.8235           15           15           15            0            0            0   -32945.902     -47167.2   -25646.487   -26024.018   -994.10197   -1600.4218   -5275.5506   -4297.8235 
     247   -4297.8491           15           15           15            0            0            0   -32896.873   -47108.478   -25130.219   -26451.921   -951.35896   -1582.8128   -5061.1032   -4297.8491 
     248   -4297.8774           15           15           15            0            0            0   -32823.723   -46939.804   -24700.074   -26831.292   -893.09743   -1566.6109   -4894.4426   -4297.8774 
     249   -4297.9022           15           15           15            0            0            0   -32712.201    -46867.63   -24309.211   -26959.763   -937.81063   -1646.8485   -4741.3881   -4297.9022 
     250   -4297.9279           15           15           15            0            0            0   -32578.651   -46713.294   -24038.872   -26983.787   -952.62134   -1572.3157   -4632.8643   -4297.9279 
     251    -4297.955           15           15           15            0            0            0   -32488.725   -46545.535   -23845.276   -27075.365   -1024.2672   -1555.1712   -4446.7418    -4297.955 
     252   -4297.9882           15           15           15            0            0            0   -32514.004   -46420.172   -23855.706   -27266.134   -1035.2288   -1438.9824    -4200.679   -4297.9882 
     253   -4298.0246           15           15           15            0            0            0   -32570.618   -46332.471   -23787.682     -27591.7   -1105.5643   -1415.7943   -3960.4152   -4298.0246 
     254   -4298.0653           15           15           15            0            0            0   -32546.283    -46235.67   -23843.875   -27559.304   -1237.5619   -1262.0319   -3901.9842   -4298.0653 
     255   -4298.1161           15           15           15            0            0            0   -32430.869   -46136.408   -23704.679   -27451.519   -1436.9867   -1159.9463   -3814.8376   -4298.1161 
     256   -4298.1635           15           15           15            0            0            0   -32087.462   -45994.159   -23501.096   -26767.132   -1589.3269   -974.56779   -3897.1178   -4298.1635 
     257   -4298.2371           15           15           15            0            0            0   -31613.257   -45884.314    -23022.64   -25932.816   -1723.6157   -933.07678   -3943.3992   -4298.2371 
     258   -4298.2838           15           15           15            0            0            0   -31365.417   -45940.497   -22970.201   -25185.553   -1814.0824   -791.02177   -4052.3579   -4298.2838 
     259   -4298.3294           15           15           15            0            0            0   -31173.147   -45980.621   -22739.297   -24799.522    -1970.179   -729.87057   -4134.5708   -4298.3294 
     260   -4298.3671           15           15           15            0            0            0   -30924.987   -45873.187   -22501.248   -24400.527   -1965.0706     -665.842   -4364.8115   -4298.3671 
     261   -4298.3974           15           15           15            0            0            0   -30848.743   -45869.785   -22358.901   -24317.542   -1889.3943   -763.31939   -4518.9844   -4298.3974 
     262   -4298.4254           15           15           15            0            0            0   -30687.109   -45710.389    -22360.74   -23990.198   -1860.7647   -678.31148   -4715.3763   -4298.4254 
     263   -4298.4483           15           15           15            0            0            0   -30530.619   -45552.933   -22300.744   -23738.179   -1841.1563   -754.54955   -4811.3684   -4298.4483 
     264   -4298.4673           15           15           15            0            0            0   -30360.537   -45341.796   -22270.268   -23469.548   -1788.8774    -834.2627   -4914.0832   -4298.4673 
     265   -4298.4831           15           15           15            0            0            0   -30232.446   -45178.375   -22237.887   -23281.077   -1816.6591    -1012.678   -4949.2143   -4298.4831 
     266   -4298.4944           15           15           15            0            0            0   -30215.202   -45041.467   -22268.209   -23335.929   -1864.4395   -1059.0693   -4930.0349   -4298.4944 
     267   -4298.5043           15           15           15            0            0            0   -30316.494   -45019.319   -22390.159   -23540.004   -1985.8952   -1153.7794   -4872.4299   -4298.5043 
     268   -4298.5133           15           15           15            0            0            0   -30466.945   -45042.827    -22612.19    -23745.82    -2028.914   -1183.9944   -4853.1305   -4298.5133 
     269   -4298.5208           15           15           15            0            0            0   -30657.291   -45207.485   -22804.643   -23959.746   -2037.7173   -1248.2067   -4819.8497   -4298.5208 
     270   -4298.5269           15           15           15            0            0            0   -30793.326   -45335.517   -22927.524   -24116.936   -2029.6393   -1188.7745   -4814.2359   -4298.5269 
     271   -4298.5331           15           15           15            0            0            0   -30926.986   -45467.021   -23021.393   -24292.543   -1979.9968   -1117.6299   -4791.3319   -4298.5331 
     272   -4298.5392           15           15           15            0            0            0   -31034.642   -45610.335   -23125.768   -24367.824   -1850.3325   -1031.9695   -4792.6373   -4298.5392 
     273   -4298.5454           15           15           15            0            0            0   -31131.823   -45834.628   -23116.587   -24444.253   -1707.6077   -1016.3781   -4788.1305   -4298.5454 
     274   -4298.5519           15           15           15            0            0            0   -31202.233   -46078.365   -23142.008   -24386.325   -1577.0731   -982.68101   -4848.3386   -4298.5519 
     275   -4298.5609           15           15           15            0            0            0   -31343.656   -46339.952   -23237.915   -24453.103   -1494.2847   -1006.6161   -4885.4626   -4298.5609 
     276   -4298.5734           15           15           15            0            0            0   -31500.071   -46554.202   -23459.797   -24486.215    -1401.543   -920.21006   -4963.2628   -4298.5734 
     277   -4298.5906           15           15           15            0            0            0   -31734.562   -46868.533    -23653.89   -24681.262   -1288.1709   -746.15634   -5027.8911   -4298.5906 
     278   -4298.6107           15           15           15            0            0            0    -31921.84   -47102.537   -23859.648   -24803.337   -1127.9395    -516.0599   -5202.9683   -4298.6107 
     279   -4298.6333           15           15           15            0            0            0   -31959.848   -47145.989   -23946.128   -24787.427   -1132.9301   -496.40202   -5412.4493   -4298.6333 
     280    -4298.651           15           15           15            0            0            0   -31948.543    -47155.01   -23968.265   -24722.356   -1076.7439   -393.78097   -5531.9723    -4298.651 
     281    -4298.669           15           15           15            0            0            0   -31890.968   -47077.636   -23919.114   -24676.153   -1046.6641   -338.68984   -5629.2563    -4298.669 
     282   -4298.6829           15           15           15            0            0            0   -31801.831   -46853.335   -23968.986   -24583.171   -999.10063   -217.40406   -5761.1148   -4298.6829 
     283   -4298.6957           15           15           15            0            0            0   -31725.525   -46684.217   -24038.768    -24453.59   -974.60451   -172.68306   -5852.2601   -4298.6957 
     284    -4298.706           15           15           15            0            0            0   -31674.165   -46519.302   -24111.651    -24391.54   -923.45566   -37.170091   -5940.7539    -4298.706 
     285   -4298.7154           15           15           15            0            0            0   -31613.681   -46321.116   -24194.079   -24325.848   -932.42364    23.957405   -5995.6597   -4298.7154 
     286   -4298.7233           15           15           15            0            0            0   -31517.686   -46051.532   -24288.416    -24213.11   -940.95166    136.60847    -6015.704   -4298.7233 
     287   -4298.7302           15           15           15            0            0            0   -31401.864   -45824.654    -24252.26   -24128.679   -1001.3156    249.59089   -5942.1154   -4298.7302 
     288   -4298.7354           15           15           15            0            0            0   -31315.992   -45679.264    -24208.55   -24060.162   -1048.2165     394.9503   -5911.0806   -4298.7354 
     289   -4298.7404           15           15           15            0            0            0   -31249.142    -45534.17   -24185.428   -24027.829   -1100.6539      466.293   -5881.8754   -4298.7404 
     290    -4298.744           15           15           15            0            0            0   -31172.774   -45383.714   -24181.553   -23953.056   -1135.3928    543.47788   -5896.5849    -4298.744 
     291   -4298.7472           15           15           15            0            0            0   -31128.459   -45314.748   -24159.845   -23910.785   -1157.0756    583.63519   -5922.3503   -4298.7472 
     292     -4298.75           15           15           15            0            0            0   -31091.013   -45297.599   -24166.383   -23809.056   -1151.3651    666.34457   -5983.4484     -4298.75 
     293   -4298.7523           15           15           15            0            0            0   -31070.564   -45312.599   -24168.812   -23730.281   -1155.8272     705.9345   -6045.3621   -4298.7523 
     294   -4298.7545           15           15           15            0            0            0   -31036.288   -45326.665   -24148.793   -23633.406    -1131.623    747.19002   -6106.7935   -4298.7545 
     295   -4298.7565           15           15           15            0            0            0   -31012.617   -45339.851     -24129.4   -23568.601   -1124.2354     761.1264   -6138.6225   -4298.7565 
     296   -4298.7581           15           15           15            0            0            0   -31000.904    -45344.95    -24154.83   -23502.931   -1087.1935    806.11941   -6165.7215   -4298.7581 
     297   -4298.7596           15           15           15            0            0            0   -31002.935   -45352.141   -24172.102   -23484.563   -1067.4194    819.90818   -6154.7306   -4298.7596 
     298   -4298.7607           15           15           15            0            0            0   -30986.634   -45321.191   -24194.598   -23444.113   -1059.9913    858.30727   -6136.5713   -4298.7607 
     299   -4298.7617           15           15           15            0            0            0   -30975.033   -45294.581   -24208.987    -23421.53    -1046.314    857.61451        -6107   -4298.7617 
     300   -4298.7626           15           15           15            0            0            0   -30955.444   -45262.271   -24206.784   -23397.278   -1015.9416     876.3318   -6081.8844   -4298.7626 
     301   -4298.7634           15           15           15            0            0            0   -30922.538   -45214.787    -24175.31   -23377.517   -999.98494    892.34858   -6052.3679   -4298.7634 
     302   -4298.7642           15           15           15            0            0            0   -30884.419   -45146.228   -24143.916   -23363.112   -988.79374     915.8607   -6035.8566   -4298.7642 
     303   -4298.7647           15           15           15            0            0            0   -30853.278   -45097.461   -24091.075   -23371.297   -984.31092    926.68155   -6012.3937   -4298.7647 
     304   -4298.7654           15           15           15            0            0            0   -30827.621   -45056.681   -24041.649   -23384.532   -977.57243    964.77625   -6002.1174   -4298.7654 
     305    -4298.766           15           15           15            0            0            0   -30826.622   -45044.975   -24007.223   -23427.666   -1000.1862    969.20102      -5986.3    -4298.766 
     306   -4298.7665           15           15           15            0            0            0    -30844.62   -45050.607   -24009.718   -23473.535   -1018.5462    980.86626   -5964.4886   -4298.7665 
     307    -4298.767           15           15           15            0            0            0   -30882.595   -45092.985   -24010.716   -23544.085   -1036.2425    982.94258   -5930.2442    -4298.767 
     308   -4298.7675           15           15           15            0            0            0   -30926.085   -45142.396   -24022.101   -23613.758   -1041.7832    987.03674   -5906.6849   -4298.7675 
     309   -4298.7678           15           15           15            0            0            0   -30975.357   -45184.927    -24043.46   -23697.684   -1054.6012     985.6107   -5869.0345   -4298.7678 
     310   -4298.7681           15           15           15            0            0            0   -31019.164   -45223.322   -24081.997   -23752.172   -1062.8934    1003.4518    -5840.661   -4298.7681 
     311   -4298.7684           15           15           15            0            0            0   -31054.997   -45261.677   -24098.269   -23805.045   -1067.3468    1011.6321   -5823.7803   -4298.7684 
     312   -4298.7687           15           15           15            0            0            0   -31071.056   -45276.972    -24101.58   -23834.617   -1060.6651    1027.7836   -5810.5481   -4298.7687 
     313   -4298.7689           15           15           15            0            0            0   -31072.297   -45274.599   -24097.134   -23845.158    -1059.847    1029.1905   -5803.4962   -4298.7689 
     314   -4298.7693           15           15           15            0            0            0   -31059.362   -45253.371   -24088.126   -23836.588   -1044.7922    1036.0632   -5809.0956   -4298.7693 
     315   -4298.7694           15           15           15            0            0            0   -31042.881   -45227.508   -24077.452   -23823.682    -1034.138    1030.6921   -5811.9947   -4298.7694 
     316   -4298.7696           15           15           15            0            0            0   -31022.658   -45193.053   -24079.968   -23794.955    -1021.059    1032.7346   -5819.8816   -4298.7696 
     317   -4298.7696           15           15           15            0            0            0   -31004.979   -45167.595   -24075.705   -23771.638   -1011.5354    1032.3866   -5817.0727   -4298.7696 
     318   -4298.7698           15           15           15            0            0            0   -30984.227   -45136.389   -24072.316   -23743.977   -1005.6437    1037.4083   -5813.5908   -4298.7698 
     319   -4298.7699           15           15           15            0            0            0   -30970.952   -45111.189   -24074.953   -23726.714   -1003.3241    1029.6531   -5805.8652   -4298.7699 
     320     -4298.77           15           15           15            0            0            0   -30959.956   -45090.079   -24078.037   -23711.752   -1005.2213     1032.849   -5791.7605     -4298.77 
     321   -4298.7702           15           15           15            0            0            0   -30956.557   -45078.522   -24079.975   -23711.175   -1012.0888    1030.6799   -5779.3026   -4298.7702 
     322   -4298.7702           15           15           15            0            0            0   -30960.066   -45072.639   -24088.102   -23719.457   -1018.0144    1028.5903   -5772.5215   -4298.7702 
     323   -4298.7702           15           15           15            0            0            0   -30966.368   -45072.939   -24098.976   -23727.188   -1030.9047    1021.9132   -5764.4255   -4298.7702 
     324   -4298.7702           15           15           15            0            0            0   -30966.368   -45072.939   -24098.976   -23727.188   -1030.9047    1021.9132   -5764.4255   -4298.7702 
Loop time of 2.40797 on 1 procs for 324 steps with 216 atoms

Minimization stats:
  Stopping criterion = linesearch alpha is zero
  Energy initial, next-to-last, final = 
        -4087.52846221     -4298.77021473     -4298.77021473
  Force two-norm initial, final = 46.0358 0.03777
  Force max component initial, final = 8.4913 0.00533078
  Final line search alpha, max atom move = 7.62939e-06 4.06706e-08
  Iterations, force evaluations = 324 591

Pair  time (%) = 0.967914 (40.1963)
Kspce time (%) = 1.33443 (55.4172)
Neigh time (%) = 0.0790679 (3.2836)
Comm  time (%) = 0.0129619 (0.538291)
Outpt time (%) = 0.00816393 (0.339038)
Other time (%) = 0.00543261 (0.22561)

Nlocal:    216 ave 216 max 216 min
Histogram: 1 0 0 0 0 0 0 0 0 0
Nghost:    2833 ave 2833 max 2833 min
Histogram: 1 0 0 0 0 0 0 0 0 0
Neighs:    38452 ave 38452 max 38452 min
Histogram: 1 0 0 0 0 0 0 0 0 0

Total # of neighbors = 38452
Ave neighs/atom = 178.019
Neighbor list builds = 36
Dangerous builds = 0
pypospack:output_section:begin
tot_energy = -4298.77021473493
num_atoms = 216
xx = 15
yy = 15
zz = 15
xy = 0
xz = 0
yz = 0
tot_press = -30966.3677412701
pxx = -45072.9394488533
pyy = -24098.9758142159
pzz = -23727.187960741
pxy = -1030.90466047326
pxz = 1021.91322837411
pyz = -5764.4254549642
pypospack:output_section:done
pypospack:lammps_sim:done
