LAMMPS (11 Aug 2017)
# ---- initialize simulations
clear
units metal
dimension 3
boundary p p p
atom_style atomic
atom_modify map array
# ---- create atoms
read_data /home/eragasa/repos/pypospack/examples/Ni__eam__born_exp_rose/preconditioning_3.5NN/rank_65/Ni_fcc.lmps_min_all/lammps.structure
  triclinic box = (0 0 0) to (3.5167 3.5167 3.5167) with tilt (0 -0 0)
  1 by 1 by 1 MPI processor grid
  reading atoms ...
  4 atoms
# ---- define interatomic potential
include potential.mod
mass 1 58.6934

group Ni type 1
4 atoms in group Ni

pair_style eam/alloy
pair_coeff * * /home/eragasa/repos/pypospack/examples/Ni__eam__born_exp_rose/preconditioning_3.5NN/rank_65/Ni_fcc.lmps_min_all/Ni.eam.alloy Ni

neighbor 1.0 bin
neigh_modify every 1 delay 0 check yes
# ---- define settings
compute eng all pe/atom
compute eatoms all reduce sum c_eng
# ---- run minimization
reset_timestep 0
fix 1 all box/relax aniso 0.0 vmax 0.001
thermo 10
thermo_style custom step pe xhi xlo yhi ylo zhi xy xz yz press pxx pyy pzz pxy pxz pyz c_eatoms
min_style cg
minimize 1e-25 1e-25 5000 10000
Neighbor list info ...
  update every 1 steps, delay 0 steps, check yes
  max neighbors/atom: 2000, page size: 100000
  master list distance cutoff = 5.64464
  ghost atom cutoff = 5.64464
  binsize = 2.82232, bins = 2 2 2
  1 neighbor lists, perpetual/occasional/extra = 1 0 0
  (1) pair eam/alloy, perpetual
      attributes: half, newton on
      pair build: half/bin/newton/tri
      stencil: half/bin/3d/newton/tri
      bin: standard
Per MPI rank memory allocation (min/avg/max) = 4.211 | 4.211 | 4.211 Mbytes
Step PotEng Xhi Xlo Yhi Ylo Zhi Xy Xz Yz Press Pxx Pyy Pzz Pxy Pxz Pyz c_eatoms 
       0   -18.188006       3.5167            0       3.5167            0       3.5167            0           -0            0    55100.029    55100.029    55100.029    55100.029 7.3618528e-11 7.5663487e-11 -8.1798364e-11   -18.188006 
      10   -18.214778    3.5342835   -0.0175835    3.5342835   -0.0175835    3.5342835            0           -0            0    7503.7351    7503.7351    7503.7351    7503.7351 1.0221808e-09 1.0306163e-09 5.894907e-10   -18.214778 
      20   -20.774065    3.5307668   -0.0140668    3.5307668   -0.0140668    3.5307668            0           -0            0   -140234.96   -140234.96   -140234.96   -140234.96 3.183317e-08 3.1926514e-08 -7.3809846e-08   -20.774065 
      30   -25.910979    3.5131833    0.0035167    3.5131833    0.0035167    3.5131833            0           -0            0   -409264.94   -409264.94   -409264.94   -409264.94 7.6079687e-08 8.0950293e-08 -1.8577478e-07   -25.910979 
      40   -31.906704    3.4955998    0.0211002    3.4955998    0.0211002    3.4955998            0           -0            0   -740936.56   -740936.56   -740936.56   -740936.56 1.1879856e-07 1.2788439e-07 -2.8471939e-07   -31.906704 
      50   -38.846591    3.4780163    0.0386837    3.4780163    0.0386837    3.4780163            0           -0            0   -1146177.1   -1146177.1   -1146177.1   -1146177.1 1.8156244e-07 1.8484157e-07 -4.2696963e-07   -38.846591 
      60   -46.809361    3.4604328    0.0562672    3.4604328    0.0562672    3.4604328            0           -0            0   -1656607.2   -1656607.2   -1656607.2   -1656607.2 1.5774024e-07 1.5159999e-07 -3.6306938e-07   -46.809361 
      70   -55.902294    3.4428493    0.0738507    3.4428493    0.0738507    3.4428493            0           -0            0   -2239434.9   -2239434.9   -2239434.9   -2239434.9 1.8236096e-07 1.7908611e-07 -4.2619968e-07   -55.902294 
      80   -66.271002    3.4252658    0.0914342    3.4252658    0.0914342    3.4252658            0           -0            0   -2979826.2   -2979826.2   -2979826.2   -2979826.2 1.3188269e-07 1.2685893e-07 -3.0145438e-07   -66.271002 
      90   -78.083192    3.4076823    0.1090177    3.4076823    0.1090177    3.4076823            0           -0            0   -3845235.2   -3845235.2   -3845235.2   -3845235.2 7.0514586e-07 6.5834907e-07 -1.5778394e-06   -78.083192 
     100   -91.538067    3.3900988    0.1266012    3.3900988    0.1266012    3.3900988            0           -0            0   -4834569.6   -4834569.6   -4834569.6   -4834569.6 8.0438988e-07 7.3986141e-07 -1.8228537e-06   -91.538067 
     110   -106.84315    3.3725153    0.1441847    3.3725153    0.1441847    3.3725153            0           -0            0   -6008917.6   -6008917.6   -6008917.6   -6008917.6 1.4062975e-06 1.243477e-06 -3.0622922e-06   -106.84315 
     120   -124.25762    3.3549318    0.1617682    3.3549318    0.1617682    3.3549318            0           -0            0   -7472688.3   -7472688.3   -7472688.3   -7472688.3 -1.1843725e-06 -1.0087484e-06 2.5370154e-06   -124.25762 
     130   -144.05459    3.3373483    0.1793517    3.3373483    0.1793517    3.3373483            0           -0            0   -9106130.5   -9106130.5   -9106130.5   -9106130.5 -1.3507072e-06 -1.1772226e-06 2.7619064e-06   -144.05459 
     140   -166.61029    3.3197648    0.1969352    3.3197648    0.1969352    3.3197648            0           -0            0    -11147148    -11147148    -11147148    -11147148 2.5759869e-06 2.1729443e-06 -4.9136128e-06   -166.61029 
     150   -192.24783    3.3021813    0.2145187    3.3021813    0.2145187    3.3021813            0           -0            0    -13435972    -13435972    -13435972    -13435972 1.1435858e-06 9.4528726e-07 -2.0818195e-06   -192.24783 
     160   -221.35574    3.2845978    0.2321022    3.2845978    0.2321022    3.2845978            0           -0            0    -16170172    -16170172    -16170172    -16170172 4.4138311e-06 3.6679608e-06 -7.8686602e-06   -221.35574 
     170    -254.4461    3.2670143    0.2496857    3.2670143    0.2496857    3.2670143            0           -0            0    -19486199    -19486199    -19486199    -19486199 5.3994747e-06 4.3917513e-06 -9.2809731e-06    -254.4461 
     180   -292.22183    3.2494308    0.2672692    3.2494308    0.2672692    3.2494308            0           -0            0    -25095833    -25095833    -25095833    -25095833 4.446152e-06 3.5933224e-06 -7.9493681e-06   -292.22183 
     190   -340.19357    3.2318473    0.2848527    3.2318473    0.2848527    3.2318473            0           -0            0    -41042834    -41042834    -41042834    -41042834 6.2836089e-06 4.9423189e-06 -1.0912298e-05   -340.19357 
     200   -403.78679    3.2142638    0.3024362    3.2142638    0.3024362    3.2142638            0           -0            0    -61184614    -61184614    -61184614    -61184614 8.9802349e-06 6.6547421e-06 -1.4503646e-05   -403.78679 
     210    -487.2237    3.1966803    0.3200197    3.1966803    0.3200197    3.1966803            0           -0            0    -86754482    -86754482    -86754482    -86754482 1.1763314e-05 8.7476471e-06 -1.9547463e-05    -487.2237 
     220   -595.40863    3.1790968    0.3376032    3.1790968    0.3376032    3.1790968            0           -0            0 -1.1918461e+08 -1.1918461e+08 -1.1918461e+08 -1.1918461e+08 1.5707514e-05 1.1855793e-05 -2.5575248e-05   -595.40863 
     230   -734.22015    3.1615133    0.3551867    3.1615133    0.3551867    3.1615133            0           -0            0 -1.6020956e+08 -1.6020956e+08 -1.6020956e+08 -1.6020956e+08 2.0518437e-05 1.582918e-05 -3.297222e-05   -734.22015 
     240   -910.76402    3.1439298    0.3727702    3.1439298    0.3727702    3.1439298            0           -0            0 -2.1195547e+08 -2.1195547e+08 -2.1195547e+08 -2.1195547e+08 2.6967322e-05 2.0401917e-05 -4.2668398e-05   -910.76402 
     250   -1133.6442    3.1263463    0.3903537    3.1263463    0.3903537    3.1263463            0           -0            0 -2.770352e+08 -2.770352e+08 -2.770352e+08 -2.770352e+08 3.4719079e-05 2.5423125e-05 -5.6047632e-05   -1133.6442 
     260   -1413.2816    3.1087628    0.4079372    3.1087628    0.4079372    3.1087628            0           -0            0 -3.5866515e+08 -3.5866515e+08 -3.5866515e+08 -3.5866515e+08 4.3396493e-05 3.2650167e-05 -7.0849631e-05   -1413.2816 
     270    -1762.294    3.0911793    0.4255207    3.0911793    0.4255207    3.0911793            0           -0            0 -4.6080182e+08 -4.6080182e+08 -4.6080182e+08 -4.6080182e+08 5.4043963e-05 3.9851686e-05 -9.0486645e-05    -1762.294 
     280    -2195.953    3.0735958    0.4431042    3.0735958    0.4431042    3.0735958            0           -0            0 -5.8832799e+08 -5.8832799e+08 -5.8832799e+08 -5.8832799e+08 6.8981906e-05 5.2428503e-05 -0.00011223379    -2195.953 
     290   -2732.7319    3.0560123    0.4606877    3.0560123    0.4606877    3.0560123            0           -0            0 -7.4724764e+08 -7.4724764e+08 -7.4724764e+08 -7.4724764e+08 8.7361811e-05 6.6407867e-05 -0.00014195485   -2732.7319 
     300   -3394.9641    3.0384288    0.4782712    3.0384288    0.4782712    3.0384288            0           -0            0 -9.4492843e+08 -9.4492843e+08 -9.4492843e+08 -9.4492843e+08 0.00011012975 8.2737345e-05 -0.00017972259   -3394.9641 
     310   -4209.6372    3.0208453    0.4958547    3.0208453    0.4958547    3.0208453            0           -0            0 -1.1904461e+09 -1.1904461e+09 -1.1904461e+09 -1.1904461e+09 0.00013696401 0.0001034658 -0.00022881277   -4209.6372 
     320   -5209.3524    3.0032618    0.5134382    3.0032618    0.5134382    3.0032618            0           -0            0 -1.4949451e+09 -1.4949451e+09 -1.4949451e+09 -1.4949451e+09 0.00016905564 0.00012913327 -0.00028662323   -5209.3524 
     330   -6433.4763    2.9856783    0.5310217    2.9856783    0.5310217    2.9856783            0           -0            0 -1.8721029e+09 -1.8721029e+09 -1.8721029e+09 -1.8721029e+09 0.00021146121 0.00016615759 -0.00035086901   -6433.4763 
     340   -7929.5343    2.9680948    0.5486052    2.9680948    0.5486052    2.9680948            0           -0            0 -2.3387087e+09 -2.3387087e+09 -2.3387087e+09 -2.3387087e+09 0.00025803969 0.00020504985 -0.00043690833   -7929.5343 
     350   -9754.8988    2.9505113    0.5661887    2.9505113    0.5661887    2.9505113            0           -0            0 -2.9153591e+09 -2.9153591e+09 -2.9153591e+09 -2.9153591e+09 0.00032069569 0.0002515069 -0.00054965791   -9754.8988 
     360   -11978.819    2.9329278    0.5837722    2.9329278    0.5837722    2.9329278            0           -0            0 -3.6273071e+09 -3.6273071e+09 -3.6273071e+09 -3.6273071e+09 0.00039663074 0.00030731522 -0.00069313703   -11978.819 
     370   -14684.888    2.9153443    0.6013557    2.9153443    0.6013557    2.9153443            0           -0            0 -4.5054931e+09 -4.5054931e+09 -4.5054931e+09 -4.5054931e+09 0.00048600282 0.00038728603 -0.00084850716   -14684.888 
     380   -17974.042    2.8977608    0.6189392    2.8977608    0.6189392    2.8977608            0           -0            0 -5.5878337e+09 -5.5878337e+09 -5.5878337e+09 -5.5878337e+09 0.00059921424 0.00046722367 -0.0010569743   -17974.042 
     390   -21968.181    2.8801773    0.6365227    2.8801773    0.6365227    2.8801773            0           -0            0 -6.9207691e+09 -6.9207691e+09 -6.9207691e+09 -6.9207691e+09 0.0007390235 0.00057211534 -0.0013106752   -21968.181 
     400   -26814.593    2.8625938    0.6541062    2.8625938    0.6541062    2.8625938            0           -0            0 -8.5611402e+09 -8.5611402e+09 -8.5611402e+09 -8.5611402e+09 0.00090533801 0.00068290391 -0.0016340173   -26814.593 
     410   -32691.379    2.8450103    0.6716897    2.8450103    0.6716897    2.8450103            0           -0            0 -1.0578493e+10 -1.0578493e+10 -1.0578493e+10 -1.0578493e+10 0.0010966586 0.00084257731 -0.0019753368   -32691.379 
     420   -39814.031    2.8274268    0.6892732    2.8274268    0.6892732    2.8274268            0           -0            0 -1.3057898e+10 -1.3057898e+10 -1.3057898e+10 -1.3057898e+10 0.0013359602 0.0010337966 -0.0024004194   -39814.031 
     430   -48443.563    2.8098433    0.7068567    2.8098433    0.7068567    2.8098433            0           -0            0 -1.6103387e+10 -1.6103387e+10 -1.6103387e+10 -1.6103387e+10 0.0016429174 0.0012954967 -0.0028579654   -48443.563 
     440   -58896.575    2.7922598    0.7244402    2.7922598    0.7244402    2.7922598            0           -0            0 -1.9842082e+10 -1.9842082e+10 -1.9842082e+10 -1.9842082e+10 0.0019803545 0.0015495561 -0.0034417178   -58896.575 
     450   -71557.597    2.7746763    0.7420237    2.7746763    0.7420237    2.7746763            0           -0            0 -2.4429223e+10 -2.4429223e+10 -2.4429223e+10 -2.4429223e+10 0.0024140928  0.001941451 -0.0040232365   -71557.597 
     460   -86894.581    2.7570928    0.7596072    2.7570928    0.7596072    2.7570928            0           -0            0 -3.0054411e+10 -3.0054411e+10 -3.0054411e+10 -3.0054411e+10 0.0028386067 0.0021861164 -0.0049292985   -86894.581 
     470   -105478.41    2.7395093    0.7771907    2.7395093    0.7771907    2.7395093            0           -0            0 -3.6949011e+10 -3.6949011e+10 -3.6949011e+10 -3.6949011e+10 0.0034494225 0.0028624802 -0.0055542636   -105478.41 
     480   -128007.23    2.7219258    0.7947742    2.7219258    0.7947742    2.7219258            0           -0            0 -4.5395047e+10 -4.5395047e+10 -4.5395047e+10 -4.5395047e+10 0.0040457599 0.0031384047 -0.0068409545   -128007.23 
     490   -155337.75    2.7043423    0.8123577    2.7043423    0.8123577    2.7043423            0           -0            0 -5.5736264e+10 -5.5736264e+10 -5.5736264e+10 -5.5736264e+10  0.004679947 0.0037003128 -0.0077787668   -155337.75 
     500   -188525.71    2.6867588    0.8299412    2.6867588    0.8299412    2.6867588            0           -0            0 -6.8391045e+10 -6.8391045e+10 -6.8391045e+10 -6.8391045e+10 0.0051022996 0.0039927892 -0.0091557509   -188525.71 
     510   -228877.81    2.6691753    0.8475247    2.6691753    0.8475247    2.6691753            0           -0            0 -8.3868232e+10 -8.3868232e+10 -8.3868232e+10 -8.3868232e+10 0.0059244863 0.0043556552 -0.010211594   -228877.81 
     520   -278021.02    2.6515918    0.8651082    2.6515918    0.8651082    2.6515918            0           -0            0 -1.027855e+11 -1.027855e+11 -1.027855e+11 -1.027855e+11 0.0061239556 0.0046564127 -0.011208789   -278021.02 
     530   -337995.77    2.6340083    0.8826917    2.6340083    0.8826917    2.6340083            0           -0            0 -1.2589143e+11 -1.2589143e+11 -1.2589143e+11 -1.2589143e+11 0.0059904465 0.0041373022 -0.012222861   -337995.77 
     540   -411381.85    2.6164248    0.9002752    2.6164248    0.9002752    2.6164248            0           -0            0 -1.5409037e+11 -1.5409037e+11 -1.5409037e+11 -1.5409037e+11 0.0059843713 0.0051453246 -0.010461719   -411381.85 
     550   -501475.29    2.5988413    0.9178587    2.5988413    0.9178587    2.5988413            0           -0            0 -1.8847057e+11 -1.8847057e+11 -1.8847057e+11 -1.8847057e+11 0.0046240226 0.0028674876 -0.0097415955   -501475.29 
     560   -612543.19    2.5812578    0.9354422    2.5812578    0.9354422    2.5812578            0           -0            0 -2.3033462e+11 -2.3033462e+11 -2.3033462e+11 -2.3033462e+11  0.002054582 0.0023159497 -0.0038509154   -612543.19 
     570   -750194.99    2.5636743    0.9530257    2.5636743    0.9530257    2.5636743            0           -0            0 -2.8122655e+11 -2.8122655e+11 -2.8122655e+11 -2.8122655e+11 -0.0027131277 -0.0027314589  0.003253219   -750194.99 
     580   -921953.76    2.5460908    0.9706092    2.5460908    0.9706092    2.5460908            0           -0            0 -3.429505e+11 -3.429505e+11 -3.429505e+11 -3.429505e+11 -0.011040807 -0.0095351047  0.019122832   -921953.76 
     590   -1138172.6    2.5285073    0.9881927    2.5285073    0.9881927    2.5285073            0           -0            0 -4.1756178e+11 -4.1756178e+11 -4.1756178e+11 -4.1756178e+11 -0.025685696 -0.021688985  0.043412103   -1138172.6 
     600   -1413561.8    2.5109238    1.0057762    2.5109238    1.0057762    2.5109238            0           -0            0 -5.0728685e+11 -5.0728685e+11 -5.0728685e+11 -5.0728685e+11 -0.048253347 -0.046304973  0.081100185   -1413561.8 
     610     -1769944    2.4933403    1.0233597    2.4933403    1.0233597    2.4933403            0           -0            0 -6.1427719e+11 -6.1427719e+11 -6.1427719e+11 -6.1427719e+11 -0.084337206 -0.051084038   0.17946518     -1769944 
     620   -2241672.1    2.4757568    1.0409432    2.4757568    1.0409432    2.4757568            0           -0            0 -7.399399e+11 -7.399399e+11 -7.399399e+11 -7.399399e+11  -0.15286967  -0.12234818   0.27738437   -2241672.1 
     630   -2887480.4    2.4581733    1.0585267    2.4581733    1.0585267    2.4581733            0           -0            0 -8.8308122e+11 -8.8308122e+11 -8.8308122e+11 -8.8308122e+11  -0.26828147  -0.24632735   0.44356589   -2887480.4 
     640   -3821418.6    2.4405898    1.0761102    2.4405898    1.0761102    2.4405898            0           -0            0 -1.0341988e+12 -1.0341988e+12 -1.0341988e+12 -1.0341988e+12  -0.45484601  -0.39699588   0.78655924   -3821418.6 
     650   -5320016.6    2.4230063    1.0936937    2.4230063    1.0936937    2.4230063            0           -0            0 -1.1529908e+12 -1.1529908e+12 -1.1529908e+12 -1.1529908e+12  -0.80239812   -0.5692632    1.5322444   -5320016.6 
     660   -8520310.9    2.4054228    1.1112772    2.4054228    1.1112772    2.4054228            0           -0            0 -1.0019875e+12 -1.0019875e+12 -1.0019875e+12 -1.0019875e+12   -1.4884872   -1.1100585    2.8443312   -8520310.9 
     670    -13393219     2.397533     1.119167     2.397533     1.119167     2.397533            0           -0            0 -3.7387017e+10 -3.7387017e+10 -3.7387017e+10 -3.7387017e+10 -0.053304183  -0.04600918   0.10043545    -13393219 
     680    -13393264    2.3973616    1.1193384    2.3973616    1.1193384    2.3973616            0           -0            0 -3.7858291e+10 -3.7858291e+10 -3.7858291e+10 -3.7858291e+10   0.20202081 0.00022497937  -0.60619032    -13393264 
     690    -13394300    2.3930044    1.1236956    2.3930044    1.1236956    2.3930044            0           -0            0 -4.0691865e+10 -4.0691865e+10 -4.0691865e+10 -4.0691865e+10    224.68764 0.00088211417   -679.28061    -13394300 
     700    -13397322    2.3818718    1.1348282    2.3818718    1.1348282    2.3818718            0           -0            0 -5.0533354e+10 -5.0533353e+10 -5.0533354e+10 -5.0533355e+10    176.81494 -0.00053315265   -534.51815    -13397322 
     710    -13398115     2.379149     1.137551     2.379149     1.137551     2.379149            0           -0            0 -5.2596136e+10 -5.2591827e+10 -5.259708e+10 -5.2599501e+10    124402.12    15.446211      -375947    -13398115 
     720    -13400179    2.3725541    1.1441459    2.3725543    1.1441457    2.3725543            0           -0            0 -5.9866973e+10 -5.9180094e+10 -5.9864295e+10 -6.055653e+10    -74551281    2098871.7 1.8750182e+08    -13400179 
     730    -13400351    2.3723533    1.1443467    2.3723533    1.1443467    2.3723533            0           -0            0 -6.0467128e+10 -6.04682e+10 -6.0470543e+10 -6.0462641e+10     10548667    4471759.5    -21345310    -13400351 
     740    -13400470    2.3720072    1.1446928    2.3720072    1.1446928    2.3720072            0           -0            0 -6.0957975e+10 -6.0964623e+10 -6.0984144e+10 -6.0925157e+10     15500679    6290160.3    -27931383    -13400470 
     750    -13400545    2.3717902    1.1449098    2.3717903    1.1449097    2.3717902            0           -0            0 -6.1325752e+10 -6.1324464e+10 -6.133195e+10 -6.1320841e+10     -2135392   -1052024.4    3800218.4    -13400545 
     760    -13400583    2.3716819    1.1450181    2.3716819    1.1450181    2.3716819            0           -0            0 -6.140199e+10 -6.1401134e+10 -6.1402926e+10 -6.1401911e+10     36382803     15477208    -69736355    -13400583 
     770    -13401579     2.368781     1.147919     2.368781     1.147919     2.368781            0           -0            0 -6.4950905e+10 -6.4767503e+10 -6.5323844e+10 -6.4761367e+10 2.7584891e+08 2.4340048e+08 -4.3378174e+08    -13401579 
     780    -13403272     2.364343     1.152357    2.3643429    1.1523571     2.364343            0           -0            0 -7.0473112e+10 -7.0479097e+10 -7.0463218e+10 -7.0477022e+10   -2106244.9    3564661.2    2338735.6    -13403272 
     790    -13405097    2.3597829    1.1569171    2.3597827    1.1569173    2.3597828            0           -0            0 -7.7076755e+10 -7.6991016e+10 -7.7251727e+10 -7.6987521e+10    -57542704    4864654.1     64386649    -13405097 
     800    -13405151    2.3596307    1.1570693    2.3596304    1.1570696    2.3596307            0           -0            0 -7.7253902e+10 -7.7442424e+10 -7.6869226e+10 -7.7450054e+10    -25607910   -214563.82     27465937    -13405151 
     810    -13405252    2.3593914    1.1573086    2.3593911    1.1573089    2.3593914            0           -0            0 -7.6765565e+10 -7.6833029e+10 -7.6628568e+10 -7.6835099e+10   -1189109.2     42193.19    1052500.1    -13405252 
     820    -13405293    2.3593035    1.1573965    2.3593032    1.1573968    2.3593035            0           -0            0 -7.7210551e+10 -7.7353518e+10 -7.6920121e+10 -7.7358013e+10   -2513612.4    82810.782    2223082.8    -13405293 
     830    -13405343    2.3592068    1.1574932    2.3592066    1.1574934    2.3592068            0           -0            0 -7.7426866e+10 -7.7441012e+10 -7.7398688e+10 -7.7440898e+10   -98762.554   -127836.18    18207.285    -13405343 
     840    -13406581    2.3561689    1.1605311    2.3561685    1.1605315    2.3561689            0           -0            0 -8.3012959e+10 -8.3389567e+10 -8.2317801e+10 -8.3331508e+10     21122835    -46183211    -31313120    -13406581 
     850    -13408998    2.3510282    1.1656718    2.3510275    1.1656725    2.3510282            0           -0            0 -9.0470532e+10 -9.0519014e+10 -9.0289459e+10 -9.0603121e+10    -62096205    -21135634     69541650    -13408998 
     860    -13409410     2.350175     1.166525    2.3501742    1.1665258    2.3501749            0           -0            0 -9.1780913e+10 -9.1787207e+10 -9.1770853e+10 -9.1784679e+10    -60962643    -11006380     37541422    -13409410 
     870    -13411130    2.3466991    1.1700009    2.3466981    1.1700019    2.3466989            0           -0            0 -9.809851e+10 -9.8204449e+10 -9.7934445e+10 -9.8156636e+10    5197089.7      1100974    559026.68    -13411130 
     880    -13414017     2.340885     1.175815     2.340883     1.175817     2.340885            0           -0            0 -1.1073663e+11 -1.114136e+11 -1.0934593e+11 -1.1145036e+11 3.5350503e+08    -84677515     40696500    -13414017 
     890    -13417188    2.3357088    1.1809912    2.3357059    1.1809941    2.3357089            0           -0            0 -1.1985435e+11 -1.1980546e+11 -1.1948987e+11 -1.2026771e+11 -1.8935202e+08    -14370553     73891882    -13417188 
     900    -13417368    2.3354473    1.1812527    2.3354445    1.1812555    2.3354474            0           -0            0 -1.209064e+11 -1.2091743e+11 -1.209382e+11 -1.2086357e+11 -3.660642e+08    -31355175 1.2875825e+08    -13417368 
     910    -13418007     2.334256     1.182444    2.3342532    1.1824468    2.3342561            0           -0            0 -1.2221887e+11 -1.2230813e+11 -1.2225143e+11 -1.2209704e+11 4.7281641e+08    -48275753 -1.6803198e+08    -13418007 
     920    -13420926    2.3297256    1.1869744    2.3297225    1.1869775     2.329726            0           -0            0 -1.3613063e+11 -1.361116e+11 -1.3609113e+11 -1.3618915e+11  1.75183e+08    4402146.7    -58782818    -13420926 
     930    -13423671    2.3256211    1.1910789    2.3256179    1.1910821    2.3256218            0           -0            0 -1.4448224e+11 -1.4396263e+11 -1.4388849e+11 -1.4559559e+11 1.1267213e+08     68889836 2.1824186e+08    -13423671 
     940    -13424076    2.3251964    1.1915036    2.3251931    1.1915069    2.3251968            0           -0            0 -1.4664545e+11 -1.4663626e+11 -1.4668476e+11 -1.4661532e+11    -24982563    -12221623    -48226530    -13424076 
     950    -13425424    2.3233135    1.1933865    2.3233101    1.1933899     2.323314            0           -0            0 -1.5184914e+11 -1.5183629e+11 -1.5189405e+11 -1.5181707e+11    -10034385    -23321488    -17069799    -13425424 
     960    -13428125     2.319607     1.197093    2.3196034    1.1970966    2.3196074            0           -0            0 -1.6292818e+11 -1.6316296e+11 -1.6251575e+11 -1.6310583e+11 -6.9557166e+08 -8.8420655e+08 -7.490991e+08    -13428125 
     970    -13431332    2.3135521    1.2031479    2.3135469    1.2031531     2.313553            0           -0            0 -1.8034741e+11 -1.7780256e+11 -1.813405e+11 -1.8189915e+11 -5.8979182e+08 4.2191831e+08 -5.7902436e+08    -13431332 
     980    -13433610     2.312828     1.203872    2.3128233    1.2038767    2.3128288            0           -0            0 -1.841722e+11 -1.8366888e+11 -1.8360382e+11 -1.852439e+11     34859281     29161981    -78679321    -13433610 
     990    -13433879    2.3125791    1.2041209    2.3125743    1.2041257    2.3125797            0           -0            0 -1.8582734e+11 -1.85852e+11 -1.8578047e+11 -1.8584957e+11 3.8367967e+08 4.3636725e+08 -3.0695108e+08    -13433879 
    1000    -13436355    2.3096957    1.2070043    2.3096907    1.2070093    2.3096963            0           -0            0 -1.9724673e+11 -1.974774e+11 -1.9766326e+11 -1.9659953e+11 4.8209916e+08 -1.1710912e+08     67647359    -13436355 
    1010    -13436730    2.3093388    1.2073612    2.3093337    1.2073663    2.3093395            0           -0            0 -1.9777021e+11 -1.9777117e+11 -1.9778906e+11 -1.9775041e+11    1409787.3   -2041275.8      1581647    -13436730 
    1020    -13444804    2.3009083    1.2157917    2.3009026    1.2157974    2.3009088            0           -0            0 -2.3131362e+11 -2.3133561e+11 -2.3131547e+11 -2.3128979e+11 -2.1185057e+08     91555778    -79064930    -13444804 
    1030    -13445611    2.2994312    1.2172688    2.2994254    1.2172746    2.2994318            0           -0            0 -2.4337629e+11 -2.4345215e+11 -2.4356732e+11 -2.431094e+11 -1.2305529e+08 8.1921798e+08 -7.8920889e+08    -13445611 
    1040    -13448814    2.2969724    1.2197276    2.2969665    1.2197335    2.2969731            0           -0            0 -2.4712339e+11 -2.4740147e+11 -2.4729804e+11 -2.4667065e+11 8.9243163e+08    -63205295     27003975    -13448814 
    1050    -13449222    2.2966959    1.2200041    2.2966899    1.2200101    2.2966967            0           -0            0 -2.4940949e+11 -2.4940119e+11 -2.4941224e+11 -2.4941504e+11     46447812   -3194720.9   -1543556.6    -13449222 
    1060    -13452990    2.2933133    1.2233867     2.293307     1.223393    2.2933142            0           -0            0 -2.6718745e+11 -2.6730025e+11 -2.6720398e+11 -2.6705812e+11 8.6795934e+08    -63801326   -8477295.9    -13452990 
    1070    -13456446    2.2903384    1.2263616     2.290332     1.226368      2.29034            0           -0            0 -2.8129411e+11 -2.8116378e+11 -2.8131971e+11 -2.8139884e+11 -1.0331894e+09 1.0275156e+08     51066820    -13456446 
    1080    -13456654    2.2901592    1.2265408    2.2901528    1.2265472    2.2901609            0           -0            0 -2.8434761e+11 -2.8422586e+11 -2.8438152e+11 -2.8443544e+11 -1.0280918e+09 1.0096085e+08     45441445    -13456654 
    1090    -13461959    2.2858615    1.2308385    2.2858547    1.2308453    2.2858632            0           -0            0 -3.0567071e+11 -3.0600889e+11 -3.0605602e+11 -3.049472e+11 -2.2496067e+08 1.0960678e+08 1.3533158e+08    -13461959 
    1100    -13464533    2.2839264    1.2327736    2.2839192    1.2327808    2.2839269            0           -0            0 -3.1814867e+11 -3.1785021e+11 -3.1785962e+11 -3.1873617e+11 1.445348e+08    -42286461    -69302425    -13464533 
    1110    -13473555    2.2771647    1.2395353    2.2771568    1.2395432    2.2771637            0           -0            0 -3.6156721e+11 -3.6244611e+11 -3.6255743e+11 -3.5969809e+11 -6.370849e+08     33523215 1.0280797e+08    -13473555 
    1120    -13478866     2.273423     1.243277    2.2734147    1.2432853    2.2734226            0           -0            0 -3.8885092e+11 -3.8904028e+11 -3.8979627e+11 -3.8771621e+11 -5.2078142e+09 -3.7258272e+08 -5.3698728e+08    -13478866 
    1130    -13479991    2.2728755    1.2438245    2.2728672    1.2438328    2.2728754            0           -0            0 -3.9085213e+11 -3.8992851e+11 -3.9047318e+11 -3.921547e+11 -3.2544743e+09 -1.1862977e+09 -1.4419937e+09    -13479991 
    1140    -13483852    2.2705383    1.2461617    2.2705296    1.2461704    2.2705378            0           -0            0 -4.1023902e+11 -4.0901519e+11 -4.0891153e+11 -4.1279033e+11 6.8451251e+08 1.2216187e+09 1.2051122e+09    -13483852 
    1150    -13485160    2.2698209    1.2468791    2.2698122    1.2468878    2.2698201            0           -0            0 -4.1427528e+11 -4.137805e+11 -4.1395254e+11 -4.1509281e+11 -5.48976e+08 7.1390769e+08 8.4277793e+08    -13485160 
    1160    -13485677    2.2692999    1.2474001    2.2692911    1.2474089     2.269299            0           -0            0 -4.2531094e+11 -4.2522316e+11 -4.2528924e+11 -4.2542041e+11 -5.1162192e+08 6.7082657e+08 8.0973622e+08    -13485677 
    1170    -13492520     2.265489     1.251211    2.2654798    1.2512202     2.265488            0           -0            0 -4.5003302e+11 -4.5010265e+11 -4.5007414e+11 -4.4992226e+11     21400249    -23688783    -23764694    -13492520 
    1180    -13503913    2.2581084    1.2585916    2.2580976    1.2586024    2.2581084            0           -0            0 -5.1559896e+11 -5.0817654e+11 -5.1906009e+11 -5.1956027e+11 8.0059026e+08 -9.1542095e+08     84713610    -13503913 
    1190    -13514339    2.2538109    1.2628891    2.2538004    1.2628996    2.2538115            0           -0            0 -5.6511923e+11 -5.637611e+11 -5.6892978e+11 -5.6266682e+11 5.1930711e+08 -3.5461849e+09 1.5887148e+08    -13514339 
    1200    -13529254     2.246995     1.269705    2.2469795    1.2697205    2.2469957            0           -0            0 -6.4380871e+11 -6.4129664e+11 -6.4930259e+11 -6.4082692e+11 1.9553344e+08 -1.4836394e+08 -6.4063402e+08    -13529254 
    1210    -13540105    2.2425293    1.2741707    2.2425125    1.2741875    2.2425295            0           -0            0 -7.0206208e+11 -7.0138505e+11 -7.0260303e+11 -7.0219816e+11 2.0700133e+08 1.0277162e+08 -3.5421198e+09    -13540105 
    1220    -13541538    2.2420048    1.2746952    2.2419876    1.2747124    2.2420048            0           -0            0 -7.071376e+11 -7.0707783e+11 -7.0718417e+11 -7.071508e+11 -1.1167949e+08 -1.3991424e+08 2.0603343e+09    -13541538 
    1230    -13549076    2.2390443    1.2776557    2.2390258    1.2776742    2.2390436            0           -0            0 -7.4753624e+11 -7.4803942e+11 -7.4735465e+11 -7.4721465e+11    -33248376     67872268     46116196    -13549076 
    1240    -13555094    2.2360366    1.2806634    2.2360187    1.2806813    2.2360372            0           -0            0 -8.0218984e+11 -7.949622e+11 -8.0564802e+11 -8.059593e+11 4.1281722e+09 5.6847057e+09 -4.795068e+09    -13555094 
    1250    -13569055    2.2304939    1.2862061    2.2304733    1.2862267    2.2304938            0           -0            0 -8.8450277e+11 -8.9647169e+11 -8.8252683e+11 -8.7450981e+11 1.2855782e+09 -2.101495e+09 -4.1775166e+09    -13569055 
    1260    -13575281    2.2296182    1.2870818     2.229599     1.287101     2.229619            0           -0            0 -8.9668999e+11 -8.9708798e+11 -8.9687697e+11 -8.9610503e+11 -4.1984837e+08 1.8599736e+09 2.3540186e+08    -13575281 
    1270    -13588298    2.2251585    1.2915415    2.2251382    1.2915618    2.2251591            0           -0            0 -9.8842606e+11 -9.8704427e+11 -9.8357513e+11 -9.9465879e+11 4.6316222e+08 4.5298833e+08 -8.63931e+08    -13588298 
    1280    -13597022    2.2220105    1.2946895    2.2219877    1.2947123    2.2220103            0           -0            0 -1.0355715e+12 -1.0321938e+12 -1.0421919e+12 -1.0323288e+12 -1.9448576e+09 2.1371477e+09  -7.0594e+08    -13597022 
    1290    -13604972     2.220106     1.296594    2.2200836    1.2966164     2.220106            0           -0            0 -1.0826608e+12 -1.0832986e+12 -1.0792088e+12 -1.085475e+12 -1.4838109e+09 -1.7515332e+09 4.9989157e+08    -13604972 
    1300    -13608157    2.2192041    1.2974959    2.2191827    1.2975173    2.2192043            0           -0            0 -1.092102e+12 -1.0908349e+12 -1.0930447e+12 -1.0924263e+12 8.3418942e+08 -3.5393075e+09 4.2597349e+08    -13608157 
    1310    -13622381    2.2147458    1.3019542    2.2147252    1.3019748    2.2147492            0           -0            0 -1.2043285e+12 -1.2005773e+12 -1.1944098e+12 -1.2179986e+12 -1.2274061e+09 1.7671236e+09 -2.7868517e+09    -13622381 
    1320    -13642677    2.2102496    1.3064504    2.2102299    1.3064701    2.2102548            0           -0            0 -1.3137739e+12 -1.3147835e+12 -1.3138861e+12 -1.3126521e+12 6.1726185e+08 -1.7692564e+08 -1.3848766e+09    -13642677 
    1330    -13673237     2.202486     1.314214    2.2024657    1.3142343    2.2024919            0           -0            0 -1.5200811e+12 -1.513848e+12 -1.5208414e+12 -1.5255538e+12    -11611515 3.8733627e+09 -2.301289e+08    -13673237 
    1340    -13697130     2.197891     1.318809    2.1978673    1.3188327     2.197896            0           -0            0 -1.6777598e+12 -1.6763092e+12 -1.6775741e+12 -1.6793961e+12 -3.4444264e+09 -7.4151686e+08 5.3264301e+08    -13697130 
    1350    -13730223    2.1910958    1.3256042    2.1910672    1.3256328    2.1910949            0           -0            0 -1.913175e+12 -1.9135825e+12 -1.9102579e+12 -1.9156847e+12 -2.6455447e+09 -1.699152e+09 -2.2430799e+09    -13730223 
    1360    -13752026    2.1874295    1.3292705    2.1873993    1.3293007    2.1874278            0           -0            0 -2.0614097e+12 -2.0668758e+12 -2.056734e+12 -2.0606193e+12 3.0263925e+09 -6.697759e+08 4.3558993e+08    -13752026 
    1370    -13793784    2.1792681    1.3374319    2.1792341    1.3374659    2.1792657            0           -0            0 -2.4186114e+12 -2.4216731e+12 -2.4101335e+12 -2.4240277e+12 -1.0143485e+10 -1.5794334e+10 2.9172055e+10    -13793784 
    1380    -13812719     2.177468     1.339232    2.1774316    1.3392684    2.1774578            0           -0            0 -2.5124092e+12 -2.5077069e+12 -2.5132668e+12 -2.516254e+12 -3.0934413e+09 3.0874161e+09 -5.583478e+09    -13812719 
    1390    -13829681    2.1747576    1.3419424    2.1747205    1.3419795    2.1747462            0           -0            0 -2.6714589e+12 -2.6678404e+12 -2.673375e+12 -2.6731614e+12 6.658362e+09    -25241555 -6.0849625e+09    -13829681 
    1400    -13850922    2.1717652    1.3449348    2.1717235    1.3449765    2.1717489            0           -0            0 -2.8270701e+12 -2.8131926e+12 -2.8335507e+12 -2.8344671e+12 4.7592144e+09 -7.4062169e+09 1.8831939e+10    -13850922 
    1410    -13900187    2.1654367    1.3512633    2.1653878    1.3513122    2.1654203            0           -0            0 -3.2310464e+12 -3.2239511e+12 -3.2418047e+12 -3.2273835e+12 -2.0284233e+09 -1.2628753e+09 -8.3875887e+09    -13900187 
    1420    -13955723    2.1578758    1.3588242    2.1578177    1.3588823    2.1578529            0           -0            0 -3.8015269e+12 -3.7837108e+12 -3.793797e+12 -3.8270729e+12 -3.2480249e+09 -3.2598519e+10 -2.6463172e+10    -13955723 
    1430    -14012818    2.1517209    1.3649791    2.1516571    1.3650429    2.1516976            0           -0            0 -4.3030995e+12 -4.2773095e+12 -4.3233976e+12 -4.3085915e+12 2.3089222e+10 -9.9488019e+09 4.8835516e+09    -14012818 
    1440    -14121928     2.142246     1.374454    2.1421788    1.3745212    2.1422194            0           -0            0 -5.2208521e+12 -5.2482103e+12 -5.2156248e+12 -5.1987212e+12 -4.3940114e+09 -1.7348182e+09 2.5858039e+09    -14121928 
    1450    -14237950    2.1312545    1.3854455    2.1312271    1.3854729    2.1312551            0           -0            0 -6.6355221e+12 -6.5646893e+12 -6.6784747e+12 -6.6634025e+12 -2.0402354e+10 -1.3389313e+10 -1.1348541e+11    -14237950 
    1460    -14335171     2.125083     1.391617    2.1250443    1.3916557    2.1250855            0           -0            0 -7.4852731e+12 -7.5266668e+12 -7.4569323e+12 -7.4722202e+12 -2.2082977e+10 4.8708588e+10 6.0253837e+10    -14335171 
    1470    -14422188    2.1202302    1.3964698    2.1201898    1.3965102    2.1202426            0           -0            0 -8.2969198e+12 -8.2953096e+12 -8.2910739e+12 -8.304376e+12 4.5264397e+09 7.5926735e+09 3.0262779e+09    -14422188 
    1480    -14575245    2.1112237    1.4054763     2.111151     1.405549    2.1112377            0           -0            0 -1.0141088e+13 -1.0119916e+13 -1.0104791e+13 -1.0198558e+13 -1.8405029e+09 5.4690539e+10 -1.2678888e+10    -14575245 
    1490    -14805367    2.1000211    1.4166789    2.0999052    1.4167948    2.1000349            0           -0            0 -1.2926494e+13 -1.2885234e+13 -1.2963928e+13 -1.2930318e+13 4.0724732e+10 -6.4981782e+09 4.5434055e+10    -14805367 
    1500    -15169912    2.0849121    1.4317879    2.0846656    1.4320344    2.0849332            0           -0            0 -1.8273685e+13 -1.812976e+13 -1.8445879e+13 -1.8245416e+13 1.3551236e+10 -4.8212582e+09 1.7599876e+11    -15169912 
    1510    -15581066    2.0730392    1.4436608    2.0727346    1.4439654    2.0730716            0           -0            0 -2.3871682e+13 -2.3874061e+13 -2.3924466e+13 -2.3816519e+13 -4.744735e+09 -8.3535956e+09 -1.4006362e+10    -15581066 
    1520    -16126619    2.0592518    1.4574482    2.0588962    1.4578038    2.0592653            0           -0            0 -3.292013e+13 -3.2905047e+13 -3.2956113e+13 -3.2899228e+13 4.0155551e+10 5.1836141e+10 -4.2912974e+10    -16126619 
    1530    -16963242    2.0431998    1.4735002    2.0427876    1.4739124    2.0432172            0           -0            0 -4.8731343e+13 -4.8685231e+13 -4.8812494e+13 -4.8696303e+13 -8.3413785e+09 -1.6431174e+10 9.7477792e+09    -16963242 
