LAMMPS (11 Aug 2017)
Reading data file ...
  triclinic box = (0 0 0) to (3.4851 2.4947 2.4947) with tilt (0 0 0)
  1 by 1 by 1 MPI processor grid
  reading atoms ...
  2 atoms
2 atoms in group Ni
Neighbor list info ...
  update every 1 steps, delay 0 steps, check yes
  max neighbors/atom: 2000, page size: 100000
  master list distance cutoff = 11
  ghost atom cutoff = 11
  binsize = 5.5, bins = 1 1 1
  1 neighbor lists, perpetual/occasional/extra = 1 0 0
  (1) pair eam/alloy, perpetual
      attributes: half, newton on
      pair build: half/bin/newton/tri
      stencil: half/bin/3d/newton/tri
      bin: standard
Setting up cg style minimization ...
  Unit style    : metal
  Current step  : 0
WARNING: Energy due to 3 extra global DOFs will be included in minimizer energies
Per MPI rank memory allocation (min/avg/max) = 4.313 | 4.313 | 4.313 Mbytes
Step PotEng Xhi Xlo Yhi Ylo Zhi Xy Xz Yz Press Pxx Pyy Pzz Pxy Pxz Pyz c_eatoms 
       0   -8.9992504       3.4851            0       2.4947            0       2.4947            0            0            0   -8442.3761   -6685.5006   -9320.8138   -9320.8138 -0.0020703899 -0.0020703899 0.00080185192   -8.9992504 
      10   -8.9996695    3.4942846 -0.0091846415    2.4883971 0.0063028865    2.4883971            0            0            0    409.80359    708.16644    260.62216    260.62216 2.6287678e-07 2.6281046e-07 5.3083686e-08   -8.9996695 
      20   -8.9996732    3.4957776 -0.010677557     2.487916 0.0067839814     2.487916            0            0            0    183.48928    290.29307    130.08739    130.08739 8.6173165e-11 1.9814951e-10 -1.4406758e-10   -8.9996732 
      30   -8.9996735    3.4960717 -0.010971664    2.4878282 0.0068717721    2.4878282            0            0            0    102.37693    171.98068    67.575056    67.575056 2.2877976e-10 1.5601556e-10 -1.4562772e-10   -8.9996735 
      40   -8.9996736    3.4962716 -0.011171594    2.4877642 0.0069357603    2.4877642            0            0            0    66.200024    109.91331    44.343379    44.343379 -1.848416e-10 -2.0588293e-10 4.7403642e-11   -8.9996736 
      50   -8.9996737    3.4963964 -0.011296405    2.4877233 0.0069767431    2.4877233            0            0            0    48.634758    76.028481    34.937896    34.937896 -2.1553049e-10 -2.6572822e-10 -5.2853738e-11   -8.9996737 
      60   -8.9996737    3.4964747 -0.011374685    2.4876978  0.007002151    2.4876978            0            0            0    36.068002     53.25321    27.475397    27.475397 3.7518837e-11 2.1679232e-10 1.6383115e-10   -8.9996737 
      70   -8.9996737    3.4965235 -0.011423474    2.4876809 0.0070190994    2.4876809            0            0            0    34.399467    45.077364    29.060518    29.060518 1.0086509e-10 8.0244406e-11 -4.1841489e-11   -8.9996737 
      80   -8.9996737     3.496555 -0.011454974    2.4876712 0.0070288489    2.4876712            0            0            0    26.762996    33.388677    23.450155    23.450155 4.4285469e-11 1.0858836e-10 7.1050078e-11   -8.9996737 
      90   -8.9996737    3.4965734 -0.011473369    2.4876639 0.0070361218    2.4876639            0            0            0    30.989532    35.048372    28.960113    28.960113 -1.1358881e-10 8.5734115e-11 -1.1017224e-10   -8.9996737 
     100   -8.9996737    3.4965853 -0.011485271      2.48766 0.0070399947      2.48766            0            0            0    29.146773    31.649985    27.895167    27.895167 -1.0093195e-10 -1.546676e-10 9.5016237e-11   -8.9996737 
     110   -8.9996737    3.4965924 -0.011492413    2.4876574 0.0070425674    2.4876574            0            0            0     29.40837    30.946515    28.639297    28.639297 7.4808441e-12 -1.5434975e-10 -8.852964e-11   -8.9996737 
     120   -8.9996737    3.4965969 -0.011496862    2.4876559 0.0070441155    2.4876559            0            0            0    29.270609    30.214375    28.798726    28.798726 1.2694394e-11 -7.6661879e-11 -2.0076511e-10   -8.9996737 
     130   -8.9996737    3.4965996 -0.011499594    2.4876549 0.0070450785    2.4876549            0            0            0    29.254148    29.831394    28.965525    28.965525 6.4085298e-11 1.4649591e-10 -5.026785e-11   -8.9996737 
     140   -8.9996737    3.4966013 -0.011501278    2.4876543 0.0070456716    2.4876543            0            0            0    29.241908    29.593266    29.066229    29.066229 2.2676962e-11  1.73842e-11 1.4028014e-10   -8.9996737 
     150   -8.9996737    3.4966023 -0.011502316     2.487654 0.0070460376     2.487654            0            0            0    29.237434    29.449584    29.131359    29.131359 -7.6953644e-11 -6.8583485e-11 -1.4216313e-10   -8.9996737 
     160   -8.9996737     3.496603 -0.011502955    2.4876537 0.0070462631    2.4876537            0            0            0    29.235363    29.361727    29.172181    29.172181 -1.5913806e-11 7.6436061e-12 -5.1709262e-11   -8.9996737 
     170   -8.9996737    3.4966033 -0.011503349    2.4876536 0.0070464022    2.4876536            0            0            0    29.234407    29.307908    29.197656    29.197656 1.0895659e-10 -7.924445e-11 1.8484923e-10   -8.9996737 
     180   -8.9996737    3.4966036 -0.011503591    2.4876535 0.0070464879    2.4876535            0            0            0    29.233932    29.274857    29.213469    29.213469 -5.1736294e-12 6.6578786e-11 1.8757665e-10   -8.9996737 
     190   -8.9996737    3.4966037 -0.011503741    2.4876535 0.0070465407    2.4876535            0            0            0    29.233683    29.254535    29.223257    29.223257 2.1765581e-11 -2.4013134e-11 -2.5315233e-10   -8.9996737 
     200   -8.9996737    3.4966038 -0.011503833    2.4876534 0.0070465733    2.4876534            0            0            0    29.233547    29.242029    29.229306    29.229306 1.4583939e-10 -1.8944304e-11 3.1604435e-12   -8.9996737 
     210   -8.9996737    3.4966039  -0.01150389    2.4876534 0.0070465933    2.4876534            0            0            0    29.233469    29.234329    29.233039    29.233039 9.7190176e-11 8.6815884e-11 -1.5401328e-10   -8.9996737 
     220   -8.9996737    3.4966039 -0.011503925    2.4876534 0.0070466057    2.4876534            0            0            0    29.233424    29.229586    29.235343    29.235343 8.2584692e-11 -2.2830483e-10 -1.547355e-10   -8.9996737 
     230   -8.9996737    3.4966039 -0.011503946    2.4876534 0.0070466133    2.4876534            0            0            0    29.233397    29.226665    29.236763    29.236763 -9.640082e-11 -1.2468815e-10 -6.3996969e-11   -8.9996737 
     240   -8.9996737     3.496604 -0.011503959    2.4876534  0.007046618    2.4876534            0            0            0     29.23338    29.224865    29.237638    29.237638 1.6693293e-11 -8.0459038e-11 -2.197499e-10   -8.9996737 
     250   -8.9996737     3.496604 -0.011503968    2.4876534 0.0070466209    2.4876534            0            0            0    29.233371    29.223756    29.238178    29.238178 -2.559059e-12 6.5375514e-11 -5.1943126e-12   -8.9996737 
     260   -8.9996737     3.496604 -0.011503973    2.4876534 0.0070466227    2.4876534            0            0            0    29.233364    29.223073     29.23851     29.23851 -2.716157e-11 2.917878e-11 2.1245986e-11   -8.9996737 
     270   -8.9996737     3.496604 -0.011503976    2.4876534 0.0070466238    2.4876534            0            0            0    29.233361    29.222652    29.238715    29.238715 -2.0107341e-12 -7.0785837e-11 -4.5304887e-11   -8.9996737 
     280   -8.9996737     3.496604 -0.011503978    2.4876534 0.0070466244    2.4876534            0            0            0    29.233358    29.222392    29.238842    29.238842 9.8605435e-12 -2.2551027e-10 -1.260506e-11   -8.9996737 
     290   -8.9996737     3.496604 -0.011503979    2.4876534 0.0070466248    2.4876534            0            0            0    29.233357    29.222232    29.238919    29.238919 -7.5015269e-11 -1.2004153e-10 3.0973755e-11   -8.9996737 
     300   -8.9996737     3.496604  -0.01150398    2.4876534 0.0070466251    2.4876534            0            0            0    29.233356    29.222134    29.238967    29.238967 3.8666397e-11 5.1226695e-11 5.8720175e-11   -8.9996737 
     310   -8.9996737     3.496604  -0.01150398    2.4876534 0.0070466253    2.4876534            0            0            0    29.233356    29.222073    29.238997    29.238997 1.7923032e-11 -3.9122056e-11 1.372912e-11   -8.9996737 
     320   -8.9996737     3.496604  -0.01150398    2.4876534 0.0070466254    2.4876534            0            0            0    29.233355    29.222036    29.239015    29.239015 8.5090315e-13 2.5100228e-11 -3.0608624e-12   -8.9996737 
     330   -8.9996737     3.496604  -0.01150398    2.4876534 0.0070466254    2.4876534            0            0            0    29.233355    29.222013    29.239026    29.239026 -6.4607658e-12 -6.5265874e-12 -2.4441132e-11   -8.9996737 
     340   -8.9996737     3.496604 -0.011503981    2.4876534 0.0070466255    2.4876534            0            0            0    29.233355    29.221998    29.239033    29.239033 1.8311033e-10 -1.6012822e-10 -2.175214e-10   -8.9996737 
     350   -8.9996737     3.496604 -0.011503981    2.4876534 0.0070466255    2.4876534            0            0            0    29.233355     29.22199    29.239037    29.239037 -4.7903238e-11 3.0311389e-11 -6.9935626e-11   -8.9996737 
     360   -8.9996737     3.496604 -0.011503981    2.4876534 0.0070466255    2.4876534            0            0            0    29.233355    29.221984     29.23904     29.23904 -2.2840032e-10 -5.1384114e-11 9.129276e-12   -8.9996737 
     370   -8.9996737     3.496604 -0.011503981    2.4876534 0.0070466255    2.4876534            0            0            0    29.233355    29.221981    29.239042    29.239042 1.8656374e-12 -2.8640891e-11 5.6722015e-11   -8.9996737 
     380   -8.9996737     3.496604 -0.011503981    2.4876534 0.0070466255    2.4876534            0            0            0    29.233355    29.221979    29.239043    29.239043 -9.3680444e-12 4.5610672e-11 3.7472178e-11   -8.9996737 
     390   -8.9996737     3.496604 -0.011503981    2.4876534 0.0070466255    2.4876534            0            0            0    29.233355    29.221978    29.239043    29.239043 -1.2361702e-10 7.4453239e-11 4.4656604e-11   -8.9996737 
     400   -8.9996737     3.496604 -0.011503981    2.4876534 0.0070466255    2.4876534            0            0            0    29.233355    29.221977    29.239044    29.239044 5.920425e-12 -1.5958756e-10 3.9006632e-11   -8.9996737 
     410   -8.9996737     3.496604 -0.011503981    2.4876534 0.0070466255    2.4876534            0            0            0    29.233355    29.221976    29.239044    29.239044 -1.8374227e-11 1.6096988e-10 6.9058004e-12   -8.9996737 
     420   -8.9996737     3.496604 -0.011503981    2.4876534 0.0070466255    2.4876534            0            0            0    29.233355    29.221976    29.239044    29.239044 1.2272349e-10 -1.2818204e-10 -1.016834e-10   -8.9996737 
     430   -8.9996737     3.496604 -0.011503981    2.4876534 0.0070466255    2.4876534            0            0            0    29.233355    29.221976    29.239044    29.239044 -7.3850975e-12 -4.3759368e-11 -7.2701768e-11   -8.9996737 
     440   -8.9996737     3.496604 -0.011503981    2.4876534 0.0070466255    2.4876534            0            0            0    29.233355    29.221976    29.239044    29.239044 -3.411559e-11 -2.8223958e-11 3.2832099e-11   -8.9996737 
     450   -8.9996737     3.496604 -0.011503981    2.4876534 0.0070466255    2.4876534            0            0            0    29.233355    29.221976    29.239044    29.239044 -9.0647369e-11 -5.3807506e-11 1.9152268e-11   -8.9996737 
     460   -8.9996737     3.496604 -0.011503981    2.4876534 0.0070466255    2.4876534            0            0            0    29.233355    29.221976    29.239044    29.239044 -2.1517313e-10 -2.2315075e-10 -5.1017726e-12   -8.9996737 
     470   -8.9996737     3.496604 -0.011503981    2.4876534 0.0070466255    2.4876534            0            0            0    29.233355    29.221976    29.239044    29.239044 -2.2011227e-10 5.929151e-11 1.4139514e-11   -8.9996737 
     480   -8.9996737     3.496604 -0.011503981    2.4876534 0.0070466255    2.4876534            0            0            0    29.233355    29.221976    29.239044    29.239044 -1.1114725e-10 -2.3800141e-11 1.0791979e-10   -8.9996737 
     490   -8.9996737     3.496604 -0.011503981    2.4876534 0.0070466255    2.4876534            0            0            0    29.233355    29.221976    29.239044    29.239044 5.2905995e-11 8.7122675e-11 -6.5282471e-11   -8.9996737 
     500   -8.9996737     3.496604 -0.011503981    2.4876534 0.0070466255    2.4876534            0            0            0    29.233355    29.221976    29.239044    29.239044 -1.7381433e-11 5.9896792e-11 3.1457578e-11   -8.9996737 
     510   -8.9996737     3.496604 -0.011503981    2.4876534 0.0070466255    2.4876534            0            0            0    29.233355    29.221976    29.239044    29.239044 3.9460908e-12 -5.5863505e-12 4.3125167e-11   -8.9996737 
     520   -8.9996737     3.496604 -0.011503981    2.4876534 0.0070466255    2.4876534            0            0            0    29.233355    29.221976    29.239044    29.239044 9.8180204e-11 4.2689122e-12 -9.7629741e-12   -8.9996737 
     530   -8.9996737     3.496604 -0.011503981    2.4876534 0.0070466255    2.4876534            0            0            0    29.233355    29.221976    29.239044    29.239044 2.3976571e-10 4.6405058e-11 4.4833637e-11   -8.9996737 
     540   -8.9996737     3.496604 -0.011503981    2.4876534 0.0070466255    2.4876534            0            0            0    29.233355    29.221976    29.239044    29.239044 2.1750178e-11 -3.7286846e-11 4.6888881e-11   -8.9996737 
     550   -8.9996737     3.496604 -0.011503981    2.4876534 0.0070466255    2.4876534            0            0            0    29.233355    29.221976    29.239044    29.239044 2.5579274e-12 -1.5515545e-13 9.2781448e-12   -8.9996737 
     560   -8.9996737     3.496604 -0.011503981    2.4876534 0.0070466255    2.4876534            0            0            0    29.233355    29.221976    29.239044    29.239044 -1.1836072e-11 -8.6143209e-11 9.8861932e-12   -8.9996737 
     570   -8.9996737     3.496604 -0.011503981    2.4876534 0.0070466255    2.4876534            0            0            0    29.233355    29.221976    29.239044    29.239044 -1.1688209e-11 -2.7959263e-10 2.165789e-11   -8.9996737 
     580   -8.9996737     3.496604 -0.011503981    2.4876534 0.0070466255    2.4876534            0            0            0    29.233355    29.221976    29.239044    29.239044 -1.235104e-10 -1.4466045e-10 5.4411531e-11   -8.9996737 
     590   -8.9996737     3.496604 -0.011503981    2.4876534 0.0070466255    2.4876534            0            0            0    29.233355    29.221976    29.239044    29.239044 -2.0049126e-11 6.8549537e-11 2.4122271e-11   -8.9996737 
     600   -8.9996737     3.496604 -0.011503981    2.4876534 0.0070466255    2.4876534            0            0            0    29.233355    29.221976    29.239044    29.239044 2.4084891e-10 8.4392492e-12 4.5281249e-11   -8.9996737 
     610   -8.9996737     3.496604 -0.011503981    2.4876534 0.0070466255    2.4876534            0            0            0    29.233355    29.221976    29.239044    29.239044 -1.0981208e-11 8.934439e-11 4.4298011e-11   -8.9996737 
     620   -8.9996737     3.496604 -0.011503981    2.4876534 0.0070466255    2.4876534            0            0            0    29.233355    29.221976    29.239044    29.239044 -8.6275607e-11 -1.0182623e-10 9.5236777e-11   -8.9996737 
     630   -8.9996737     3.496604 -0.011503981    2.4876534 0.0070466255    2.4876534            0            0            0    29.233355    29.221976    29.239044    29.239044 -2.2430146e-11 6.485221e-11 3.7104532e-11   -8.9996737 
     640   -8.9996737     3.496604 -0.011503981    2.4876534 0.0070466255    2.4876534            0            0            0    29.233355    29.221976    29.239044    29.239044 -5.6798461e-11 3.594753e-11 2.9346257e-11   -8.9996737 
     650   -8.9996737     3.496604 -0.011503981    2.4876534 0.0070466255    2.4876534            0            0            0    29.233355    29.221976    29.239044    29.239044 -1.3003762e-11 1.0125288e-10 4.7999613e-11   -8.9996737 
     660   -8.9996737     3.496604 -0.011503981    2.4876534 0.0070466255    2.4876534            0            0            0    29.233355    29.221976    29.239044    29.239044 1.7177368e-11 1.5270288e-10 2.5217161e-11   -8.9996737 
     670   -8.9996737     3.496604 -0.011503981    2.4876534 0.0070466255    2.4876534            0            0            0    29.233355    29.221976    29.239044    29.239044 -1.1143028e-11 1.605117e-12 4.218669e-11   -8.9996737 
     680   -8.9996737     3.496604 -0.011503981    2.4876534 0.0070466255    2.4876534            0            0            0    29.233355    29.221976    29.239044    29.239044 -8.100271e-12 2.0025866e-11 2.1687563e-11   -8.9996737 
     690   -8.9996737     3.496604 -0.011503981    2.4876534 0.0070466255    2.4876534            0            0            0    29.233355    29.221976    29.239044    29.239044 6.259529e-12 7.9466998e-11 4.0039661e-11   -8.9996737 
     700   -8.9996737     3.496604 -0.011503981    2.4876534 0.0070466255    2.4876534            0            0            0    29.233355    29.221976    29.239044    29.239044 -1.228938e-10 7.0116431e-11 7.7804044e-11   -8.9996737 
     710   -8.9996737     3.496604 -0.011503981    2.4876534 0.0070466255    2.4876534            0            0            0    29.233355    29.221976    29.239044    29.239044 -1.8677183e-11 2.4600613e-10 4.703951e-11   -8.9996737 
     720   -8.9996737     3.496604 -0.011503981    2.4876534 0.0070466255    2.4876534            0            0            0    29.233355    29.221976    29.239044    29.239044 -1.8927518e-11 2.9284723e-10 5.1173636e-11   -8.9996737 
     730   -8.9996737     3.496604 -0.011503981    2.4876534 0.0070466255    2.4876534            0            0            0    29.233355    29.221976    29.239044    29.239044 -3.5565551e-11 1.6092562e-10 -3.8665642e-12   -8.9996737 
     740   -8.9996737     3.496604 -0.011503981    2.4876534 0.0070466255    2.4876534            0            0            0    29.233355    29.221976    29.239044    29.239044 -1.6804064e-11 -6.5053133e-11 6.7353055e-12   -8.9996737 
     750   -8.9996737     3.496604 -0.011503981    2.4876534 0.0070466255    2.4876534            0            0            0    29.233355    29.221976    29.239044    29.239044 -1.271514e-11 9.0246153e-11 -9.1212794e-11   -8.9996737 
     760   -8.9996737     3.496604 -0.011503981    2.4876534 0.0070466255    2.4876534            0            0            0    29.233355    29.221976    29.239044    29.239044 -1.139569e-11 -2.5872485e-11 3.6630767e-11   -8.9996737 
     770   -8.9996737     3.496604 -0.011503981    2.4876534 0.0070466255    2.4876534            0            0            0    29.233355    29.221976    29.239044    29.239044 -9.9713778e-12 7.6476798e-11 1.548909e-10   -8.9996737 
     780   -8.9996737     3.496604 -0.011503981    2.4876534 0.0070466255    2.4876534            0            0            0    29.233355    29.221976    29.239044    29.239044 -5.3853022e-12 1.5876903e-11 1.7184786e-11   -8.9996737 
     790   -8.9996737     3.496604 -0.011503981    2.4876534 0.0070466255    2.4876534            0            0            0    29.233355    29.221976    29.239044    29.239044 -1.3691902e-11 8.997331e-11 3.2743583e-11   -8.9996737 
     800   -8.9996737     3.496604 -0.011503981    2.4876534 0.0070466255    2.4876534            0            0            0    29.233355    29.221976    29.239044    29.239044 1.0790219e-11 7.0954824e-11 5.4032318e-11   -8.9996737 
     810   -8.9996737     3.496604 -0.011503981    2.4876534 0.0070466255    2.4876534            0            0            0    29.233355    29.221976    29.239044    29.239044 -7.2362287e-12 9.9323878e-11 3.1196052e-11   -8.9996737 
     820   -8.9996737     3.496604 -0.011503981    2.4876534 0.0070466255    2.4876534            0            0            0    29.233355    29.221976    29.239044    29.239044 -4.0780484e-12 2.5227873e-10 3.5169741e-11   -8.9996737 
     830   -8.9996737     3.496604 -0.011503981    2.4876534 0.0070466255    2.4876534            0            0            0    29.233355    29.221976    29.239044    29.239044 2.9082216e-13 1.6772379e-11 4.1477049e-12   -8.9996737 
     840   -8.9996737     3.496604 -0.011503981    2.4876534 0.0070466255    2.4876534            0            0            0    29.233355    29.221976    29.239044    29.239044 2.6826553e-12 3.7697996e-11 3.1010469e-11   -8.9996737 
     850   -8.9996737     3.496604 -0.011503981    2.4876534 0.0070466255    2.4876534            0            0            0    29.233355    29.221976    29.239044    29.239044 -4.1898634e-11 7.1406459e-11 5.9217075e-11   -8.9996737 
     860   -8.9996737     3.496604 -0.011503981    2.4876534 0.0070466255    2.4876534            0            0            0    29.233355    29.221976    29.239044    29.239044 2.6032921e-11 1.9245562e-11 2.1596532e-11   -8.9996737 
     870   -8.9996737     3.496604 -0.011503981    2.4876534 0.0070466255    2.4876534            0            0            0    29.233355    29.221976    29.239044    29.239044 -1.4027863e-11 1.9924273e-11 3.8805458e-11   -8.9996737 
     880   -8.9996737     3.496604 -0.011503981    2.4876534 0.0070466255    2.4876534            0            0            0    29.233355    29.221976    29.239044    29.239044 -3.8520797e-11 4.4668675e-11 5.2608509e-11   -8.9996737 
     890   -8.9996737     3.496604 -0.011503981    2.4876534 0.0070466255    2.4876534            0            0            0    29.233355    29.221976    29.239044    29.239044 -1.7286002e-11 6.5987335e-11 3.4572757e-11   -8.9996737 
     900   -8.9996737     3.496604 -0.011503981    2.4876534 0.0070466255    2.4876534            0            0            0    29.233355    29.221976    29.239044    29.239044 -1.3135656e-11 7.4192468e-11 2.1569775e-10   -8.9996737 
     910   -8.9996737     3.496604 -0.011503981    2.4876534 0.0070466255    2.4876534            0            0            0    29.233355    29.221976    29.239044    29.239044 -1.0886531e-11 -5.8096536e-11 3.3146434e-11   -8.9996737 
     920   -8.9996737     3.496604 -0.011503981    2.4876534 0.0070466255    2.4876534            0            0            0    29.233355    29.221976    29.239044    29.239044 5.8298967e-12 2.0376663e-11 1.8687053e-11   -8.9996737 
     930   -8.9996737     3.496604 -0.011503981    2.4876534 0.0070466255    2.4876534            0            0            0    29.233355    29.221976    29.239044    29.239044 -9.9728238e-11 -9.4220596e-11 -6.9171668e-11   -8.9996737 
     940   -8.9996737     3.496604 -0.011503981    2.4876534 0.0070466255    2.4876534            0            0            0    29.233355    29.221976    29.239044    29.239044 -6.7269567e-11 4.0582328e-11 -4.094595e-11   -8.9996737 
     950   -8.9996737     3.496604 -0.011503981    2.4876534 0.0070466255    2.4876534            0            0            0    29.233355    29.221976    29.239044    29.239044 1.3132513e-11 -2.3525287e-11 -9.1115224e-11   -8.9996737 
     960   -8.9996737     3.496604 -0.011503981    2.4876534 0.0070466255    2.4876534            0            0            0    29.233355    29.221976    29.239044    29.239044 -6.0969552e-11 8.7463916e-11 7.353312e-11   -8.9996737 
     970   -8.9996737     3.496604 -0.011503981    2.4876534 0.0070466255    2.4876534            0            0            0    29.233355    29.221976    29.239044    29.239044 -1.563122e-11 4.8027274e-11 6.3941144e-11   -8.9996737 
     980   -8.9996737     3.496604 -0.011503981    2.4876534 0.0070466255    2.4876534            0            0            0    29.233355    29.221976    29.239044    29.239044 -4.2876969e-11 5.7267699e-11 3.168239e-11   -8.9996737 
     990   -8.9996737     3.496604 -0.011503981    2.4876534 0.0070466255    2.4876534            0            0            0    29.233355    29.221976    29.239044    29.239044 -2.4147921e-11 2.4531157e-11 4.1682247e-11   -8.9996737 
    1000   -8.9996737     3.496604 -0.011503981    2.4876534 0.0070466255    2.4876534            0            0            0    29.233355    29.221976    29.239044    29.239044 5.128359e-11 -1.3970277e-11 4.0374616e-11   -8.9996737 
    1010   -8.9996737     3.496604 -0.011503981    2.4876534 0.0070466255    2.4876534            0            0            0    29.233355    29.221976    29.239044    29.239044 -6.6738468e-11 4.1490125e-11 -3.3947609e-11   -8.9996737 
    1020   -8.9996737     3.496604 -0.011503981    2.4876534 0.0070466255    2.4876534            0            0            0    29.233355    29.221976    29.239044    29.239044 -2.9988882e-11 2.1614386e-11 2.4816321e-11   -8.9996737 
    1030   -8.9996737     3.496604 -0.011503981    2.4876534 0.0070466255    2.4876534            0            0            0    29.233355    29.221976    29.239044    29.239044 2.6454381e-13 -5.129937e-12 1.7642457e-11   -8.9996737 
    1040   -8.9996737     3.496604 -0.011503981    2.4876534 0.0070466255    2.4876534            0            0            0    29.233355    29.221976    29.239044    29.239044 -8.6763454e-11 4.9497856e-11 -3.4676865e-11   -8.9996737 
    1050   -8.9996737     3.496604 -0.011503981    2.4876534 0.0070466255    2.4876534            0            0            0    29.233355    29.221976    29.239044    29.239044 3.473772e-12 5.101672e-11 3.9591546e-11   -8.9996737 
    1060   -8.9996737     3.496604 -0.011503981    2.4876534 0.0070466255    2.4876534            0            0            0    29.233355    29.221976    29.239044    29.239044 -7.2206377e-12 5.8590167e-11 3.4175942e-11   -8.9996737 
    1070   -8.9996737     3.496604 -0.011503981    2.4876534 0.0070466255    2.4876534            0            0            0    29.233355    29.221976    29.239044    29.239044 5.4807467e-11 5.5249924e-12 -2.2891086e-11   -8.9996737 
    1080   -8.9996737     3.496604 -0.011503981    2.4876534 0.0070466255    2.4876534            0            0            0    29.233355    29.221976    29.239044    29.239044 3.3485412e-12 3.7765389e-11 4.1514266e-11   -8.9996737 
    1090   -8.9996737     3.496604 -0.011503981    2.4876534 0.0070466255    2.4876534            0            0            0    29.233355    29.221976    29.239044    29.239044 -5.9699075e-11 6.683478e-11 8.1329618e-12   -8.9996737 
    1100   -8.9996737     3.496604 -0.011503981    2.4876534 0.0070466255    2.4876534            0            0            0    29.233355    29.221976    29.239044    29.239044 1.0993845e-10 5.4245563e-11 2.9152124e-11   -8.9996737 
    1110   -8.9996737     3.496604 -0.011503981    2.4876534 0.0070466255    2.4876534            0            0            0    29.233355    29.221976    29.239044    29.239044 1.0780663e-11 6.8381808e-11 2.7139378e-11   -8.9996737 
    1120   -8.9996737     3.496604 -0.011503981    2.4876534 0.0070466255    2.4876534            0            0            0    29.233355    29.221976    29.239044    29.239044 -1.8087428e-12 -1.9478672e-11 2.9626392e-11   -8.9996737 
    1130   -8.9996737     3.496604 -0.011503981    2.4876534 0.0070466255    2.4876534            0            0            0    29.233355    29.221976    29.239044    29.239044 -9.058928e-12 1.9330759e-10 6.1941977e-11   -8.9996737 
    1140   -8.9996737     3.496604 -0.011503981    2.4876534 0.0070466255    2.4876534            0            0            0    29.233355    29.221976    29.239044    29.239044 4.6545376e-12 2.7043066e-11 4.9574302e-12   -8.9996737 
    1150   -8.9996737     3.496604 -0.011503981    2.4876534 0.0070466255    2.4876534            0            0            0    29.233355    29.221976    29.239044    29.239044 -1.0890303e-10 1.7244987e-10 -3.0787669e-11   -8.9996737 
    1160   -8.9996737     3.496604 -0.011503981    2.4876534 0.0070466255    2.4876534            0            0            0    29.233355    29.221976    29.239044    29.239044 3.6623726e-11 1.3662984e-11 5.0053097e-11   -8.9996737 
    1170   -8.9996737     3.496604 -0.011503981    2.4876534 0.0070466255    2.4876534            0            0            0    29.233355    29.221976    29.239044    29.239044 -3.4109051e-11 2.4435097e-11 3.9159022e-11   -8.9996737 
    1180   -8.9996737     3.496604 -0.011503981    2.4876534 0.0070466255    2.4876534            0            0            0    29.233355    29.221976    29.239044    29.239044 1.0761445e-10 1.687875e-10 -4.5035314e-11   -8.9996737 
    1190   -8.9996737     3.496604 -0.011503981    2.4876534 0.0070466255    2.4876534            0            0            0    29.233355    29.221976    29.239044    29.239044 -1.1569284e-10 -1.3174885e-11 4.6697011e-11   -8.9996737 
    1200   -8.9996737     3.496604 -0.011503981    2.4876534 0.0070466255    2.4876534            0            0            0    29.233355    29.221976    29.239044    29.239044 -5.1017726e-12 8.3664997e-11 6.2157233e-11   -8.9996737 
    1210   -8.9996737     3.496604 -0.011503981    2.4876534 0.0070466255    2.4876534            0            0            0    29.233355    29.221976    29.239044    29.239044 -3.3833694e-12 1.777146e-11 5.1711776e-12   -8.9996737 
    1220   -8.9996737     3.496604 -0.011503981    2.4876534 0.0070466255    2.4876534            0            0            0    29.233355    29.221976    29.239044    29.239044 -6.4598354e-11 -3.2821789e-11 8.9516897e-11   -8.9996737 
    1230   -8.9996737     3.496604 -0.011503981    2.4876534 0.0070466255    2.4876534            0            0            0    29.233355    29.221976    29.239044    29.239044 -2.2243809e-11 -9.4026966e-11 4.1128012e-11   -8.9996737 
    1240   -8.9996737     3.496604 -0.011503981    2.4876534 0.0070466255    2.4876534            0            0            0    29.233355    29.221976    29.239044    29.239044 -7.0134599e-11 -3.794896e-11 -1.6532982e-11   -8.9996737 
    1250   -8.9996737     3.496604 -0.011503981    2.4876534 0.0070466255    2.4876534            0            0            0    29.233355    29.221976    29.239044    29.239044 -1.1806965e-11 -2.7817586e-10 5.8582371e-11   -8.9996737 
    1260   -8.9996737     3.496604 -0.011503981    2.4876534 0.0070466255    2.4876534            0            0            0    29.233355    29.221976    29.239044    29.239044 -1.0037325e-12 8.7769449e-11 -8.0987622e-12   -8.9996737 
    1270   -8.9996737     3.496604 -0.011503981    2.4876534 0.0070466255    2.4876534            0            0            0    29.233355    29.221976    29.239044    29.239044 -2.6381267e-11 1.340025e-10 8.845671e-11   -8.9996737 
    1280   -8.9996737     3.496604 -0.011503981    2.4876534 0.0070466255    2.4876534            0            0            0    29.233355    29.221976    29.239044    29.239044 8.7583363e-11 -7.0499919e-11 1.0227787e-10   -8.9996737 
    1290   -8.9996737     3.496604 -0.011503981    2.4876534 0.0070466255    2.4876534            0            0            0    29.233355    29.221976    29.239044    29.239044 -1.3390682e-10 1.1643951e-11 2.5302157e-11   -8.9996737 
    1300   -8.9996737     3.496604 -0.011503981    2.4876534 0.0070466255    2.4876534            0            0            0    29.233355    29.221976    29.239044    29.239044 -1.8662535e-11 3.3934533e-11 4.2126841e-11   -8.9996737 
    1310   -8.9996737     3.496604 -0.011503981    2.4876534 0.0070466255    2.4876534            0            0            0    29.233355    29.221976    29.239044    29.239044 -7.1795228e-12 7.2833286e-11 4.3060288e-11   -8.9996737 
    1320   -8.9996737     3.496604 -0.011503981    2.4876534 0.0070466255    2.4876534            0            0            0    29.233355    29.221976    29.239044    29.239044 -3.3103181e-12  3.86669e-11 3.5946273e-11   -8.9996737 
    1330   -8.9996737     3.496604 -0.011503981    2.4876534 0.0070466255    2.4876534            0            0            0    29.233355    29.221976    29.239044    29.239044 -1.5503474e-11 3.0369956e-10 3.4483738e-11   -8.9996737 
    1340   -8.9996737     3.496604 -0.011503981    2.4876534 0.0070466255    2.4876534            0            0            0    29.233355    29.221976    29.239044    29.239044 -6.3752291e-11 -2.2933333e-11 3.7917275e-11   -8.9996737 
    1350   -8.9996737     3.496604 -0.011503981    2.4876534 0.0070466255    2.4876534            0            0            0    29.233355    29.221976    29.239044    29.239044 -1.3063384e-10 1.7861887e-10 9.0043973e-11   -8.9996737 
    1360   -8.9996737     3.496604 -0.011503981    2.4876534 0.0070466255    2.4876534            0            0            0    29.233355    29.221976    29.239044    29.239044 -1.697085e-11 5.230197e-11 4.7853762e-11   -8.9996737 
    1370   -8.9996737     3.496604 -0.011503981    2.4876534 0.0070466255    2.4876534            0            0            0    29.233355    29.221976    29.239044    29.239044 2.9451873e-12 2.6946477e-10 4.5027267e-11   -8.9996737 
    1380   -8.9996737     3.496604 -0.011503981    2.4876534 0.0070466255    2.4876534            0            0            0    29.233355    29.221976    29.239044    29.239044 3.5678209e-12 -3.4064793e-11 3.5119448e-11   -8.9996737 
    1390   -8.9996737     3.496604 -0.011503981    2.4876534 0.0070466255    2.4876534            0            0            0    29.233355    29.221976    29.239044    29.239044 -2.158597e-12 2.8987916e-11 2.9092275e-11   -8.9996737 
    1400   -8.9996737     3.496604 -0.011503981    2.4876534 0.0070466255    2.4876534            0            0            0    29.233355    29.221976    29.239044    29.239044 -8.344446e-12 4.8762565e-11 3.4406789e-11   -8.9996737 
    1410   -8.9996737     3.496604 -0.011503981    2.4876534 0.0070466255    2.4876534            0            0            0    29.233355    29.221976    29.239044    29.239044 -1.1284855e-11 -1.0786925e-10 1.7395013e-11   -8.9996737 
    1420   -8.9996737     3.496604 -0.011503981    2.4876534 0.0070466255    2.4876534            0            0            0    29.233355    29.221976    29.239044    29.239044 -2.2466106e-11 5.1815129e-11 4.343246e-11   -8.9996737 
    1430   -8.9996737     3.496604 -0.011503981    2.4876534 0.0070466255    2.4876534            0            0            0    29.233355    29.221976    29.239044    29.239044 3.7639655e-12 -7.5467408e-11 9.5083884e-11   -8.9996737 
    1440   -8.9996737     3.496604 -0.011503981    2.4876534 0.0070466255    2.4876534            0            0            0    29.233355    29.221976    29.239044    29.239044 -1.1742778e-10 9.3294442e-12 -2.1612123e-11   -8.9996737 
    1450   -8.9996737     3.496604 -0.011503981    2.4876534 0.0070466255    2.4876534            0            0            0    29.233355    29.221976    29.239044    29.239044 1.9332821e-12 6.0438201e-11  2.85139e-11   -8.9996737 
    1460   -8.9996737     3.496604 -0.011503981    2.4876534 0.0070466255    2.4876534            0            0            0    29.233355    29.221976    29.239044    29.239044 6.6990941e-13 7.0058845e-12 5.9321183e-12   -8.9996737 
    1470   -8.9996737     3.496604 -0.011503981    2.4876534 0.0070466255    2.4876534            0            0            0    29.233355    29.221976    29.239044    29.239044 -2.6102326e-12 -1.1234009e-10 8.8290238e-12   -8.9996737 
    1480   -8.9996737     3.496604 -0.011503981    2.4876534 0.0070466255    2.4876534            0            0            0    29.233355    29.221976    29.239044    29.239044 -4.0996746e-12 2.3888909e-11 4.8496513e-11   -8.9996737 
    1490   -8.9996737     3.496604 -0.011503981    2.4876534 0.0070466255    2.4876534            0            0            0    29.233355    29.221976    29.239044    29.239044 5.389728e-11 -4.9199616e-11 6.2950865e-11   -8.9996737 
    1500   -8.9996737     3.496604 -0.011503981    2.4876534 0.0070466255    2.4876534            0            0            0    29.233355    29.221976    29.239044    29.239044 -9.1586977e-12 4.0471933e-11 1.1027353e-11   -8.9996737 
    1510   -8.9996737     3.496604 -0.011503981    2.4876534 0.0070466255    2.4876534            0            0            0    29.233355    29.221976    29.239044    29.239044 5.7733794e-11 -1.1368594e-11 -1.8008593e-11   -8.9996737 
    1520   -8.9996737     3.496604 -0.011503981    2.4876534 0.0070466255    2.4876534            0            0            0    29.233355    29.221976    29.239044    29.239044 -1.8298913e-11 1.7823262e-11 3.3817852e-11   -8.9996737 
    1530   -8.9996737     3.496604 -0.011503981    2.4876534 0.0070466255    2.4876534            0            0            0    29.233355    29.221976    29.239044    29.239044 -1.2072829e-11 6.4597725e-11 2.1880338e-10   -8.9996737 
    1540   -8.9996737     3.496604 -0.011503981    2.4876534 0.0070466255    2.4876534            0            0            0    29.233355    29.221976    29.239044    29.239044 7.0230471e-12 4.1732792e-11 -1.5849996e-11   -8.9996737 
    1550   -8.9996737     3.496604 -0.011503981    2.4876534 0.0070466255    2.4876534            0            0            0    29.233355    29.221976    29.239044    29.239044 1.5464245e-11 -7.4923987e-11 2.890468e-11   -8.9996737 
    1560   -8.9996737     3.496604 -0.011503981    2.4876534 0.0070466255    2.4876534            0            0            0    29.233355    29.221976    29.239044    29.239044 -1.0905642e-11 4.2724328e-13 3.316806e-11   -8.9996737 
    1570   -8.9996737     3.496604 -0.011503981    2.4876534 0.0070466255    2.4876534            0            0            0    29.233355    29.221976    29.239044    29.239044 -5.5071382e-12 1.2372955e-11 1.6054188e-11   -8.9996737 
    1580   -8.9996737     3.496604 -0.011503981    2.4876534 0.0070466255    2.4876534            0            0            0    29.233355    29.221976    29.239044    29.239044 -1.7166806e-11 6.6389934e-11 2.5729651e-11   -8.9996737 
    1590   -8.9996737     3.496604 -0.011503981    2.4876534 0.0070466255    2.4876534            0            0            0    29.233355    29.221976    29.239044    29.239044 -1.1845879e-11 3.8586933e-11 3.0933017e-11   -8.9996737 
    1600   -8.9996737     3.496604 -0.011503981    2.4876534 0.0070466255    2.4876534            0            0            0    29.233355    29.221976    29.239044    29.239044 1.0488961e-11 -4.1856765e-12 3.6947616e-11   -8.9996737 
    1610   -8.9996737     3.496604 -0.011503981    2.4876534 0.0070466255    2.4876534            0            0            0    29.233355    29.221976    29.239044    29.239044 1.1001829e-10 -7.6930697e-11 1.0931795e-10   -8.9996737 
    1620   -8.9996737     3.496604 -0.011503981    2.4876534 0.0070466255    2.4876534            0            0            0    29.233355    29.221976    29.239044    29.239044 -1.2173542e-12 1.081617e-10 3.6039316e-11   -8.9996737 
    1630   -8.9996737     3.496604 -0.011503981    2.4876534 0.0070466255    2.4876534            0            0            0    29.233355    29.221976    29.239044    29.239044 -6.7722712e-12 1.2946578e-10 3.7278045e-11   -8.9996737 
    1640   -8.9996737     3.496604 -0.011503981    2.4876534 0.0070466255    2.4876534            0            0            0    29.233355    29.221976    29.239044    29.239044 -2.2726375e-12 3.0348053e-10 6.7545679e-11   -8.9996737 
    1650   -8.9996737     3.496604 -0.011503981    2.4876534 0.0070466255    2.4876534            0            0            0    29.233355    29.221976    29.239044    29.239044 -7.6119212e-13 4.7091815e-11 2.9415159e-11   -8.9996737 
    1660   -8.9996737     3.496604 -0.011503981    2.4876534 0.0070466255    2.4876534            0            0            0    29.233355    29.221976    29.239044    29.239044 -1.7458885e-11 3.3716762e-11 -1.8070454e-12   -8.9996737 
    1670   -8.9996737     3.496604 -0.011503981    2.4876534 0.0070466255    2.4876534            0            0            0    29.233355    29.221976    29.239044    29.239044 2.3180085e-11 -1.6617978e-10 6.041406e-11   -8.9996737 
    1680   -8.9996737     3.496604 -0.011503981    2.4876534 0.0070466255    2.4876534            0            0            0    29.233355    29.221976    29.239044    29.239044 -5.0851883e-11 -4.0685932e-11 -3.5710396e-11   -8.9996737 
    1690   -8.9996737     3.496604 -0.011503981    2.4876534 0.0070466255    2.4876534            0            0            0    29.233355    29.221976    29.239044    29.239044 -1.1513691e-11 2.6482042e-11 1.041855e-10   -8.9996737 
    1700   -8.9996737     3.496604 -0.011503981    2.4876534 0.0070466255    2.4876534            0            0            0    29.233355    29.221976    29.239044    29.239044 9.5472905e-11 3.0646595e-10 -6.6481971e-11   -8.9996737 
    1710   -8.9996737     3.496604 -0.011503981    2.4876534 0.0070466255    2.4876534            0            0            0    29.233355    29.221976    29.239044    29.239044 -1.8244093e-11 2.0875826e-11 5.6469038e-11   -8.9996737 
    1720   -8.9996737     3.496604 -0.011503981    2.4876534 0.0070466255    2.4876534            0            0            0    29.233355    29.221976    29.239044    29.239044 -1.578713e-11 -8.8422007e-11 2.6518253e-11   -8.9996737 
    1730   -8.9996737     3.496604 -0.011503981    2.4876534 0.0070466255    2.4876534            0            0            0    29.233355    29.221976    29.239044    29.239044 4.7519562e-11 -9.9022871e-12 7.2126411e-11   -8.9996737 
    1740   -8.9996737     3.496604 -0.011503981    2.4876534 0.0070466255    2.4876534            0            0            0    29.233355    29.221976    29.239044    29.239044 -6.5500682e-11 -2.0267526e-11 -6.0166113e-12   -8.9996737 
    1750   -8.9996737     3.496604 -0.011503981    2.4876534 0.0070466255    2.4876534            0            0            0    29.233355    29.221976    29.239044    29.239044 -2.4364434e-11 3.9264638e-11 2.4745911e-11   -8.9996737 
    1760   -8.9996737     3.496604 -0.011503981    2.4876534 0.0070466255    2.4876534            0            0            0    29.233355    29.221976    29.239044    29.239044 -7.3933959e-12 4.9826776e-11 2.1160034e-10   -8.9996737 
    1770   -8.9996737     3.496604 -0.011503981    2.4876534 0.0070466255    2.4876534            0            0            0    29.233355    29.221976    29.239044    29.239044 -3.3021203e-11 5.7638111e-11 4.3384179e-11   -8.9996737 
    1780   -8.9996737     3.496604 -0.011503981    2.4876534 0.0070466255    2.4876534            0            0            0    29.233355    29.221976    29.239044    29.239044 -4.5396799e-12 -1.721798e-11 5.1963244e-12   -8.9996737 
    1790   -8.9996737     3.496604 -0.011503981    2.4876534 0.0070466255    2.4876534            0            0            0    29.233355    29.221976    29.239044    29.239044 -1.0951661e-11 2.1183119e-11   2.8017e-11   -8.9996737 
    1800   -8.9996737     3.496604 -0.011503981    2.4876534 0.0070466255    2.4876534            0            0            0    29.233355    29.221976    29.239044    29.239044 4.6745042e-11 -1.1970356e-11 6.9024308e-11   -8.9996737 
    1810   -8.9996737     3.496604 -0.011503981    2.4876534 0.0070466255    2.4876534            0            0            0    29.233355    29.221976    29.239044    29.239044 -1.4792928e-10  4.49815e-11 5.3575653e-11   -8.9996737 
    1820   -8.9996737     3.496604 -0.011503981    2.4876534 0.0070466255    2.4876534            0            0            0    29.233355    29.221976    29.239044    29.239044 -5.1660854e-12 4.7604809e-11 3.0885741e-11   -8.9996737 
    1830   -8.9996737     3.496604 -0.011503981    2.4876534 0.0070466255    2.4876534            0            0            0    29.233355    29.221976    29.239044    29.239044 -7.4714766e-12 1.5997105e-11 1.0857361e-11   -8.9996737 
    1840   -8.9996737     3.496604 -0.011503981    2.4876534 0.0070466255    2.4876534            0            0            0    29.233355    29.221976    29.239044    29.239044 5.9096119e-12 5.9978267e-11 2.2086893e-11   -8.9996737 
    1850   -8.9996737     3.496604 -0.011503981    2.4876534 0.0070466255    2.4876534            0            0            0    29.233355    29.221976    29.239044    29.239044 2.992589e-12 5.4066015e-11 4.2001107e-11   -8.9996737 
    1860   -8.9996737     3.496604 -0.011503981    2.4876534 0.0070466255    2.4876534            0            0            0    29.233355    29.221976    29.239044    29.239044 -2.1464008e-11 8.1467171e-11 5.2338433e-11   -8.9996737 
    1870   -8.9996737     3.496604 -0.011503981    2.4876534 0.0070466255    2.4876534            0            0            0    29.233355    29.221976    29.239044    29.239044 -1.0894389e-11 5.9493186e-11 3.0560342e-11   -8.9996737 
    1880   -8.9996737     3.496604 -0.011503981    2.4876534 0.0070466255    2.4876534            0            0            0    29.233355    29.221976    29.239044    29.239044 -2.0965097e-11 8.0936071e-11 5.2338433e-11   -8.9996737 
    1890   -8.9996737     3.496604 -0.011503981    2.4876534 0.0070466255    2.4876534            0            0            0    29.233355    29.221976    29.239044    29.239044 -1.606871e-11 5.1253099e-11 -2.3356301e-12   -8.9996737 
    1900   -8.9996737     3.496604 -0.011503981    2.4876534 0.0070466255    2.4876534            0            0            0    29.233355    29.221976    29.239044    29.239044 -1.6982103e-11 -1.1909073e-10 1.3519899e-11   -8.9996737 
    1910   -8.9996737     3.496604 -0.011503981    2.4876534 0.0070466255    2.4876534            0            0            0    29.233355    29.221976    29.239044    29.239044 -2.2325284e-11 2.6643736e-11 3.5087763e-11   -8.9996737 
    1920   -8.9996737     3.496604 -0.011503981    2.4876534 0.0070466255    2.4876534            0            0            0    29.233355    29.221976    29.239044    29.239044 -2.1219708e-11 2.245127e-11 2.5139206e-11   -8.9996737 
    1930   -8.9996737     3.496604 -0.011503981    2.4876534 0.0070466255    2.4876534            0            0            0    29.233355    29.221976    29.239044    29.239044 1.1534437e-11 5.7548337e-12 2.1836935e-11   -8.9996737 
    1940   -8.9996737     3.496604 -0.011503981    2.4876534 0.0070466255    2.4876534            0            0            0    29.233355    29.221976    29.239044    29.239044 1.8778335e-12 2.4218835e-12 1.7716891e-11   -8.9996737 
    1950   -8.9996737     3.496604 -0.011503981    2.4876534 0.0070466255    2.4876534            0            0            0    29.233355    29.221976    29.239044    29.239044 6.1066367e-12 6.8288514e-12 -4.812585e-12   -8.9996737 
    1960   -8.9996737     3.496604 -0.011503981    2.4876534 0.0070466255    2.4876534            0            0            0    29.233355    29.221976    29.239044    29.239044 -2.5889208e-12 3.1647688e-11 4.1779816e-11   -8.9996737 
    1970   -8.9996737     3.496604 -0.011503981    2.4876534 0.0070466255    2.4876534            0            0            0    29.233355    29.221976    29.239044    29.239044 8.4422668e-12 4.9620573e-11 2.3974911e-12   -8.9996737 
    1980   -8.9996737     3.496604 -0.011503981    2.4876534 0.0070466255    2.4876534            0            0            0    29.233355    29.221976    29.239044    29.239044 -2.0639195e-12 1.778529e-11 -4.3119635e-11   -8.9996737 
    1990   -8.9996737     3.496604 -0.011503981    2.4876534 0.0070466255    2.4876534            0            0            0    29.233355    29.221976    29.239044    29.239044 -6.4122955e-12 1.9411279e-11 -9.8172911e-12   -8.9996737 
    2000   -8.9996737     3.496604 -0.011503981    2.4876534 0.0070466255    2.4876534            0            0            0    29.233355    29.221976    29.239044    29.239044 -8.5092829e-11 7.4312669e-11 -4.9927866e-11   -8.9996737 
    2010   -8.9996737     3.496604 -0.011503981    2.4876534 0.0070466255    2.4876534            0            0            0    29.233355    29.221976    29.239044    29.239044 9.1635636e-11 -7.4472099e-11 -5.6623439e-11   -8.9996737 
    2020   -8.9996737     3.496604 -0.011503981    2.4876534 0.0070466255    2.4876534            0            0            0    29.233355    29.221976    29.239044    29.239044 -7.6510621e-11 2.5922276e-10 2.5730154e-11   -8.9996737 
    2030   -8.9996737     3.496604 -0.011503981    2.4876534 0.0070466255    2.4876534            0            0            0    29.233355    29.221976    29.239044    29.239044 3.3432604e-13 1.0318541e-10 4.0470173e-11   -8.9996737 
    2040   -8.9996737     3.496604 -0.011503981    2.4876534 0.0070466255    2.4876534            0            0            0    29.233355    29.221976    29.239044    29.239044 9.1876165e-12 3.5435039e-11 3.7252395e-11   -8.9996737 
    2050   -8.9996737     3.496604 -0.011503981    2.4876534 0.0070466255    2.4876534            0            0            0    29.233355    29.221976    29.239044    29.239044 5.9735853e-11 1.2800123e-10 9.721482e-11   -8.9996737 
    2060   -8.9996737     3.496604 -0.011503981    2.4876534 0.0070466255    2.4876534            0            0            0    29.233355    29.221976    29.239044    29.239044 -1.518738e-12 2.4848585e-10 6.2026973e-12   -8.9996737 
    2070   -8.9996737     3.496604 -0.011503981    2.4876534 0.0070466255    2.4876534            0            0            0    29.233355    29.221976    29.239044    29.239044 -3.4549119e-12 1.4378157e-11 2.6759159e-11   -8.9996737 
    2080   -8.9996737     3.496604 -0.011503981    2.4876534 0.0070466255    2.4876534            0            0            0    29.233355    29.221976    29.239044    29.239044 -2.6902873e-11 4.5197008e-11 7.0777539e-11   -8.9996737 
    2090   -8.9996737     3.496604 -0.011503981    2.4876534 0.0070466255    2.4876534            0            0            0    29.233355    29.221976    29.239044    29.239044 6.6052968e-12 1.9606166e-11 1.1397513e-11   -8.9996737 
    2100   -8.9996737     3.496604 -0.011503981    2.4876534 0.0070466255    2.4876534            0            0            0    29.233355    29.221976    29.239044    29.239044 5.4414423e-12 4.1706639e-11 -9.0357301e-12   -8.9996737 
    2110   -8.9996737     3.496604 -0.011503981    2.4876534 0.0070466255    2.4876534            0            0            0    29.233355    29.221976    29.239044    29.239044 -4.8472875e-12 1.9586803e-12 1.0611928e-12   -8.9996737 
    2120   -8.9996737     3.496604 -0.011503981    2.4876534 0.0070466255    2.4876534            0            0            0    29.233355    29.221976    29.239044    29.239044 -1.3348253e-10 3.0781332e-10 -9.9906025e-11   -8.9996737 
    2130   -8.9996737     3.496604 -0.011503981    2.4876534 0.0070466255    2.4876534            0            0            0    29.233355    29.221976    29.239044    29.239044 -7.7924748e-12 1.5004638e-10 5.4484457e-11   -8.9996737 
    2140   -8.9996737     3.496604 -0.011503981    2.4876534 0.0070466255    2.4876534            0            0            0    29.233355    29.221976    29.239044    29.239044 -3.3935665e-11 6.6148525e-11 5.5307258e-11   -8.9996737 
    2150   -8.9996737     3.496604 -0.011503981    2.4876534 0.0070466255    2.4876534            0            0            0    29.233355    29.221976    29.239044    29.239044 4.2749475e-13 1.2308756e-10 2.5591344e-11   -8.9996737 
    2160   -8.9996737     3.496604 -0.011503981    2.4876534 0.0070466255    2.4876534            0            0            0    29.233355    29.221976    29.239044    29.239044 -1.8361277e-11 2.2735176e-12 2.1651854e-11   -8.9996737 
    2170   -8.9996737     3.496604 -0.011503981    2.4876534 0.0070466255    2.4876534            0            0            0    29.233355    29.221976    29.239044    29.239044 -2.2938551e-11 4.9041946e-11 -4.625644e-11   -8.9996737 
    2180   -8.9996737     3.496604 -0.011503981    2.4876534 0.0070466255    2.4876534            0            0            0    29.233355    29.221976    29.239044    29.239044 -1.142794e-11 -7.980321e-12 1.253314e-11   -8.9996737 
    2190   -8.9996737     3.496604 -0.011503981    2.4876534 0.0070466255    2.4876534            0            0            0    29.233355    29.221976    29.239044    29.239044 -1.6420828e-11 2.4156219e-11 8.9753779e-12   -8.9996737 
    2200   -8.9996737     3.496604 -0.011503981    2.4876534 0.0070466255    2.4876534            0            0            0    29.233355    29.221976    29.239044    29.239044 1.2114987e-10 1.7597519e-10 -4.0915271e-11   -8.9996737 
    2210   -8.9996737     3.496604 -0.011503981    2.4876534 0.0070466255    2.4876534            0            0            0    29.233355    29.221976    29.239044    29.239044 3.9665226e-11 -2.2984129e-12 8.1304974e-11   -8.9996737 
    2220   -8.9996737     3.496604 -0.011503981    2.4876534 0.0070466255    2.4876534            0            0            0    29.233355    29.221976    29.239044    29.239044 -2.7610377e-11 7.0723976e-11 2.0788315e-11   -8.9996737 
    2230   -8.9996737     3.496604 -0.011503981    2.4876534 0.0070466255    2.4876534            0            0            0    29.233355    29.221976    29.239044    29.239044 -1.0214673e-11 4.3170683e-11 1.2861557e-11   -8.9996737 
    2240   -8.9996737     3.496604 -0.011503981    2.4876534 0.0070466255    2.4876534            0            0            0    29.233355    29.221976    29.239044    29.239044 -2.3542764e-11 4.9548653e-11 1.8932736e-10   -8.9996737 
    2250   -8.9996737     3.496604 -0.011503981    2.4876534 0.0070466255    2.4876534            0            0            0    29.233355    29.221976    29.239044    29.239044 -2.533061e-10 5.234296e-11 2.797073e-11   -8.9996737 
    2260   -8.9996737     3.496604 -0.011503981    2.4876534 0.0070466255    2.4876534            0            0            0    29.233355    29.221976    29.239044    29.239044 -2.7564233e-11 9.1249256e-11 7.5719378e-11   -8.9996737 
    2270   -8.9996737     3.496604 -0.011503981    2.4876534 0.0070466255    2.4876534            0            0            0    29.233355    29.221976    29.239044    29.239044 4.3891891e-11 5.2360562e-12 -2.8036614e-11   -8.9996737 
    2280   -8.9996737     3.496604 -0.011503981    2.4876534 0.0070466255    2.4876534            0            0            0    29.233355    29.221976    29.239044    29.239044 -1.520624e-12 3.6939067e-11 4.8464828e-11   -8.9996737 
    2290   -8.9996737     3.496604 -0.011503981    2.4876534 0.0070466255    2.4876534            0            0            0    29.233355    29.221976    29.239044    29.239044 -4.0174447e-12 3.8075197e-11 -2.0248163e-12   -8.9996737 
    2300   -8.9996737     3.496604 -0.011503981    2.4876534 0.0070466255    2.4876534            0            0            0    29.233355    29.221976    29.239044    29.239044 -2.1482617e-11 9.0183789e-11 7.197553e-11   -8.9996737 
    2310   -8.9996737     3.496604 -0.011503981    2.4876534 0.0070466255    2.4876534            0            0            0    29.233355    29.221976    29.239044    29.239044 -7.8080658e-13 2.8218174e-11 6.0804841e-12   -8.9996737 
    2320   -8.9996737     3.496604 -0.011503981    2.4876534 0.0070466255    2.4876534            0            0            0    29.233355    29.221976    29.239044    29.239044 -2.2973316e-11 5.3364924e-11 9.5044655e-12   -8.9996737 
    2330   -8.9996737     3.496604 -0.011503981    2.4876534 0.0070466255    2.4876534            0            0            0    29.233355    29.221976    29.239044    29.239044 7.3360613e-12 6.5020945e-11 2.9941732e-11   -8.9996737 
    2340   -8.9996737     3.496604 -0.011503981    2.4876534 0.0070466255    2.4876534            0            0            0    29.233355    29.221976    29.239044    29.239044 1.0630009e-10 -6.1770728e-11 -5.1290317e-11   -8.9996737 
    2350   -8.9996737     3.496604 -0.011503981    2.4876534 0.0070466255    2.4876534            0            0            0    29.233355    29.221976    29.239044    29.239044 1.3940101e-12 3.6071755e-11 1.2739846e-11   -8.9996737 
    2360   -8.9996737     3.496604 -0.011503981    2.4876534 0.0070466255    2.4876534            0            0            0    29.233355    29.221976    29.239044    29.239044 -2.5250606e-11 1.0349145e-11 1.6338346e-11   -8.9996737 
    2370   -8.9996737     3.496604 -0.011503981    2.4876534 0.0070466255    2.4876534            0            0            0    29.233355    29.221976    29.239044    29.239044 -9.4416112e-11 -4.7060885e-11 -2.9967382e-11   -8.9996737 
    2380   -8.9996737     3.496604 -0.011503981    2.4876534 0.0070466255    2.4876534            0            0            0    29.233355    29.221976    29.239044    29.239044 -2.3502278e-11 3.1741435e-10 5.4520165e-11   -8.9996737 
    2390   -8.9996737     3.496604 -0.011503981    2.4876534 0.0070466255    2.4876534            0            0            0    29.233355    29.221976    29.239044    29.239044 -4.6511428e-12 -8.9733159e-11 2.5813642e-11   -8.9996737 
    2400   -8.9996737     3.496604 -0.011503981    2.4876534 0.0070466255    2.4876534            0            0            0    29.233355    29.221976    29.239044    29.239044 -1.710331e-11 5.9988829e-11 5.032619e-12   -8.9996737 
    2410   -8.9996737     3.496604 -0.011503981    2.4876534 0.0070466255    2.4876534            0            0            0    29.233355    29.221976    29.239044    29.239044 -2.2410909e-11 3.3691112e-11 2.1916398e-11   -8.9996737 
    2420   -8.9996737     3.496604 -0.011503981    2.4876534 0.0070466255    2.4876534            0            0            0    29.233355    29.221976    29.239044    29.239044 1.1401304e-10 1.4626657e-10  1.04186e-10   -8.9996737 
    2430   -8.9996737     3.496604 -0.011503981    2.4876534 0.0070466255    2.4876534            0            0            0    29.233355    29.221976    29.239044    29.239044 -1.6250647e-11 -1.7354904e-10 2.1658996e-10   -8.9996737 
    2440   -8.9996737     3.496604 -0.011503981    2.4876534 0.0070466255    2.4876534            0            0            0    29.233355    29.221976    29.239044    29.239044 2.3495866e-11 1.0710554e-10 -1.8794681e-11   -8.9996737 
    2450   -8.9996737     3.496604 -0.011503981    2.4876534 0.0070466255    2.4876534            0            0            0    29.233355    29.221976    29.239044    29.239044 1.0224228e-11 -7.4419794e-11 5.092418e-11   -8.9996737 
    2460   -8.9996737     3.496604 -0.011503981    2.4876534 0.0070466255    2.4876534            0            0            0    29.233355    29.221976    29.239044    29.239044 3.8145105e-12 6.2103168e-11 4.1587695e-11   -8.9996737 
    2470   -8.9996737     3.496604 -0.011503981    2.4876534 0.0070466255    2.4876534            0            0            0    29.233355    29.221976    29.239044    29.239044 -9.796545e-13 9.0256463e-11 1.9387138e-11   -8.9996737 
    2480   -8.9996737     3.496604 -0.011503981    2.4876534 0.0070466255    2.4876534            0            0            0    29.233355    29.221976    29.239044    29.239044 -1.8198703e-12 2.6912052e-12 -9.47781e-12   -8.9996737 
    2490   -8.9996737     3.496604 -0.011503981    2.4876534 0.0070466255    2.4876534            0            0            0    29.233355    29.221976    29.239044    29.239044 5.5700051e-13 1.2847726e-11 8.2924425e-11   -8.9996737 
    2500   -8.9996737     3.496604 -0.011503981    2.4876534 0.0070466255    2.4876534            0            0            0    29.233355    29.221976    29.239044    29.239044 1.6531285e-11 8.1903467e-11 2.0950763e-11   -8.9996737 
    2510   -8.9996737     3.496604 -0.011503981    2.4876534 0.0070466255    2.4876534            0            0            0    29.233355    29.221976    29.239044    29.239044 -3.8399464e-11 2.9805688e-11 1.4382432e-11   -8.9996737 
    2520   -8.9996737     3.496604 -0.011503981    2.4876534 0.0070466255    2.4876534            0            0            0    29.233355    29.221976    29.239044    29.239044 -1.3523168e-11 1.216982e-10 2.4815316e-11   -8.9996737 
    2530   -8.9996737     3.496604 -0.011503981    2.4876534 0.0070466255    2.4876534            0            0            0    29.233355    29.221976    29.239044    29.239044 -9.9782303e-13 3.7428674e-11 2.3292428e-11   -8.9996737 
    2540   -8.9996737     3.496604 -0.011503981    2.4876534 0.0070466255    2.4876534            0            0            0    29.233355    29.221976    29.239044    29.239044 -1.4905987e-11 4.577664e-11 1.3267425e-12   -8.9996737 
    2550   -8.9996737     3.496604 -0.011503981    2.4876534 0.0070466255    2.4876534            0            0            0    29.233355    29.221976    29.239044    29.239044 3.2708189e-11 1.301465e-10 -9.9033936e-11   -8.9996737 
    2560   -8.9996737     3.496604 -0.011503981    2.4876534 0.0070466255    2.4876534            0            0            0    29.233355    29.221976    29.239044    29.239044 -1.0355432e-11 3.671174e-12 7.0410899e-14   -8.9996737 
    2570   -8.9996737     3.496604 -0.011503981    2.4876534 0.0070466255    2.4876534            0            0            0    29.233355    29.221976    29.239044    29.239044  4.25439e-11 9.0708853e-11 7.6933966e-12   -8.9996737 
    2580   -8.9996737     3.496604 -0.011503981    2.4876534 0.0070466255    2.4876534            0            0            0    29.233355    29.221976    29.239044    29.239044 -1.3971534e-11 3.129332e-10 6.7031679e-11   -8.9996737 
    2590   -8.9996737     3.496604 -0.011503981    2.4876534 0.0070466255    2.4876534            0            0            0    29.233355    29.221976    29.239044    29.239044 -1.1256062e-11 4.4267081e-11 4.3691975e-11   -8.9996737 
    2600   -8.9996737     3.496604 -0.011503981    2.4876534 0.0070466255    2.4876534            0            0            0    29.233355    29.221976    29.239044    29.239044 -8.0901369e-11 2.3053559e-10 1.5465603e-10   -8.9996737 
    2610   -8.9996737     3.496604 -0.011503981    2.4876534 0.0070466255    2.4876534            0            0            0    29.233355    29.221976    29.239044    29.239044 -1.3166184e-10 9.2967534e-13 -4.2924496e-11   -8.9996737 
    2620   -8.9996737     3.496604 -0.011503981    2.4876534 0.0070466255    2.4876534            0            0            0    29.233355    29.221976    29.239044    29.239044 -1.4893829e-10 1.9437884e-10 -4.6065325e-11   -8.9996737 
    2630   -8.9996737     3.496604 -0.011503981    2.4876534 0.0070466255    2.4876534            0            0            0    29.233355    29.221976    29.239044    29.239044 -2.715346e-11 4.3075628e-11 2.2051185e-11   -8.9996737 
    2640   -8.9996737     3.496604 -0.011503981    2.4876534 0.0070466255    2.4876534            0            0            0    29.233355    29.221976    29.239044    29.239044 -9.0229933e-11 9.965154e-12 2.8116078e-11   -8.9996737 
    2650   -8.9996737     3.496604 -0.011503981    2.4876534 0.0070466255    2.4876534            0            0            0    29.233355    29.221976    29.239044    29.239044 -2.4241467e-11 4.5417796e-11 3.7340409e-11   -8.9996737 
    2660   -8.9996737     3.496604 -0.011503981    2.4876534 0.0070466255    2.4876534            0            0            0    29.233355    29.221976    29.239044    29.239044 -6.5729832e-12 9.4666448e-11 5.0707415e-11   -8.9996737 
    2670   -8.9996737     3.496604 -0.011503981    2.4876534 0.0070466255    2.4876534            0            0            0    29.233355    29.221976    29.239044    29.239044 6.0362007e-11 1.5240188e-10 1.4746054e-12   -8.9996737 
    2680   -8.9996737     3.496604 -0.011503981    2.4876534 0.0070466255    2.4876534            0            0            0    29.233355    29.221976    29.239044    29.239044 -9.4984303e-12 1.1132491e-10 3.353822e-11   -8.9996737 
    2690   -8.9996737     3.496604 -0.011503981    2.4876534 0.0070466255    2.4876534            0            0            0    29.233355    29.221976    29.239044    29.239044 -1.3282262e-11 -5.0268604e-11 6.3814907e-11   -8.9996737 
    2700   -8.9996737     3.496604 -0.011503981    2.4876534 0.0070466255    2.4876534            0            0            0    29.233355    29.221976    29.239044    29.239044 -5.9115608e-12 -9.8037873e-11 1.4767177e-11   -8.9996737 
    2710   -8.9996737     3.496604 -0.011503981    2.4876534 0.0070466255    2.4876534            0            0            0    29.233355    29.221976    29.239044    29.239044 -1.7120787e-11 3.0456033e-10 -9.2489746e-12   -8.9996737 
    2720   -8.9996737     3.496604 -0.011503981    2.4876534 0.0070466255    2.4876534            0            0            0    29.233355    29.221976    29.239044    29.239044 -2.3347248e-11 7.1505034e-11 3.7081397e-11   -8.9996737 
    2730   -8.9996737     3.496604 -0.011503981    2.4876534 0.0070466255    2.4876534            0            0            0    29.233355    29.221976    29.239044    29.239044 -2.9512226e-11 5.8908525e-11 3.3726318e-11   -8.9996737 
    2740   -8.9996737     3.496604 -0.011503981    2.4876534 0.0070466255    2.4876534            0            0            0    29.233355    29.221976    29.239044    29.239044 -2.8427898e-11 7.0696063e-11 1.106457e-12   -8.9996737 
    2750   -8.9996737     3.496604 -0.011503981    2.4876534 0.0070466255    2.4876534            0            0            0    29.233355    29.221976    29.239044    29.239044 1.2325805e-11 2.5466214e-10 4.2555845e-11   -8.9996737 
    2760   -8.9996737     3.496604 -0.011503981    2.4876534 0.0070466255    2.4876534            0            0            0    29.233355    29.221976    29.239044    29.239044 -6.5775096e-12 1.391596e-10 -1.0877478e-11   -8.9996737 
    2770   -8.9996737     3.496604 -0.011503981    2.4876534 0.0070466255    2.4876534            0            0            0    29.233355    29.221976    29.239044    29.239044 -4.1094944e-11 9.1771303e-11 3.5164712e-11   -8.9996737 
    2780   -8.9996737     3.496604 -0.011503981    2.4876534 0.0070466255    2.4876534            0            0            0    29.233355    29.221976    29.239044    29.239044 -4.7094833e-12 5.9422021e-11 2.8645669e-11   -8.9996737 
    2790   -8.9996737     3.496604 -0.011503981    2.4876534 0.0070466255    2.4876534            0            0            0    29.233355    29.221976    29.239044    29.239044 -1.7242372e-11 7.2108808e-11 3.2120446e-11   -8.9996737 
    2800   -8.9996737     3.496604 -0.011503981    2.4876534 0.0070466255    2.4876534            0            0            0    29.233355    29.221976    29.239044    29.239044 4.8841778e-11 1.1498955e-10 9.1517069e-11   -8.9996737 
    2810   -8.9996737     3.496604 -0.011503981    2.4876534 0.0070466255    2.4876534            0            0            0    29.233355    29.221976    29.239044    29.239044 -2.3453996e-11 3.3502034e-10 3.9435133e-11   -8.9996737 
    2820   -8.9996737     3.496604 -0.011503981    2.4876534 0.0070466255    2.4876534            0            0            0    29.233355    29.221976    29.239044    29.239044 -1.6719898e-10 -4.5224921e-11 1.2657969e-10   -8.9996737 
    2830   -8.9996737     3.496604 -0.011503981    2.4876534 0.0070466255    2.4876534            0            0            0    29.233355    29.221976    29.239044    29.239044 1.1789626e-10 1.9598622e-10 -7.6113679e-11   -8.9996737 
    2840   -8.9996737     3.496604 -0.011503981    2.4876534 0.0070466255    2.4876534            0            0            0    29.233355    29.221976    29.239044    29.239044 -2.1315202e-10 -6.6046178e-11 -7.6335474e-11   -8.9996737 
    2850   -8.9996737     3.496604 -0.011503981    2.4876534 0.0070466255    2.4876534            0            0            0    29.233355    29.221976    29.239044    29.239044 -1.3315707e-11 4.7791901e-11 2.3030399e-11   -8.9996737 
    2860   -8.9996737     3.496604 -0.011503981    2.4876534 0.0070466255    2.4876534            0            0            0    29.233355    29.221976    29.239044    29.239044 -1.9992672e-11 3.0513821e-10 6.4788086e-12   -8.9996737 
    2870   -8.9996737     3.496604 -0.011503981    2.4876534 0.0070466255    2.4876534            0            0            0    29.233355    29.221976    29.239044    29.239044 -2.4652616e-11 8.1236827e-11 1.9976578e-11   -8.9996737 
    2880   -8.9996737     3.496604 -0.011503981    2.4876534 0.0070466255    2.4876534            0            0            0    29.233355    29.221976    29.239044    29.239044 -2.1205751e-11 6.9710562e-11  9.14537e-12   -8.9996737 
    2890   -8.9996737     3.496604 -0.011503981    2.4876534 0.0070466255    2.4876534            0            0            0    29.233355    29.221976    29.239044    29.239044 -2.0260736e-12 7.1199753e-11 9.3720428e-11   -8.9996737 
    2900   -8.9996737     3.496604 -0.011503981    2.4876534 0.0070466255    2.4876534            0            0            0    29.233355    29.221976    29.239044    29.239044 -3.000309e-11 5.8375413e-11 1.3584274e-11   -8.9996737 
    2910   -8.9996737     3.496604 -0.011503981    2.4876534 0.0070466255    2.4876534            0            0            0    29.233355    29.221976    29.239044    29.239044 -1.9849838e-11 6.7774766e-11 3.0492949e-12   -8.9996737 
    2920   -8.9996737     3.496604 -0.011503981    2.4876534 0.0070466255    2.4876534            0            0            0    29.233355    29.221976    29.239044    29.239044 -2.8628632e-11 1.0546949e-10 -1.4789306e-11   -8.9996737 
    2930   -8.9996737     3.496604 -0.011503981    2.4876534 0.0070466255    2.4876534            0            0            0    29.233355    29.221976    29.239044    29.239044 -4.502777e-11 -3.6507297e-11 -6.4586912e-12   -8.9996737 
    2940   -8.9996737     3.496604 -0.011503981    2.4876534 0.0070466255    2.4876534            0            0            0    29.233355    29.221976    29.239044    29.239044 -5.0832897e-12 7.5408564e-11 5.5718659e-11   -8.9996737 
    2950   -8.9996737     3.496604 -0.011503981    2.4876534 0.0070466255    2.4876534            0            0            0    29.233355    29.221976    29.239044    29.239044 -6.8788305e-12 6.5924971e-11 4.2674537e-11   -8.9996737 
    2960   -8.9996737     3.496604 -0.011503981    2.4876534 0.0070466255    2.4876534            0            0            0    29.233355    29.221976    29.239044    29.239044 -7.5432454e-11 5.5406337e-11 -3.3171078e-11   -8.9996737 
    2970   -8.9996737     3.496604 -0.011503981    2.4876534 0.0070466255    2.4876534            0            0            0    29.233355    29.221976    29.239044    29.239044 -1.13385e-10 1.8937766e-11 -3.4926824e-11   -8.9996737 
    2980   -8.9996737     3.496604 -0.011503981    2.4876534 0.0070466255    2.4876534            0            0            0    29.233355    29.221976    29.239044    29.239044 -3.6527163e-11 6.1917082e-11 1.9999713e-11   -8.9996737 
    2990   -8.9996737     3.496604 -0.011503981    2.4876534 0.0070466255    2.4876534            0            0            0    29.233355    29.221976    29.239044    29.239044 -7.504796e-12 1.2725337e-10 1.1889383e-12   -8.9996737 
    3000   -8.9996737     3.496604 -0.011503981    2.4876534 0.0070466255    2.4876534            0            0            0    29.233355    29.221976    29.239044    29.239044 -1.0177041e-10 2.2703994e-11 -3.6445184e-11   -8.9996737 
    3010   -8.9996737     3.496604 -0.011503981    2.4876534 0.0070466255    2.4876534            0            0            0    29.233355    29.221976    29.239044    29.239044 -1.3833126e-10 7.8861968e-11 4.157663e-11   -8.9996737 
    3020   -8.9996737     3.496604 -0.011503981    2.4876534 0.0070466255    2.4876534            0            0            0    29.233355    29.221976    29.239044    29.239044 -3.1531069e-11 8.8344052e-11 2.6856226e-11   -8.9996737 
    3030   -8.9996737     3.496604 -0.011503981    2.4876534 0.0070466255    2.4876534            0            0            0    29.233355    29.221976    29.239044    29.239044 -3.9552883e-11 1.6538565e-10 4.2112256e-11   -8.9996737 
    3040   -8.9996737     3.496604 -0.011503981    2.4876534 0.0070466255    2.4876534            0            0            0    29.233355    29.221976    29.239044    29.239044 -4.3934012e-11 1.0676832e-10 4.1400603e-11   -8.9996737 
    3050   -8.9996737     3.496604 -0.011503981    2.4876534 0.0070466255    2.4876534            0            0            0    29.233355    29.221976    29.239044    29.239044 3.0227148e-11 1.0886405e-10 1.7678165e-12   -8.9996737 
    3060   -8.9996737     3.496604 -0.011503981    2.4876534 0.0070466255    2.4876534            0            0            0    29.233355    29.221976    29.239044    29.239044 -2.9051663e-11 6.1483803e-12  4.95396e-11   -8.9996737 
    3070   -8.9996737     3.496604 -0.011503981    2.4876534 0.0070466255    2.4876534            0            0            0    29.233355    29.221976    29.239044    29.239044 -2.0892297e-11 1.0704443e-10 5.2315801e-11   -8.9996737 
    3080   -8.9996737     3.496604 -0.011503981    2.4876534 0.0070466255    2.4876534            0            0            0    29.233355    29.221976    29.239044    29.239044 -1.2351794e-10 5.8366361e-11 2.3196368e-11   -8.9996737 
    3090   -8.9996737     3.496604 -0.011503981    2.4876534 0.0070466255    2.4876534            0            0            0    29.233355    29.221976    29.239044    29.239044 -2.526934e-11 8.2420736e-11 3.528089e-12   -8.9996737 
    3100   -8.9996737     3.496604 -0.011503981    2.4876534 0.0070466255    2.4876534            0            0            0    29.233355    29.221976    29.239044    29.239044 -3.2373926e-11 -7.0949543e-11 4.3805638e-13   -8.9996737 
    3110   -8.9996737     3.496604 -0.011503981    2.4876534 0.0070466255    2.4876534            0            0            0    29.233355    29.221976    29.239044    29.239044 -4.4570099e-12 -4.9574805e-11 -9.4571897e-12   -8.9996737 
    3120   -8.9996737     3.496604 -0.011503981    2.4876534 0.0070466255    2.4876534            0            0            0    29.233355    29.221976    29.239044    29.239044 -2.620744e-11 4.6710842e-11 1.618646e-11   -8.9996737 
    3130   -8.9996737     3.496604 -0.011503981    2.4876534 0.0070466255    2.4876534            0            0            0    29.233355    29.221976    29.239044    29.239044 -3.8843681e-11 1.107493e-10 4.1852742e-11   -8.9996737 
    3140   -8.9996737     3.496604 -0.011503981    2.4876534 0.0070466255    2.4876534            0            0            0    29.233355    29.221976    29.239044    29.239044 -1.8396105e-11 6.4224296e-11 1.1558452e-10   -8.9996737 
    3150   -8.9996737     3.496604 -0.011503981    2.4876534 0.0070466255    2.4876534            0            0            0    29.233355    29.221976    29.239044    29.239044 -2.8721863e-11 4.1564057e-11 1.0322439e-10   -8.9996737 
    3160   -8.9996737     3.496604 -0.011503981    2.4876534 0.0070466255    2.4876534            0            0            0    29.233355    29.221976    29.239044    29.239044 4.8653931e-12 5.6605837e-11 2.773435e-11   -8.9996737 
    3170   -8.9996737     3.496604 -0.011503981    2.4876534 0.0070466255    2.4876534            0            0            0    29.233355    29.221976    29.239044    29.239044 7.7350648e-11 1.2777541e-10 -2.4810789e-11   -8.9996737 
    3180   -8.9996737     3.496604 -0.011503981    2.4876534 0.0070466255    2.4876534            0            0            0    29.233355    29.221976    29.239044    29.239044 1.1772878e-10  1.77142e-10 -7.2006209e-11   -8.9996737 
    3190   -8.9996737     3.496604 -0.011503981    2.4876534 0.0070466255    2.4876534            0            0            0    29.233355    29.221976    29.239044    29.239044 -3.05103e-11 6.6136455e-11 1.6984366e-11   -8.9996737 
    3200   -8.9996737     3.496604 -0.011503981    2.4876534 0.0070466255    2.4876534            0            0            0    29.233355    29.221976    29.239044    29.239044 3.5116179e-11 -1.8405912e-11 -3.591157e-11   -8.9996737 
    3210   -8.9996737     3.496604 -0.011503981    2.4876534 0.0070466255    2.4876534            0            0            0    29.233355    29.221976    29.239044    29.239044 -1.485167e-11 5.2648241e-11 2.5226716e-11   -8.9996737 
    3220   -8.9996737     3.496604 -0.011503981    2.4876534 0.0070466255    2.4876534            0            0            0    29.233355    29.221976    29.239044    29.239044 -1.391005e-11 -8.2356108e-11 5.5337938e-12   -8.9996737 
    3230   -8.9996737     3.496604 -0.011503981    2.4876534 0.0070466255    2.4876534            0            0            0    29.233355    29.221976    29.239044    29.239044 -1.9361991e-11 4.7323165e-11 -1.7989985e-12   -8.9996737 
    3240   -8.9996737     3.496604 -0.011503981    2.4876534 0.0070466255    2.4876534            0            0            0    29.233355    29.221976    29.239044    29.239044 -5.6389072e-12 6.2409204e-11 5.8767954e-11   -8.9996737 
    3250   -8.9996737     3.496604 -0.011503981    2.4876534 0.0070466255    2.4876534            0            0            0    29.233355    29.221976    29.239044    29.239044 -2.0245145e-11 9.616268e-11 3.1568727e-11   -8.9996737 
    3260   -8.9996737     3.496604 -0.011503981    2.4876534 0.0070466255    2.4876534            0            0            0    29.233355    29.221976    29.239044    29.239044 4.746449e-14 1.0653345e-10 2.9941732e-11   -8.9996737 
    3270   -8.9996737     3.496604 -0.011503981    2.4876534 0.0070466255    2.4876534            0            0            0    29.233355    29.221976    29.239044    29.239044 3.3264938e-11 1.5036348e-10 6.2687327e-11   -8.9996737 
    3280   -8.9996737     3.496604 -0.011503981    2.4876534 0.0070466255    2.4876534            0            0            0    29.233355    29.221976    29.239044    29.239044 -1.9237201e-11 1.0358122e-10 1.0632599e-10   -8.9996737 
    3290   -8.9996737     3.496604 -0.011503981    2.4876534 0.0070466255    2.4876534            0            0            0    29.233355    29.221976    29.239044    29.239044 -6.0402493e-12 1.1069725e-10 3.9208309e-11   -8.9996737 
    3300   -8.9996737     3.496604 -0.011503981    2.4876534 0.0070466255    2.4876534            0            0            0    29.233355    29.221976    29.239044    29.239044 -6.6501837e-12 4.9648485e-11 1.9865429e-11   -8.9996737 
    3310   -8.9996737     3.496604 -0.011503981    2.4876534 0.0070466255    2.4876534            0            0            0    29.233355    29.221976    29.239044    29.239044 -6.6969567e-12 6.0104755e-11 4.0324825e-11   -8.9996737 
    3320   -8.9996737     3.496604 -0.011503981    2.4876534 0.0070466255    2.4876534            0            0            0    29.233355    29.221976    29.239044    29.239044 -1.1436742e-11 7.0516516e-11 3.1389179e-11   -8.9996737 
    3330   -8.9996737     3.496604 -0.011503981    2.4876534 0.0070466255    2.4876534            0            0            0    29.233355    29.221976    29.239044    29.239044 -3.9261872e-11 5.6821344e-11 1.4030378e-11   -8.9996737 
    3340   -8.9996737     3.496604 -0.011503981    2.4876534 0.0070466255    2.4876534            0            0            0    29.233355    29.221976    29.239044    29.239044 -4.7103634e-12 7.2632615e-11  4.28395e-11   -8.9996737 
    3350   -8.9996737     3.496604 -0.011503981    2.4876534 0.0070466255    2.4876534            0            0            0    29.233355    29.221976    29.239044    29.239044 3.139446e-12 7.5854416e-11 -7.6199681e-12   -8.9996737 
[...]
    4240   -8.9996737     3.496604 -0.011503981    2.4876534 0.0070466255    2.4876534            0            0            0    29.233355    29.221976    29.239044    29.239044 -1.2067297e-11 2.576624e-10 -4.564638e-12   -8.9996737 
    4250   -8.9996737     3.496604 -0.011503981    2.4876534 0.0070466255    2.4876534            0            0            0    29.233355    29.221976    29.239044    29.239044 -1.4672626e-11 2.1893716e-10 2.6786318e-12   -8.9996737 
    4260   -8.9996737     3.496604 -0.011503981    2.4876534 0.0070466255    2.4876534            0            0            0    29.233355    29.221976    29.239044    29.239044 1.2725236e-10 2.1651905e-10 -6.0826216e-11   -8.9996737 
    4270   -8.9996737     3.496604 -0.011503981    2.4876534 0.0070466255    2.4876534            0            0            0    29.233355    29.221976    29.239044    29.239044 -9.1768034e-12 1.0098457e-10 1.4632894e-11   -8.9996737 
    4280   -8.9996737     3.496604 -0.011503981    2.4876534 0.0070466255    2.4876534            0            0            0    29.233355    29.221976    29.239044    29.239044 -2.615262e-13 8.0765828e-11 -2.1252021e-11   -8.9996737 
    4290   -8.9996737     3.496604 -0.011503981    2.4876534 0.0070466255    2.4876534            0            0            0    29.233355    29.221976    29.239044    29.239044 -1.9367147e-11 7.2973605e-11 6.8092369e-12   -8.9996737 
    4300   -8.9996737     3.496604 -0.011503981    2.4876534 0.0070466255    2.4876534            0            0            0    29.233355    29.221976    29.239044    29.239044 -1.3099445e-11 6.6277528e-11 1.6212613e-11   -8.9996737 
    4310   -8.9996737     3.496604 -0.011503981    2.4876534 0.0070466255    2.4876534            0            0            0    29.233355    29.221976    29.239044    29.239044 1.2193634e-10 1.6751306e-10 -1.0474828e-10   -8.9996737 
    4320   -8.9996737     3.496604 -0.011503981    2.4876534 0.0070466255    2.4876534            0            0            0    29.233355    29.221976    29.239044    29.239044 -1.2661181e-10 2.0589857e-10 -5.247674e-11   -8.9996737 
    4330   -8.9996737     3.496604 -0.011503981    2.4876534 0.0070466255    2.4876534            0            0            0    29.233355    29.221976    29.239044    29.239044 -2.9446844e-13 1.1609022e-10 -1.6197022e-11   -8.9996737 
    4340   -8.9996737     3.496604 -0.011503981    2.4876534 0.0070466255    2.4876534            0            0            0    29.233355    29.221976    29.239044    29.239044 -9.4177093e-12 1.4760388e-11 2.1167679e-10   -8.9996737 
    4350   -8.9996737     3.496604 -0.011503981    2.4876534 0.0070466255    2.4876534            0            0            0    29.233355    29.221976    29.239044    29.239044 -1.6022377e-11 9.9505689e-13 2.0158138e-11   -8.9996737 
    4360   -8.9996737     3.496604 -0.011503981    2.4876534 0.0070466255    2.4876534            0            0            0    29.233355    29.221976    29.239044    29.239044 -1.2742864e-11 6.3342651e-11 -3.3782144e-12   -8.9996737 
    4370   -8.9996737     3.496604 -0.011503981    2.4876534 0.0070466255    2.4876534            0            0            0    29.233355    29.221976    29.239044    29.239044 -1.1050488e-11 3.102958e-11 -1.1677145e-11   -8.9996737 
    4380   -8.9996737     3.496604 -0.011503981    2.4876534 0.0070466255    2.4876534            0            0            0    29.233355    29.221976    29.239044    29.239044 1.4371323e-10 2.1606012e-10 1.0628827e-10   -8.9996737 
    4390   -8.9996737     3.496604 -0.011503981    2.4876534 0.0070466255    2.4876534            0            0            0    29.233355    29.221976    29.239044    29.239044 -1.1151578e-11 5.155989e-11 2.9731002e-12   -8.9996737 
    4400   -8.9996737     3.496604 -0.011503981    2.4876534 0.0070466255    2.4876534            0            0            0    29.233355    29.221976    29.239044    29.239044 7.3353069e-13 -1.7579187e-10 2.1073932e-10   -8.9996737 
    4410   -8.9996737     3.496604 -0.011503981    2.4876534 0.0070466255    2.4876534            0            0            0    29.233355    29.221976    29.239044    29.239044 -1.4475224e-11 -7.367017e-11 -2.7611131e-12   -8.9996737 
    4420   -8.9996737     3.496604 -0.011503981    2.4876534 0.0070466255    2.4876534            0            0            0    29.233355    29.221976    29.239044    29.239044 -9.9762186e-12 5.0321412e-11 -3.5406624e-13   -8.9996737 
    4430   -8.9996737     3.496604 -0.011503981    2.4876534 0.0070466255    2.4876534            0            0            0    29.233355    29.221976    29.239044    29.239044 -6.0074957e-12 6.1613057e-11 -2.4240964e-11   -8.9996737 
    4440   -8.9996737     3.496604 -0.011503981    2.4876534 0.0070466255    2.4876534            0            0            0    29.233355    29.221976    29.239044    29.239044 4.6194831e-11  1.28262e-10 7.2531273e-11   -8.9996737 
    4450   -8.9996737     3.496604 -0.011503981    2.4876534 0.0070466255    2.4876534            0            0            0    29.233355    29.221976    29.239044    29.239044 -5.0620156e-11 5.7931825e-11 -9.9445337e-12   -8.9996737 
    4460   -8.9996737     3.496604 -0.011503981    2.4876534 0.0070466255    2.4876534            0            0            0    29.233355    29.221976    29.239044    29.239044 1.4542038e-10 1.4978335e-10 1.0725642e-10   -8.9996737 
    4470   -8.9996737     3.496604 -0.011503981    2.4876534 0.0070466255    2.4876534            0            0            0    29.233355    29.221976    29.239044    29.239044 -2.63035e-12 2.9859804e-10 1.1479743e-11   -8.9996737 
    4480   -8.9996737     3.496604 -0.011503981    2.4876534 0.0070466255    2.4876534            0            0            0    29.233355    29.221976    29.239044    29.239044 3.1130419e-12 7.4712754e-11 -1.1982929e-11   -8.9996737 
    4490   -8.9996737     3.496604 -0.011503981    2.4876534 0.0070466255    2.4876534            0            0            0    29.233355    29.221976    29.239044    29.239044 3.0939932e-12 -1.9403232e-12 -1.4048986e-11   -8.9996737 
    4500   -8.9996737     3.496604 -0.011503981    2.4876534 0.0070466255    2.4876534            0            0            0    29.233355    29.221976    29.239044    29.239044 1.5217681e-11 3.8780815e-11 2.5687908e-11   -8.9996737 
    4510   -8.9996737     3.496604 -0.011503981    2.4876534 0.0070466255    2.4876534            0            0            0    29.233355    29.221976    29.239044    29.239044 -2.4379774e-12 2.1480354e-11 8.9150257e-12   -8.9996737 
    4520   -8.9996737     3.496604 -0.011503981    2.4876534 0.0070466255    2.4876534            0            0            0    29.233355    29.221976    29.239044    29.239044 -6.0895369e-12 3.0498733e-11 -4.8653931e-12   -8.9996737 
    4530   -8.9996737     3.496604 -0.011503981    2.4876534 0.0070466255    2.4876534            0            0            0    29.233355    29.221976    29.239044    29.239044 -8.083297e-12 4.4607568e-11 5.5217233e-12   -8.9996737 
    4540   -8.9996737     3.496604 -0.011503981    2.4876534 0.0070466255    2.4876534            0            0            0    29.233355    29.221976    29.239044    29.239044 -3.0648859e-12 3.008884e-11 6.8177868e-12   -8.9996737 
    4550   -8.9996737     3.496604 -0.011503981    2.4876534 0.0070466255    2.4876534            0            0            0    29.233355    29.221976    29.239044    29.239044 -1.2443618e-11 3.0495463e-11 3.7720125e-13   -8.9996737 
    4560   -8.9996737     3.496604 -0.011503981    2.4876534 0.0070466255    2.4876534            0            0            0    29.233355    29.221976    29.239044    29.239044 2.4480738e-11 5.7573987e-11 5.6783373e-11   -8.9996737 
    4570   -8.9996737     3.496604 -0.011503981    2.4876534 0.0070466255    2.4876534            0            0            0    29.233355    29.221976    29.239044    29.239044 -2.3322102e-11 3.7893637e-11 -8.1671614e-12   -8.9996737 
    4580   -8.9996737     3.496604 -0.011503981    2.4876534 0.0070466255    2.4876534            0            0            0    29.233355    29.221976    29.239044    29.239044 9.7317922e-12 2.7327476e-11 1.7049496e-13   -8.9996737 
    4590   -8.9996737     3.496604 -0.011503981    2.4876534 0.0070466255    2.4876534            0            0            0    29.233355    29.221976    29.239044    29.239044 -8.0902123e-12 7.4693391e-11 1.7555952e-11   -8.9996737 
    4600   -8.9996737     3.496604 -0.011503981    2.4876534 0.0070466255    2.4876534            0            0            0    29.233355    29.221976    29.239044    29.239044 -1.051021e-11 8.9934836e-12 -5.2137259e-11   -8.9996737 
    4610   -8.9996737     3.496604 -0.011503981    2.4876534 0.0070466255    2.4876534            0            0            0    29.233355    29.221976    29.239044    29.239044 -1.3570444e-11 6.1271062e-11 6.9983405e-12   -8.9996737 
    4620   -8.9996737     3.496604 -0.011503981    2.4876534 0.0070466255    2.4876534            0            0            0    29.233355    29.221976    29.239044    29.239044 2.9622871e-12 1.6280006e-11 -1.2623668e-13   -8.9996737 
    4630   -8.9996737     3.496604 -0.011503981    2.4876534 0.0070466255    2.4876534            0            0            0    29.233355    29.221976    29.239044    29.239044 5.6038149e-11 1.7998811e-10 7.420655e-11   -8.9996737 
    4640   -8.9996737     3.496604 -0.011503981    2.4876534 0.0070466255    2.4876534            0            0            0    29.233355    29.221976    29.239044    29.239044 -3.3355403e-11 4.8259882e-11 2.9612813e-12   -8.9996737 
    4650   -8.9996737     3.496604 -0.011503981    2.4876534 0.0070466255    2.4876534            0            0            0    29.233355    29.221976    29.239044    29.239044 8.8583009e-11 1.2453098e-10 -8.9880519e-11   -8.9996737 
    4660   -8.9996737     3.496604 -0.011503981    2.4876534 0.0070466255    2.4876534            0            0            0    29.233355    29.221976    29.239044    29.239044 -1.1797736e-10 1.2385252e-10 3.9344605e-12   -8.9996737 
    4670   -8.9996737     3.496604 -0.011503981    2.4876534 0.0070466255    2.4876534            0            0            0    29.233355    29.221976    29.239044    29.239044 -1.5917138e-11 1.5354857e-11 1.7776087e-10   -8.9996737 
    4680   -8.9996737     3.496604 -0.011503981    2.4876534 0.0070466255    2.4876534            0            0            0    29.233355    29.221976    29.239044    29.239044 -1.757368e-11 6.7811731e-11 -2.2113549e-11   -8.9996737 
    4690   -8.9996737     3.496604 -0.011503981    2.4876534 0.0070466255    2.4876534            0            0            0    29.233355    29.221976    29.239044    29.239044 -1.4608476e-10 1.4170043e-10 -1.201738e-10   -8.9996737 
    4700   -8.9996737     3.496604 -0.011503981    2.4876534 0.0070466255    2.4876534            0            0            0    29.233355    29.221976    29.239044    29.239044 -3.4715088e-12 6.4908036e-11 3.0483393e-11   -8.9996737 
    4710   -8.9996737     3.496604 -0.011503981    2.4876534 0.0070466255    2.4876534            0            0            0    29.233355    29.221976    29.239044    29.239044 3.2510347e-12 2.6873326e-11 1.4378912e-12   -8.9996737 
    4720   -8.9996737     3.496604 -0.011503981    2.4876534 0.0070466255    2.4876534            0            0            0    29.233355    29.221976    29.239044    29.239044 -1.229324e-11 5.0474808e-11 -1.1249901e-11   -8.9996737 
    4730   -8.9996737     3.496604 -0.011503981    2.4876534 0.0070466255    2.4876534            0            0            0    29.233355    29.221976    29.239044    29.239044 -1.1145794e-11 1.5370699e-11 2.6264271e-11   -8.9996737 
    4740   -8.9996737     3.496604 -0.011503981    2.4876534 0.0070466255    2.4876534            0            0            0    29.233355    29.221976    29.239044    29.239044 -4.7117465e-12 6.3568469e-11 -1.6565673e-11   -8.9996737 
    4750   -8.9996737     3.496604 -0.011503981    2.4876534 0.0070466255    2.4876534            0            0            0    29.233355    29.221976    29.239044    29.239044 1.4448719e-10 -1.9649469e-10 1.1650338e-10   -8.9996737 
    4760   -8.9996737     3.496604 -0.011503981    2.4876534 0.0070466255    2.4876534            0            0            0    29.233355    29.221976    29.239044    29.239044 -1.4466737e-11 2.6280541e-10 2.2229727e-12   -8.9996737 
    4770   -8.9996737     3.496604 -0.011503981    2.4876534 0.0070466255    2.4876534            0            0            0    29.233355    29.221976    29.239044    29.239044 -1.4474469e-11 1.3234483e-11 -8.0379071e-12   -8.9996737 
    4780   -8.9996737     3.496604 -0.011503981    2.4876534 0.0070466255    2.4876534            0            0            0    29.233355    29.221976    29.239044    29.239044 -7.7376298e-11 3.277904e-11 5.4240533e-11   -8.9996737 
    4790   -8.9996737     3.496604 -0.011503981    2.4876534 0.0070466255    2.4876534            0            0            0    29.233355    29.221976    29.239044    29.239044 1.2276643e-11 7.622684e-11 7.4228176e-12   -8.9996737 
    4800   -8.9996737     3.496604 -0.011503981    2.4876534 0.0070466255    2.4876534            0            0            0    29.233355    29.221976    29.239044    29.239044 -8.5343039e-12 4.2888285e-11 3.3431598e-11   -8.9996737 
    4810   -8.9996737     3.496604 -0.011503981    2.4876534 0.0070466255    2.4876534            0            0            0    29.233355    29.221976    29.239044    29.239044  1.21836e-13 -1.866256e-10 3.1272498e-12   -8.9996737 
    4820   -8.9996737     3.496604 -0.011503981    2.4876534 0.0070466255    2.4876534            0            0            0    29.233355    29.221976    29.239044    29.239044 -6.8233442e-11 -3.1029077e-11 3.6379803e-11   -8.9996737 
    4830   -8.9996737     3.496604 -0.011503981    2.4876534 0.0070466255    2.4876534            0            0            0    29.233355    29.221976    29.239044    29.239044 -4.1939121e-11 1.5800583e-10 -2.2871472e-11   -8.9996737 
    4840   -8.9996737     3.496604 -0.011503981    2.4876534 0.0070466255    2.4876534            0            0            0    29.233355    29.221976    29.239044    29.239044 -4.6709585e-11 4.4472027e-12 2.1213798e-12   -8.9996737 
    4850   -8.9996737     3.496604 -0.011503981    2.4876534 0.0070466255    2.4876534            0            0            0    29.233355    29.221976    29.239044    29.239044 -2.2819167e-11  7.43094e-11 1.8328963e-11   -8.9996737 
    4860   -8.9996737     3.496604 -0.011503981    2.4876534 0.0070466255    2.4876534            0            0            0    29.233355    29.221976    29.239044    29.239044 -3.3206283e-13 7.7053162e-11 3.1352968e-11   -8.9996737 
    4870   -8.9996737     3.496604 -0.011503981    2.4876534 0.0070466255    2.4876534            0            0            0    29.233355    29.221976    29.239044    29.239044 2.7127056e-12 3.2160681e-11 3.950152e-11   -8.9996737 
    4880   -8.9996737     3.496604 -0.011503981    2.4876534 0.0070466255    2.4876534            0            0            0    29.233355    29.221976    29.239044    29.239044 4.3619426e-11 1.2187775e-10 -2.4160997e-11   -8.9996737 
    4890   -8.9996737     3.496604 -0.011503981    2.4876534 0.0070466255    2.4876534            0            0            0    29.233355    29.221976    29.239044    29.239044 -1.3510846e-11 5.6286976e-11 -7.9669933e-12   -8.9996737 
    4900   -8.9996737     3.496604 -0.011503981    2.4876534 0.0070466255    2.4876534            0            0            0    29.233355    29.221976    29.239044    29.239044 2.3461918e-13 5.9606598e-11 1.1391478e-11   -8.9996737 
    4910   -8.9996737     3.496604 -0.011503981    2.4876534 0.0070466255    2.4876534            0            0            0    29.233355    29.221976    29.239044    29.239044 -8.322518e-11 3.4781727e-11 -6.6496053e-11   -8.9996737 
    4920   -8.9996737     3.496604 -0.011503981    2.4876534 0.0070466255    2.4876534            0            0            0    29.233355    29.221976    29.239044    29.239044 1.2832537e-10 6.5427065e-11 1.3351918e-11   -8.9996737 
    4930   -8.9996737     3.496604 -0.011503981    2.4876534 0.0070466255    2.4876534            0            0            0    29.233355    29.221976    29.239044    29.239044 -4.3605596e-11 6.067785e-11 1.9311648e-10   -8.9996737 
    4940   -8.9996737     3.496604 -0.011503981    2.4876534 0.0070466255    2.4876534            0            0            0    29.233355    29.221976    29.239044    29.239044 1.7686966e-12 7.9952834e-11 2.2820172e-11   -8.9996737 
    4950   -8.9996737     3.496604 -0.011503981    2.4876534 0.0070466255    2.4876534            0            0            0    29.233355    29.221976    29.239044    29.239044 1.0497083e-10 -1.0545541e-11 -6.2092355e-11   -8.9996737 
    4960   -8.9996737     3.496604 -0.011503981    2.4876534 0.0070466255    2.4876534            0            0            0    29.233355    29.221976    29.239044    29.239044 4.971261e-12 8.1465159e-11 -6.0236524e-12   -8.9996737 
    4970   -8.9996737     3.496604 -0.011503981    2.4876534 0.0070466255    2.4876534            0            0            0    29.233355    29.221976    29.239044    29.239044 -1.515753e-10 2.6292436e-11 -2.4135347e-11   -8.9996737 
    4980   -8.9996737     3.496604 -0.011503981    2.4876534 0.0070466255    2.4876534            0            0            0    29.233355    29.221976    29.239044    29.239044 -6.0241302e-11 1.3218414e-10 -5.5786556e-11   -8.9996737 
    4990   -8.9996737     3.496604 -0.011503981    2.4876534 0.0070466255    2.4876534            0            0            0    29.233355    29.221976    29.239044    29.239044 -2.2126437e-11 7.6402867e-11 2.9365871e-11   -8.9996737 
    5000   -8.9996737     3.496604 -0.011503981    2.4876534 0.0070466255    2.4876534            0            0            0    29.233355    29.221976    29.239044    29.239044 -9.0025364e-12 5.622436e-11 -9.9309544e-12   -8.9996737 
Loop time of 3.87832 on 1 procs for 5000 steps with 2 atoms

16.9% CPU use with 1 MPI tasks x no OpenMP threads

Minimization stats:
  Stopping criterion = max iterations
  Energy initial, next-to-last, final = 
        -8.99925039595     -8.99967371975     -8.99967372103
  Force two-norm initial, final = 0.200088 0.000683315
  Force max component initial, final = 0.126181 0.000396189
  Final line search alpha, max atom move = 1 0.000396189
  Iterations, force evaluations = 5000 9993

MPI task timing breakdown:
Section |  min time  |  avg time  |  max time  |%varavg| %total
---------------------------------------------------------------
Pair    | 2.6748     | 2.6748     | 2.6748     |   0.0 | 68.97
Neigh   | 0          | 0          | 0          |   0.0 |  0.00
Comm    | 0.15946    | 0.15946    | 0.15946    |   0.0 |  4.11
Output  | 0.0077379  | 0.0077379  | 0.0077379  |   0.0 |  0.20
Modify  | 0          | 0          | 0          |   0.0 |  0.00
Other   |            | 1.036      |            |       | 26.72

Nlocal:    2 ave 2 max 2 min
Histogram: 1 0 0 0 0 0 0 0 0 0
Nghost:    1365 ave 1365 max 1365 min
Histogram: 1 0 0 0 0 0 0 0 0 0
Neighs:    530 ave 530 max 530 min
Histogram: 1 0 0 0 0 0 0 0 0 0

Total # of neighbors = 530
Ave neighs/atom = 265
Neighbor list builds = 0
Dangerous builds = 0
pypospack:output_section:begin
tot_energy = -8.99967372102689
num_atoms = 2
a11 = 3.50810796149071
a22 = 2.48060674897194
a33 = 2.48060674897194
a12 = 0
a13 = 0
a23 = 0
tot_press = 29.2333547707527
pxx = 29.2219756345647
pyy = 29.2390443388719
pzz = 29.2390443388216
pxy = -9.00253641516653e-12
pxz = 5.62243604576818e-11
pyz = -9.93095441641778e-12
pypospack:output_section:done
pypospack:lammps_sim:done
Total wall time: 0:00:03
