# ['Ni']

107 atoms
1 atom types

    0.0000    10.5613 xlo xhi
    0.0000    10.5613 ylo yhi
    0.0000    10.5613 zlo zhi

    0.0000    -0.0000    -0.0000 xy xz yz

Atoms

1 1     1.7602     1.7602     0.0000
2 1     1.7602     0.0000     1.7602
3 1     0.0000     1.7602     1.7602
4 1     0.0000     0.0000     3.5204
5 1     1.7602     1.7602     3.5204
6 1     1.7602     0.0000     5.2806
7 1     0.0000     1.7602     5.2806
8 1     0.0000     0.0000     7.0408
9 1     1.7602     1.7602     7.0408
10 1     1.7602     0.0000     8.8010
11 1     0.0000     1.7602     8.8010
12 1     0.0000     3.5204     0.0000
13 1     1.7602     5.2806     0.0000
14 1     1.7602     3.5204     1.7602
15 1     0.0000     5.2806     1.7602
16 1     0.0000     3.5204     3.5204
17 1     1.7602     5.2806     3.5204
18 1     1.7602     3.5204     5.2806
19 1     0.0000     5.2806     5.2806
20 1     0.0000     3.5204     7.0408
21 1     1.7602     5.2806     7.0408
22 1     1.7602     3.5204     8.8010
23 1     0.0000     5.2806     8.8010
24 1     0.0000     7.0408     0.0000
25 1     1.7602     8.8010     0.0000
26 1     1.7602     7.0408     1.7602
27 1     0.0000     8.8010     1.7602
28 1     0.0000     7.0408     3.5204
29 1     1.7602     8.8010     3.5204
30 1     1.7602     7.0408     5.2806
31 1     0.0000     8.8010     5.2806
32 1     0.0000     7.0408     7.0408
33 1     1.7602     8.8010     7.0408
34 1     1.7602     7.0408     8.8010
35 1     0.0000     8.8010     8.8010
36 1     3.5204     0.0000     0.0000
37 1     5.2806     1.7602     0.0000
38 1     5.2806     0.0000     1.7602
39 1     3.5204     1.7602     1.7602
40 1     3.5204     0.0000     3.5204
41 1     5.2806     1.7602     3.5204
42 1     5.2806     0.0000     5.2806
43 1     3.5204     1.7602     5.2806
44 1     3.5204     0.0000     7.0408
45 1     5.2806     1.7602     7.0408
46 1     5.2806     0.0000     8.8010
47 1     3.5204     1.7602     8.8010
48 1     3.5204     3.5204     0.0000
49 1     5.2806     5.2806     0.0000
50 1     5.2806     3.5204     1.7602
51 1     3.5204     5.2806     1.7602
52 1     3.5204     3.5204     3.5204
53 1     5.2806     5.2806     3.5204
54 1     5.2806     3.5204     5.2806
55 1     3.5204     5.2806     5.2806
56 1     3.5204     3.5204     7.0408
57 1     5.2806     5.2806     7.0408
58 1     5.2806     3.5204     8.8010
59 1     3.5204     5.2806     8.8010
60 1     3.5204     7.0408     0.0000
61 1     5.2806     8.8010     0.0000
62 1     5.2806     7.0408     1.7602
63 1     3.5204     8.8010     1.7602
64 1     3.5204     7.0408     3.5204
65 1     5.2806     8.8010     3.5204
66 1     5.2806     7.0408     5.2806
67 1     3.5204     8.8010     5.2806
68 1     3.5204     7.0408     7.0408
69 1     5.2806     8.8010     7.0408
70 1     5.2806     7.0408     8.8010
71 1     3.5204     8.8010     8.8010
72 1     7.0408     0.0000     0.0000
73 1     8.8010     1.7602     0.0000
74 1     8.8010     0.0000     1.7602
75 1     7.0408     1.7602     1.7602
76 1     7.0408     0.0000     3.5204
77 1     8.8010     1.7602     3.5204
78 1     8.8010     0.0000     5.2806
79 1     7.0408     1.7602     5.2806
80 1     7.0408     0.0000     7.0408
81 1     8.8010     1.7602     7.0408
82 1     8.8010     0.0000     8.8010
83 1     7.0408     1.7602     8.8010
84 1     7.0408     3.5204     0.0000
85 1     8.8010     5.2806     0.0000
86 1     8.8010     3.5204     1.7602
87 1     7.0408     5.2806     1.7602
88 1     7.0408     3.5204     3.5204
89 1     8.8010     5.2806     3.5204
90 1     8.8010     3.5204     5.2806
91 1     7.0408     5.2806     5.2806
92 1     7.0408     3.5204     7.0408
93 1     8.8010     5.2806     7.0408
94 1     8.8010     3.5204     8.8010
95 1     7.0408     5.2806     8.8010
96 1     7.0408     7.0408     0.0000
97 1     8.8010     8.8010     0.0000
98 1     8.8010     7.0408     1.7602
99 1     7.0408     8.8010     1.7602
100 1     7.0408     7.0408     3.5204
101 1     8.8010     8.8010     3.5204
102 1     8.8010     7.0408     5.2806
103 1     7.0408     8.8010     5.2806
104 1     7.0408     7.0408     7.0408
105 1     8.8010     8.8010     7.0408
106 1     8.8010     7.0408     8.8010
107 1     7.0408     8.8010     8.8010
