# ['Ni']

28 atoms
1 atom types

    0.0000     2.2946 xlo xhi
    0.0000     3.9743 ylo yhi
    0.0000    26.2291 zlo zhi

    0.0000     0.0000     0.0000 xy xz yz

Atoms

1 1     0.0000     0.0000     0.0000
2 1     1.1473     1.9872     0.0000
3 1     1.1473     0.6624     1.8735
4 1     0.0000     2.6495     1.8735
5 1     0.0000     1.3248     3.7470
6 1     1.1473     3.3119     3.7470
7 1     0.0000     0.0000     5.6205
8 1     1.1473     1.9872     5.6205
9 1     1.1473     0.6624     7.4940
10 1     0.0000     2.6495     7.4940
11 1     0.0000     1.3248     9.3676
12 1     1.1473     3.3119     9.3676
13 1     0.0000     0.0000    11.2410
14 1     1.1473     1.9872    11.2410
15 1     0.0000     1.3248    13.1146
16 1     1.1473     3.3119    13.1146
17 1     0.0000     0.0000    14.9881
18 1     1.1473     1.9872    14.9881
19 1     1.1473     0.6624    16.8616
20 1     0.0000     2.6495    16.8616
21 1     0.0000     1.3248    18.7351
22 1     1.1473     3.3119    18.7351
23 1     0.0000     0.0000    20.6086
24 1     1.1473     1.9872    20.6086
25 1     1.1473     0.6624    22.4821
26 1     0.0000     2.6495    22.4821
27 1     0.0000     1.3248    24.3556
28 1     1.1473     3.3119    24.3556
