# ['Ni']

10 atoms
1 atom types

    0.0000     3.2920 xlo xhi
    0.0000     2.3565 ylo yhi
    0.0000    23.5653 zlo zhi

    0.0000     0.0000     0.0000 xy xz yz

Atoms

1 1     0.0000     0.0000     0.0000
2 1     1.6460     1.1783     1.1783
3 1     0.0000     0.0000     2.3565
4 1     1.6460     1.1783     3.5348
5 1     0.0000     0.0000     4.7131
6 1     1.6460     1.1783     5.8913
7 1     0.0000     0.0000     7.0696
8 1     1.6460     1.1783     8.2479
9 1     0.0000     0.0000     9.4261
10 1     1.6460     1.1783    10.6044
