# ['Ni']

18 atoms
1 atom types

    0.0000     2.5387 xlo xhi
    0.0000     4.3972 ylo yhi
    0.0000    37.3050 zlo zhi

    0.0000     0.0000    -0.0004 xy xz yz

Atoms

1 1     0.0000     0.0000     0.0000
2 1     1.2693     0.7329     2.0725
3 1     0.0000     1.4657     4.1450
4 1     1.2693     2.1986     0.0000
5 1     0.0000     2.9314     2.0725
6 1     1.2693     3.6643     4.1450
7 1     0.0000     0.0000     6.2175
8 1     1.2693     0.7329     8.2900
9 1     0.0000     1.4657    10.3625
10 1     1.2693     2.1986     6.2175
11 1     0.0000     2.9314     8.2900
12 1     1.2693     3.6643    10.3625
13 1     0.0000     0.0000    12.4350
14 1     1.2693     0.7329    14.5075
15 1     0.0000     1.4657    16.5800
16 1     1.2693     2.1986    12.4350
17 1     0.0000     2.9314    14.5075
18 1     1.2693     3.6643    16.5800
