# ['Ni']

28 atoms
1 atom types

    0.0000     2.5390 xlo xhi
    0.0000     4.3976 ylo yhi
    0.0000    29.0228 zlo zhi

    0.0000     0.0000     0.0000 xy xz yz

Atoms

1 1     0.0000     0.0000     0.0000
2 1     1.2695     2.1988     0.0000
3 1     1.2695     0.7329     2.0731
4 1     0.0000     2.9317     2.0731
5 1     0.0000     1.4659     4.1461
6 1     1.2695     3.6647     4.1461
7 1     0.0000     0.0000     6.2192
8 1     1.2695     2.1988     6.2192
9 1     1.2695     0.7329     8.2922
10 1     0.0000     2.9317     8.2922
11 1     0.0000     1.4659    10.3653
12 1     1.2695     3.6647    10.3653
13 1     0.0000     0.0000    12.4383
14 1     1.2695     2.1988    12.4383
15 1     0.0000     1.4659    14.5114
16 1     1.2695     3.6647    14.5114
17 1     0.0000     0.0000    16.5845
18 1     1.2695     2.1988    16.5845
19 1     1.2695     0.7329    18.6575
20 1     0.0000     2.9317    18.6575
21 1     0.0000     1.4659    20.7306
22 1     1.2695     3.6647    20.7306
23 1     0.0000     0.0000    22.8036
24 1     1.2695     2.1988    22.8036
25 1     1.2695     0.7329    24.8767
26 1     0.0000     2.9317    24.8767
27 1     0.0000     1.4659    26.9497
28 1     1.2695     3.6647    26.9497
