LAMMPS (10 Feb 2015)
Reading data file ...
  triclinic box = (0 0 0) to (4.2565 4.2565 4.2565) with tilt (0 0 0)
  1 by 1 by 1 MPI processor grid
  reading atoms ...
  8 atoms
4 atoms in group Mg
4 atoms in group O
Setting atom values ...
  4 settings made for charge
Setting atom values ...
  4 settings made for charge
PPPM initialization ...
  G vector (1/distance) = 0.352969
  grid = 8 8 8
  stencil order = 5
  estimated absolute RMS force accuracy = 4.01483e-05
  estimated relative force accuracy = 2.78815e-06
  using double precision FFTs
  3d grid and FFT values/proc = 3375 512
Neighbor list info ...
  1 neighbor list requests
  update every 1 steps, delay 0 steps, check yes
  master list distance cutoff = 11
Setting up minimization ...
Memory usage per processor = 4.06549 Mbytes
Step PotEng Lx Ly Lz Xy Xz Yz Press Pxx Pyy Pzz Pxy Pxz Pyz eatoms 
       0   -115.02334       4.2565       4.2565       4.2565            0            0            0    14836.064    14836.064    14836.064    14836.064 5.7083842e-11 -5.8546636e-11 3.613515e-11   -115.02334 
       4   -115.02629     4.268627     4.268627     4.268627            0            0            0   -3.7663252   -3.7663252   -3.7663252   -3.7663252 5.5364648e-11 -5.1262271e-11 1.3911233e-11   -115.02629 
Loop time of 0.00707817 on 1 procs for 4 steps with 8 atoms

Minimization stats:
  Stopping criterion = linesearch alpha is zero
  Energy initial, next-to-last, final = 
        -115.023341276       -115.0262927       -115.0262927
  Force two-norm initial, final = 2.14234 0.00179672
  Force max component initial, final = 2.14234 0.000546963
  Final line search alpha, max atom move = 0.00390625 2.13657e-06
  Iterations, force evaluations = 4 21

Pair  time (%) = 0.00194383 (27.4623)
Kspce time (%) = 0.0011332 (16.0098)
Neigh time (%) = 0 (0)
Comm  time (%) = 0.000211954 (2.99448)
Outpt time (%) = 0 (0)
Other time (%) = 0.00378919 (53.5334)

Nlocal:    8 ave 8 max 8 min
Histogram: 1 0 0 0 0 0 0 0 0 0
Nghost:    2189 ave 2189 max 2189 min
Histogram: 1 0 0 0 0 0 0 0 0 0
Neighs:    2344 ave 2344 max 2344 min
Histogram: 1 0 0 0 0 0 0 0 0 0

Total # of neighbors = 2344
Ave neighs/atom = 293
Neighbor list builds = 0
Dangerous builds = 0
pypospack:output_section:begin
tot_energy = -115.026292700229
num_atoms = 8
xx = 4.26862697136346
yy = 4.26862697136346
zz = 4.26862697136346
xy = 0
xz = 0
yz = 0
tot_press = -3.7663252179344
pxx = -3.76632521787482
pyy = -3.76632521789834
pzz = -3.76632521803003
pxy = 5.53646482695888e-11
pxz = -5.12622707696674e-11
pyz = 1.39112332535826e-11
pypospack:output_section:done
pypospack:lammps_sim:done
PPPM initialization ...
  G vector (1/distance) = 0.352845
  grid = 8 8 8
  stencil order = 5
  estimated absolute RMS force accuracy = 4.03767e-05
  estimated relative force accuracy = 2.80401e-06
  using double precision FFTs
  3d grid and FFT values/proc = 3375 512
Setting up run ...
Memory usage per processor = 3.06549 Mbytes
Step Temp PotEng KinEng TotEng Press Lx Ly Lz Press Pxx Pyy Pzz Pxy Pxz Pyz Volume 
       0         1800    -115.0263    1.6286778   -113.39762    22361.842     4.268627     4.268627     4.268627    22361.842     13154.97    29767.638    24162.918    1002.4009    2003.8221    1614.1922    77.779404 
     100    753.74217   -113.89594   0.68200176   -113.21394    35386.257    4.3065489    4.3065489    4.3065489    35386.257    12422.647    46931.145    46804.979   -1190.3205    2000.6703    5346.3283    79.870824 
     200    1302.4262   -113.94895    1.1784626   -112.77049   -39406.734    4.3658067    4.3658067    4.3658067   -39406.734   -42779.815   -35842.975   -39597.412   -11456.904   -3106.5274    3491.0345    83.213447 
     300    1854.9203     -114.022    1.6783708   -112.34362   -34320.704    4.3795022    4.3795022    4.3795022   -34320.704   -60870.469   -12102.567   -29989.077    8338.9542   -4383.9412   -7473.6337    83.999026 
     400    1563.6616   -113.44417    1.4148338   -112.02933   -5834.2064    4.3530074    4.3530074    4.3530074   -5834.2064   -1736.6948   -44114.207    28348.283   -11524.694    2698.5135    7634.0948    82.483718 
     500    747.09521   -112.50542   0.67598745   -111.82943    37904.805     4.341548     4.341548     4.341548    37904.805    53845.158    7880.5007    51988.756   -20918.882    -21361.36    21935.439    81.834006 
     600    2244.9537   -113.77903    2.0312813   -111.74775    11676.017    4.3616103    4.3616103    4.3616103    11676.017   -8157.0405   -7130.3704    50315.463    13105.494    3582.3033   -24548.044    82.973726 
     700     1876.702   -113.41642    1.6980794   -111.71834   -30570.731    4.3883324    4.3883324    4.3883324   -30570.731   -42007.256   -46664.089   -3040.8458     2866.116    1526.2692    24487.282    84.508142 
     800    1771.2804   -113.27902    1.6026917   -111.67633   -8602.1688    4.3826026    4.3826026    4.3826026   -8602.1688   -4652.3709   -22948.779    1794.6434   -58.542804    26302.796     22995.27    84.177546 
     900    2035.0329   -113.51562    1.8413405   -111.67428    13892.997    4.3590695    4.3590695    4.3590695    13892.997    14531.644   -20922.316    48069.663   -20499.363   -22632.828    3374.7554    82.828801 
    1000    2056.6258   -113.57698    1.8608782   -111.71611    1173.5119    4.3544405    4.3544405    4.3544405    1173.5119    30047.441   -48620.333    22093.428   -16146.593    17932.429    8361.2435    82.565211 
    1100    2146.0361   -113.68541    1.9417786   -111.74363   -23722.147    4.3773551    4.3773551    4.3773551   -23722.147    -20498.56   -30855.756   -19812.123   -988.88403    -17836.71   -4085.2045    83.875541 
    1200    961.39597   -112.58396   0.86989128   -111.71407    4978.5868    4.3887267    4.3887267    4.3887267    4978.5868    62414.794   -39701.157   -7777.8764   -18010.461    8524.6336    13334.297    84.530922 
    1300    2091.8993   -113.56318    1.8927944   -111.67039   -43064.033     4.377116     4.377116     4.377116   -43064.033   -46140.383   -9714.2299   -73337.487    517.69707   -1605.6625    22917.335    83.861797 
    1400    1864.9136   -113.35148     1.687413   -111.66407    47392.377    4.3476654    4.3476654    4.3476654    47392.377    35663.579    53087.073    53426.479    2667.4279   -21028.077    -27748.86    82.180419 
    1500    1578.2586   -113.14565    1.4280415   -111.71761    7298.8676    4.3468669    4.3468669    4.3468669    7298.8676   -34500.361    6339.5407    50057.423   -22808.242    12685.267     31993.17    82.135147 
    1600    1961.5737   -113.51753    1.7748731   -111.74266   -1264.3276    4.3641888    4.3641888    4.3641888   -1264.3276   -11400.238    35403.035    -27795.78    5362.7701    8981.3248   -6718.5913    83.120967 
    1700    1728.8269   -113.30604    1.5642789   -111.74176   -5240.2975    4.3814421    4.3814421    4.3814421   -5240.2975   -31485.959    79903.642   -64138.575   -5089.0888    5609.0594    973.94609    84.110694 
    1800    1798.5559    -113.3347    1.6273712   -111.70732    -54790.33    4.3823267    4.3823267    4.3823267    -54790.33   -43529.775   -36290.115     -84551.1   -10391.812    11121.344    28325.512    84.161654 
    1900    2641.8744   -114.08613    2.3904235   -111.69571   -20696.495    4.3494513    4.3494513    4.3494513   -20696.495   -16094.858     -22994.1   -23000.528   -833.34564    4348.6665   -1628.5932    82.281731 
    2000    1843.0514   -113.41219    1.6676316   -111.74456   -2623.6563    4.3372849    4.3372849    4.3372849   -2623.6563    49300.774   -35970.147   -21201.596    10016.509   -395.56279    6641.5848    81.593181 
    2100    2192.3356   -113.77397    1.9836713    -111.7903   -28464.184    4.3583888    4.3583888    4.3583888   -28464.184   -8633.3365   -46242.581   -30516.635   -3916.1818    2830.4925    10077.197    82.790003 
    2200    2196.2491   -113.76139    1.9872124   -111.77417    58.427545    4.3652231    4.3652231    4.3652231    58.427545    18676.966    44659.461   -63161.144   -7167.0588    1554.1343   -4073.0996    83.180078 
    2300     1915.359   -113.47761    1.7330571   -111.74455    3591.1292    4.3525115    4.3525115    4.3525115    3591.1292   -6599.7212    66076.996   -48703.887    3907.3787    10792.593    7909.0543    82.455527 
    2400    1623.3853   -113.19327    1.4688732   -111.72439    29406.358    4.3438174    4.3438174    4.3438174    29406.358   -15389.702    113975.08   -10366.302   -25605.645   -5745.0848   -12489.121    81.962401 
    2500    1709.4539   -113.28008    1.5467498   -111.73333    37772.915    4.3440223    4.3440223    4.3440223    37772.915     4366.215    112964.75   -4012.2182   -5338.3818   -18216.344    -14225.15    81.974003 
    2600    1654.5371   -113.23466      1.49706    -111.7376   -27521.828    4.3573587    4.3573587    4.3573587   -27521.828   -30408.677   -25438.146   -26718.662     30394.06    4560.2324    46707.209    82.731319 
    2700    1644.2558   -113.20553    1.4877572   -111.71777   -27479.164    4.3400222    4.3400222    4.3400222   -27479.164   -60359.269   -5511.9131   -16566.311    16453.026   -8682.0137    3743.0179    81.747759 
    2800    2046.0564   -113.56617    1.8513148   -111.71485    23278.267    4.3297349    4.3297349    4.3297349    23278.267   -18558.919    82137.674    6256.0456    -9943.787   -10450.034    1334.4728    81.167827 
    2900    1669.7607   -113.23859    1.5108346   -111.72775    12136.117    4.3510517    4.3510517    4.3510517    12136.117   -7902.9802    74523.326   -30211.994    4760.1142    8178.2894   -10290.296    82.372593 
    3000    1564.9864   -113.14752    1.4160326   -111.73149   -46131.133    4.3769979    4.3769979    4.3769979   -46131.133   -87835.782   -60474.798    9917.1797    10312.714   -17191.494    7060.6244    83.855012 
    3100    1960.7516   -113.46761    1.7741292   -111.69348   -38763.043     4.374525     4.374525     4.374525   -38763.043   -71946.978   -20583.164   -23758.988   -21052.771   -394.25985    21012.765    83.712961 
    3200    1770.1919   -113.28724    1.6017068   -111.68553     11751.15    4.3474902    4.3474902    4.3474902     11751.15   -49084.699    83359.739    978.41078    18315.157   -15631.476   -17235.044     82.17048 
    3300    1675.0767   -113.23748    1.5156446   -111.72184    39272.681       4.3343       4.3343       4.3343    39272.681   -38518.519    176348.92   -20012.363    5602.2999    -7101.956   -23958.329    81.424838 
    3400     1580.931   -113.21656    1.4304596    -111.7861     14375.74    4.3433778    4.3433778    4.3433778     14375.74   -40302.914    101030.85   -17600.722   -25696.229    310.44233    17274.956    81.937523 
    3500    1171.7062   -112.85724    1.0601844   -111.79706    5728.1533    4.3691793    4.3691793    4.3691793    5728.1533    -86849.87    149460.33       -45426    3038.6858    -17650.06    5074.7887    83.406443 
    3600    2676.0642   -114.19785    2.4213591   -111.77649   -37642.278    4.3727357    4.3727357    4.3727357   -37642.278   -77598.167    46716.802   -82045.469     8065.283    203.84374   -6091.1407    83.610283 
    3700    1635.1975   -113.26647    1.4795611   -111.78691    16540.536    4.3519947    4.3519947    4.3519947    16540.536   -10952.495    89985.544    -29411.44    6702.8089   -18704.602   -7806.2366    82.426163 
    3800    2024.7306   -113.62136    1.8320188   -111.78934    1100.8457    4.3452887    4.3452887    4.3452887    1100.8457   -4335.1525    18157.392   -10519.702   -8934.1881    1141.7088    8024.0137    82.045716 
    3900    1921.5016   -113.53641     1.738615    -111.7978   -35162.053    4.3564002    4.3564002    4.3564002   -35162.053   -65046.479    13673.399    -54113.08    9560.1918   -13044.741   -30192.146    82.676734 
    4000    2195.5912   -113.78171     1.986617   -111.79509   -15436.742    4.3585902    4.3585902    4.3585902   -15436.742   -66372.967    57512.771   -37450.031    612.71918    1660.8782    -3449.977    82.801481 
    4100    2460.0603   -114.02089    2.2259143   -111.79497   -52153.564    4.3616178    4.3616178    4.3616178   -52153.564   -80825.586    -36485.74   -39149.365   -22467.456   -4931.2447    16497.222     82.97415 
    4200    1791.1042   -113.39333    1.6206287    -111.7727   -28989.581    4.3668034    4.3668034    4.3668034   -28989.581   -56488.355    32749.451    -63229.84    14096.771   -5212.1939   -11716.363    83.270452 
    4300    1884.0175   -113.43911    1.7046986   -111.73441   -4995.3444    4.3689071    4.3689071    4.3689071   -4995.3444   -53082.939    58902.387   -20805.481    7265.4783   -321.79363   -6050.1731    83.390858 
    4400     1203.699   -112.80055    1.0891322   -111.71142    31101.615    4.3592182    4.3592182    4.3592182    31101.615   -36838.609    156834.93   -26691.478   -22701.412   -6769.9086   -34671.183    82.837276 
    4500    1970.8348    -113.4795    1.7832528   -111.69625   -8024.7864    4.3529165    4.3529165    4.3529165   -8024.7864   -12529.875   -10439.887   -1104.5965   -12390.715    10084.036   -11680.402    82.478549 
    4600    1490.0667   -113.04356    1.3482437   -111.69532   -13577.704    4.3502582    4.3502582    4.3502582   -13577.704   -43738.545    20159.689   -17154.255    28314.971   -16735.272    30282.782    82.327533 
    4700    1310.6776   -112.88653    1.1859286    -111.7006    29123.457    4.3441283    4.3441283    4.3441283    29123.457   -78229.501    144086.71    21513.161   -8157.0462   -3042.6708   -15627.845    81.980004 
    4800      1634.95   -113.21932    1.4793371   -111.73998   -2294.7615    4.3648165    4.3648165    4.3648165   -2294.7615   -31219.209   -6577.6586    30912.583    10123.756    420.93659   -7666.1269    83.156841 
    4900    2323.6363   -113.79461     2.102475   -111.69213   -53576.334    4.3793793    4.3793793    4.3793793   -53576.334   -77200.569   -65496.611   -18031.821    22056.068   -10563.221    -3886.904    83.991956 
    5000    2111.5596   -113.55863    1.9105835   -111.64805    7176.6547    4.3700672    4.3700672    4.3700672    7176.6547   -15295.527     2188.502     34636.99    646.33684    7119.6174    8573.0854    83.457305 
    5100    1616.3256   -113.12163    1.4624854   -111.65914   -11026.106    4.3731103    4.3731103    4.3731103   -11026.106   -55881.792    15491.625    7311.8482    6683.4258    8257.2602    5721.7998     83.63177 
    5200    1417.5787   -112.94432     1.282655   -111.66167   -298.15685    4.3691443    4.3691443    4.3691443   -298.15685    -20459.46    23891.647   -4326.6574    12866.126    4089.8976    32124.963    83.404439 
    5300    1503.6847   -113.03506    1.3605655   -111.67449      11197.4    4.3632802    4.3632802    4.3632802      11197.4   -23935.677    54345.916    3181.9616   -17999.739    12899.469      21168.4     83.06906 
    5400     1510.915   -113.05774    1.3671077   -111.69063   -699.23074    4.3772327    4.3772327    4.3772327   -699.23074   -8319.6415    15069.127   -8847.1773   -17455.003    22402.223   -45.286231    83.868503 
    5500    1802.1409   -113.29163     1.630615   -111.66102    2506.2782    4.3755643    4.3755643    4.3755643    2506.2782   -8195.4335   -659.90837    16374.176   -42120.013    5174.4745    19021.783    83.772644 
    5600    2197.7166   -113.63136    1.9885402   -111.64282   -15542.603    4.3734438    4.3734438    4.3734438   -15542.603   -28657.409    15611.405   -33581.804   -15937.549    5611.7736    9691.0697    83.650907 
    5700    2106.5889   -113.55794    1.9060859   -111.65185     4862.085    4.3721874    4.3721874    4.3721874     4862.085    -3170.057    35094.766   -17338.454   -20966.141    6513.4279   -6377.7536    83.578836 
    5800     1352.937   -112.90737    1.2241658   -111.68321   -4362.1017    4.3516788    4.3516788    4.3516788   -4362.1017   -54026.299    47260.484   -6320.4902       -25222    14964.759   -2255.9271    82.408213 
    5900    1729.9404   -113.23817    1.5652865   -111.67288    42577.284    4.3230606    4.3230606    4.3230606    42577.284    17998.712    59642.597    50090.542    6714.7469    4830.1831   -26094.734    80.793044 
    6000    1950.5537    -113.4881     1.764902    -111.7232    6329.1769    4.3574923    4.3574923    4.3574923    6329.1769   -55072.984    50544.374    23516.141   -20613.328    555.36909    11798.489    82.738925 
    6100    1822.1688   -113.32448    1.6487366   -111.67575   -83927.456    4.3875348    4.3875348    4.3875348   -83927.456   -121514.79   -69007.002   -61260.577   -25149.382   -1169.4211     2471.935    84.462072 
    6200    1655.2136   -113.12691    1.4976721   -111.62924    36672.591    4.3574595    4.3574595    4.3574595    36672.591    19661.398    75292.361    15064.015   -6502.4267   -831.69309    30005.178    82.737059 
    6300    1862.0054   -113.32198    1.6847816   -111.63719     23063.67     4.342304     4.342304     4.342304     23063.67    16445.346   -29059.132    81804.797   -4247.6669    11182.326    5686.2253    81.876765 
    6400    2113.5175   -113.59118     1.912355   -111.67883   -31187.433     4.347397     4.347397     4.347397   -31187.433   -64543.628   -50428.786    21410.116   -40588.621   -4720.7779    12750.622    82.165198 
    6500    1952.3291   -113.46394    1.7665084   -111.69743   -19806.446    4.3680735    4.3680735    4.3680735   -19806.446   -80175.553    19646.845     1109.371    4069.1154    -9758.632    70.969489     83.34313 
    6600    1674.6369    -113.2016    1.5152467   -111.68635   -43363.586    4.3741822    4.3741822    4.3741822   -43363.586   -99508.569   -20596.209   -9985.9793    5332.5131   -19532.155   -13560.702    83.693281 
    6700    1568.5499   -113.08119    1.4192569   -111.66193    41152.858    4.3413807    4.3413807    4.3413807    41152.858    1332.5558    86727.533    35398.484   -35773.493   -10428.861    11748.507    81.824545 
    6800    2517.0657   -113.94158    2.2774939   -111.66409    10125.418     4.330648     4.330648     4.330648    10125.418    27266.098   -12878.799    15988.955    8812.7435   -10084.196   -5697.7106    81.219193 
    6900    1523.6906   -113.08527    1.3786673   -111.70661    14971.023    4.3480066    4.3480066    4.3480066    14971.023    15611.385   -11144.025     40445.71   -14461.022    16892.342    9952.7117    82.199767 
    7000     1606.277   -113.17194    1.4533932   -111.71854    25338.032    4.3710148    4.3710148    4.3710148    25338.032    2313.6499    56992.021    16708.424    -15723.42    8202.4634   -9785.2034    83.511606 
    7100    1989.5312   -113.48634    1.8001697   -111.68617   -22218.307    4.3804978    4.3804978    4.3804978   -22218.307   -41541.302   -34590.307    9476.6866    20631.628    14781.434    17107.945    84.056324 
    7200    1177.1934   -112.72031    1.0651493   -111.65516   -591.69595    4.3430256    4.3430256    4.3430256   -591.69595    -79228.87    57995.038    19458.744   -48633.939   -2633.1469   -16412.373     81.91759 
    7300    1874.1477   -113.34821    1.6957682   -111.65245    23064.497    4.3192816    4.3192816    4.3192816    23064.497   -33828.805    27572.001    75450.296   -13348.942   -4718.1774    2990.8818    80.581351 
    7400    2255.9858   -113.76061    2.0412633   -111.71935    -17592.24    4.3565957    4.3565957    4.3565957    -17592.24    2653.1659   -20615.577   -34814.309    14542.203    1415.7952    7081.7198    82.687865 
    7500    1872.9404    -113.3819    1.6946758   -111.68722   -48449.979    4.3876236    4.3876236    4.3876236   -48449.979   -78312.951   -68711.113    1674.1279   -27417.742     7133.635    11863.116      84.4672 
    7600    2732.6673   -114.09441    2.4725748   -111.62184   -28507.957    4.3747822    4.3747822    4.3747822   -28507.957    2096.6743   -34654.657   -52965.889    10490.287   -7576.0845   -2363.4991     83.72773 
    7700    1572.5555   -113.06567    1.4228813   -111.64278    2078.3852    4.3406496    4.3406496    4.3406496    2078.3852   -11671.338   -57371.484    75277.978   -42108.472      14844.8    17911.682    81.783214 
    7800    1454.9002   -112.96879    1.3164243   -111.65237    28440.236    4.3124865    4.3124865    4.3124865    28440.236   -12552.061   -30703.515    128576.29   -22628.991     2449.326   -2048.7574    80.201637 
    7900    2126.1734   -113.66364    1.9238064   -111.73983   -7801.1521    4.3471795    4.3471795    4.3471795   -7801.1521   -23528.519   -36392.729    36517.792    8086.1861    9016.0591    4355.7673    82.152868 
    8000    1082.0453   -112.68717   0.97905734   -111.70811   -58172.663    4.3923873    4.3923873    4.3923873   -58172.663   -68778.367   -100915.41   -4824.2122   -51928.256    21561.694    4587.0645    84.742622 
    8100    2212.4127   -113.64891    2.0018375   -111.64708   -22844.373    4.3635252    4.3635252    4.3635252   -22844.373   -52623.997   -10246.158   -5662.9622    6773.5861    15743.537    14920.124    83.083054 
    8200    1877.7786   -113.33361    1.6990536   -111.63455    36358.748     4.319812     4.319812     4.319812    36358.748    7841.5578    29533.233    71701.455   -21163.639   -7245.9022   -4088.3643    80.611041 
    8300    2040.0634   -113.55455    1.8458923   -111.70865    6933.5225    4.3284848    4.3284848    4.3284848    6933.5225    5431.5092    1836.1166    13532.942   -8954.7118   -12423.169   -5542.7278    81.097542 
    8400    1783.3358   -113.35512    1.6135997   -111.74152    35841.953    4.3628792    4.3628792    4.3628792    35841.953      14652.1    -3845.035    96718.793    21471.879    3244.4946    9396.3166    83.046164 
    8500     1120.808   -112.72936    1.0141307   -111.71523   -41059.546    4.3907536    4.3907536    4.3907536   -41059.546    -14029.57   -68086.709   -41062.359   -36485.233    14498.989   -11426.477    84.648095 
    8600    2387.6175   -113.82443    2.1603665   -111.66407   -35977.405     4.367517     4.367517     4.367517   -35977.405   -44286.738   -44607.553   -19037.923   -8933.7051    19386.627    4594.9475    83.311283 
    8700    2381.2737   -113.79949    2.1546265   -111.64487    7237.6973     4.326917     4.326917     4.326917    7237.6973   -29570.903   -23403.732    74687.727   -14957.975   -16100.623    -24494.51    81.009451 
    8800    1228.7715   -112.81863    1.1118183   -111.70681    37190.126    4.3332435    4.3332435    4.3332435    37190.126    63112.854     -22570.2    71027.724   -26956.926   -2304.5993    29266.735    81.365307 
    8900    2129.6054   -113.65064    1.9269118   -111.72373   -2989.0619    4.3734909    4.3734909    4.3734909   -2989.0619   -45751.683   -16634.856    53419.353    1460.3836    9488.8334   -16360.161    83.653607 
    9000    2054.0223   -113.56625    1.8585226   -111.70773   -34911.802    4.3720897    4.3720897    4.3720897   -34911.802   -52992.521    -40633.88   -11109.004   -1143.5177   -15609.029   -14312.878    83.573229 
    9100    2159.6222    -113.6353    1.9540716   -111.68123   -22625.126    4.3286539    4.3286539    4.3286539   -22625.126    21855.231   -62654.077   -27076.531   -23774.566    12644.585    39713.367    81.107045 
    9200    2096.2409     -113.593    1.8967228   -111.69628    16984.561     4.324173     4.324173     4.324173    16984.561     2321.233     6367.484    42264.967    11390.562   -9569.2753   -3485.7836    80.855428 
    9300    1713.7011   -113.26754    1.5505928   -111.71695   -9679.2027    4.3492243    4.3492243    4.3492243   -9679.2027    -42202.51   -43168.976    56333.877   -6615.0328    1542.2011   -5752.4448     82.26885 
    9400    1734.2405   -113.27779    1.5691772   -111.70862    -26414.16    4.3547726    4.3547726    4.3547726    -26414.16   -6987.6938   -33628.608   -38626.179   -19463.373    -2984.176    26171.984      82.5841 
    9500    1631.6448   -113.16542    1.4763465   -111.68907    11300.616    4.3422081    4.3422081    4.3422081    11300.616    27406.127    38204.576   -31708.856    1141.7638   -4402.8429   -15996.227    81.871339 
    9600    1404.2545   -112.97382    1.2705989   -111.70322   -4757.0233    4.3339894    4.3339894    4.3339894   -4757.0233   -16439.009    7402.7926   -5234.8538   -8296.2019    16238.552    18799.632    81.407333 
    9700    2349.3396   -113.82211    2.1257318   -111.69638    254.73874    4.3303567    4.3303567    4.3303567    254.73874    18740.941    10165.891   -28142.616   -3251.0942    3141.9344    38274.661    81.202802 
    9800     1968.709   -113.49919    1.7813293   -111.71786   -231.63434    4.3403417    4.3403417    4.3403417   -231.63434   -17565.673   -23513.781    40384.551   -2977.7445   -1987.6751   -15728.044    81.765813 
    9900    1477.8041   -113.06107    1.3371482   -111.72392     9856.416    4.3515308    4.3515308    4.3515308     9856.416    -33528.18   -18158.309    81255.737    -13245.62    3746.9588    432.04397    82.399804 
   10000    2659.1072   -114.10796    2.4060161   -111.70194   -9136.0141    4.3514591    4.3514591    4.3514591   -9136.0141   -45239.083    4430.3099    13400.731    12190.166   -9656.1599   -9096.5177    82.395733 
   10100    1443.8251   -113.00621    1.3064033   -111.69981    16939.706    4.3454406    4.3454406    4.3454406    16939.706   -41115.105    61433.177    30501.046   -8477.6825    16832.342   -6818.6525     82.05432 
   10200    1860.5988   -113.37574    1.6835089   -111.69223   -7962.8201    4.3535902    4.3535902    4.3535902   -7962.8201   -3456.7287   -3158.7455   -17272.986    238.06855    14363.171   -35084.277    82.516848 
   10300    2064.0087    -113.5506    1.8675585   -111.68304   -43653.335    4.3628793    4.3628793    4.3628793   -43653.335   -23581.243   -13900.161     -93478.6   -959.51032   -26959.032    -2873.736    83.046168 
   10400    1931.4438   -113.42188     1.747611   -111.67427    678.46274    4.3548305    4.3548305    4.3548305    678.46274   -13578.584    53762.779   -38148.807    9456.7139   -4218.0725    -9267.822    82.587394 
   10500    2048.2488   -113.51838    1.8532986   -111.66508    6920.6239    4.3535531    4.3535531    4.3535531    6920.6239    4454.4416    6233.4706     10073.96    8109.2596   -9246.9034   -20749.933    82.514738 
   10600    1873.6348   -113.36433    1.6953042   -111.66902   -833.20652    4.3428695    4.3428695    4.3428695   -833.20652   -20868.181    77794.769   -59426.207   -5245.1006   -35289.803   -14654.481    81.908757 
   10700    2225.7413   -113.69917    2.0138975   -111.68527    14088.496     4.351878     4.351878     4.351878    14088.496    43281.292    21851.298   -22867.101   -17018.568     20992.91    11617.191    82.419531 
   10800    2079.5172    -113.5526    1.8815909   -111.67101   -24875.628     4.376189     4.376189     4.376189   -24875.628    45904.806    -49317.07   -71214.619    2438.0886   -10492.418   -215.58957    83.808527 
   10900     1701.436   -113.17195     1.539495   -111.63245   -12088.691    4.3574644    4.3574644    4.3574644   -12088.691    42228.686   -32839.581   -45655.178   -18620.695   -19673.155    4712.0721    82.737337 
   11000    1446.7966   -112.94216     1.309092   -111.63307    42162.957    4.3327243    4.3327243    4.3327243    42162.957    9145.2932    138532.84    -21189.26   -23394.035    16927.026   -14372.208    81.336066 
   11100     1943.522   -113.43266    1.7585396   -111.67412    1458.8394    4.3441483    4.3441483    4.3441483    1458.8394   -18371.964    37216.135   -14467.653    798.64099   -28517.487   -14359.957    81.981133 
   11200    1310.5733   -112.87871    1.1858343   -111.69287    -12810.21    4.3602083    4.3602083    4.3602083    -12810.21    -55673.49     72625.33   -55382.469   -11639.258   -6119.9833   -19198.998    82.893735 
   11300    1935.0807   -113.41778    1.7509017   -111.66688   -27811.601    4.3709546    4.3709546    4.3709546   -27811.601    17209.654   -48115.855   -52528.601   -13714.208    21143.664   -13039.355    83.508154 
   11400    2539.9738   -113.94781    2.2982216   -111.64959   -16561.438    4.3542182    4.3542182    4.3542182   -16561.438    16401.558   -18323.781    -47762.09    18203.152   -33502.583   -5544.4528    82.552563 
   11500    1545.8515   -113.06679    1.3987189   -111.66807    15650.009    4.3214252    4.3214252    4.3214252    15650.009    21776.968    28147.889   -2974.8286   -23446.479    -13017.55   -815.93985     80.70139 
   11600    1583.1383   -113.15164    1.4324568   -111.71918    12242.922    4.3243534    4.3243534    4.3243534    12242.922    103387.61   -17430.953   -49227.888    -11906.84    42020.931    2033.0188     80.86555 
   11700    2023.8633   -113.56728     1.831234   -111.73604   -7127.4024    4.3553136    4.3553136    4.3553136   -7127.4024     81007.18   -57728.844   -44660.543    8929.0451   -25147.277   -15031.975    82.614885 
   11800      1630.09   -113.19909    1.4749396   -111.72415   -18586.844    4.3607416    4.3607416    4.3607416   -18586.844   -11889.559   -59690.155    15819.182   -6807.9338    25085.517   -511.88069    82.924157 
   11900    1474.9337   -113.05689     1.334551   -111.72234   -24048.163    4.3448104    4.3448104    4.3448104   -24048.163   -18071.357   -21356.608   -32716.525   -19380.731    39875.171   -1213.1971    82.018624 
   12000    2247.4307   -113.73265    2.0335225   -111.69912    10603.288    4.3276648    4.3276648    4.3276648    10603.288     38328.12    15680.495   -22198.751    8254.0868   -31278.977     7096.159    81.051462 
   12100    1843.5673   -113.38761    1.6680985   -111.71951    296.01417     4.346737     4.346737     4.346737    296.01417    41019.028   -50906.693    10775.707   -11753.187    13790.737    8817.5944    82.127783 
   12200    1931.8484   -113.45752     1.747977   -111.70954   -11159.051    4.3581039    4.3581039    4.3581039   -11159.051   -59425.215   -52124.236    78072.299   -10831.476    40458.045    14166.755    82.773773 
   12300    1978.2929   -113.47915     1.790001   -111.68914    30618.948    4.3488333    4.3488333    4.3488333    30618.948    54607.913    4068.4575    33180.475    120.03734     9573.506    16751.754    82.246664 
   12400     1419.906   -112.98807    1.2847608   -111.70331    7281.5637    4.3426533    4.3426533    4.3426533    7281.5637   -15887.695    36590.338    1142.0473    5025.7483   -15789.682    6769.9101    81.896527 
   12500    1666.4592   -113.21124    1.5078473   -111.70339     -13859.8     4.345729     4.345729     4.345729     -13859.8   -29603.813   -3573.9876   -8401.5982   -15017.228    35418.873    24056.857    82.070662 
   12600    1925.8366   -113.43898    1.7425375   -111.69644    23304.606    4.3588069    4.3588069    4.3588069    23304.606    30516.438    27024.012     12373.37   -5868.6145    3439.8541   -5125.1593    82.813836 
   12700    1561.0834   -113.10318    1.4125011   -111.69067   -11389.311    4.3536818    4.3536818    4.3536818   -11389.311   -27302.553    47772.303   -54637.685   -2476.6745    15187.054   -1987.5376    82.522061 
   12800     1320.544   -112.87148     1.194856   -111.67663    8665.6143    4.3305145    4.3305145    4.3305145    8665.6143    26475.946   -4974.8182     4495.715   -23622.068    18242.538    22063.287    81.211677 
   12900     2582.229   -114.03627    2.3364551   -111.69982    24676.934    4.3288591    4.3288591    4.3288591    24676.934    -6594.506   -5904.2256    86529.533    30073.424   -34411.731   -12577.318    81.118582 
   13000    1703.6341   -113.27355     1.541484   -111.73207    27680.006    4.3481127    4.3481127    4.3481127    27680.006    44408.832     63232.73   -24601.545     -5431.72    13418.931   -3035.6912    82.205784 
   13100    1419.3636   -113.00821      1.28427   -111.72394   -31000.438    4.3613482    4.3613482    4.3613482   -31000.438   -18771.092   -3632.5659   -70597.655   -12232.613     34370.93    14301.159    82.958764 
   13200    1709.0503   -113.24475    1.5463847   -111.69837   -5959.8699    4.3554021    4.3554021    4.3554021   -5959.8699   -21548.218   -33488.983    37157.591    17254.948   -15060.291    16105.464    82.619919 
   13300    1763.0867   -113.27658    1.5952779   -111.68131     35444.71     4.340469     4.340469     4.340469     35444.71    5508.8748    25990.326    74834.929    1163.3756    8302.7137    11360.043    81.773007 
   13400    1603.0638   -113.16156    1.4504858   -111.71107   -24162.305    4.3424726    4.3424726    4.3424726   -24162.305   -26765.348   -41093.029   -4628.5377    3522.0207    29211.641    11882.783      81.8863 
   13500    1904.4501   -113.45008    1.7231865   -111.72689   -16270.477    4.3481843    4.3481843    4.3481843   -16270.477   -19056.133   -50863.458    21108.159      23697.1    -626.7531      12931.1    82.209845 
   13600    2494.1332   -113.96249    2.2567441   -111.70574    691.33907    4.3497004    4.3497004    4.3497004    691.33907    -39548.99    12415.363    29207.645    15026.493   -4817.2762   -12890.944    82.295867 
   13700    1497.5943   -113.05919    1.3550548   -111.70413   -3421.8613     4.349254     4.349254     4.349254   -3421.8613   -18334.805   -32202.666    40271.888   -3513.0826    17692.994    17092.969    82.270533 
   13800     1223.936   -112.81906     1.107443   -111.71161   -29451.765    4.3381456    4.3381456    4.3381456   -29451.765   -45736.121   -11726.648   -30892.528    7518.9508   -8512.3968    22704.261    81.641765 
   13900    2044.3191   -113.56192    1.8497429   -111.71218    34017.233     4.322437     4.322437     4.322437    34017.233    463.14642    100624.91    963.64073   -19235.107   -13317.647   -8377.8513    80.758088 
   14000    2140.5658   -113.67806    1.9368289   -111.74123   -3409.3771    4.3356362    4.3356362    4.3356362   -3409.3771       -12181   -27829.577    29782.446    188.83759     15466.23    -3048.541    81.500169 
   14100    1359.4061   -112.99251    1.2300192   -111.76249   -31862.487    4.3547148    4.3547148    4.3547148   -31862.487   -20076.459   -3692.8758   -71818.125    7836.8677   -11998.696     8263.433    82.580811 
   14200     1636.642   -113.22061    1.4808681   -111.73974   -18307.035    4.3543683    4.3543683    4.3543683   -18307.035   -8665.0466    8832.6048   -55088.662    3416.5136   -30702.308    381.17445    82.561101 
   14300    2734.4695   -114.18217    2.4742055   -111.70796    7783.3108    4.3278775    4.3278775    4.3278775    7783.3108   -23232.698    8182.5086    38400.121    8569.1924    18048.644    6638.5575    81.063413 
   14400    1312.7223   -112.92827    1.1877787   -111.74049    23837.854    4.3242015    4.3242015    4.3242015    23837.854     7996.384    60197.391    3319.7867    30113.065   -20742.405     4920.594    80.857026 
   14500    1154.3235   -112.79248    1.0444561   -111.74802     7633.179     4.344392     4.344392     4.344392     7633.179   -45609.689   -29354.276    97863.501   -5258.3517   -26919.482    4931.1222    81.994935 
   14600    2342.6265   -113.83754    2.1196577   -111.71788   -26794.124    4.3679695    4.3679695    4.3679695   -26794.124   -28523.432   -15867.736   -35991.204   -7681.8827    17481.438   -22302.918    83.337177 
   14700    1609.2517   -113.14473    1.4560848   -111.68864   -22973.359    4.3608089    4.3608089    4.3608089   -22973.359   -36840.054   -2063.0547    -30016.97    18066.969   -16893.764    23197.471    82.927993 
   14800    1624.7503    -113.1423    1.4701082   -111.67219    10157.269    4.3218132    4.3218132    4.3218132    10157.269    -11184.74    46879.407   -5222.8593    6000.8186   -40438.062     16662.76    80.723126 
   14900    1770.6307   -113.31012    1.6021039   -111.70802    31938.923    4.3127142    4.3127142    4.3127142    31938.923    65123.415   -7163.7137    37857.069   -16153.418    24953.664   -4928.9299    80.214347 
   15000    1661.8132   -113.27148    1.5036435   -111.76783   -13732.066    4.3510266    4.3510266    4.3510266   -13732.066   -9478.6434   -5492.6778   -26224.876    5092.2492   -2334.3432    37295.506    82.371166 
   15100    1917.3106   -113.45254    1.7348229   -111.71772   -26799.848    4.3702923    4.3702923    4.3702923   -26799.848   -33929.433   -12326.306   -34143.806    13431.708   -11867.333   -3394.6064    83.470197 
   15200    1457.8026   -113.00437    1.3190505   -111.68532   -33526.837    4.3719977    4.3719977    4.3719977   -33526.837   -18416.726   -49353.711   -32810.074   -4599.9891        13259    7360.2815    83.567957 
   15300    1919.6682   -113.38552    1.7369561   -111.64857   -39533.179    4.3490533    4.3490533    4.3490533   -39533.179   -38286.675   -37477.505   -42835.357   -27463.439    2842.1386    15487.048    82.259145 
   15400      1815.93    -113.2792    1.6430917   -111.63611    52837.881    4.3070432    4.3070432    4.3070432    52837.881    19843.497    50600.425    88069.722    16760.221   -24406.085   -16644.033    79.898326 
   15500    1316.7698   -112.91366     1.191441   -111.72222   -9069.9309    4.3235554    4.3235554    4.3235554   -9069.9309    12247.429   -36905.369   -2551.8524    2320.5615    22393.153    35543.585    80.820791 
   15600    1908.9737   -113.46081    1.7272795   -111.73353   -63570.272    4.3614118    4.3614118    4.3614118   -63570.272   -43164.245   -89619.573   -57926.997   -7614.0248    8165.7292    35659.491    82.962396 
   15700    2586.2894   -114.02812     2.340129   -111.68799   -39801.326    4.3688629    4.3688629    4.3688629   -39801.326   -71620.427   -21694.468   -26089.084    19349.426   -35644.005    -19181.82    83.388325 
   15800    1527.2164   -113.04027    1.3818575   -111.65842    27307.775    4.3434732    4.3434732    4.3434732    27307.775     53622.23   -44706.573    73007.667   -8613.7167    11747.714    20053.903     81.94292 
   15900    1523.0399   -113.05585    1.3780785   -111.67777   -25227.629    4.3401674    4.3401674    4.3401674   -25227.629   -26662.811     -46573.7   -2446.3778   -10675.776   -3541.5743    29807.977    81.755966 
   16000    2480.4377   -113.93163    2.2443522   -111.68728    3228.1779    4.3398851    4.3398851    4.3398851    3228.1779    15259.592   -18588.953    13013.895    16552.938   -14933.815    2035.4162     81.74001 
   16100    1635.6746   -113.21049    1.4799928    -111.7305   -7335.0271    4.3561408    4.3561408    4.3561408   -7335.0271    29738.185   -68916.594    17173.328   -3957.9835   -8059.2931    15958.286    82.661963 
   16200    1583.5151   -113.14161    1.4327977   -111.70881   -48514.784    4.3600013    4.3600013    4.3600013   -48514.784   -42849.461     -35941.8   -66753.091   -1195.2219    38558.814    20480.305    82.881932 
   16300    2495.5503   -113.92015    2.2580263   -111.66213     21430.91    4.3207965    4.3207965    4.3207965     21430.91    19613.694    17159.216     27519.82    12147.525   -8072.7668   -3409.5322    80.666172 
   16400     1759.599   -113.30164    1.5921222   -111.70951    5672.0165    4.3381435    4.3381435    4.3381435    5672.0165    21742.111   -40588.813    35862.751    4292.0918    18720.863    16891.008    81.641644 
   16500    1001.9341   -112.61371     0.906571   -111.70714   -19344.227    4.3659678    4.3659678    4.3659678   -19344.227   -56913.859   -22590.506    21471.683    6131.1787    63689.641    10714.298    83.222656 
   16600    2233.4795   -113.68433    2.0208992   -111.66344   -14873.679    4.3482924    4.3482924    4.3482924   -14873.679   -37464.738   -2489.9428    -4666.358    9337.7237    24828.759   -10514.732    82.215974 
   16700    1649.1498   -113.17131    1.4921854   -111.67912   -17313.107    4.3426543    4.3426543    4.3426543   -17313.107    17211.538   -63665.865    -5484.996     5386.324     2097.485    27392.858    81.896584 
   16800    1396.9165   -112.96044    1.2639594   -111.69648   -26460.242     4.350362     4.350362     4.350362   -26460.242   -57006.984   -10442.222    -11931.52   -3327.6123    49539.509    5202.4564    82.333425 
   16900    2337.6415   -113.79349    2.1151471   -111.67834   -20863.519     4.356067     4.356067     4.356067   -20863.519   -27452.331   -18759.177   -16379.048     1350.701    4477.9683   -9406.6517    82.657764 
   17000    1804.6092   -113.31042    1.6328483   -111.67757   -12956.241    4.3597605    4.3597605    4.3597605   -12956.241   -7486.7433   -51245.441    19863.459    5963.4046    678.55321    16557.053    82.868199 
   17100    1845.4381   -113.34641    1.6697912   -111.67662    3441.6431    4.3538348    4.3538348    4.3538348    3441.6431    29669.981    4966.1361   -24311.187   -8634.0599    45889.525   -5087.7387    82.530762 
   17200    2514.9575   -113.95972    2.2755864   -111.68414   -23817.056    4.3454211    4.3454211    4.3454211   -23817.056   -53452.497    14328.374   -32327.046    220.44334   -11611.128   -15977.175    82.053213 
   17300    1970.1595   -113.46908    1.7826418   -111.68644    49150.597    4.3254612    4.3254612    4.3254612    49150.597    22459.692    31022.887    93969.212    7986.3765   -3537.7707    8253.7772     80.92771 
   17400    1866.2667   -113.40366    1.6886373   -111.71503   -29880.348    4.3337849    4.3337849    4.3337849   -29880.348   -49893.149    31491.004     -71238.9   -3715.8258    39461.683    -3256.723    81.395811 
   17500    1260.2116   -112.85298     1.140266   -111.71272   -35370.993    4.3485126    4.3485126    4.3485126   -35370.993   -41642.231    28566.291   -93037.038    10989.133   -24794.676   -20471.283    82.228467 
   17600    2096.7459   -113.59663    1.8971798   -111.69945    1962.7177    4.3508707    4.3508707    4.3508707    1962.7177   -24364.233   -12847.388    43099.774   -10540.599   -11108.876    21785.512    82.362313 
   17700    1947.8884   -113.46755    1.7624903   -111.70506       -20813    4.3527952    4.3527952    4.3527952       -20813   -12723.504    9759.8629    -59475.36      550.464    15341.781    7778.5559    82.471652 
   17800    1755.2409   -113.29901    1.5881789   -111.71083   -11191.312    4.3305814    4.3305814    4.3305814   -11191.312   -37937.234   -795.27282    5158.5716    10242.676    -44267.49   -29945.839    81.215443 
   17900    1790.6604   -113.35916    1.6202271   -111.73894    17958.501    4.3285332    4.3285332    4.3285332    17958.501   -3626.6559    5332.3127    52169.846    -1183.624   -5884.3658    7487.1265    81.100263 
   18000    2671.1963   -114.16002    2.4169546   -111.74306   -20718.374    4.3469287    4.3469287    4.3469287   -20718.374   -28528.152   -44808.107    11181.136   -12254.547    24778.532    3337.2381     82.13865 
   18100    1298.4243   -112.90411    1.1748416   -111.72926   -2059.3983    4.3542236    4.3542236    4.3542236   -2059.3983   -7507.5543    10208.475   -8879.1151    10754.047   -37117.032   -24308.539     82.55287 
   18200    1768.2072   -113.29732     1.599911    -111.6974   -1464.7281     4.334877     4.334877     4.334877   -1464.7281    12158.097   -5191.9653   -11360.316    2857.7462   -3888.4503    6432.2925    81.457359 
   18300      2155.86    -113.6607    1.9506674   -111.71003    567.60757    4.3357645    4.3357645    4.3357645    567.60757    26276.416    19750.136    -44323.73    6874.5495   -10598.819    28298.728    81.507401 
   18400    1716.7843   -113.27362    1.5533825   -111.72024   -6228.1389    4.3548954    4.3548954    4.3548954   -6228.1389   -24394.788    5332.0539    378.31801    8440.7689   -38342.213   -21135.056    82.591085 
   18500     1562.055   -113.11774    1.4133802   -111.70436   -21794.502    4.3687227    4.3687227    4.3687227   -21794.502    -11124.57   -8306.7363     -45952.2    4384.0179    10895.937     32368.29    83.380299 
   18600    2263.0551   -113.72054    2.0476599   -111.67288    -26419.46     4.357014     4.357014     4.357014    -26419.46    -43867.51     20800.69    -56191.56   -5260.2725   -12261.443    19019.345    82.711685 
   18700    2098.3118   -113.57006    1.8985966   -111.67147    362.59696    4.3284929    4.3284929    4.3284929    362.59696    18775.789   -27734.101    10046.103   -20763.227   -30980.872   -14693.859    81.097997 
   18800    1786.4918   -113.33065    1.6164553   -111.71419    10878.446      4.32186      4.32186      4.32186    10878.446    53542.198    11312.286   -32219.145    2372.3763    -10942.64    16459.847     80.72575 
   18900    1794.5471   -113.37479    1.6237439   -111.75104    11480.312    4.3464391    4.3464391    4.3464391    11480.312   -18472.411    66473.737   -13560.392   -5374.0438      27197.4    6131.5926    82.110898 
   19000    1868.1587   -113.41599    1.6903493   -111.72564   -35573.991    4.3603174    4.3603174    4.3603174   -35573.991   -50046.985   -45055.363   -11619.625   -16387.883   -12513.728    1616.3177    82.899956 
   19100    1289.8529   -112.87823    1.1670861   -111.71115    11917.425    4.3426823    4.3426823    4.3426823    11917.425    50982.685   -15061.974   -168.43691    1330.8414    -23544.13    16314.147    81.898164 
   19200    1933.7694   -113.44939    1.7497152   -111.69967    30289.563    4.3258666    4.3258666    4.3258666    30289.563    30426.432    90288.388   -29846.131   -1872.2567    40903.683    4711.4699     80.95047 
   19300    1977.6113   -113.50289    1.7893843   -111.71351    26276.886    4.3322748    4.3322748    4.3322748    26276.886    37960.904   -17289.641    58159.396    7482.5498    6019.6165    -28961.46    81.310751 
   19400    1585.7851   -113.16418    1.4348516   -111.72932   -2597.9786    4.3492389    4.3492389    4.3492389   -2597.9786   -30967.835    8592.1128    14581.787   -8969.7032    -13378.46    39756.411    82.269677 
   19500    1594.8592   -113.16129    1.4430621   -111.71823   -37247.819    4.3524016    4.3524016    4.3524016   -37247.819   -68788.817    19890.513   -62845.152    -4797.119    52130.601    6308.4929    82.449281 
   19600    2867.9389   -114.28454    2.5949714   -111.68957   -11902.466    4.3335242    4.3335242    4.3335242   -11902.466   -8260.6394   -17696.229    -9750.529   -3755.4464   -20499.014    13916.589    81.381124 
   19700    1569.3144   -113.14959    1.4199486   -111.72964   -11084.798    4.3351938    4.3351938    4.3351938   -11084.798   -25337.915    52409.129   -60325.607    5123.6637    44131.684    6448.9042    81.475221 
   19800    646.03479   -112.33014   0.58454586   -111.74559    5878.3788    4.3444657    4.3444657    4.3444657    5878.3788   -40389.579    114546.92   -56522.205    10082.636    51178.102   -2201.6997    81.999106 
   19900    1802.4354   -113.35852    1.6308815   -111.72764    29787.805    4.3425867    4.3425867    4.3425867    29787.805    27003.875    81341.276   -18981.736    10404.107    -19321.61   -18419.157    81.892758 
   20000    1507.3808   -113.10994    1.3639098   -111.74603   -20904.953    4.3553547    4.3553547    4.3553547   -20904.953   -53662.146    69469.955   -78522.667   -9843.7698    47694.288    22093.415     82.61722 
   20100     1786.861   -113.36489    1.6167894    -111.7481   -16370.414     4.342539     4.342539     4.342539   -16370.414   -14738.525    16948.346   -51321.063     2090.108    5942.3624    46135.962    81.890056 
   20200    2025.9869   -113.56966    1.8331555   -111.73651    42547.246    4.3059882    4.3059882    4.3059882    42547.246    69195.946    64827.816   -6382.0234    5746.1823    9736.2447   -15893.432     79.83963 
   20300    2194.2624   -113.75901    1.9854147   -111.77359   -12088.506    4.3233548    4.3233548    4.3233548   -12088.506   -11727.957    3780.5776   -28318.138    9612.2619    24383.799    10109.551    80.809542 
   20400    1403.7889    -113.0298    1.2701777   -111.75962   -38489.509    4.3534648    4.3534648    4.3534648   -38489.509    10105.128    -29057.51   -96516.144   -11345.213   -11727.792    71299.909    82.509722 
   20500    1645.4487    -113.2034    1.4888365   -111.71457     13471.42    4.3500696    4.3500696    4.3500696     13471.42   -10981.484    75411.432   -24015.688   -6162.4363    6220.7334    -11002.88    82.316825 
   20600    1794.5302   -113.32082    1.6237286   -111.69709   -4121.2701    4.3408106    4.3408106    4.3408106   -4121.2701   -7556.2956     11710.03   -16517.545   -15777.426    2437.7286    23276.686     81.79232 
   20700    1555.3604    -113.1147    1.4073227   -111.70737   -10994.215    4.3402095    4.3402095    4.3402095   -10994.215    37823.689   -21582.889   -49223.443    8206.0858   -3536.5393    36790.192    81.758342 
   20800    2193.3344   -113.68731    1.9845751   -111.70274    6367.8209    4.3357444    4.3357444    4.3357444    6367.8209   -31763.093    32879.458    17987.097   -10615.893    7249.6046   -4968.6971    81.506267 
   20900    1572.4922   -113.14292     1.422824    -111.7201   -741.46266    4.3414572    4.3414572    4.3414572   -741.46266    32505.783   -14696.037   -20034.134    14656.237   -9748.7044     52899.93    81.828875 
   21000    2014.1269    -113.5302    1.8224244   -111.70778   -29753.732    4.3500347    4.3500347    4.3500347   -29753.732   -33168.339    3626.0997   -59718.957   -337.83515    1293.1011    31805.272    82.314847 
   21100    1729.5912   -113.26156    1.5649705   -111.69659    31005.606    4.3400303    4.3400303    4.3400303    31005.606    -29163.32    106729.49    15450.652    -1742.345   -7171.7844   -34718.288    81.748214 
   21200    1754.3912   -113.29792      1.58741   -111.71051     20468.84    4.3339261    4.3339261    4.3339261     20468.84    17449.972    79373.615   -35417.067    -4049.583   -2007.7453    23855.583    81.403767 
   21300    1897.5163   -113.45089    1.7169126   -111.73398   -16772.654    4.3465163    4.3465163    4.3465163   -16772.654   -35914.064    3468.1892   -17872.086    644.77003    -13857.26    13347.057    82.115272 
   21400    2088.2758   -113.58672    1.8895158    -111.6972   -4987.2493    4.3543666    4.3543666    4.3543666   -4987.2493   -4740.4051    16994.169   -27215.512    2384.5794   -6636.3231   -5121.0723    82.561007 
   21500    1826.2896   -113.34062    1.6524652   -111.68816    4810.9714    4.3425883    4.3425883    4.3425883    4810.9714   -4212.7284    89824.735   -71179.092    6917.1115   -5884.1299    22054.295    81.892845 
   21600    2152.7225   -113.63939    1.9478286   -111.69156   -15098.021    4.3309335    4.3309335    4.3309335   -15098.021     16655.99   -14881.713   -47068.339   -4116.2846   -9787.2404    38867.051    81.235252 
   21700    1871.4369   -113.39092    1.6933155   -111.69761    20663.675    4.3309163    4.3309163    4.3309163    20663.675    16079.089    76577.051   -30665.113     4445.093   -4849.3297   -35974.469    81.234285 
   21800     1636.449   -113.19963    1.4806934   -111.71894   -35899.872    4.3442336    4.3442336    4.3442336   -35899.872   -42651.669    15901.839   -80949.786    3884.2348   -3536.6979      54977.3    81.985964 
   21900    1170.5898   -112.77345    1.0591742   -111.71428    26286.523    4.3485501    4.3485501    4.3485501    26286.523    34984.694    57939.059   -14064.184    5858.4238   -17235.315    11639.207    82.230597 
   22000    2344.9988   -113.81523    2.1218042   -111.69343   -27984.173    4.3552875    4.3552875    4.3552875   -27984.173   -48759.629   -18016.403   -17176.488     37095.98   -4704.0626   -1666.2717    82.613401 
   22100    1751.8596   -113.27635    1.5851194   -111.69123   -25417.077    4.3522626    4.3522626    4.3522626   -25417.077    2756.0305    4213.8991    -83221.16   -12095.266   -9437.7195    49159.264    82.441382 
   22200    1632.3862   -113.15962    1.4770174    -111.6826    23677.936    4.3223551    4.3223551    4.3223551    23677.936   -11001.167    76652.279    5382.6957    2583.8713     -45301.4     3173.852    80.753498 
   22300    2357.0899   -113.84904    2.1327445    -111.7163   -7708.9986     4.320974     4.320974     4.320974   -7708.9986   -18756.977    -14648.18    10278.161    33731.994   -4650.0439   -18621.878     80.67611 
   22400    1332.7674   -112.95627    1.2059159   -111.75035   -7263.4132     4.359015     4.359015     4.359015   -7263.4132   -2218.7253   -375.38996   -19196.124    19841.857   -2677.3558    14662.586    82.825698 
   22500    1810.8271   -113.32812    1.6384745   -111.68965   -50332.442    4.3727459    4.3727459    4.3727459   -50332.442   -55197.067    -24315.26       -71485    3649.0819   -29517.596   -9972.6364    83.610868 
   22600    2108.1166   -113.56167    1.9074682   -111.65421     28841.74    4.3439437    4.3439437    4.3439437     28841.74    2376.2194    32212.613    51936.388    13930.224    9796.4974   -14797.309    81.969553 
   22700    1909.1294   -113.38786    1.7274204   -111.66044    42553.065    4.3099397    4.3099397    4.3099397    42553.065    117.55139    63277.584    64264.058   -1147.7189   -11567.208    18308.089    80.059631 
   22800     1514.753   -113.10951    1.3705804   -111.73893   -2946.1912    4.3256435    4.3256435    4.3256435   -2946.1912   -14068.659    15904.893   -10674.808    15276.363   -28375.736    11835.033    80.937942 
   22900    2147.2029   -113.69142    1.9428343   -111.74859   -28760.282    4.3559856    4.3559856    4.3559856   -28760.282   -21792.222   -55697.713   -8790.9115    11732.908    11298.262   -669.69806    82.653129 
   23000    2088.6526   -113.62105    1.8898568   -111.73119   -41254.582    4.3616253    4.3616253    4.3616253   -41254.582   -68211.812   -28667.241   -26884.695   -6193.3285   -11856.395    -28527.07    82.974579 
   23100    1346.9741   -112.91463    1.2187705   -111.69585    42045.497    4.3441271    4.3441271    4.3441271    42045.497    93551.595   -5648.5365    38233.433    13141.244   -15664.902    23978.735    81.979937 
   23200    2058.2299   -113.56777    1.8623297   -111.70544   -31985.705    4.3496114    4.3496114    4.3496114   -31985.705   -24865.365   -56969.094   -14122.655    148.72557    5971.4398    -21759.25    82.290819 
   23300    1445.2034   -113.01954    1.3076504   -111.71189   -47211.132    4.3536049    4.3536049    4.3536049   -47211.132   -29976.087   -42311.994   -69345.315   -1322.9386   -48535.748   -32453.733    82.517685 
   23400    1842.6193   -113.36545    1.6672406   -111.69821    5057.9098    4.3358711    4.3358711    4.3358711    5057.9098    11302.279   -36881.522    40752.973    8130.0221    -21483.44     29668.32    81.513412 
   23500    2069.9159   -113.58027    1.8729034   -111.70737     1790.767    4.3375308    4.3375308    4.3375308     1790.767    33626.364   -13874.574   -14379.489    14173.978    752.79623   -14569.854    81.607059 
   23600    1045.5624   -112.68403   0.94604685   -111.73799   -9977.0268    4.3631945    4.3631945    4.3631945   -9977.0268   -10762.977    26396.064   -45564.167   -7577.1981   -52840.378    2188.3306    83.064167 
   23700     2695.595   -114.13486     2.439031   -111.69583    -41042.82    4.3651991    4.3651991    4.3651991    -41042.82   -57368.547   -58494.519    -7265.396   -5063.1576    15823.886    1076.6469    83.178707 
   23800    1572.2376   -113.11214    1.4225936   -111.68955    14166.281    4.3399718    4.3399718    4.3399718    14166.281    28892.208      24823.7   -11217.065     10384.78   -18422.302   -4319.7883     81.74491 
   23900      1213.21   -112.80037    1.0977379   -111.70263    38352.399    4.3263786    4.3263786    4.3263786    38352.399    44229.062    27417.651    43410.484    2471.7373   -40218.027   -8256.8903    80.979216 
   24000    2584.1169   -114.04891    2.3381633   -111.71074    -6679.379    4.3454407    4.3454407    4.3454407    -6679.379   -3458.6936   -2560.0737    -14019.37   -2678.6969    9002.3738   -23442.594    82.054328 
   24100    1838.0596   -113.38674     1.663115   -111.72362    21164.392    4.3401529    4.3401529    4.3401529    21164.392   -12231.024    38912.608    36811.594   -2729.8507   -30065.441     5218.788    81.755146 
   24200    1419.1693   -113.01913    1.2840942   -111.73503   -6028.5877    4.3425568    4.3425568    4.3425568   -6028.5877    11080.433    5969.0095   -35135.206   -1115.6776   -19193.929   -25651.459    81.891064 
   24300    1591.1703   -113.15407    1.4397243   -111.71435   -21072.745    4.3478179    4.3478179    4.3478179   -21072.745    4062.6536   -216.91927   -67063.969   -13350.245    -10229.13   -16168.769    82.189062 
   24400    2128.9489   -113.62139    1.9263177   -111.69507    18102.146    4.3272434    4.3272434    4.3272434    18102.146   -1625.8835    945.56423    54986.757   -572.70235   -7327.7612    24367.737    81.027783 
   24500    1661.2271    -113.2286    1.5031131   -111.72548    2029.7167    4.3334542    4.3334542    4.3334542    2029.7167   -2036.7774   -13924.856    22050.784   -9013.0925   -3448.8437   -22673.087     81.37718 
   24600    1420.3656   -113.02563    1.2851767   -111.74045    -16927.27    4.3564169    4.3564169    4.3564169    -16927.27    8101.5493   -46052.337   -12831.024   -726.39521   -2242.0524   -33842.863    82.677683 
   24700     2227.944    -113.7345    2.0158906   -111.71861   -9425.2874    4.3469792    4.3469792    4.3469792   -9425.2874   -7931.8794   -19996.933   -347.04986    11351.627    -8304.383    28306.841     82.14151 
   24800    2280.3954   -113.76179    2.0633497   -111.69844    34688.181    4.3123081    4.3123081    4.3123081    34688.181    35638.901    6569.2548    61856.386    213.31904    11817.795   -13355.883    80.191688 
   24900    1524.2858   -113.11864    1.3792058   -111.73943    17969.764    4.3233746    4.3233746    4.3233746    17969.764    13035.029   -18033.696    58907.959   -14192.005    8780.2016   -60635.338    80.810649 
   25000    1770.4968   -113.33247    1.6019827   -111.73049    -12027.52    4.3602366    4.3602366    4.3602366    -12027.52   -50281.908   -47063.647    61262.996   -1434.3509   -7596.8113    38480.245     82.89535 
   25100     1949.035   -113.44892    1.7635279   -111.68539    3022.9864    4.3579288    4.3579288    4.3579288    3022.9864   -49677.624    26239.841    32506.742     3684.062   -19829.683   -15485.635    82.763794 
   25200    1323.9369   -112.88465    1.1979259   -111.68673   -27645.205    4.3517089    4.3517089    4.3517089   -27645.205   -29750.468    6827.1892   -60012.336   -10953.601   -5805.4589   -24758.049    82.409923 
   25300    1754.9833   -113.27487    1.5879458   -111.68692    -5063.567    4.3211887    4.3211887    4.3211887    -5063.567   -8777.4254   -48762.385    42349.109    4173.6911    4652.5607    52247.679     80.68814 
   25400    1833.2484   -113.38598    1.6587617   -111.72721    31565.396    4.3150104    4.3150104    4.3150104    31565.396    4959.5007    32791.453    56945.234    1633.5133     7197.393   -576.69937    80.342539 
   25500    1628.1959   -113.21341    1.4732259   -111.74018   -10537.716    4.3494138    4.3494138    4.3494138   -10537.716   -6271.3347    2731.9915   -28073.804   -6331.1997    8668.5301   -24502.484    82.279601 
   25600    1493.3625   -113.04362    1.3512258   -111.69239     13281.15    4.3527584    4.3527584    4.3527584     13281.15    12325.186   -4646.7839    32165.049    2035.4713    10550.337    37909.868     82.46956 
   25700     2201.525   -113.66287    1.9919861   -111.67089   -20694.712    4.3364621    4.3364621    4.3364621   -20694.712   -55780.412    4809.9599   -11113.684    5189.7704    -27515.54   -7651.4703    81.546752 
   25800    1848.2846   -113.35639    1.6723668   -111.68402   -1542.2621    4.3320684    4.3320684    4.3320684   -1542.2621   -16421.557     7359.632    4435.1387   -13337.683    -2732.055   -27910.664    81.299135 
   25900    1777.6852   -113.31373    1.6084869   -111.70525   -24198.713    4.3421668    4.3421668    4.3421668   -24198.713   -6797.1072   -43383.348   -22415.685   -3639.4315    3950.1129     33591.97    81.869004 
   26000    1905.4114   -113.44174    1.7240563   -111.71769   -17951.075    4.3427505    4.3427505    4.3427505   -17951.075   -28442.103   -23684.214   -1726.9077    7451.2384    3056.4656    17438.734    81.902026 
   26100     1309.289   -112.91535    1.1846722   -111.73068   -31731.006    4.3508851    4.3508851    4.3508851   -31731.006   -30494.669   -70559.605    5861.2563   -9803.2805   -2541.8397   -2770.2488    82.363129 
   26200    1625.6884   -113.17259     1.470957   -111.70163    17809.066    4.3360091    4.3360091    4.3360091    17809.066     31189.37     20473.55    1764.2767   -37398.588    6677.0076    15916.316    81.521199 
   26300     2069.745   -113.57279    1.8727488   -111.70004    38728.759    4.3323867    4.3323867    4.3323867    38728.759    37338.167    31161.077    47687.034    -1752.164    13142.236    856.82189    81.317053 
   26400    1648.9376   -113.20578    1.4919934   -111.71379   -29505.733    4.3531209    4.3531209    4.3531209   -29505.733   -17263.807   -73710.062    2456.6697   -1845.7508    2529.1266    8690.2379    82.490169 
   26500    1769.4312   -113.29334    1.6010185   -111.69233   -622.72145     4.353906     4.353906     4.353906   -622.72145   -8733.1446   -34953.857    41818.837   -4431.1954    10268.206    30541.267    82.534808 
   26600    2061.9146   -113.53723    1.8656636   -111.67157    20830.969    4.3430041    4.3430041    4.3430041    20830.969   -5830.8821    33822.953    34500.836   -4173.9633   -2779.8476    7574.5983    81.916374 
   26700    1544.7166   -113.08522     1.397692   -111.68753   -24224.748    4.3446078    4.3446078    4.3446078   -24224.748   -81172.147   -50080.877    58578.779   -37743.289    60.896594    2423.4581     82.00715 
   26800    1521.2986   -113.07382     1.376503   -111.69732    27153.826    4.3483832    4.3483832    4.3483832    27153.826   -13989.919     71549.79    23901.608    4348.2818   -1651.0229     9730.433    82.221128 
   26900    2006.5891   -113.50991     1.815604   -111.69431   -5337.2111    4.3492767    4.3492767    4.3492767   -5337.2111   -60487.524    43936.477    539.41407     1692.763   -22348.009    7342.3425    82.271825 
   27000    961.60043   -112.56866   0.87007628   -111.69858    -3030.212    4.3445224    4.3445224    4.3445224    -3030.212   -59556.753    -30402.68    80868.797   -14291.986   -15266.184    9505.0949    82.002315 
   27100    2397.7739   -113.83906    2.1695562   -111.66951    6140.1616    4.3356207    4.3356207    4.3356207    6140.1616    11223.927    12975.245   -5778.6872    19658.012    2308.6547    19209.246    81.499293 
   27200    1666.3453    -113.2078    1.5077442   -111.70006    5575.2142    4.3429368    4.3429368    4.3429368    5575.2142   -26346.482    49278.675   -6206.5501    -17850.21    -29100.19    460.79681    81.912567 
   27300    1262.0638   -112.86364    1.1419418    -111.7217   -10545.512    4.3433488    4.3433488    4.3433488   -10545.512   -66934.072   -39045.477    74343.013   -848.11426   -7212.7709   -20322.628    81.935883 
   27400    2516.7335   -113.99973    2.2771934   -111.72253   -21612.284    4.3462052    4.3462052    4.3462052   -21612.284   -21824.614   -10978.496   -32033.741    5918.4023     249.6429   -12290.754    82.097643 
   27500    2108.1443   -113.62569    1.9074933    -111.7182   -7691.9905    4.3494372    4.3494372    4.3494372   -7691.9905   -38488.125    37963.862   -22551.708    7111.5021   -11484.318    35262.008    82.280928 
   27600    1427.7817   -113.00678    1.2918869   -111.71489   -39691.964    4.3498211    4.3498211    4.3498211   -39691.964   -95598.615   -44570.096     21092.82   -5685.4772    8653.8075   -10802.343    82.302722 
   27700    1614.3638   -113.16071    1.4607103       -111.7   -16548.755    4.3451114    4.3451114    4.3451114   -16548.755    -36137.08    2494.6609   -16003.847    1108.0606    457.00513    16784.153    82.035675 
   27800     2025.471    -113.5268    1.8326888   -111.69411    1309.2438    4.3388946    4.3388946    4.3388946    1309.2438   -41662.212    19804.905    25785.038   -4748.6507    7075.3376    10203.222    81.684056 
   27900    1699.6098   -113.24586    1.5378427   -111.70802    -16062.64    4.3365679    4.3365679    4.3365679    -16062.64   -32806.245   -13534.565   -1847.1098   -6781.7695   -7785.6516   -13411.752     81.55272 
   28000     1700.474   -113.24979    1.5386246   -111.71116   -25234.999    4.3439064    4.3439064    4.3439064   -25234.999   -64678.306    4427.0919   -15453.784    7106.1403   -5423.0556    10797.461     81.96744 
   28100     1796.541    -113.3297    1.6255481   -111.70415   -19251.897    4.3468741    4.3468741    4.3468741   -19251.897   -25041.322   -4687.5154   -28026.854   -6392.1484    6819.8118    44296.968    82.135551 
   28200    1685.9115   -113.22292    1.5254481   -111.69747     9956.432    4.3356831    4.3356831    4.3356831     9956.432   -36557.444    4849.2609    61577.479    12708.094    786.01892    2831.2532     81.50281 
   28300    2052.3934   -113.55784    1.8570486    -111.7008   -20764.301    4.3387222    4.3387222    4.3387222   -20764.301   -68679.117   -4765.5003    11151.715    15036.153    8367.0586    18258.631    81.674323 
   28400    2069.5939   -113.57238    1.8726121   -111.69977    13859.447    4.3340892    4.3340892    4.3340892    13859.447   -50661.776    38498.141    53741.975   -2762.2651    7302.0684    20096.897     81.41296 
   28500     1955.525   -113.48121    1.7694001    -111.7118   -12131.646    4.3386385    4.3386385    4.3386385   -12131.646    -37060.51   -2706.5213    3372.0933    7802.5221    10941.541   -6901.3372    81.669595 
   28600    1686.3158   -113.23592     1.525814   -111.71011   -12460.305    4.3411478    4.3411478    4.3411478   -12460.305   -67206.565   -49558.225    79383.875     7186.014   -11943.142    9886.5912    81.811377 
   28700    2413.1888   -113.88072     2.183504   -111.69721   -14433.734    4.3363094    4.3363094    4.3363094   -14433.734   -16910.808    11344.474   -37734.868    7016.3564    4863.8078   -4898.1915    81.538138 
   28800    1612.3385   -113.17482    1.4588777   -111.71594   -48019.523    4.3478811    4.3478811    4.3478811   -48019.523   -82027.644   -42056.871   -19974.053    25184.263    6261.2369    22874.443     82.19265 
   28900    1511.9327   -113.07902    1.3680284   -111.71099   -17451.224    4.3354536    4.3354536    4.3354536   -17451.224   -57140.041   -12152.493    16938.861   -1705.2438   -8501.6948   -22940.545     81.48987 
   29000    1689.8585   -113.25184    1.5290195   -111.72282    10123.135    4.3335786    4.3335786    4.3335786    10123.135    11670.196        50084   -31384.791   -5289.5989   -12520.568   -4263.3125    81.384189 
   29100    2271.0257   -113.77321    2.0548717   -111.71833    867.41149    4.3341836    4.3341836    4.3341836    867.41149    -29151.04     57518.47   -25765.196   -6930.1895    1735.5598    16008.485    81.418281 
   29200    1510.2209   -113.10564    1.3664796   -111.73916     28144.32    4.3280499    4.3280499    4.3280499     28144.32   -11056.763    66891.133    28598.591    3638.1473   -1185.8283   -13473.688    81.073097 
   29300    1359.9234   -112.97851    1.2304873   -111.74803    5520.8384    4.3359619    4.3359619    4.3359619    5520.8384   -12455.642   -498.95183    29517.109   -15857.238   -10298.475   -34524.164    81.518537 
   29400    2160.9213   -113.68169     1.955247   -111.72644   -3356.8728    4.3584746    4.3584746    4.3584746   -3356.8728   -30018.913    78419.249   -58470.955    5277.2926   -1803.2719    18063.007    82.794893 
   29500     2183.777   -113.66176    1.9759273   -111.68583   -32249.261    4.3630449    4.3630449    4.3630449   -32249.261   -81914.742    37024.591   -51857.632    1713.3475   -8254.3024   -1549.3505    83.055622 
   29600    1302.1269   -112.83789    1.1781918   -111.65969    32691.944    4.3485482    4.3485482    4.3485482    32691.944   -39527.812    159344.24   -21740.596   -5803.9589   -9656.3552   -22329.691     82.23049 
   29700    2164.0978   -113.62365    1.9581212   -111.66553    6475.3199    4.3527586    4.3527586    4.3527586    6475.3199     7507.361    29690.257   -17771.658    3555.3318    6096.0113    25715.671    82.469575 
   29800    2115.6424   -113.60255    1.9142777   -111.68827     14047.02    4.3420542    4.3420542    4.3420542     14047.02   -51523.033    52839.077    40825.017    2231.8426   -18011.798   -12244.557    81.862635 
   29900    1556.6132   -113.13066    1.4084564   -111.72221    8315.2328    4.3391802    4.3391802    4.3391802    8315.2328   -69238.316    31153.531    63030.483   -13457.613   -2096.3709   -20170.351    81.700191 
   30000     2075.708   -113.59192    1.8781442   -111.71378   -2328.6374     4.346235     4.346235     4.346235   -2328.6374   -25083.954    24949.692   -6851.6497   -6594.9041    12810.361    9671.7435     82.09933 
   30100    1425.1411   -113.00977    1.2894976   -111.72028    41440.224     4.342154     4.342154     4.342154    41440.224    39297.533   -13767.939    98791.079    5291.1473    3084.3619   -1198.1961    81.868279 
   30200    1651.2125   -113.21855    1.4940518    -111.7245   -44101.302    4.3425729    4.3425729    4.3425729   -44101.302   -32452.673   -48098.284   -51752.947   -24432.393   -5774.2239    -36424.11    81.891978 
   30300    2162.0191   -113.66047    1.9562403   -111.70423    27929.158    4.3244449    4.3244449    4.3244449    27929.158    16266.739   -24489.965    92010.701   -11725.172   -3529.0333   -8087.4618     80.87068 
   30400    1754.1672   -113.33023    1.5872073   -111.74302    5262.0465    4.3403973    4.3403973    4.3403973    5262.0465    36972.688    -33986.83    12800.282   -2060.4012     4683.451    -10508.31    81.768954 
   30500    1314.5858   -112.91183    1.1894649   -111.72236   -29199.973    4.3686422    4.3686422    4.3686422   -29199.973   -66716.494   -49242.876    28359.452   -19152.925   -703.31262   -21091.049    83.375685 
   30600    2556.6789   -113.98358    2.3133368   -111.67024   -29178.742    4.3607473    4.3607473    4.3607473   -29178.742   -55404.448    -29942.17   -2189.6072    7716.4284    25423.801    7321.2448    82.924483 
   30700    1678.0399   -113.17566    1.5183258   -111.65733    45535.158    4.3289798    4.3289798    4.3289798    45535.158    10226.245    15671.483    110707.75    796.61283   -1832.6259   -5271.3354    81.125369 
   30800    2091.6522   -113.59348    1.8925708   -111.70091    9938.5042    4.3331577    4.3331577    4.3331577    9938.5042    33768.076   -37604.744    33652.181   -11061.433   -573.21684   -6892.6425    81.360477 
   30900     1894.383   -113.42292    1.7140775   -111.70885   -26202.763    4.3627964    4.3627964    4.3627964   -26202.763   -8850.0266   -2497.0127    -67261.25    11050.349    2394.1485    13695.422    83.041436 
   31000    1639.5287   -113.16389    1.4834801   -111.68041    9547.0103    4.3548091    4.3548091    4.3548091    9547.0103   -445.83645    13019.004    16067.863    7278.2679    32643.042   -299.13384    82.586177 
   31100    2112.8072    -113.5884    1.9117124   -111.67669   -10237.062    4.3521565    4.3521565    4.3521565   -10237.062    18792.583    -30536.21   -18967.559    9761.1091   -7302.6075    -9084.123    82.435354 
   31200    1860.3444   -113.37048    1.6832787   -111.68721   -37327.116    4.3510636    4.3510636    4.3510636   -37327.116   -41827.967    586.17428   -70739.555   -10743.124   -29228.115    19785.018     82.37327 
   31300    1825.8541   -113.33205    1.6520711   -111.67997   -722.41529    4.3317823    4.3317823    4.3317823   -722.41529    7284.9781    10797.943   -20250.167    31003.061     22163.92    15391.206    81.283025 
   31400    2222.4828    -113.7159    2.0109492   -111.70495    12029.084    4.3480999    4.3480999    4.3480999    12029.084   -17771.387    61589.937    -7731.297   -2257.0071   -18392.625   -3536.6944    82.205057 
   31500    1630.7206   -113.17307    1.4755103   -111.69756    -14742.11    4.3659258    4.3659258    4.3659258    -14742.11    32214.651   -3796.1151   -72644.865   -11472.583   -1601.5371    7333.1197    83.220257 
   31600    1415.4198   -112.96126    1.2807015   -111.68056    -22677.52    4.3548189    4.3548189    4.3548189    -22677.52   -16364.902   -65612.121    13944.462    41709.641    21201.688    7422.1198    82.586737 
   31700    2273.4139   -113.73015    2.0570326   -111.67311    8576.7046    4.3396231    4.3396231    4.3396231    8576.7046    12286.609    7698.1902    5745.3145   -11902.857    1357.6775   -2013.0829     81.72521 
   31800    2070.2774   -113.57553    1.8732305    -111.7023    -12259.76    4.3435513    4.3435513    4.3435513    -12259.76   -20301.276    -12225.76   -4252.2457    13782.162   -6240.9233    20633.827    81.947341 
   31900    1245.5645   -112.84593    1.1270129   -111.71892   -19555.354    4.3591837    4.3591837    4.3591837   -19555.354    -61656.01   -61302.143     64292.09    47572.093    5923.9874    2491.5902    82.835315 
   32000    2092.6233   -113.57974    1.8934495   -111.68629   -20183.511    4.3561296    4.3561296    4.3561296   -20183.511   -31251.732    5701.7164   -35000.518    -13889.08   -10184.674    11127.749    82.661325 
   32100     1988.385    -113.4843    1.7991326   -111.68516   -1493.0543    4.3380161    4.3380161    4.3380161   -1493.0543    29303.737   -41110.416    7327.5151    26781.374    4667.3247     15137.25    81.634454 
   32200    1253.3641   -112.84217    1.1340701    -111.7081    1985.5271    4.3222837    4.3222837    4.3222837    1985.5271   -55332.143   -5091.0536    66379.778    42653.689    19402.643   -1068.8507    80.749496 
   32300    1521.3405   -113.11039    1.3765408   -111.73385    43826.394    4.3377606    4.3377606    4.3377606    43826.394    99548.584    25086.066    6844.5317   -15043.635     12403.24   -984.36733    81.620029 
   32400    1778.7121   -113.32752    1.6094161   -111.71811   -15491.338    4.3742963    4.3742963    4.3742963   -15491.338   -57363.486   -39878.449    50767.921    14199.558     16133.32   -13503.605    83.699835 
   32500    1354.8131   -112.87073    1.2258633   -111.64487   -15171.052    4.3721885    4.3721885    4.3721885   -15171.052   -68053.342    10610.823    11929.363    17737.119    48652.706   -18221.488    83.578897 
   32600    2245.8093   -113.64788    2.0320555   -111.61582    6375.2222    4.3468353    4.3468353    4.3468353    6375.2222     31667.53    18883.803   -31425.666   -6688.1337    5528.6353    7934.1148    82.133352 
   32700    1734.8789   -113.22024    1.5697549   -111.65049   -4188.2614    4.3502526    4.3502526    4.3502526   -4188.2614   -49490.393   -17616.678    54542.287     44870.41    6299.3288   -10239.877    82.327218 
   32800    2009.1507    -113.4754    1.8179218   -111.65747    415.05046    4.3562589    4.3562589    4.3562589    415.05046   -59705.345    91062.511   -30112.015   -6837.5313    32505.535    9495.6373    82.668686 
   32900    2081.2756   -113.55604    1.8831819   -111.67285   -36346.029    4.3699622    4.3699622    4.3699622   -36346.029   -72862.596   -10537.746   -25637.745    2473.7489    10571.154   -5351.0466    83.451285 
   33000    1333.2177    -112.8753    1.2063234   -111.66898   -17791.566    4.3611026    4.3611026    4.3611026   -17791.566   -61757.814   -34923.303     43306.42    31852.083    13198.983    21056.729    82.944753 
   33100    2415.8842   -113.83889    2.1859428   -111.65295   -23278.791     4.322093     4.322093     4.322093   -23278.791   -60852.668    30079.422   -39063.128   -28633.373    47166.818   -6295.4879    80.738805 
   33200    1464.7008   -113.01058    1.3252921   -111.68529    13746.925    4.3177307    4.3177307    4.3177307    13746.925   -26033.914    10851.296    56423.394     4900.654   -15699.616     15602.58    80.494581 
   33300    1631.9285   -113.19188    1.4766032   -111.71527    9279.5267    4.3316234    4.3316234    4.3316234    9279.5267   -47409.118   -19873.729    95121.427    23326.191    24219.975   -348.98896    81.274084 
   33400    1226.0305   -112.86402    1.1093382   -111.75468    38973.494    4.3424539    4.3424539    4.3424539    38973.494   -36564.375    83886.355    69598.503   -47350.814     8565.107   -42.554652    81.885243 
   33500    2132.7301   -113.67408     1.929739   -111.74434   -21051.328    4.3617888    4.3617888    4.3617888   -21051.328   -20385.554   -46126.686    3358.2555   -4488.6879   -13401.571   -14523.076     82.98391 
   33600    2215.6624    -113.7036    2.0047779   -111.69882    -4649.427    4.3480087    4.3480087    4.3480087    -4649.427   -48972.884    31386.429    3638.1734     12925.14    13445.031   -10795.799    82.199884 
   33700    1609.4912   -113.15544    1.4563015   -111.69914     6258.932    4.3270033    4.3270033    4.3270033     6258.932   -58178.567    49762.508    27192.854   -58835.879      7047.32    6660.2316    81.014297 
   33800     1782.946   -113.33579     1.613247   -111.72254    37683.209    4.3437947    4.3437947    4.3437947    37683.209    18808.848    67685.234    26555.545    21728.381   -58.461335    -16520.67    81.961116 
   33900    1416.0699   -112.99219    1.2812898    -111.7109     -37604.4    4.3802754    4.3802754    4.3802754     -37604.4       -94447    31287.545   -49653.746    -29561.95    36593.776    13455.389    84.043526 
   34000    1603.1193   -113.11517     1.450536   -111.66464   -28454.874    4.3685969    4.3685969    4.3685969   -28454.874   -97091.911   -6862.8675    18590.155   -35208.657   -12780.275   -13592.586    83.373092 
   34100    1683.7868   -113.15625    1.5235257   -111.63272   -1796.1608    4.3286006    4.3286006    4.3286006   -1796.1608   -19318.724    36538.397   -22608.156    17671.302     17231.23    52574.626    81.104052 
   34200    1613.6794   -113.13342     1.460091   -111.67333    20239.048    4.3171307    4.3171307    4.3171307    20239.048   -22788.655    12965.554    70540.246   -41252.117    11566.633    20970.212     80.46103 
   34300    1358.1149    -112.9434    1.2288509   -111.71455    17288.564    4.3467956    4.3467956    4.3467956    17288.564   -33588.785    60603.205    24851.271   -29776.528   -23748.718    4127.5846    82.131102 
   34400    1995.8192   -113.49701    1.8058591   -111.69115   -30004.095    4.3611574    4.3611574    4.3611574   -30004.095    10626.058   -54915.899   -45722.443   -6986.4712    24514.131    28886.253     82.94788 
   34500    1987.8669   -113.46874    1.7986638   -111.67007    4411.6408    4.3617755    4.3617755    4.3617755    4411.6408     12063.17    18954.568   -17782.816   -19074.494    -6177.915    3450.5612    82.983152 
   34600    1800.8099   -113.27941    1.6294106      -111.65   -17677.295    4.3595164    4.3595164    4.3595164   -17677.295    1436.1661    12902.795   -67370.845    -23814.63   -26024.222    14653.727    82.854282 
   34700    1917.1031   -113.38771    1.7346352   -111.65307    22355.248    4.3327834    4.3327834    4.3327834    22355.248    47362.951   -12805.528    32508.323      11643.8    24405.481    28437.824    81.339397 
   34800    1725.6793   -113.22853    1.5614309   -111.66709     30280.09    4.3378207    4.3378207    4.3378207     30280.09    3721.7946    43169.292    43949.183   -33410.656   -14430.448    5050.8574    81.623418 
   34900    1717.4697   -113.23416    1.5540026   -111.68015   -20160.644     4.354276     4.354276     4.354276   -20160.644       -53223   -16913.201    9654.2685    -15391.41   -16881.267    16834.027    82.555853 
   35000    1845.9153   -113.34495    1.6702229   -111.67473   -4410.1478    4.3669076    4.3669076    4.3669076   -4410.1478   -7679.5347   -16170.269    10619.361    2078.8061    29058.891    16179.503    83.276413 
   35100    1721.2618   -113.21418    1.5574338   -111.65674   -50165.147     4.374732     4.374732     4.374732   -50165.147   -83225.507   -32930.841   -34339.092   -21511.529   -32633.457     63.21098    83.724844 
   35200    1378.9293   -112.88879    1.2476842   -111.64111   -5279.4706    4.3366071    4.3366071    4.3366071   -5279.4706   -57921.332    63182.352   -21099.432    5111.8642   -1310.4684   -8206.3545    81.554932 
[...]
   91200    1142.9955   -112.72955    1.0342063   -111.69535   -10025.416    4.3068517    4.3068517    4.3068517   -10025.416   -77524.807    -87.24401    47535.804     22779.31   -12362.973    11114.052    79.887672 
   91300    2787.1899   -114.18769     2.521908   -111.66579    18856.339     4.295292     4.295292     4.295292    18856.339    12461.607     31555.72     12551.69     9052.761    5796.4607   -23481.715    79.246133 
   91400    1076.5498   -112.67574   0.97408486   -111.70166   -13268.443    4.3017398    4.3017398    4.3017398   -13268.443   -57354.623    2365.9718    15183.324   -51500.155    12805.249   -1697.8455    79.603546 
   91500    2324.0834   -113.78829    2.1028795   -111.68541    15869.453    4.3082727    4.3082727    4.3082727    15869.453    11662.331    1666.1284    34279.899    9014.5286   -5090.8872   -1385.5931     79.96677 
   91600     1911.987    -113.4266     1.730006   -111.69659    3490.9802       4.3133       4.3133       4.3133    3490.9802   -5793.6726    10061.535    6205.0782    6935.2298    8070.9803    -29655.19    80.247033 
   91700    811.18348   -112.44299   0.73397586   -111.70901   -3276.3776    4.3077308    4.3077308    4.3077308   -3276.3776   -23002.943    26859.709   -13685.899   -58584.291    24738.151   -5043.5189    79.936597 
   91800    2726.6735   -114.14965    2.4671515    -111.6825    14542.139    4.2985449    4.2985449    4.2985449    14542.139     27128.82    3491.6435    13005.954    13105.277    2913.6456    20179.073    79.426312 
   91900    1274.4457   -112.85925    1.1531452   -111.70611    32391.165    4.2917252    4.2917252    4.2917252    32391.165    23330.056    19730.265    54113.174    11095.779    579.13289   -3702.4136    79.048878 
   92000    2026.8765   -113.53532    1.8339605   -111.70136    8462.0045    4.3035726    4.3035726    4.3035726    8462.0045   -15602.915    21156.617    19832.311   -42508.114    46867.972   -18128.346    79.705339 
   92100    1701.9894   -113.23132    1.5399958   -111.69132   -12716.011    4.3180182    4.3180182    4.3180182   -12716.011    28969.746   -66154.995   -962.78457     27387.07   -16012.732    51837.249    80.510664 
   92200    1249.2862   -112.82792    1.1303804   -111.69754   -8803.6305    4.3074515    4.3074515    4.3074515   -8803.6305    24782.367   -74227.031    23033.773    24474.456   -687.83183    3481.2601     79.92105 
   92300    2981.1709   -114.35862    2.6974261   -111.66119    29217.151    4.2980656    4.2980656    4.2980656    29217.151     60138.94   -2344.3415    29856.855   -16838.957    6484.6374   -18393.294    79.399749 
   92400    1221.5058   -112.81072    1.1052441   -111.70547   -39694.884    4.3029277    4.3029277    4.3029277   -39694.884   -6113.6068   -101519.11   -11451.939    39129.348   -9978.7274     76708.26    79.669511 
   92500    1464.8469   -113.03692    1.3254243   -111.71149     5076.093     4.302763     4.302763     4.302763     5076.093    43998.747   -33614.656    4844.1877    44461.103   -9605.7544    187.26695     79.66036 
   92600    2756.8649   -114.18768    2.4944693   -111.69321    9594.5562    4.3040005    4.3040005    4.3040005    9594.5562    -15955.69    17333.612    27405.747   -25301.453   -5623.5846   -9552.5162    79.729117 
   92700     384.0965   -112.07486   0.34753859   -111.72732   -22757.399    4.3098032    4.3098032    4.3098032   -22757.399   -8256.4026    -67642.86    7627.0647    33481.201     7790.081     62925.25    80.052021 
   92800    2543.4846   -113.99527    2.3013983   -111.69387    987.30451    4.3057078    4.3057078    4.3057078    987.30451   -29718.147    6415.5251    26264.536     32358.21   -15203.673   -8255.9332    79.824034 
   92900    1700.0909   -113.23405    1.5382779   -111.69578    -14221.97      4.31331      4.31331      4.31331    -14221.97    32134.299   -38017.653   -36782.555   -17540.797    11777.216   -8463.0017    80.247595 
   93000    1329.3821   -112.88668    1.2028529   -111.68383   -37131.775    4.3164148    4.3164148    4.3164148   -37131.775   -30129.424   -98917.765    17651.865    49365.512   -11707.037    61504.403     80.42101 
   93100    2371.9516   -113.81226    2.1461916   -111.66607    3570.3953    4.2958334    4.2958334    4.2958334    3570.3953     25185.42   -22237.122    7762.8869    13689.433   -1361.4623   -48449.743    79.276101 
   93200    1098.6652   -112.69339   0.99409532    -111.6993   -16050.835    4.2916216    4.2916216    4.2916216   -16050.835    71687.641   -60375.204   -59464.942   -21543.605   -4116.8065   -33825.679    79.043155 
   93300    2518.7261   -113.98125    2.2789963   -111.70226    5192.5193    4.2952142    4.2952142    4.2952142    5192.5193    25479.569   -27248.141     17346.13   -9342.7859     15686.14    52008.856    79.241829 
   93400    1582.1851   -113.14723    1.4315944   -111.71564    28284.933    4.3010425    4.3010425    4.3010425    28284.933    115101.91   -4304.6574   -25942.452   -914.30775   -18042.738   -47713.662    79.564844 
   93500    1320.8081   -112.91304    1.1950949   -111.71795   -22107.154    4.3177996    4.3177996    4.3177996   -22107.154     32609.48   -46846.869   -52084.072   -2532.9706   -7348.3804   -30281.712    80.498435 
   93600    3156.0243   -114.52155    2.8556371   -111.66592    10173.622    4.3144185    4.3144185    4.3144185    10173.622    26316.137    -15153.08     19357.81     2858.626    26111.525    20374.902     80.30948 
   93700    712.01816    -112.3443   0.64424899   -111.70005   -11979.902    4.3014818    4.3014818    4.3014818   -11979.902    74513.711   -55423.965    -55029.45    1524.9201    -43228.39   -77707.763    79.589225 
   93800    1962.5279   -113.46508    1.7757365   -111.68935    1275.5055    4.3019293    4.3019293    4.3019293    1275.5055    32348.332   -10816.916     -17704.9    12826.036   -11743.578   -13519.218    79.614068 
   93900    2555.4584   -113.99578    2.3122325   -111.68355    2854.0377    4.3032684    4.3032684    4.3032684    2854.0377    48352.044   -48957.702    9167.7708   -26457.199    2232.7008   -4879.4921    79.688434 
   94000    745.64388    -112.3923   0.67467425   -111.71762   -33046.799    4.3130546    4.3130546    4.3130546   -33046.799    36232.495   -68594.243   -66778.648   -6327.2906   -32977.897   -64210.497    80.233337 
   94100    2899.7266   -114.29949    2.6237336   -111.67575    5912.5772     4.309577     4.309577     4.309577    5912.5772   -13393.488   -6968.2879    38099.508   -10805.801    -39530.18    13866.902     80.03942 
   94200    1477.2138   -113.03331    1.3366141    -111.6967    5610.0339    4.2990928    4.2990928    4.2990928    5610.0339    44815.301    -36433.68    8448.4805     2303.678    38808.833   -21762.035    79.456688 
   94300    1494.2892   -113.06064    1.3520643   -111.70857   -18428.832    4.2990358    4.2990358    4.2990358   -18428.832    11284.936   -56212.947   -10358.484   -20125.948   -18149.022   -45303.541    79.453526 
   94400     2661.693   -114.09039    2.4083557   -111.68203    15016.898    4.3042045    4.3042045    4.3042045    15016.898   -3507.3393   -3166.1236    51724.156    23829.449    8758.5866    9697.9368    79.740453 
   94500    750.91412   -112.38771   0.67944287   -111.70827   -27971.747    4.3168227    4.3168227    4.3168227   -27971.747    -15576.67   -52172.078   -16166.494    11408.255    41082.984   -34256.021    80.443809 
   94600     2427.916   -113.87043    2.1968294    -111.6736    543.64899    4.3151627    4.3151627    4.3151627    543.64899    10055.286   -15315.544    6891.2042   -16074.877   -4295.6445   -13566.369    80.351046 
   94700    1966.6374   -113.46788    1.7794548   -111.68842   -3497.4875    4.3025374    4.3025374    4.3025374   -3497.4875   -28722.397    15711.458    2518.4765    34061.379   -14501.161    14298.067    79.647834 
   94800    1156.3029    -112.7558    1.0462472   -111.70956   -3090.5327    4.2894384    4.2894384    4.2894384   -3090.5327    11509.967    -5558.778   -15222.787    28106.043    29106.867   -57236.499    78.922583 
   94900      2594.18   -114.04769    2.3472686   -111.70042   -3772.5404    4.3037824    4.3037824    4.3037824   -3772.5404    10223.724     622.6835   -22164.029   -14786.606   -17569.879   -16219.526    79.716995 
   95000    1312.1268   -112.88089    1.1872399   -111.69365   -54804.005    4.3330506    4.3330506    4.3330506   -54804.005   -88398.665   -52678.543   -23334.806    31143.092    -30336.23    4376.8761    81.354445 
   95100    2124.8243     -113.568    1.9225857   -111.64542   -9630.3259    4.3282468    4.3282468    4.3282468   -9630.3259    13774.764   -32492.153   -10173.589    35018.119    19753.581   -38296.093    81.084167 
   95200    2085.9027   -113.52355    1.8873686   -111.63618   -19250.195    4.3162544    4.3162544    4.3162544   -19250.195   -29196.562    18212.497   -46766.522   -27197.372   -23419.261    31779.601    80.412043 
   95300    1275.4655   -112.82553     1.154068   -111.67146   -4421.5769    4.2933315    4.2933315    4.2933315   -4421.5769   -19704.416    38041.089   -31601.403    24466.563   -8953.6792    9512.8032     79.13767 
   95400    2973.3132   -114.34976    2.6903162   -111.65944     49462.82     4.286751     4.286751     4.286751     49462.82    64495.124    64348.181    19545.155    5343.5232    6510.7946   -5147.3608    78.774342 
   95500    718.70315   -112.37247   0.65029771   -111.72218   -27552.521    4.3103789    4.3103789    4.3103789   -27552.521   -46056.402    23839.945   -60441.107   -51023.434   -32038.636    19746.287    80.084108 
   95600    1882.8488   -113.39645    1.7036412   -111.69281   -2007.8837    4.3225066    4.3225066    4.3225066   -2007.8837    44047.528    8641.7059   -58712.884    -2816.368   -19879.477    21519.416    80.761986 
   95700    2167.2234   -113.63413    1.9609493   -111.67318   -10666.728    4.3170248    4.3170248    4.3170248   -10666.728    16874.921   -5808.6813   -43066.423   -10172.926    16169.674     -44186.7     80.45511 
   95800    1190.2742   -112.77206    1.0769852   -111.69508   -11525.291    4.2971361    4.2971361    4.2971361   -11525.291    -44201.46    45984.271   -36358.684   -45092.462   -22663.024    19103.613    79.348243 
   95900    2147.2743   -113.62495    1.9428989   -111.68205    35071.024    4.2850384    4.2850384    4.2850384    35071.024    47049.713    50777.971     7385.387    -2323.397    1678.9094   -16788.687    78.679962 
   96000    1446.0184   -113.02286    1.3083879   -111.71448   -13748.504    4.3080176    4.3080176    4.3080176   -13748.504    35797.062   -42872.124    -34170.45    34232.421    165.07024   -76518.671    79.952567 
   96100    2310.7962   -113.77214     2.090857   -111.68128   -34413.779    4.3241987    4.3241987    4.3241987   -34413.779   -70598.924   -12019.437   -20622.975   -13619.836   -11488.216    34208.002    80.856868 
   96200    1628.2567   -113.15282    1.4732809   -111.67954    -7062.652     4.308509     4.308509     4.308509    -7062.652    57772.295   -55852.727   -23107.525   -7894.1018   -10919.111   -81203.069     79.97993 
   96300    1677.6841   -113.20649    1.5180038   -111.68848   -15273.942    4.2926297    4.2926297    4.2926297   -15273.942    830.01231   -34461.687    -12190.15    50050.774    14114.447   -52414.575    79.098868 
   96400    2152.2315   -113.63298    1.9473843    -111.6856    12000.231    4.2917165    4.2917165    4.2917165    12000.231   -16075.314    15126.499    36949.509    11337.792    434.65783    20347.338      79.0484 
   96500    987.52135   -112.61296   0.89353007   -111.71943   -8168.1554     4.299582     4.299582     4.299582   -8168.1554     45953.88    20467.587   -90925.933   -21058.715   -378.29561   -128070.91    79.483818 
   96600     2797.973     -114.226    2.5316647   -111.69434   -4766.3434    4.3166423    4.3166423    4.3166423   -4766.3434   -24896.148    22684.881   -12087.763    15952.392    6048.9781    14354.468    80.433727 
   96700    1628.5671   -113.16613    1.4735618   -111.69257   -8974.2842    4.3204307    4.3204307    4.3204307   -8974.2842    18754.767   -3008.4784   -42669.141    10147.807   -2164.0459   -72333.324    80.645683 
   96800    1643.2336   -113.15996    1.4868323   -111.67313    3575.9724    4.3159052    4.3159052    4.3159052    3575.9724    21905.976    28572.945   -39751.004   -14467.307   -1206.1196   -61127.214    80.392528 
   96900     2217.198   -113.66097    2.0061673    -111.6548    7460.0663     4.304833     4.304833     4.304833    7460.0663    53130.439   -32713.579    1963.3387   -637.94817   -6017.3142    35021.233    79.775389 
   97000    778.65866   -112.37514   0.70454671   -111.67059    6661.7582    4.2969919    4.2969919    4.2969919    6661.7582    60810.827   -50875.929    10050.376    11356.849    11686.427   -104323.41    79.340259 
   97100    3016.2336   -114.37977    2.7291515   -111.65062    15314.525    4.3150295    4.3150295    4.3150295    15314.525    9775.3254   -23044.774    59213.023   -4234.9437   -250.35596    29998.796    80.343601 
   97200    895.73412   -112.48097   0.81047906   -111.67049    5300.7302    4.3184717    4.3184717    4.3184717    5300.7302    116006.02   -98332.331   -1771.5006   -2160.5808     13420.37   -113800.22    80.536036 
   97300    1888.5441   -113.34795    1.7087944   -111.63915    3885.6304    4.3187096    4.3187096    4.3187096    3885.6304    72039.959   -56284.815   -4098.2528    20029.157     8204.205    42696.012    80.549345 
   97400    1602.1779   -113.08592    1.4496842   -111.63624   -12036.565    4.3180128    4.3180128    4.3180128   -12036.565    39998.335   -73927.629   -2180.4029   -4653.9597    16241.764   -42211.953     80.51036 
   97500    1671.0803   -113.15301    1.5120286   -111.64099    290.74587    4.3101027    4.3101027    4.3101027    290.74587    81418.241   -42966.866   -37579.137   -25520.646    7626.7137   -57825.728    80.068716 
   97600    2055.2619   -113.49431    1.8596441   -111.63467   -1930.1695    4.3115289    4.3115289    4.3115289   -1930.1695    45779.898   -29578.999   -21991.407    24728.181    3189.6517    69256.244    80.148224 
   97700    1273.6561   -112.82194    1.1524308   -111.66951   -20514.843    4.3068279    4.3068279    4.3068279   -20514.843    47023.739   -67372.639   -41195.628   -12520.017      10387.6   -100853.96    79.886344 
   97800    2618.1505   -114.03179    2.3689576   -111.66283    5880.4504    4.3075793    4.3075793    4.3075793    5880.4504   -452.46373    48309.934   -30216.119   -3007.9642    1658.1035     13310.04    79.928163 
   97900    1348.2545   -112.90617     1.219929   -111.68624    -17662.27    4.3085968    4.3085968    4.3085968    -17662.27    55862.598   -40948.706   -67900.702   -6507.0042   -7863.8801   -25284.077    79.984818 
   98000    1280.8078   -112.86495    1.1589018   -111.70605   -18269.559    4.3057978    4.3057978    4.3057978   -18269.559    42369.816   -933.50894   -96244.983    9907.9856    401.21068   -73596.683    79.829037 
   98100    2863.3784   -114.27531     2.590845   -111.68447    21723.275    4.3130927    4.3130927    4.3130927    21723.275    6272.2701    72124.788   -13227.232   -708.52704   -4889.8098    15332.312    80.235467 
   98200    993.21076   -112.58538   0.89867797    -111.6867   -817.80113    4.3257493    4.3257493    4.3257493   -817.80113    123570.02   -52453.959    -73569.46   -6347.7945   -5482.7804   -87886.603    80.943882 
   98300    2248.0801   -113.65384    2.0341101   -111.61973     5336.214    4.3336126    4.3336126    4.3336126     5336.214    59107.017    7598.7784   -50697.154   -8031.4319   -2432.7936    59961.991    81.386106 
   98400    1521.5098   -113.00708     1.376694   -111.63039    3204.1526    4.3229944    4.3229944    4.3229944    3204.1526    103072.74   -50772.674   -42687.611   -22655.321    10614.968   -63399.277    80.789334 
   98500    1065.9194   -112.61016   0.96446624    -111.6457    36203.823    4.2995414    4.2995414    4.2995414    36203.823    156855.89   -17507.884   -30736.538   -21726.334   -2736.3307   -5287.6062    79.481565 
   98600    2190.2728   -113.62747    1.9818049   -111.64567    42254.596    4.2988455    4.2988455    4.2988455    42254.596    118882.82    9600.4793   -1719.5069   -1377.5385    2973.0663    48900.586    79.442978 
   98700     1511.543   -113.04852    1.3676758   -111.68085    18443.798    4.3150587    4.3150587    4.3150587    18443.798    91259.787   -12072.099   -23856.293    971.14867    16052.031   -81888.508    80.345237 
   98800    1493.4147   -113.02624     1.351273   -111.67497    8508.2998    4.3258029    4.3258029    4.3258029    8508.2998    57634.478   -17365.461   -14744.118   -33204.959    378.50291    53738.179    80.946894 
   98900    1625.0551   -113.13431     1.470384   -111.66393   -263.10513    4.3198945    4.3198945    4.3198945   -263.10513    33827.683   -37043.655    2426.6572    6957.3099   -767.87802   -16409.894    80.615661 
   99000    2104.5832   -113.55933    1.9042711   -111.65506    7753.6759    4.3028836    4.3028836    4.3028836    7753.6759    51637.379   -2461.3748   -25914.976    13381.977    9466.4489   -45316.965    79.667062 
   99100    1489.0911   -113.01645     1.347361   -111.66909    30878.105    4.2903136    4.2903136    4.2903136    30878.105    72289.574   -7448.1293    27792.871    -32415.74    5425.5204    73280.547    78.970904 
   99200    1620.3128    -113.1597    1.4660931   -111.69361   -1865.2104    4.3067168    4.3067168    4.3067168   -1865.2104    8674.2552   -24161.865    9891.9788    40863.104    1422.3099   -37689.256    79.880163 
   99300    1660.3887   -113.18639    1.5023546   -111.68404   -9906.7497    4.3210954    4.3210954    4.3210954   -9906.7497    11535.035   -6135.7536   -35119.531     22047.51   -11267.625    9365.1477    80.682912 
   99400    1925.1359   -113.40902    1.7419034   -111.66712    18609.806    4.3117848    4.3117848    4.3117848    18609.806    50987.076   -3607.9859    8450.3284   -16074.828    7808.4818     59501.12    80.162494 
   99500    2066.6866   -113.52907    1.8699815   -111.65909    5889.7653    4.3062377    4.3062377    4.3062377    5889.7653    6597.3623    6968.9087    4103.0248    40507.786    553.58622   -42258.964    79.853507 
   99600      1054.24    -112.6391    0.9538985    -111.6852   -5420.3926    4.3033962    4.3033962    4.3033962   -5420.3926    44354.905   -39488.665   -21127.417    6185.4363   -8770.2609     65528.29    79.695536 
   99700    2546.8608   -113.97952    2.3044532   -111.67507    34434.539    4.3012336    4.3012336    4.3012336    34434.539    33920.666    31989.704    37393.248   -9704.2512    7212.2801    15771.141     79.57545 
   99800    1998.8383   -113.50918    1.8085909   -111.70059   -4378.6545    4.3033279    4.3033279    4.3033279   -4378.6545    7491.4336   -9963.0417   -10664.355    1734.1606    16741.105   -1655.1343    79.691743 
   99900    1759.5399   -113.29839    1.5920687   -111.70632    11525.098    4.2978897    4.2978897    4.2978897    11525.098    36156.015    25230.556   -26811.276    35387.639    5718.6886    51069.601    79.389999 
  100000    1568.2559   -113.13473    1.4189909   -111.71574    3284.3188       4.3013       4.3013       4.3013    3284.3188   -35611.152   -18350.768    63814.876   -72900.839    970.26843   -9719.3976    79.579134 
Loop time of 22.4299 on 1 procs for 100000 steps with 8 atoms

Pair  time (%) = 6.95866 (31.0241)
Kspce time (%) = 5.3459 (23.8339)
Neigh time (%) = 0.242069 (1.07923)
Comm  time (%) = 1.11374 (4.96543)
Outpt time (%) = 0.0451908 (0.201476)
Other time (%) = 8.7243 (38.8959)

Nlocal:    8 ave 8 max 8 min
Histogram: 1 0 0 0 0 0 0 0 0 0
Nghost:    2189 ave 2189 max 2189 min
Histogram: 1 0 0 0 0 0 0 0 0 0
Neighs:    2247 ave 2247 max 2247 min
Histogram: 1 0 0 0 0 0 0 0 0 0

Total # of neighbors = 2247
Ave neighs/atom = 280.875
Neighbor list builds = 2857
Dangerous builds = 0
seeds:9654212
