LAMMPS (11 Aug 2017)
# ---- initialize simulations
clear
units metal
dimension 3
boundary p p p
atom_style atomic
atom_modify map array
# ---- create atoms
read_data /home/sullberg/repos/pypospack/dev/cluster_sampling/dev__cluster_sampling/rank_2/Ni_bcc.lmps_min_all/lammps.structure
  triclinic box = (0 0 0) to (2.8005 2.8005 2.8005) with tilt (0 0 0)
  1 by 1 by 1 MPI processor grid
  reading atoms ...
  2 atoms
# ---- define interatomic potential
include potential.mod
mass 1 58.6934

group Ni type 1
2 atoms in group Ni

pair_style eam/alloy
pair_coeff * * /home/sullberg/repos/pypospack/dev/cluster_sampling/dev__cluster_sampling/rank_2/Ni_bcc.lmps_min_all/Ni.eam.alloy Ni

neighbor 1.0 bin
neigh_modify every 1 delay 0 check yes
# ---- define settings
compute eng all pe/atom
compute eatoms all reduce sum c_eng
# ---- run minimization
reset_timestep 0
fix 1 all box/relax aniso 0.0 vmax 0.001
thermo 10
thermo_style custom step pe xhi xlo yhi ylo zhi xy xz yz press pxx pyy pzz pxy pxz pyz c_eatoms
min_style cg
minimize 1e-25 1e-25 5000 10000
Neighbor list info ...
  update every 1 steps, delay 0 steps, check yes
  max neighbors/atom: 2000, page size: 100000
  master list distance cutoff = 5.64464
  ghost atom cutoff = 5.64464
  binsize = 2.82232, bins = 1 1 1
  1 neighbor lists, perpetual/occasional/extra = 1 0 0
  (1) pair eam/alloy, perpetual
      attributes: half, newton on
      pair build: half/bin/newton/tri
      stencil: half/bin/3d/newton/tri
      bin: standard
Per MPI rank memory allocation (min/avg/max) = 4.24 | 4.24 | 4.24 Mbytes
Step PotEng Xhi Xlo Yhi Ylo Zhi Xy Xz Yz Press Pxx Pyy Pzz Pxy Pxz Pyz c_eatoms 
       0   -14.136035       2.8005            0       2.8005            0       2.8005            0            0            0   -687586.73   -687586.73   -687586.73   -687586.73  0.016086118  0.016086118  0.016086118   -14.136035 
      10   -14.413569    2.7864975    0.0140025    2.7864975    0.0140025    2.7864975            0            0            0   -674420.99   -674420.99   -674420.99   -674420.99 0.0048652833 0.0048652833 0.0048652832   -14.413569 
      20   -14.678739     2.772495     0.028005     2.772495     0.028005     2.772495            0            0            0   -653128.78   -653128.78   -653128.78   -653128.78 0.0056179145 0.0056179144 0.0056179144   -14.678739 
      30   -14.928387    2.7584925    0.0420075    2.7584925    0.0420075    2.7584925            0            0            0   -622112.56   -622112.56   -622112.56   -622112.56 0.0063773898 0.0063773899 0.0063773897   -14.928387 
      40   -15.158922      2.74449      0.05601      2.74449      0.05601      2.74449            0            0            0   -579545.88   -579545.88   -579545.88   -579545.88 0.0071331946 0.0071331946 0.0071331946   -15.158922 
      50   -15.366351    2.7304875    0.0700125    2.7304875    0.0700125    2.7304875            0            0            0   -524025.27   -524025.27   -524025.27   -524025.27 0.0078416384  0.007841638 0.0078416379   -15.366351 
      60   -15.546285     2.716485     0.084015     2.716485     0.084015     2.716485            0            0            0   -452661.13   -452661.13   -452661.13   -452661.13 0.0084415853 0.0084415853 0.0084415853   -15.546285 
      70   -15.693465    2.7024825    0.0980175    2.7024825    0.0980175    2.7024825            0            0            0   -362300.89   -362300.89   -362300.89   -362300.89 0.0087375797 0.0087375797 0.0087375797   -15.693465 
      80   -15.801902      2.68848      0.11202      2.68848      0.11202      2.68848            0            0            0   -249572.85   -249572.85   -249572.85   -249572.85 0.0084641109 0.0084641114 0.0084641114   -15.801902 
      90   -15.864805    2.6744775    0.1260225    2.6744775    0.1260225    2.6744775            0            0            0   -110546.63   -110546.63   -110546.63   -110546.63  0.006828313 0.0068283126 0.0068283126   -15.864805 
     100    -15.87768    2.6650611    0.1354389    2.6650611    0.1354389    2.6650611            0            0            0  -0.23641814  -0.23641814  -0.23641814  -0.23641814 2.7781273e-10 2.1634366e-10 1.8955825e-10    -15.87768 
     110    -15.87768    2.6650611   0.13543892    2.6650611   0.13543892    2.6650611            0            0            0 -1.5224184e-11 -4.0864915e-11 2.6785406e-11 -3.1593043e-11 6.7392769e-10 6.1812476e-12 2.6098601e-11    -15.87768 
Loop time of 0.00183702 on 1 procs for 110 steps with 2 atoms

100.0% CPU use with 1 MPI tasks x no OpenMP threads

Minimization stats:
  Stopping criterion = energy tolerance
  Energy initial, next-to-last, final = 
         -14.136035325     -15.8776798959     -15.8776798959
  Force two-norm initial, final = 16.3262 9.75463e-15
  Force max component initial, final = 9.42592 4.95437e-15
  Final line search alpha, max atom move = 1 4.95437e-15
  Iterations, force evaluations = 110 124

MPI task timing breakdown:
Section |  min time  |  avg time  |  max time  |%varavg| %total
---------------------------------------------------------------
Pair    | 0.00082731 | 0.00082731 | 0.00082731 |   0.0 | 45.04
Neigh   | 0          | 0          | 0          |   0.0 |  0.00
Comm    | 0.00022244 | 0.00022244 | 0.00022244 |   0.0 | 12.11
Output  | 0.0001018  | 0.0001018  | 0.0001018  |   0.0 |  5.54
Modify  | 0          | 0          | 0          |   0.0 |  0.00
Other   |            | 0.0006855  |            |       | 37.31

Nlocal:    2 ave 2 max 2 min
Histogram: 1 0 0 0 0 0 0 0 0 0
Nghost:    339 ave 339 max 339 min
Histogram: 1 0 0 0 0 0 0 0 0 0
Neighs:    64 ave 64 max 64 min
Histogram: 1 0 0 0 0 0 0 0 0 0

Total # of neighbors = 64
Ave neighs/atom = 32
Neighbor list builds = 0
Dangerous builds = 0
# ---- define output variables ----
variable natoms equal "count(all)"
variable tot_energy equal "c_eatoms"
variable a11 equal "xhi-xlo"
variable a22 equal "yhi-ylo"
variable a33 equal "zhi-zlo"
variable tilt_xy equal "xy"
variable tilt_xz equal "xz"
variable tilt_yz equal "yz"
variable tot_press equal "press"
variable press_xx equal "pxx"
variable press_yy equal "pyy"
variable press_zz equal "pzz"
variable press_xy equal "pxy"
variable press_xz equal "pxz"
variable press_yz equal "pyz"

# ---- output ----
print "pypospack:output_section:begin"
pypospack:output_section:begin
print "tot_energy = ${tot_energy}"
tot_energy = -15.8776798958847
print "num_atoms = ${natoms}"
num_atoms = 2
print "a11 = ${a11}"
a11 = 2.52962215925745
print "a22 = ${a22}"
a22 = 2.52962215925745
print "a33 = ${a33}"
a33 = 2.52962215925745
print "a12 = ${tilt_xy}"
a12 = 0
print "a13 = ${tilt_xz}"
a13 = 0
print "a23 = ${tilt_yz}"
a23 = 0
print "tot_press = ${tot_press}"
tot_press = -1.52241839995375e-11
print "pxx = ${press_xx}"
pxx = -4.0864914946127e-11
print "pyy = ${press_yy}"
pyy = 2.67854064352765e-11
print "pzz = ${press_zz}"
pzz = -3.1593043487762e-11
print "pxy = ${press_xy}"
pxy = 6.73927693964489e-10
print "pxz = ${press_xz}"
pxz = 6.18124763890996e-12
print "pyz = ${press_yz}"
pyz = 2.60986011420643e-11
print "pypospack:output_section:done"
pypospack:output_section:done
print "pypospack:lammps_sim:done"
pypospack:lammps_sim:done
Total wall time: 0:00:00
