# ['Si']

215 atoms
1 atom types

    0.0000    87.6183 xlo xhi
    0.0000    87.6183 ylo yhi
    0.0000    87.6183 zlo zhi

    0.0000     0.0000     0.0000 xy xz yz

Atoms

1 1     7.3015     7.3015     7.3015
2 1     0.0000    14.6031    14.6031
3 1     7.3015    21.9046    21.9046
4 1    14.6031     0.0000    14.6031
5 1    21.9046     7.3015    21.9046
6 1    14.6031    14.6031     0.0000
7 1    21.9046    21.9046     7.3015
8 1     0.0000     0.0000    29.2061
9 1     7.3015     7.3015    36.5077
10 1     0.0000    14.6031    43.8092
11 1     7.3015    21.9046    51.1107
12 1    14.6031     0.0000    43.8092
13 1    21.9046     7.3015    51.1107
14 1    14.6031    14.6031    29.2061
15 1    21.9046    21.9046    36.5077
16 1     0.0000     0.0000    58.4122
17 1     7.3015     7.3015    65.7137
18 1     0.0000    14.6031    73.0152
19 1     7.3015    21.9046    80.3168
20 1    14.6031     0.0000    73.0152
21 1    21.9046     7.3015    80.3168
22 1    14.6031    14.6031    58.4122
23 1    21.9046    21.9046    65.7137
24 1     0.0000    29.2061     0.0000
25 1     7.3015    36.5077     7.3015
26 1     0.0000    43.8092    14.6031
27 1     7.3015    51.1107    21.9046
28 1    14.6031    29.2061    14.6031
29 1    21.9046    36.5077    21.9046
30 1    14.6031    43.8092     0.0000
31 1    21.9046    51.1107     7.3015
32 1     0.0000    29.2061    29.2061
33 1     7.3015    36.5077    36.5077
34 1     0.0000    43.8092    43.8092
35 1     7.3015    51.1107    51.1107
36 1    14.6031    29.2061    43.8092
37 1    21.9046    36.5077    51.1107
38 1    14.6031    43.8092    29.2061
39 1    21.9046    51.1107    36.5077
40 1     0.0000    29.2061    58.4122
41 1     7.3015    36.5077    65.7137
42 1     0.0000    43.8092    73.0152
43 1     7.3015    51.1107    80.3168
44 1    14.6031    29.2061    73.0152
45 1    21.9046    36.5077    80.3168
46 1    14.6031    43.8092    58.4122
47 1    21.9046    51.1107    65.7137
48 1     0.0000    58.4122     0.0000
49 1     7.3015    65.7137     7.3015
50 1     0.0000    73.0152    14.6031
51 1     7.3015    80.3168    21.9046
52 1    14.6031    58.4122    14.6031
53 1    21.9046    65.7137    21.9046
54 1    14.6031    73.0152     0.0000
55 1    21.9046    80.3168     7.3015
56 1     0.0000    58.4122    29.2061
57 1     7.3015    65.7137    36.5077
58 1     0.0000    73.0152    43.8092
59 1     7.3015    80.3168    51.1107
60 1    14.6031    58.4122    43.8092
61 1    21.9046    65.7137    51.1107
62 1    14.6031    73.0152    29.2061
63 1    21.9046    80.3168    36.5077
64 1     0.0000    58.4122    58.4122
65 1     7.3015    65.7137    65.7137
66 1     0.0000    73.0152    73.0152
67 1     7.3015    80.3168    80.3168
68 1    14.6031    58.4122    73.0152
69 1    21.9046    65.7137    80.3168
70 1    14.6031    73.0152    58.4122
71 1    21.9046    80.3168    65.7137
72 1    29.2061     0.0000     0.0000
73 1    36.5077     7.3015     7.3015
74 1    29.2061    14.6031    14.6031
75 1    36.5077    21.9046    21.9046
76 1    43.8092     0.0000    14.6031
77 1    51.1107     7.3015    21.9046
78 1    43.8092    14.6031     0.0000
79 1    51.1107    21.9046     7.3015
80 1    29.2061     0.0000    29.2061
81 1    36.5077     7.3015    36.5077
82 1    29.2061    14.6031    43.8092
83 1    36.5077    21.9046    51.1107
84 1    43.8092     0.0000    43.8092
85 1    51.1107     7.3015    51.1107
86 1    43.8092    14.6031    29.2061
87 1    51.1107    21.9046    36.5077
88 1    29.2061     0.0000    58.4122
89 1    36.5077     7.3015    65.7137
90 1    29.2061    14.6031    73.0152
91 1    36.5077    21.9046    80.3168
92 1    43.8092     0.0000    73.0152
93 1    51.1107     7.3015    80.3168
94 1    43.8092    14.6031    58.4122
95 1    51.1107    21.9046    65.7137
96 1    29.2061    29.2061     0.0000
97 1    36.5077    36.5077     7.3015
98 1    29.2061    43.8092    14.6031
99 1    36.5077    51.1107    21.9046
100 1    43.8092    29.2061    14.6031
101 1    51.1107    36.5077    21.9046
102 1    43.8092    43.8092     0.0000
103 1    51.1107    51.1107     7.3015
104 1    29.2061    29.2061    29.2061
105 1    36.5077    36.5077    36.5077
106 1    29.2061    43.8092    43.8092
107 1    36.5077    51.1107    51.1107
108 1    43.8092    29.2061    43.8092
109 1    51.1107    36.5077    51.1107
110 1    43.8092    43.8092    29.2061
111 1    51.1107    51.1107    36.5077
112 1    29.2061    29.2061    58.4122
113 1    36.5077    36.5077    65.7137
114 1    29.2061    43.8092    73.0152
115 1    36.5077    51.1107    80.3168
116 1    43.8092    29.2061    73.0152
117 1    51.1107    36.5077    80.3168
118 1    43.8092    43.8092    58.4122
119 1    51.1107    51.1107    65.7137
120 1    29.2061    58.4122     0.0000
121 1    36.5077    65.7137     7.3015
122 1    29.2061    73.0152    14.6031
123 1    36.5077    80.3168    21.9046
124 1    43.8092    58.4122    14.6031
125 1    51.1107    65.7137    21.9046
126 1    43.8092    73.0152     0.0000
127 1    51.1107    80.3168     7.3015
128 1    29.2061    58.4122    29.2061
129 1    36.5077    65.7137    36.5077
130 1    29.2061    73.0152    43.8092
131 1    36.5077    80.3168    51.1107
132 1    43.8092    58.4122    43.8092
133 1    51.1107    65.7137    51.1107
134 1    43.8092    73.0152    29.2061
135 1    51.1107    80.3168    36.5077
136 1    29.2061    58.4122    58.4122
137 1    36.5077    65.7137    65.7137
138 1    29.2061    73.0152    73.0152
139 1    36.5077    80.3168    80.3168
140 1    43.8092    58.4122    73.0152
141 1    51.1107    65.7137    80.3168
142 1    43.8092    73.0152    58.4122
143 1    51.1107    80.3168    65.7137
144 1    58.4122     0.0000     0.0000
145 1    65.7137     7.3015     7.3015
146 1    58.4122    14.6031    14.6031
147 1    65.7137    21.9046    21.9046
148 1    73.0152     0.0000    14.6031
149 1    80.3168     7.3015    21.9046
150 1    73.0152    14.6031     0.0000
151 1    80.3168    21.9046     7.3015
152 1    58.4122     0.0000    29.2061
153 1    65.7137     7.3015    36.5077
154 1    58.4122    14.6031    43.8092
155 1    65.7137    21.9046    51.1107
156 1    73.0152     0.0000    43.8092
157 1    80.3168     7.3015    51.1107
158 1    73.0152    14.6031    29.2061
159 1    80.3168    21.9046    36.5077
160 1    58.4122     0.0000    58.4122
161 1    65.7137     7.3015    65.7137
162 1    58.4122    14.6031    73.0152
163 1    65.7137    21.9046    80.3168
164 1    73.0152     0.0000    73.0152
165 1    80.3168     7.3015    80.3168
166 1    73.0152    14.6031    58.4122
167 1    80.3168    21.9046    65.7137
168 1    58.4122    29.2061     0.0000
169 1    65.7137    36.5077     7.3015
170 1    58.4122    43.8092    14.6031
171 1    65.7137    51.1107    21.9046
172 1    73.0152    29.2061    14.6031
173 1    80.3168    36.5077    21.9046
174 1    73.0152    43.8092     0.0000
175 1    80.3168    51.1107     7.3015
176 1    58.4122    29.2061    29.2061
177 1    65.7137    36.5077    36.5077
178 1    58.4122    43.8092    43.8092
179 1    65.7137    51.1107    51.1107
180 1    73.0152    29.2061    43.8092
181 1    80.3168    36.5077    51.1107
182 1    73.0152    43.8092    29.2061
183 1    80.3168    51.1107    36.5077
184 1    58.4122    29.2061    58.4122
185 1    65.7137    36.5077    65.7137
186 1    58.4122    43.8092    73.0152
187 1    65.7137    51.1107    80.3168
188 1    73.0152    29.2061    73.0152
189 1    80.3168    36.5077    80.3168
190 1    73.0152    43.8092    58.4122
191 1    80.3168    51.1107    65.7137
192 1    58.4122    58.4122     0.0000
193 1    65.7137    65.7137     7.3015
194 1    58.4122    73.0152    14.6031
195 1    65.7137    80.3168    21.9046
196 1    73.0152    58.4122    14.6031
197 1    80.3168    65.7137    21.9046
198 1    73.0152    73.0152     0.0000
199 1    80.3168    80.3168     7.3015
200 1    58.4122    58.4122    29.2061
201 1    65.7137    65.7137    36.5077
202 1    58.4122    73.0152    43.8092
203 1    65.7137    80.3168    51.1107
204 1    73.0152    58.4122    43.8092
205 1    80.3168    65.7137    51.1107
206 1    73.0152    73.0152    29.2061
207 1    80.3168    80.3168    36.5077
208 1    58.4122    58.4122    58.4122
209 1    65.7137    65.7137    65.7137
210 1    58.4122    73.0152    73.0152
211 1    65.7137    80.3168    80.3168
212 1    73.0152    58.4122    73.0152
213 1    80.3168    65.7137    80.3168
214 1    73.0152    73.0152    58.4122
215 1    80.3168    80.3168    65.7137
