   2   2   0   0
  0.1090254E+02  0.2793739E-09  0.2793739E-09  0.2793739E-09  0.5000000E-15
  1.000000000000000E-004
  CAR 
 automatically generated by pyflamestk   
     29.83205666     -0.72099494  301      9.24964271      1.00000000
     -0.721  0.0000E+00  0.0000E+00  0.0000E+00  0.0000E+00
     -0.619  0.0000E+00  0.0000E+00  0.0000E+00  0.0000E+00
     -0.517  0.0000E+00  0.0000E+00  0.0000E+00  0.0000E+00
     -0.415 -0.1965E-30  0.0000E+00 -0.2002E-31  0.0000E+00
     -0.314 -0.7964E-27 -0.1706E-27 -0.8112E-28 -0.1737E-28
     -0.212 -0.1913E-23 -0.4527E-24 -0.1950E-24 -0.4612E-25
     -0.110 -0.2724E-20 -0.7120E-21 -0.2776E-21 -0.7256E-22
     -0.008 -0.2296E-17 -0.6631E-18 -0.2341E-18 -0.6761E-19
      0.094 -0.1145E-14 -0.3653E-15 -0.1168E-15 -0.3728E-16
      0.196 -0.3256E-12 -0.1150E-12 -0.3328E-13 -0.1175E-13
      0.297 -0.5610E-10 -0.2193E-10 -0.5747E-11 -0.2245E-11
      0.399 -0.5666E-08 -0.2453E-08 -0.5828E-09 -0.2521E-09
      0.501 -0.3337E-06 -0.1602E-06 -0.3457E-07 -0.1657E-07
      0.603 -0.1136E-04 -0.6058E-05 -0.1191E-05 -0.6335E-06
      0.705 -0.2199E-03 -0.1308E-03 -0.2359E-04 -0.1395E-04
      0.807 -0.2346E-02 -0.1569E-02 -0.2625E-03 -0.1738E-03
      0.909 -0.1276E-01 -0.9807E-02 -0.1562E-02 -0.1173E-02
      1.010 -0.2593E-01 -0.2557E-01 -0.4203E-02 -0.3777E-02
      1.112  0.4340E-01  0.1694E-01  0.2174E-03 -0.2051E-02
      1.214  0.2930E+00  0.2359E+00  0.3006E-01  0.2198E-01
      1.316  0.5064E+00  0.4883E+00  0.8164E-01  0.7171E-01
      1.418  0.3737E+00  0.4232E+00  0.1197E+00  0.1148E+00
      1.520  0.9546E-01  0.1404E+00  0.1294E+00  0.1291E+00
      1.621 -0.2130E-01 -0.1294E-01  0.1273E+00  0.1278E+00
      1.723 -0.1762E-01 -0.2102E-01  0.1255E+00  0.1257E+00
      1.825 -0.4027E-02 -0.5667E-02  0.1250E+00  0.1251E+00
      1.927 -0.4494E-03 -0.7163E-03  0.1250E+00  0.1250E+00
      2.029 -0.2725E-04 -0.4858E-04  0.1250E+00  0.1250E+00
      2.131 -0.9335E-06 -0.1852E-05  0.1250E+00  0.1250E+00
      2.232 -0.1842E-07 -0.4055E-07  0.1250E+00  0.1250E+00
      2.334 -0.2115E-09 -0.5159E-09  0.1250E+00  0.1250E+00
      2.436 -0.5234E-11 -0.1257E-10  0.1250E+00  0.1250E+00
      2.538 -0.5734E-09 -0.1207E-08  0.1250E+00  0.1250E+00
      2.640 -0.5051E-07 -0.9763E-07  0.1250E+00  0.1250E+00
      2.742 -0.2590E-05 -0.4592E-05  0.1250E+00  0.1250E+00
      2.844 -0.7651E-04 -0.1241E-03  0.1250E+00  0.1250E+00
      2.945 -0.1278E-02 -0.1889E-02  0.1249E+00  0.1248E+00
      3.047 -0.1161E-01 -0.1548E-01  0.1237E+00  0.1232E+00
      3.149 -0.5170E-01 -0.6027E-01  0.1184E+00  0.1171E+00
      3.251 -0.6583E-01 -0.4741E-01  0.1117E+00  0.1123E+00
      3.353  0.2726E+00  0.3813E+00  0.1395E+00  0.1511E+00
      3.455  0.1103E+01  0.1230E+01  0.2518E+00  0.2764E+00
      3.556  0.1523E+01  0.1485E+01  0.4069E+00  0.4276E+00
      3.658  0.8984E+00  0.7557E+00  0.4984E+00  0.5045E+00
      3.760  0.1406E+00  0.7087E-01  0.5127E+00  0.5117E+00
      3.862 -0.7747E-01 -0.7767E-01  0.5048E+00  0.5038E+00
      3.964 -0.3935E-01 -0.3199E-01  0.5008E+00  0.5006E+00
      4.066 -0.7361E-02 -0.8092E-02  0.5001E+00  0.4997E+00
      4.167 -0.9293E-03 -0.2104E-01  0.5000E+00  0.4976E+00
      4.269 -0.3138E-02 -0.6863E-01  0.4997E+00  0.4906E+00
      4.371 -0.2209E-01 -0.1611E-01  0.4974E+00  0.4890E+00
      4.473 -0.7051E-01  0.5109E+00  0.4902E+00  0.5410E+00
      4.575 -0.5782E-02  0.1346E+01  0.4896E+00  0.6781E+00
      4.677  0.5465E+00  0.1409E+01  0.5453E+00  0.8216E+00
      4.779  0.1373E+01  0.5826E+00  0.6851E+00  0.8809E+00
      4.880  0.1390E+01 -0.6149E-01  0.8266E+00  0.8747E+00
      4.982  0.5698E+00 -0.6386E-01  0.8846E+00  0.8682E+00
      5.084 -0.1308E-01  0.5531E+00  0.8833E+00  0.9245E+00
      5.186 -0.1330E+00  0.1340E+01  0.8698E+00  0.1061E+01
      5.288 -0.9205E-01  0.1507E+01  0.8604E+00  0.1214E+01
      5.390  0.2821E+00  0.1518E+01  0.8891E+00  0.1369E+01
      5.491  0.1110E+01  0.2008E+01  0.1002E+01  0.1574E+01
      5.593  0.1907E+01  0.2122E+01  0.1196E+01  0.1790E+01
      5.695  0.2509E+01  0.1342E+01  0.1452E+01  0.1926E+01
      5.797  0.2558E+01  0.5040E+00  0.1712E+01  0.1978E+01
      5.899  0.1452E+01  0.6960E+00  0.1860E+01  0.2048E+01
      6.001  0.3049E+00  0.2243E+01  0.1891E+01  0.2277E+01
      6.103  0.2846E+00  0.3912E+01  0.1920E+01  0.2675E+01
      6.204  0.7859E+00  0.4228E+01  0.2000E+01  0.3106E+01
      6.306  0.1146E+01  0.3416E+01  0.2117E+01  0.3454E+01
      6.408  0.1798E+01  0.2077E+01  0.2300E+01  0.3665E+01
      6.510  0.2500E+01  0.1087E+01  0.2555E+01  0.3776E+01
      6.612  0.2818E+01  0.1834E+01  0.2842E+01  0.3963E+01
      6.714  0.3329E+01  0.3226E+01  0.3181E+01  0.4291E+01
      6.815  0.3289E+01  0.2895E+01  0.3516E+01  0.4586E+01
      6.917  0.1889E+01  0.1756E+01  0.3708E+01  0.4765E+01
      7.019  0.7676E+00  0.2384E+01  0.3786E+01  0.5008E+01
      7.121  0.1352E+01  0.3843E+01  0.3924E+01  0.5399E+01
      7.223  0.2803E+01  0.3366E+01  0.4210E+01  0.5742E+01
      7.325  0.3933E+01  0.1509E+01  0.4610E+01  0.5896E+01
      7.426  0.4302E+01  0.4489E+00  0.5048E+01  0.5941E+01
      7.528  0.3901E+01  0.2329E+00  0.5446E+01  0.5965E+01
      7.630  0.2855E+01  0.1151E+00  0.5736E+01  0.5977E+01
      7.732  0.1343E+01  0.6747E+00  0.5873E+01  0.6046E+01
      7.834  0.1865E+00  0.2235E+01  0.5892E+01  0.6273E+01
      7.936 -0.4161E-01  0.3166E+01  0.5888E+01  0.6596E+01
      8.038  0.2395E+00  0.2740E+01  0.5912E+01  0.6875E+01
      8.139  0.5093E+00  0.2941E+01  0.5964E+01  0.7174E+01
      8.241  0.9389E+00  0.4203E+01  0.6060E+01  0.7602E+01
      8.343  0.1697E+01  0.4647E+01  0.6233E+01  0.8075E+01
      8.445  0.2347E+01  0.4268E+01  0.6472E+01  0.8510E+01
      8.547  0.2727E+01  0.3994E+01  0.6749E+01  0.8917E+01
      8.649  0.3212E+01  0.3969E+01  0.7077E+01  0.9321E+01
      8.750  0.4240E+01  0.4458E+01  0.7508E+01  0.9775E+01
      8.852  0.5307E+01  0.4260E+01  0.8049E+01  0.1021E+02
      8.954  0.5348E+01  0.2503E+01  0.8593E+01  0.1046E+02
      9.056  0.4071E+01  0.6311E+00  0.9008E+01  0.1053E+02
      9.158  0.2656E+01 -0.1515E+00  0.9279E+01  0.1051E+02
      9.260  0.2516E+01 -0.2047E+00  0.9535E+01  0.1049E+02
      9.362  0.3229E+01  0.6774E-01  0.9864E+01  0.1050E+02
      9.463  0.3449E+01  0.8214E+00  0.1021E+02  0.1058E+02
      9.565  0.2338E+01  0.1507E+01  0.1045E+02  0.1074E+02
      9.667  0.6860E+00  0.1169E+01  0.1052E+02  0.1085E+02
      9.769 -0.1565E+00  0.3255E+00  0.1051E+02  0.1089E+02
      9.871 -0.1345E+00 -0.5777E-01  0.1049E+02  0.1088E+02
      9.973  0.4899E+00 -0.5605E-01  0.1054E+02  0.1088E+02
     10.074  0.1352E+01 -0.1345E-01  0.1068E+02  0.1088E+02
     10.176  0.1404E+01 -0.1559E-02  0.1082E+02  0.1088E+02
     10.278  0.5947E+00 -0.9782E-04  0.1088E+02  0.1088E+02
     10.380  0.9437E-02 -0.3463E-05  0.1089E+02  0.1088E+02
     10.482 -0.7280E-01 -0.7057E-07  0.1088E+02  0.1088E+02
     10.584 -0.2418E-01 -0.5137E-08  0.1088E+02  0.1087E+02
     10.685 -0.3532E-02 -0.2997E-06  0.1088E+02  0.1087E+02
     10.787 -0.2722E-03 -0.1211E-04  0.1088E+02  0.1087E+02
     10.889 -0.1175E-04 -0.2799E-03  0.1088E+02  0.1087E+02
     10.991 -0.2248E-05 -0.3610E-02  0.1087E+02  0.1087E+02
     11.093 -0.6038E-04 -0.2455E-01  0.1087E+02  0.1087E+02
     11.195 -0.1054E-02 -0.7316E-01  0.1087E+02  0.1086E+02
     11.297 -0.1005E-01  0.1220E-01  0.1087E+02  0.1087E+02
     11.398 -0.4759E-01  0.6029E+00  0.1087E+02  0.1093E+02
     11.500 -0.7139E-01  0.1408E+01  0.1086E+02  0.1107E+02
     11.602  0.2259E+00  0.1337E+01  0.1088E+02  0.1121E+02
     11.704  0.1038E+01  0.4594E+00  0.1099E+02  0.1125E+02
     11.806  0.1524E+01 -0.9299E-01  0.1115E+02  0.1124E+02
     11.908  0.9299E+00  0.1988E+00  0.1124E+02  0.1126E+02
     12.009  0.9062E-01  0.1218E+01  0.1125E+02  0.1139E+02
     12.111 -0.5429E-02  0.1949E+01  0.1125E+02  0.1159E+02
     12.213  0.7928E+00  0.1397E+01  0.1133E+02  0.1173E+02
     12.315  0.1750E+01  0.3628E+00  0.1151E+02  0.1177E+02
     12.417  0.1678E+01 -0.7454E-01  0.1168E+02  0.1176E+02
     12.519  0.7442E+00 -0.6648E-01  0.1175E+02  0.1175E+02
     12.621  0.6820E-01 -0.1590E-01  0.1176E+02  0.1175E+02
     12.722 -0.7343E-01 -0.1861E-02  0.1175E+02  0.1175E+02
     12.824 -0.3374E-01 -0.1187E-03  0.1175E+02  0.1175E+02
     12.926 -0.6670E-02 -0.4291E-05  0.1175E+02  0.1175E+02
     13.028 -0.7131E-03 -0.8948E-07  0.1175E+02  0.1175E+02
     13.130 -0.4346E-04 -0.1087E-08  0.1175E+02  0.1175E+02
     13.232 -0.1536E-05 -0.7740E-11  0.1175E+02  0.1175E+02
     13.333 -0.3174E-07 -0.3270E-13  0.1175E+02  0.1175E+02
     13.435 -0.3847E-09  0.0000E+00  0.1175E+02  0.1175E+02
     13.537 -0.2743E-11  0.0000E+00  0.1175E+02  0.1175E+02
     13.639 -0.1145E-13  0.0000E+00  0.1175E+02  0.1175E+02
     13.741  0.0000E+00  0.0000E+00  0.1175E+02  0.1175E+02
     13.843  0.0000E+00  0.0000E+00  0.1175E+02  0.1175E+02
     13.944  0.0000E+00  0.0000E+00  0.1175E+02  0.1175E+02
     14.046  0.0000E+00 -0.9488E-29  0.1175E+02  0.1175E+02
     14.148  0.0000E+00 -0.3159E-25  0.1175E+02  0.1175E+02
     14.250 -0.1645E-28 -0.6235E-22  0.1175E+02  0.1175E+02
     14.352 -0.5291E-25 -0.7290E-19  0.1175E+02  0.1175E+02
     14.454 -0.1009E-21 -0.5044E-16  0.1175E+02  0.1175E+02
     14.556 -0.1140E-18 -0.1995E-13  0.1175E+02  0.1175E+02
     14.657 -0.7617E-16 -0.4802E-11  0.1175E+02  0.1175E+02
     14.759 -0.2914E-13 -0.6771E-09  0.1175E+02  0.1175E+02
     14.861 -0.6762E-11 -0.5589E-07  0.1175E+02  0.1175E+02
     14.963 -0.9206E-09 -0.2682E-05  0.1175E+02  0.1175E+02
     15.065 -0.7333E-07 -0.7405E-04  0.1175E+02  0.1175E+02
     15.167 -0.3395E-05 -0.1153E-02  0.1175E+02  0.1175E+02
     15.268 -0.9029E-04 -0.9728E-02  0.1175E+02  0.1175E+02
     15.370 -0.1351E-02 -0.3993E-01  0.1175E+02  0.1174E+02
     15.472 -0.1087E-01 -0.4520E-01  0.1175E+02  0.1174E+02
     15.574 -0.4140E-01  0.1886E+00  0.1174E+02  0.1176E+02
     15.676 -0.3138E-01  0.7301E+00  0.1174E+02  0.1183E+02
     15.778  0.2481E+00  0.1226E+01  0.1177E+02  0.1196E+02
     15.879  0.7662E+00  0.1568E+01  0.1184E+02  0.1212E+02
     15.981  0.9653E+00  0.1587E+01  0.1194E+02  0.1228E+02
     16.083  0.9922E+00  0.9106E+00  0.1204E+02  0.1237E+02
     16.185  0.1382E+01  0.1551E+00  0.1218E+02  0.1239E+02
     16.287  0.1365E+01 -0.7935E-01  0.1232E+02  0.1238E+02
     16.389  0.5935E+00 -0.4336E-01  0.1238E+02  0.1238E+02
     16.491  0.1256E-01 -0.8508E-02  0.1239E+02  0.1238E+02
     16.592 -0.7389E-01 -0.8440E-03  0.1238E+02  0.1238E+02
     16.694 -0.2505E-01 -0.4609E-04  0.1238E+02  0.1238E+02
     16.796 -0.3715E-02 -0.6165E-05  0.1238E+02  0.1237E+02
     16.898 -0.2968E-03 -0.1196E-03  0.1238E+02  0.1237E+02
     17.000 -0.1719E-03 -0.1691E-02  0.1237E+02  0.1237E+02
     17.102 -0.2124E-02 -0.1277E-01  0.1237E+02  0.1237E+02
     17.203 -0.1500E-01 -0.4438E-01  0.1237E+02  0.1237E+02
     17.305 -0.4733E-01 -0.1707E-01  0.1237E+02  0.1237E+02
     17.407 -0.1881E-02  0.3167E+00  0.1237E+02  0.1240E+02
     17.509  0.3707E+00  0.8743E+00  0.1241E+02  0.1249E+02
     17.611  0.9186E+00  0.9376E+00  0.1250E+02  0.1258E+02
     17.713  0.9150E+00  0.4116E+00  0.1259E+02  0.1263E+02
     17.815  0.3513E+00  0.1275E+00  0.1263E+02  0.1264E+02
     17.916 -0.4328E-02  0.3407E+00  0.1263E+02  0.1267E+02
     18.018  0.1289E+00  0.4832E+00  0.1264E+02  0.1272E+02
     18.120  0.4371E+00  0.2634E+00  0.1269E+02  0.1275E+02
     18.222  0.4565E+00  0.9262E-02  0.1273E+02  0.1275E+02
     18.324  0.1716E+00 -0.2154E-01  0.1275E+02  0.1275E+02
     18.426  0.7586E-02  0.1906E+00  0.1275E+02  0.1277E+02
     18.527  0.1798E+00  0.4685E+00  0.1277E+02  0.1282E+02
     18.629  0.4637E+00  0.4468E+00  0.1282E+02  0.1286E+02
     18.731  0.4464E+00  0.1540E+00  0.1286E+02  0.1288E+02
     18.833  0.1646E+00 -0.6778E-01  0.1288E+02  0.1287E+02
     18.935 -0.3425E-01 -0.6352E-01  0.1287E+02  0.1286E+02
     19.037 -0.9904E-01  0.4063E+00  0.1286E+02  0.1290E+02
     19.138  0.3685E-01  0.1261E+01  0.1287E+02  0.1303E+02
     19.240  0.6888E+00  0.1469E+01  0.1294E+02  0.1318E+02
     19.342  0.1457E+01  0.7173E+00  0.1309E+02  0.1326E+02
     19.444  0.1284E+01  0.5469E-01  0.1322E+02  0.1326E+02
     19.546  0.4369E+00 -0.7693E-01  0.1326E+02  0.1325E+02
     19.648 -0.3520E-01 -0.2988E-01  0.1326E+02  0.1325E+02
     19.750 -0.6411E-01 -0.4818E-02  0.1325E+02  0.1325E+02
     19.851 -0.1761E-01 -0.4049E-03  0.1325E+02  0.1325E+02
     19.953 -0.2256E-02 -0.4323E-04  0.1325E+02  0.1325E+02
     20.055 -0.1659E-03 -0.5102E-03  0.1325E+02  0.1325E+02
     20.157 -0.2700E-03 -0.5965E-02  0.1325E+02  0.1325E+02
     20.259 -0.3556E-02 -0.3700E-01  0.1325E+02  0.1325E+02
     20.361 -0.2586E-01 -0.1006E+00  0.1325E+02  0.1324E+02
     20.462 -0.8880E-01  0.3032E-01  0.1324E+02  0.1324E+02
     20.564 -0.4595E-01  0.8412E+00  0.1323E+02  0.1332E+02
     20.666  0.5872E+00  0.2020E+01  0.1329E+02  0.1353E+02
     20.768  0.1801E+01  0.2172E+01  0.1348E+02  0.1375E+02
     20.870  0.2287E+01  0.1078E+01  0.1371E+02  0.1386E+02
     20.972  0.1358E+01  0.2842E+00  0.1385E+02  0.1389E+02
     21.074  0.3710E+00  0.7334E+00  0.1389E+02  0.1396E+02
     21.175  0.6084E+00  0.1454E+01  0.1395E+02  0.1411E+02
     21.277  0.1390E+01  0.1156E+01  0.1409E+02  0.1423E+02
     21.379  0.1266E+01  0.3230E+00  0.1422E+02  0.1426E+02
     21.481  0.4334E+00 -0.5807E-01  0.1426E+02  0.1426E+02
     21.583 -0.3568E-01 -0.5595E-01  0.1426E+02  0.1425E+02
     21.685 -0.6402E-01 -0.1341E-01  0.1425E+02  0.1425E+02
     21.786 -0.1755E-01 -0.1552E-02  0.1425E+02  0.1425E+02
     21.888 -0.2246E-02 -0.9725E-04  0.1425E+02  0.1425E+02
     21.990 -0.1540E-03 -0.3439E-05  0.1425E+02  0.1425E+02
     22.092 -0.5933E-05 -0.7010E-07  0.1425E+02  0.1425E+02
     22.194 -0.1315E-06 -0.1355E-07  0.1425E+02  0.1425E+02
     22.296 -0.2574E-07 -0.7767E-06  0.1425E+02  0.1425E+02
     22.397 -0.1356E-05 -0.2743E-04  0.1425E+02  0.1425E+02
     22.499 -0.4415E-04 -0.5517E-03  0.1425E+02  0.1425E+02
     22.601 -0.8160E-03 -0.6133E-02  0.1425E+02  0.1425E+02
     22.703 -0.8279E-02 -0.3504E-01  0.1425E+02  0.1425E+02
     22.805 -0.4236E-01 -0.7819E-01  0.1424E+02  0.1424E+02
     22.907 -0.7598E-01  0.9992E-01  0.1424E+02  0.1425E+02
     23.009  0.1706E+00  0.8191E+00  0.1425E+02  0.1433E+02
     23.110  0.9513E+00  0.1505E+01  0.1435E+02  0.1448E+02
     23.212  0.1529E+01  0.1175E+01  0.1451E+02  0.1460E+02
     23.314  0.1053E+01  0.3311E+00  0.1461E+02  0.1464E+02
     23.416  0.2359E+00 -0.5683E-01  0.1464E+02  0.1463E+02
     23.518 -0.7032E-01 -0.5649E-01  0.1463E+02  0.1463E+02
     23.620 -0.4850E-01 -0.1365E-01  0.1463E+02  0.1463E+02
     23.721 -0.1038E-01 -0.1590E-02  0.1463E+02  0.1463E+02
     23.823 -0.1100E-02 -0.1002E-03  0.1463E+02  0.1463E+02
     23.925 -0.6365E-04 -0.3565E-05  0.1463E+02  0.1463E+02
     24.027 -0.2085E-05 -0.7293E-07  0.1463E+02  0.1463E+02
     24.129 -0.3938E-07 -0.8680E-09  0.1463E+02  0.1463E+02
     24.231 -0.4333E-09 -0.1980E-10  0.1463E+02  0.1462E+02
     24.333 -0.5164E-10 -0.1815E-08  0.1462E+02  0.1462E+02
     24.434 -0.5641E-08 -0.1401E-06  0.1462E+02  0.1462E+02
     24.536 -0.3804E-06 -0.6277E-05  0.1462E+02  0.1462E+02
     24.638 -0.1487E-04 -0.1615E-03  0.1462E+02  0.1462E+02
     24.740 -0.3321E-03 -0.2333E-02  0.1462E+02  0.1462E+02
     24.842 -0.4131E-02 -0.1804E-01  0.1462E+02  0.1462E+02
     24.944 -0.2693E-01 -0.6482E-01  0.1462E+02  0.1462E+02
     25.045 -0.7516E-01 -0.3259E-01  0.1461E+02  0.1461E+02
     25.147  0.3058E-01  0.4478E+00  0.1462E+02  0.1466E+02
     25.249  0.6552E+00  0.1294E+01  0.1468E+02  0.1479E+02
     25.351  0.1439E+01  0.1451E+01  0.1483E+02  0.1494E+02
     25.453  0.1311E+01  0.6768E+00  0.1496E+02  0.1501E+02
     25.555  0.4668E+00  0.3296E-01  0.1501E+02  0.1501E+02
     25.656 -0.3498E-01 -0.1100E+00  0.1501E+02  0.1500E+02
     25.758 -0.1052E+00 -0.1061E+00  0.1500E+02  0.1499E+02
     25.860 -0.9637E-01  0.8730E-01  0.1499E+02  0.1500E+02
     25.962  0.1359E+00  0.8014E+00  0.1500E+02  0.1508E+02
     26.064  0.8942E+00  0.1500E+01  0.1509E+02  0.1523E+02
     26.166  0.1522E+01  0.1191E+01  0.1525E+02  0.1535E+02
     26.268  0.1107E+01  0.3443E+00  0.1536E+02  0.1539E+02
     26.369  0.2728E+00 -0.5784E-01  0.1539E+02  0.1538E+02
     26.471 -0.8517E-01 -0.8101E-01  0.1538E+02  0.1537E+02
     26.573 -0.1194E+00 -0.8621E-01  0.1537E+02  0.1537E+02
     26.675 -0.3348E-01  0.2574E-02  0.1536E+02  0.1537E+02
     26.777  0.4889E+00  0.5786E+00  0.1541E+02  0.1542E+02
     26.879  0.1330E+01  0.1394E+01  0.1555E+02  0.1557E+02
     26.980  0.1426E+01  0.1368E+01  0.1569E+02  0.1571E+02
     27.082  0.6304E+00  0.5395E+00  0.1576E+02  0.1576E+02
     27.184  0.2159E-01 -0.8059E-02  0.1576E+02  0.1576E+02
     27.286 -0.7516E-01 -0.7259E-01  0.1575E+02  0.1575E+02
     27.388 -0.3384E-01 -0.3833E-01  0.1575E+02  0.1575E+02
     27.490 -0.3912E-01 -0.5198E-01  0.1575E+02  0.1574E+02
     27.591 -0.4291E-01  0.9223E-02  0.1574E+02  0.1574E+02
     27.693  0.1909E+00  0.4059E+00  0.1576E+02  0.1579E+02
     27.795  0.7475E+00  0.9422E+00  0.1584E+02  0.1588E+02
     27.897  0.1013E+01  0.8973E+00  0.1594E+02  0.1597E+02
     27.999  0.5861E+00  0.3403E+00  0.1600E+02  0.1601E+02
     28.101  0.8681E-01 -0.1082E-01  0.1601E+02  0.1601E+02
     28.203 -0.5186E-01 -0.4572E-01  0.1600E+02  0.1600E+02
     28.304 -0.2552E-01 -0.1371E-01  0.1600E+02  0.1600E+02
     28.406 -0.4692E-02 -0.1870E-02  0.1600E+02  0.1600E+02
     28.508 -0.4398E-03 -0.1356E-03  0.1600E+02  0.1600E+02
     28.610 -0.2272E-04 -0.5512E-05  0.1600E+02  0.1600E+02
     28.712 -0.6674E-06 -0.1284E-06  0.1600E+02  0.1600E+02
     28.814 -0.1133E-07 -0.1736E-08  0.1600E+02  0.1600E+02
     28.915 -0.1122E-09 -0.1372E-10  0.1600E+02  0.1600E+02
     29.017 -0.6514E-12 -0.6377E-13  0.1600E+02  0.1600E+02
     29.119 -0.2180E-14  0.0000E+00  0.1600E+02  0.1600E+02
     29.221  0.0000E+00  0.0000E+00  0.1600E+02  0.1600E+02
     29.323  0.0000E+00  0.0000E+00  0.1600E+02  0.1600E+02
     29.425  0.0000E+00  0.0000E+00  0.1600E+02  0.1600E+02
     29.527  0.0000E+00  0.0000E+00  0.1600E+02  0.1600E+02
     29.628  0.0000E+00  0.0000E+00  0.1600E+02  0.1600E+02
     29.730  0.0000E+00  0.0000E+00  0.1600E+02  0.1600E+02
     29.832  0.0000E+00  0.0000E+00  0.1600E+02  0.1600E+02
