# ['Ni']

18 atoms
1 atom types

    0.0000     2.4893 xlo xhi
    0.0000     4.3116 ylo yhi
    0.0000    36.5794 zlo zhi

    0.0000     0.0000    -0.0004 xy xz yz

Atoms

1 1     0.0000     0.0000     0.0000
2 1     1.2447     0.7186     2.0322
3 1     0.0000     1.4372     4.0644
4 1     1.2447     2.1558     0.0000
5 1     0.0000     2.8744     2.0322
6 1     1.2447     3.5930     4.0644
7 1     0.0000     0.0000     6.0966
8 1     1.2447     0.7186     8.1288
9 1     0.0000     1.4372    10.1610
10 1     1.2447     2.1558     6.0966
11 1     0.0000     2.8744     8.1288
12 1     1.2447     3.5930    10.1610
13 1     0.0000     0.0000    12.1931
14 1     1.2447     0.7186    14.2253
15 1     0.0000     1.4372    16.2575
16 1     1.2447     2.1558    12.1931
17 1     0.0000     2.8744    14.2253
18 1     1.2447     3.5930    16.2575
