# ['Ni']

107 atoms
1 atom types

    0.0000     9.5394 xlo xhi
    0.0000     9.5394 ylo yhi
    0.0000     9.5394 zlo zhi

    0.0000    -0.0000    -0.0000 xy xz yz

Atoms

1 1     1.5899     1.5899     0.0000
2 1     1.5899     0.0000     1.5899
3 1     0.0000     1.5899     1.5899
4 1     0.0000     0.0000     3.1798
5 1     1.5899     1.5899     3.1798
6 1     1.5899     0.0000     4.7697
7 1     0.0000     1.5899     4.7697
8 1     0.0000     0.0000     6.3596
9 1     1.5899     1.5899     6.3596
10 1     1.5899     0.0000     7.9495
11 1     0.0000     1.5899     7.9495
12 1     0.0000     3.1798     0.0000
13 1     1.5899     4.7697     0.0000
14 1     1.5899     3.1798     1.5899
15 1     0.0000     4.7697     1.5899
16 1     0.0000     3.1798     3.1798
17 1     1.5899     4.7697     3.1798
18 1     1.5899     3.1798     4.7697
19 1     0.0000     4.7697     4.7697
20 1     0.0000     3.1798     6.3596
21 1     1.5899     4.7697     6.3596
22 1     1.5899     3.1798     7.9495
23 1     0.0000     4.7697     7.9495
24 1     0.0000     6.3596     0.0000
25 1     1.5899     7.9495     0.0000
26 1     1.5899     6.3596     1.5899
27 1     0.0000     7.9495     1.5899
28 1     0.0000     6.3596     3.1798
29 1     1.5899     7.9495     3.1798
30 1     1.5899     6.3596     4.7697
31 1     0.0000     7.9495     4.7697
32 1     0.0000     6.3596     6.3596
33 1     1.5899     7.9495     6.3596
34 1     1.5899     6.3596     7.9495
35 1     0.0000     7.9495     7.9495
36 1     3.1798     0.0000     0.0000
37 1     4.7697     1.5899     0.0000
38 1     4.7697     0.0000     1.5899
39 1     3.1798     1.5899     1.5899
40 1     3.1798     0.0000     3.1798
41 1     4.7697     1.5899     3.1798
42 1     4.7697     0.0000     4.7697
43 1     3.1798     1.5899     4.7697
44 1     3.1798     0.0000     6.3596
45 1     4.7697     1.5899     6.3596
46 1     4.7697     0.0000     7.9495
47 1     3.1798     1.5899     7.9495
48 1     3.1798     3.1798     0.0000
49 1     4.7697     4.7697     0.0000
50 1     4.7697     3.1798     1.5899
51 1     3.1798     4.7697     1.5899
52 1     3.1798     3.1798     3.1798
53 1     4.7697     4.7697     3.1798
54 1     4.7697     3.1798     4.7697
55 1     3.1798     4.7697     4.7697
56 1     3.1798     3.1798     6.3596
57 1     4.7697     4.7697     6.3596
58 1     4.7697     3.1798     7.9495
59 1     3.1798     4.7697     7.9495
60 1     3.1798     6.3596     0.0000
61 1     4.7697     7.9495     0.0000
62 1     4.7697     6.3596     1.5899
63 1     3.1798     7.9495     1.5899
64 1     3.1798     6.3596     3.1798
65 1     4.7697     7.9495     3.1798
66 1     4.7697     6.3596     4.7697
67 1     3.1798     7.9495     4.7697
68 1     3.1798     6.3596     6.3596
69 1     4.7697     7.9495     6.3596
70 1     4.7697     6.3596     7.9495
71 1     3.1798     7.9495     7.9495
72 1     6.3596     0.0000     0.0000
73 1     7.9495     1.5899     0.0000
74 1     7.9495     0.0000     1.5899
75 1     6.3596     1.5899     1.5899
76 1     6.3596     0.0000     3.1798
77 1     7.9495     1.5899     3.1798
78 1     7.9495     0.0000     4.7697
79 1     6.3596     1.5899     4.7697
80 1     6.3596     0.0000     6.3596
81 1     7.9495     1.5899     6.3596
82 1     7.9495     0.0000     7.9495
83 1     6.3596     1.5899     7.9495
84 1     6.3596     3.1798     0.0000
85 1     7.9495     4.7697     0.0000
86 1     7.9495     3.1798     1.5899
87 1     6.3596     4.7697     1.5899
88 1     6.3596     3.1798     3.1798
89 1     7.9495     4.7697     3.1798
90 1     7.9495     3.1798     4.7697
91 1     6.3596     4.7697     4.7697
92 1     6.3596     3.1798     6.3596
93 1     7.9495     4.7697     6.3596
94 1     7.9495     3.1798     7.9495
95 1     6.3596     4.7697     7.9495
96 1     6.3596     6.3596     0.0000
97 1     7.9495     7.9495     0.0000
98 1     7.9495     6.3596     1.5899
99 1     6.3596     7.9495     1.5899
100 1     6.3596     6.3596     3.1798
101 1     7.9495     7.9495     3.1798
102 1     7.9495     6.3596     4.7697
103 1     6.3596     7.9495     4.7697
104 1     6.3596     6.3596     6.3596
105 1     7.9495     7.9495     6.3596
106 1     7.9495     6.3596     7.9495
107 1     6.3596     7.9495     7.9495
