# ['Ni']

18 atoms
1 atom types

    0.0000     2.4735 xlo xhi
    0.0000     4.2843 ylo yhi
    0.0000    36.3471 zlo zhi

    0.0000     0.0000    -0.0004 xy xz yz

Atoms

1 1     0.0000     0.0000     0.0000
2 1     1.2368     0.7140     2.0193
3 1     0.0000     1.4281     4.0386
4 1     1.2368     2.1421     0.0000
5 1     0.0000     2.8562     2.0193
6 1     1.2368     3.5702     4.0386
7 1     0.0000     0.0000     6.0579
8 1     1.2368     0.7140     8.0771
9 1     0.0000     1.4281    10.0964
10 1     1.2368     2.1421     6.0579
11 1     0.0000     2.8562     8.0771
12 1     1.2368     3.5702    10.0964
13 1     0.0000     0.0000    12.1157
14 1     1.2368     0.7140    14.1350
15 1     0.0000     1.4281    16.1542
16 1     1.2368     2.1421    12.1157
17 1     0.0000     2.8562    14.1350
18 1     1.2368     3.5702    16.1542
