# ['Ni']

18 atoms
1 atom types

    0.0000     2.3898 xlo xhi
    0.0000     4.1392 ylo yhi
    0.0000    35.1165 zlo zhi

    0.0000     0.0000    -0.0004 xy xz yz

Atoms

1 1     0.0000     0.0000     0.0000
2 1     1.1949     0.6899     1.9509
3 1     0.0000     1.3797     3.9018
4 1     1.1949     2.0696     0.0000
5 1     0.0000     2.7595     1.9509
6 1     1.1949     3.4493     3.9018
7 1     0.0000     0.0000     5.8528
8 1     1.1949     0.6899     7.8037
9 1     0.0000     1.3797     9.7546
10 1     1.1949     2.0696     5.8528
11 1     0.0000     2.7595     7.8037
12 1     1.1949     3.4493     9.7546
13 1     0.0000     0.0000    11.7055
14 1     1.1949     0.6899    13.6564
15 1     0.0000     1.3797    15.6073
16 1     1.1949     2.0696    11.7055
17 1     0.0000     2.7595    13.6564
18 1     1.1949     3.4493    15.6073
