# ['Ni']

20 atoms
1 atom types

    0.0000     3.3594 xlo xhi
    0.0000     3.3594 ylo yhi
    0.0000    33.5937 zlo zhi

    0.0000    -0.0000     0.0000 xy xz yz

Atoms

1 1     0.0000     0.0000     0.0000
2 1     1.6797     1.6797     0.0000
3 1     1.6797     0.0000     1.6797
4 1     0.0000     1.6797     1.6797
5 1     0.0000     0.0000     3.3594
6 1     1.6797     1.6797     3.3594
7 1     1.6797     0.0000     5.0390
8 1     0.0000     1.6797     5.0390
9 1     0.0000     0.0000     6.7187
10 1     1.6797     1.6797     6.7187
11 1     1.6797     0.0000     8.3984
12 1     0.0000     1.6797     8.3984
13 1     0.0000     0.0000    10.0781
14 1     1.6797     1.6797    10.0781
15 1     1.6797     0.0000    11.7578
16 1     0.0000     1.6797    11.7578
17 1     0.0000     0.0000    13.4375
18 1     1.6797     1.6797    13.4375
19 1     1.6797     0.0000    15.1171
20 1     0.0000     1.6797    15.1171
