# ['Ni']

28 atoms
1 atom types

    0.0000     2.4407 xlo xhi
    0.0000     4.2274 ylo yhi
    0.0000    27.8992 zlo zhi

    0.0000     0.0000     0.0000 xy xz yz

Atoms

1 1     0.0000     0.0000     0.0000
2 1     1.2203     2.1137     0.0000
3 1     1.2203     0.7046     1.9928
4 1     0.0000     2.8183     1.9928
5 1     0.0000     1.4091     3.9856
6 1     1.2203     3.5228     3.9856
7 1     0.0000     0.0000     5.9784
8 1     1.2203     2.1137     5.9784
9 1     1.2203     0.7046     7.9712
10 1     0.0000     2.8183     7.9712
11 1     0.0000     1.4091     9.9640
12 1     1.2203     3.5228     9.9640
13 1     0.0000     0.0000    11.9568
14 1     1.2203     2.1137    11.9568
15 1     0.0000     1.4091    13.9496
16 1     1.2203     3.5228    13.9496
17 1     0.0000     0.0000    15.9424
18 1     1.2203     2.1137    15.9424
19 1     1.2203     0.7046    17.9352
20 1     0.0000     2.8183    17.9352
21 1     0.0000     1.4091    19.9280
22 1     1.2203     3.5228    19.9280
23 1     0.0000     0.0000    21.9208
24 1     1.2203     2.1137    21.9208
25 1     1.2203     0.7046    23.9136
26 1     0.0000     2.8183    23.9136
27 1     0.0000     1.4091    25.9064
28 1     1.2203     3.5228    25.9064
