    2    2    1    1
  0.9639684E+01  0.3009788E-09  0.3009788E-09  0.3009788E-09  0.5000000E-15
  1.000000000000000E-004
  CAR 
 automatically generated by pyflamestk   
      8     10     16
 
  0.1250000E+00  0.1250000E+00  0.1250000E+00  0.3125000E-01
    1      -13.596784   1.000000
    2        2.410330   1.000000
    3        3.255608   1.000000
    4        3.255608   1.000000
    5        8.698884   0.000000
    6       17.308323   0.000000
    7       19.317589   0.000000
    8       19.317592   0.000000
    9       23.529637   0.000000
   10       23.529637   0.000000
   11       24.862132   0.000000
   12       27.257799   0.000000
   13       28.679864   0.000000
   14       28.679865   0.000000
   15       38.891703   0.000000
   16       40.798494   0.000000
 
  0.3750000E+00  0.1250000E+00  0.1250000E+00  0.9375000E-01
    1      -12.947671   1.000000
    2        0.254569   1.000000
    3        2.401999   1.000000
    4        2.961895   1.000000
    5       11.117346   0.000000
    6       15.239305   0.000000
    7       18.616741   0.000000
    8       20.290636   0.000000
    9       22.114013   0.000000
   10       24.329235   0.000000
   11       26.407644   0.000000
   12       31.059555   0.000000
   13       32.313733   0.000000
   14       33.206415   0.000000
   15       35.573692   0.000000
   16       38.845292   0.000000
 
 -0.3750000E+00  0.1250000E+00  0.1250000E+00  0.9375000E-01
    1      -12.514040   1.000000
    2       -0.866744   1.000000
    3        2.253178   1.000000
    4        2.625092   1.000000
    5       11.722767   0.000000
    6       15.416793   0.000000
    7       17.909970   0.000000
    8       19.720931   0.000000
    9       23.697357   0.000000
   10       25.946465   0.000000
   11       26.023409   0.000000
   12       32.285345   0.000000
   13       32.870117   0.000000
   14       33.239068   0.000000
   15       35.793343   0.000000
   16       37.501808   0.000000
 
 -0.1250000E+00  0.1250000E+00  0.1250000E+00  0.9375000E-01
    1      -13.235193   1.000000
    2        1.135608   1.000000
    3        2.888730   1.000000
    4        2.892113   1.000000
    5       10.285858   0.000000
    6       15.495623   0.000000
    7       19.417729   0.000000
    8       19.904823   0.000000
    9       21.069795   0.000000
   10       24.910641   0.000000
   11       26.868868   0.000000
   12       29.950437   0.000000
   13       30.257812   0.000000
   14       30.981460   0.000000
   15       37.177422   0.000000
   16       38.948874   0.000000
 
  0.3750000E+00  0.3750000E+00  0.1250000E+00  0.9375000E-01
    1      -12.713114   1.000000
    2        0.071404   1.000000
    3        2.202810   1.000000
    4        2.433659   1.000000
    5       12.213405   0.000000
    6       13.906672   0.000000
    7       17.159900   0.000000
    8       20.779062   0.000000
    9       21.234664   0.000000
   10       27.083044   0.000000
   11       30.145086   0.000000
   12       30.398610   0.000000
   13       32.327522   0.000000
   14       34.817801   0.000000
   15       36.464722   0.000000
   16       37.868258   0.000000
 
 -0.3750000E+00  0.3750000E+00  0.1250000E+00  0.1875000E+00
    1      -12.303797   1.000000
    2       -0.042028   1.000000
    3        0.951642   1.000000
    4        2.025591   1.000000
    5       13.757304   0.000000
    6       14.765892   0.000000
    7       15.560459   0.000000
    8       19.546128   0.000000
    9       22.990383   0.000000
   10       26.443803   0.000000
   11       29.974348   0.000000
   12       31.398785   0.000000
   13       32.667239   0.000000
   14       36.333066   0.000000
   15       38.880355   0.000000
   16       41.085236   0.000000
 
 -0.1250000E+00  0.3750000E+00  0.1250000E+00  0.1875000E+00
    1      -12.558700   1.000000
    2       -0.246699   1.000000
    3        1.689310   1.000000
    4        2.523840   1.000000
    5       12.582595   0.000000
    6       14.788210   0.000000
    7       16.931150   0.000000
    8       20.116956   0.000000
    9       22.695677   0.000000
   10       25.354252   0.000000
   11       28.862379   0.000000
   12       31.629530   0.000000
   13       32.232537   0.000000
   14       34.881219   0.000000
   15       35.523309   0.000000
   16       41.005848   0.000000
 
 -0.3750000E+00 -0.3750000E+00  0.1250000E+00  0.9375000E-01
    1      -12.339620   1.000000
    2       -0.404194   1.000000
    3        1.687717   1.000000
    4        2.141112   1.000000
    5       12.852620   0.000000
    6       13.485425   0.000000
    7       16.007257   0.000000
    8       21.472050   0.000000
    9       21.484178   0.000000
   10       28.914289   0.000000
   11       29.390833   0.000000
   12       31.962872   0.000000
   13       32.659269   0.000000
   14       37.793120   0.000000
   15       38.168530   0.000000
   16       41.096210   0.000000
 
  0.3750000E+00  0.3750000E+00  0.3750000E+00  0.3125000E-01
    1      -12.749426   1.000000
    2       -0.600206   1.000000
    3        2.818898   1.000000
    4        2.818899   1.000000
    5       10.929009   0.000000
    6       15.429900   0.000000
    7       19.524168   0.000000
    8       19.524170   0.000000
    9       24.069619   0.000000
   10       24.441078   0.000000
   11       24.441081   0.000000
   12       31.898371   0.000000
   13       33.209765   0.000000
   14       33.209767   0.000000
   15       36.838924   0.000000
   16       36.838928   0.000000
 
 -0.3750000E+00  0.3750000E+00  0.3750000E+00  0.9375000E-01
    1      -12.387052   1.000000
    2       -0.283422   1.000000
    3        1.057085   1.000000
    4        2.493835   1.000000
    5       13.072741   0.000000
    6       15.230466   0.000000
    7       16.121096   0.000000
    8       20.426172   0.000000
    9       22.509973   0.000000
   10       25.548473   0.000000
   11       29.074697   0.000000
   12       31.613306   0.000000
   13       32.035823   0.000000
   14       35.363408   0.000000
   15       37.237299   0.000000
   16       40.109778   0.000000
