 running on   16 total cores
 distrk:  each k-point on   16 cores,    1 groups
 distr:  one band on    1 cores,   16 groups
 using from now: INCAR     
 vasp.5.4.1 24Jun15 (build Jun 05 2017 10:38:15) complex                        
  
 POSCAR found type information on POSCAR  O  Mg
 POSCAR found :  2 types and       2 ions
 scaLAPACK will be used

 ----------------------------------------------------------------------------- 
|                                                                             |
|           W    W    AA    RRRRR   N    N  II  N    N   GGGG   !!!           |
|           W    W   A  A   R    R  NN   N  II  NN   N  G    G  !!!           |
|           W    W  A    A  R    R  N N  N  II  N N  N  G       !!!           |
|           W WW W  AAAAAA  RRRRR   N  N N  II  N  N N  G  GGG   !            |
|           WW  WW  A    A  R   R   N   NN  II  N   NN  G    G                |
|           W    W  A    A  R    R  N    N  II  N    N   GGGG   !!!           |
|                                                                             |
|      For optimal performance we recommend to set                            |
|        NCORE= 4 - approx SQRT( number of cores)                             |
|      NCORE specifies how many cores store one orbital (NPAR=cpu/NCORE).     |
|      This setting can  greatly improve the performance of VASP for DFT.     |
|      The default, NPAR=number of cores might be grossly inefficient         |
|      on modern multi-core architectures or massively parallel machines.     |
|      Do your own testing !!!!                                               |
|      Unfortunately you need to use the default for GW and RPA calculations. |
|      (for HF NCORE is supported but not extensively tested yet)             |
|                                                                             |
 ----------------------------------------------------------------------------- 

 LDA part: xc-table for Pade appr. of Perdew
 POSCAR, INCAR and KPOINTS ok, starting setup
 WARNING: small aliasing (wrap around) errors must be expected
 FFT: planning ...
 WAVECAR not read
 initial charge from wavefunction
 entering main loop
       N       E                     dE             d eps       ncg     rms          rms(c)
DAV:   1    -0.257084264033E+03   -0.25708E+03   -0.10336E+04  2336   0.672E+02
DAV:   2    -0.306321759422E+03   -0.49237E+02   -0.49237E+02  2544   0.149E+02
DAV:   3    -0.306646785318E+03   -0.32503E+00   -0.32503E+00  2320   0.127E+01
DAV:   4    -0.306647741923E+03   -0.95661E-03   -0.95661E-03  3312   0.608E-01
DAV:   5    -0.306647742025E+03   -0.10163E-06   -0.10163E-06  2400   0.579E-03    0.932E+01
DAV:   6    -0.672740224846E+02    0.23937E+03   -0.27671E+02  1920   0.105E+02    0.396E+01
DAV:   7    -0.229738711126E+02    0.44300E+02   -0.39392E+02  2848   0.745E+01    0.262E+01
DAV:   8    -0.212960243637E+02    0.16778E+01   -0.18559E+02  2000   0.458E+01    0.168E+01
DAV:   9    -0.119593553466E+02    0.93367E+01   -0.32506E+01  2128   0.183E+01    0.245E+00
DAV:  10    -0.119772083701E+02   -0.17853E-01   -0.21197E+00  2416   0.596E+00    0.189E+00
DAV:  11    -0.119206154498E+02    0.56593E-01   -0.68981E-01  2192   0.295E+00    0.421E-01
DAV:  12    -0.119166230179E+02    0.39924E-02   -0.29475E-02  2448   0.703E-01    0.486E-02
DAV:  13    -0.119166554618E+02   -0.32444E-04   -0.15206E-03  2416   0.188E-01    0.514E-02
DAV:  14    -0.119166201978E+02    0.35264E-04   -0.36999E-04  2432   0.776E-02    0.112E-02
DAV:  15    -0.119166189069E+02    0.12909E-05   -0.20792E-05  2320   0.187E-02    0.278E-03
DAV:  16    -0.119166189227E+02   -0.15826E-07   -0.42203E-07  1280   0.335E-03
   1 F= -.11916619E+02 E0= -.11916619E+02  d E =-.128497E-22
