# ['Si']

215 atoms
1 atom types

    0.0000    89.8111 xlo xhi
    0.0000    89.8111 ylo yhi
    0.0000    89.8111 zlo zhi

    0.0000     0.0000     0.0000 xy xz yz

Atoms

1 1     7.4842     7.4842     7.4842
2 1     0.0000    14.9685    14.9685
3 1     7.4842    22.4528    22.4528
4 1    14.9685     0.0000    14.9685
5 1    22.4528     7.4842    22.4528
6 1    14.9685    14.9685     0.0000
7 1    22.4528    22.4528     7.4842
8 1     0.0000     0.0000    29.9370
9 1     7.4842     7.4842    37.4213
10 1     0.0000    14.9685    44.9055
11 1     7.4842    22.4528    52.3898
12 1    14.9685     0.0000    44.9055
13 1    22.4528     7.4842    52.3898
14 1    14.9685    14.9685    29.9370
15 1    22.4528    22.4528    37.4213
16 1     0.0000     0.0000    59.8741
17 1     7.4842     7.4842    67.3583
18 1     0.0000    14.9685    74.8425
19 1     7.4842    22.4528    82.3269
20 1    14.9685     0.0000    74.8425
21 1    22.4528     7.4842    82.3269
22 1    14.9685    14.9685    59.8741
23 1    22.4528    22.4528    67.3583
24 1     0.0000    29.9370     0.0000
25 1     7.4842    37.4213     7.4842
26 1     0.0000    44.9055    14.9685
27 1     7.4842    52.3898    22.4528
28 1    14.9685    29.9370    14.9685
29 1    22.4528    37.4213    22.4528
30 1    14.9685    44.9055     0.0000
31 1    22.4528    52.3898     7.4842
32 1     0.0000    29.9370    29.9370
33 1     7.4842    37.4213    37.4213
34 1     0.0000    44.9055    44.9055
35 1     7.4842    52.3898    52.3898
36 1    14.9685    29.9370    44.9055
37 1    22.4528    37.4213    52.3898
38 1    14.9685    44.9055    29.9370
39 1    22.4528    52.3898    37.4213
40 1     0.0000    29.9370    59.8741
41 1     7.4842    37.4213    67.3583
42 1     0.0000    44.9055    74.8425
43 1     7.4842    52.3898    82.3269
44 1    14.9685    29.9370    74.8425
45 1    22.4528    37.4213    82.3269
46 1    14.9685    44.9055    59.8741
47 1    22.4528    52.3898    67.3583
48 1     0.0000    59.8741     0.0000
49 1     7.4842    67.3583     7.4842
50 1     0.0000    74.8425    14.9685
51 1     7.4842    82.3269    22.4528
52 1    14.9685    59.8741    14.9685
53 1    22.4528    67.3583    22.4528
54 1    14.9685    74.8425     0.0000
55 1    22.4528    82.3269     7.4842
56 1     0.0000    59.8741    29.9370
57 1     7.4842    67.3583    37.4213
58 1     0.0000    74.8425    44.9055
59 1     7.4842    82.3269    52.3898
60 1    14.9685    59.8741    44.9055
61 1    22.4528    67.3583    52.3898
62 1    14.9685    74.8425    29.9370
63 1    22.4528    82.3269    37.4213
64 1     0.0000    59.8741    59.8741
65 1     7.4842    67.3583    67.3583
66 1     0.0000    74.8425    74.8425
67 1     7.4842    82.3269    82.3269
68 1    14.9685    59.8741    74.8425
69 1    22.4528    67.3583    82.3269
70 1    14.9685    74.8425    59.8741
71 1    22.4528    82.3269    67.3583
72 1    29.9370     0.0000     0.0000
73 1    37.4213     7.4842     7.4842
74 1    29.9370    14.9685    14.9685
75 1    37.4213    22.4528    22.4528
76 1    44.9055     0.0000    14.9685
77 1    52.3898     7.4842    22.4528
78 1    44.9055    14.9685     0.0000
79 1    52.3898    22.4528     7.4842
80 1    29.9370     0.0000    29.9370
81 1    37.4213     7.4842    37.4213
82 1    29.9370    14.9685    44.9055
83 1    37.4213    22.4528    52.3898
84 1    44.9055     0.0000    44.9055
85 1    52.3898     7.4842    52.3898
86 1    44.9055    14.9685    29.9370
87 1    52.3898    22.4528    37.4213
88 1    29.9370     0.0000    59.8741
89 1    37.4213     7.4842    67.3583
90 1    29.9370    14.9685    74.8425
91 1    37.4213    22.4528    82.3269
92 1    44.9055     0.0000    74.8425
93 1    52.3898     7.4842    82.3269
94 1    44.9055    14.9685    59.8741
95 1    52.3898    22.4528    67.3583
96 1    29.9370    29.9370     0.0000
97 1    37.4213    37.4213     7.4842
98 1    29.9370    44.9055    14.9685
99 1    37.4213    52.3898    22.4528
100 1    44.9055    29.9370    14.9685
101 1    52.3898    37.4213    22.4528
102 1    44.9055    44.9055     0.0000
103 1    52.3898    52.3898     7.4842
104 1    29.9370    29.9370    29.9370
105 1    37.4213    37.4213    37.4213
106 1    29.9370    44.9055    44.9055
107 1    37.4213    52.3898    52.3898
108 1    44.9055    29.9370    44.9055
109 1    52.3898    37.4213    52.3898
110 1    44.9055    44.9055    29.9370
111 1    52.3898    52.3898    37.4213
112 1    29.9370    29.9370    59.8741
113 1    37.4213    37.4213    67.3583
114 1    29.9370    44.9055    74.8425
115 1    37.4213    52.3898    82.3269
116 1    44.9055    29.9370    74.8425
117 1    52.3898    37.4213    82.3269
118 1    44.9055    44.9055    59.8741
119 1    52.3898    52.3898    67.3583
120 1    29.9370    59.8741     0.0000
121 1    37.4213    67.3583     7.4842
122 1    29.9370    74.8425    14.9685
123 1    37.4213    82.3269    22.4528
124 1    44.9055    59.8741    14.9685
125 1    52.3898    67.3583    22.4528
126 1    44.9055    74.8425     0.0000
127 1    52.3898    82.3269     7.4842
128 1    29.9370    59.8741    29.9370
129 1    37.4213    67.3583    37.4213
130 1    29.9370    74.8425    44.9055
131 1    37.4213    82.3269    52.3898
132 1    44.9055    59.8741    44.9055
133 1    52.3898    67.3583    52.3898
134 1    44.9055    74.8425    29.9370
135 1    52.3898    82.3269    37.4213
136 1    29.9370    59.8741    59.8741
137 1    37.4213    67.3583    67.3583
138 1    29.9370    74.8425    74.8425
139 1    37.4213    82.3269    82.3269
140 1    44.9055    59.8741    74.8425
141 1    52.3898    67.3583    82.3269
142 1    44.9055    74.8425    59.8741
143 1    52.3898    82.3269    67.3583
144 1    59.8741     0.0000     0.0000
145 1    67.3583     7.4842     7.4842
146 1    59.8741    14.9685    14.9685
147 1    67.3583    22.4528    22.4528
148 1    74.8425     0.0000    14.9685
149 1    82.3269     7.4842    22.4528
150 1    74.8425    14.9685     0.0000
151 1    82.3269    22.4528     7.4842
152 1    59.8741     0.0000    29.9370
153 1    67.3583     7.4842    37.4213
154 1    59.8741    14.9685    44.9055
155 1    67.3583    22.4528    52.3898
156 1    74.8425     0.0000    44.9055
157 1    82.3269     7.4842    52.3898
158 1    74.8425    14.9685    29.9370
159 1    82.3269    22.4528    37.4213
160 1    59.8741     0.0000    59.8741
161 1    67.3583     7.4842    67.3583
162 1    59.8741    14.9685    74.8425
163 1    67.3583    22.4528    82.3269
164 1    74.8425     0.0000    74.8425
165 1    82.3269     7.4842    82.3269
166 1    74.8425    14.9685    59.8741
167 1    82.3269    22.4528    67.3583
168 1    59.8741    29.9370     0.0000
169 1    67.3583    37.4213     7.4842
170 1    59.8741    44.9055    14.9685
171 1    67.3583    52.3898    22.4528
172 1    74.8425    29.9370    14.9685
173 1    82.3269    37.4213    22.4528
174 1    74.8425    44.9055     0.0000
175 1    82.3269    52.3898     7.4842
176 1    59.8741    29.9370    29.9370
177 1    67.3583    37.4213    37.4213
178 1    59.8741    44.9055    44.9055
179 1    67.3583    52.3898    52.3898
180 1    74.8425    29.9370    44.9055
181 1    82.3269    37.4213    52.3898
182 1    74.8425    44.9055    29.9370
183 1    82.3269    52.3898    37.4213
184 1    59.8741    29.9370    59.8741
185 1    67.3583    37.4213    67.3583
186 1    59.8741    44.9055    74.8425
187 1    67.3583    52.3898    82.3269
188 1    74.8425    29.9370    74.8425
189 1    82.3269    37.4213    82.3269
190 1    74.8425    44.9055    59.8741
191 1    82.3269    52.3898    67.3583
192 1    59.8741    59.8741     0.0000
193 1    67.3583    67.3583     7.4842
194 1    59.8741    74.8425    14.9685
195 1    67.3583    82.3269    22.4528
196 1    74.8425    59.8741    14.9685
197 1    82.3269    67.3583    22.4528
198 1    74.8425    74.8425     0.0000
199 1    82.3269    82.3269     7.4842
200 1    59.8741    59.8741    29.9370
201 1    67.3583    67.3583    37.4213
202 1    59.8741    74.8425    44.9055
203 1    67.3583    82.3269    52.3898
204 1    74.8425    59.8741    44.9055
205 1    82.3269    67.3583    52.3898
206 1    74.8425    74.8425    29.9370
207 1    82.3269    82.3269    37.4213
208 1    59.8741    59.8741    59.8741
209 1    67.3583    67.3583    67.3583
210 1    59.8741    74.8425    74.8425
211 1    67.3583    82.3269    82.3269
212 1    74.8425    59.8741    74.8425
213 1    82.3269    67.3583    82.3269
214 1    74.8425    74.8425    59.8741
215 1    82.3269    82.3269    67.3583
