# ['Ni']

28 atoms
1 atom types

    0.0000     2.3355 xlo xhi
    0.0000     4.0453 ylo yhi
    0.0000    26.6975 zlo zhi

    0.0000     0.0000     0.0000 xy xz yz

Atoms

1 1     0.0000     0.0000     0.0000
2 1     1.1678     2.0226     0.0000
3 1     1.1678     0.6742     1.9070
4 1     0.0000     2.6969     1.9070
5 1     0.0000     1.3484     3.8139
6 1     1.1678     3.3711     3.8139
7 1     0.0000     0.0000     5.7209
8 1     1.1678     2.0226     5.7209
9 1     1.1678     0.6742     7.6278
10 1     0.0000     2.6969     7.6278
11 1     0.0000     1.3484     9.5348
12 1     1.1678     3.3711     9.5348
13 1     0.0000     0.0000    11.4418
14 1     1.1678     2.0226    11.4418
15 1     0.0000     1.3484    13.3487
16 1     1.1678     3.3711    13.3487
17 1     0.0000     0.0000    15.2557
18 1     1.1678     2.0226    15.2557
19 1     1.1678     0.6742    17.1627
20 1     0.0000     2.6969    17.1627
21 1     0.0000     1.3484    19.0696
22 1     1.1678     3.3711    19.0696
23 1     0.0000     0.0000    20.9766
24 1     1.1678     2.0226    20.9766
25 1     1.1678     0.6742    22.8836
26 1     0.0000     2.6969    22.8836
27 1     0.0000     1.3484    24.7905
28 1     1.1678     3.3711    24.7905
