# ['Ni']

107 atoms
1 atom types

    0.0000    10.5403 xlo xhi
    0.0000    10.5403 ylo yhi
    0.0000    10.5403 zlo zhi

    0.0000    -0.0000    -0.0000 xy xz yz

Atoms

1 1     1.7567     1.7567     0.0000
2 1     1.7567     0.0000     1.7567
3 1     0.0000     1.7567     1.7567
4 1     0.0000     0.0000     3.5134
5 1     1.7567     1.7567     3.5134
6 1     1.7567     0.0000     5.2702
7 1     0.0000     1.7567     5.2702
8 1     0.0000     0.0000     7.0269
9 1     1.7567     1.7567     7.0269
10 1     1.7567     0.0000     8.7836
11 1     0.0000     1.7567     8.7836
12 1     0.0000     3.5134     0.0000
13 1     1.7567     5.2702     0.0000
14 1     1.7567     3.5134     1.7567
15 1     0.0000     5.2702     1.7567
16 1     0.0000     3.5134     3.5134
17 1     1.7567     5.2702     3.5134
18 1     1.7567     3.5134     5.2702
19 1     0.0000     5.2702     5.2702
20 1     0.0000     3.5134     7.0269
21 1     1.7567     5.2702     7.0269
22 1     1.7567     3.5134     8.7836
23 1     0.0000     5.2702     8.7836
24 1     0.0000     7.0269     0.0000
25 1     1.7567     8.7836     0.0000
26 1     1.7567     7.0269     1.7567
27 1     0.0000     8.7836     1.7567
28 1     0.0000     7.0269     3.5134
29 1     1.7567     8.7836     3.5134
30 1     1.7567     7.0269     5.2702
31 1     0.0000     8.7836     5.2702
32 1     0.0000     7.0269     7.0269
33 1     1.7567     8.7836     7.0269
34 1     1.7567     7.0269     8.7836
35 1     0.0000     8.7836     8.7836
36 1     3.5134     0.0000     0.0000
37 1     5.2702     1.7567     0.0000
38 1     5.2702     0.0000     1.7567
39 1     3.5134     1.7567     1.7567
40 1     3.5134     0.0000     3.5134
41 1     5.2702     1.7567     3.5134
42 1     5.2702     0.0000     5.2702
43 1     3.5134     1.7567     5.2702
44 1     3.5134     0.0000     7.0269
45 1     5.2702     1.7567     7.0269
46 1     5.2702     0.0000     8.7836
47 1     3.5134     1.7567     8.7836
48 1     3.5134     3.5134     0.0000
49 1     5.2702     5.2702     0.0000
50 1     5.2702     3.5134     1.7567
51 1     3.5134     5.2702     1.7567
52 1     3.5134     3.5134     3.5134
53 1     5.2702     5.2702     3.5134
54 1     5.2702     3.5134     5.2702
55 1     3.5134     5.2702     5.2702
56 1     3.5134     3.5134     7.0269
57 1     5.2702     5.2702     7.0269
58 1     5.2702     3.5134     8.7836
59 1     3.5134     5.2702     8.7836
60 1     3.5134     7.0269     0.0000
61 1     5.2702     8.7836     0.0000
62 1     5.2702     7.0269     1.7567
63 1     3.5134     8.7836     1.7567
64 1     3.5134     7.0269     3.5134
65 1     5.2702     8.7836     3.5134
66 1     5.2702     7.0269     5.2702
67 1     3.5134     8.7836     5.2702
68 1     3.5134     7.0269     7.0269
69 1     5.2702     8.7836     7.0269
70 1     5.2702     7.0269     8.7836
71 1     3.5134     8.7836     8.7836
72 1     7.0269     0.0000     0.0000
73 1     8.7836     1.7567     0.0000
74 1     8.7836     0.0000     1.7567
75 1     7.0269     1.7567     1.7567
76 1     7.0269     0.0000     3.5134
77 1     8.7836     1.7567     3.5134
78 1     8.7836     0.0000     5.2702
79 1     7.0269     1.7567     5.2702
80 1     7.0269     0.0000     7.0269
81 1     8.7836     1.7567     7.0269
82 1     8.7836     0.0000     8.7836
83 1     7.0269     1.7567     8.7836
84 1     7.0269     3.5134     0.0000
85 1     8.7836     5.2702     0.0000
86 1     8.7836     3.5134     1.7567
87 1     7.0269     5.2702     1.7567
88 1     7.0269     3.5134     3.5134
89 1     8.7836     5.2702     3.5134
90 1     8.7836     3.5134     5.2702
91 1     7.0269     5.2702     5.2702
92 1     7.0269     3.5134     7.0269
93 1     8.7836     5.2702     7.0269
94 1     8.7836     3.5134     8.7836
95 1     7.0269     5.2702     8.7836
96 1     7.0269     7.0269     0.0000
97 1     8.7836     8.7836     0.0000
98 1     8.7836     7.0269     1.7567
99 1     7.0269     8.7836     1.7567
100 1     7.0269     7.0269     3.5134
101 1     8.7836     8.7836     3.5134
102 1     8.7836     7.0269     5.2702
103 1     7.0269     8.7836     5.2702
104 1     7.0269     7.0269     7.0269
105 1     8.7836     8.7836     7.0269
106 1     8.7836     7.0269     8.7836
107 1     7.0269     8.7836     8.7836
