# ['Ni']

107 atoms
1 atom types

    0.0000     9.7748 xlo xhi
    0.0000     9.7748 ylo yhi
    0.0000     9.7748 zlo zhi

    0.0000    -0.0000    -0.0000 xy xz yz

Atoms

1 1     1.6291     1.6291     0.0000
2 1     1.6291     0.0000     1.6291
3 1     0.0000     1.6291     1.6291
4 1     0.0000     0.0000     3.2583
5 1     1.6291     1.6291     3.2583
6 1     1.6291     0.0000     4.8874
7 1     0.0000     1.6291     4.8874
8 1     0.0000     0.0000     6.5165
9 1     1.6291     1.6291     6.5165
10 1     1.6291     0.0000     8.1457
11 1     0.0000     1.6291     8.1457
12 1     0.0000     3.2583     0.0000
13 1     1.6291     4.8874     0.0000
14 1     1.6291     3.2583     1.6291
15 1     0.0000     4.8874     1.6291
16 1     0.0000     3.2583     3.2583
17 1     1.6291     4.8874     3.2583
18 1     1.6291     3.2583     4.8874
19 1     0.0000     4.8874     4.8874
20 1     0.0000     3.2583     6.5165
21 1     1.6291     4.8874     6.5165
22 1     1.6291     3.2583     8.1457
23 1     0.0000     4.8874     8.1457
24 1     0.0000     6.5165     0.0000
25 1     1.6291     8.1457     0.0000
26 1     1.6291     6.5165     1.6291
27 1     0.0000     8.1457     1.6291
28 1     0.0000     6.5165     3.2583
29 1     1.6291     8.1457     3.2583
30 1     1.6291     6.5165     4.8874
31 1     0.0000     8.1457     4.8874
32 1     0.0000     6.5165     6.5165
33 1     1.6291     8.1457     6.5165
34 1     1.6291     6.5165     8.1457
35 1     0.0000     8.1457     8.1457
36 1     3.2583     0.0000     0.0000
37 1     4.8874     1.6291     0.0000
38 1     4.8874     0.0000     1.6291
39 1     3.2583     1.6291     1.6291
40 1     3.2583     0.0000     3.2583
41 1     4.8874     1.6291     3.2583
42 1     4.8874     0.0000     4.8874
43 1     3.2583     1.6291     4.8874
44 1     3.2583     0.0000     6.5165
45 1     4.8874     1.6291     6.5165
46 1     4.8874     0.0000     8.1457
47 1     3.2583     1.6291     8.1457
48 1     3.2583     3.2583     0.0000
49 1     4.8874     4.8874     0.0000
50 1     4.8874     3.2583     1.6291
51 1     3.2583     4.8874     1.6291
52 1     3.2583     3.2583     3.2583
53 1     4.8874     4.8874     3.2583
54 1     4.8874     3.2583     4.8874
55 1     3.2583     4.8874     4.8874
56 1     3.2583     3.2583     6.5165
57 1     4.8874     4.8874     6.5165
58 1     4.8874     3.2583     8.1457
59 1     3.2583     4.8874     8.1457
60 1     3.2583     6.5165     0.0000
61 1     4.8874     8.1457     0.0000
62 1     4.8874     6.5165     1.6291
63 1     3.2583     8.1457     1.6291
64 1     3.2583     6.5165     3.2583
65 1     4.8874     8.1457     3.2583
66 1     4.8874     6.5165     4.8874
67 1     3.2583     8.1457     4.8874
68 1     3.2583     6.5165     6.5165
69 1     4.8874     8.1457     6.5165
70 1     4.8874     6.5165     8.1457
71 1     3.2583     8.1457     8.1457
72 1     6.5165     0.0000     0.0000
73 1     8.1457     1.6291     0.0000
74 1     8.1457     0.0000     1.6291
75 1     6.5165     1.6291     1.6291
76 1     6.5165     0.0000     3.2583
77 1     8.1457     1.6291     3.2583
78 1     8.1457     0.0000     4.8874
79 1     6.5165     1.6291     4.8874
80 1     6.5165     0.0000     6.5165
81 1     8.1457     1.6291     6.5165
82 1     8.1457     0.0000     8.1457
83 1     6.5165     1.6291     8.1457
84 1     6.5165     3.2583     0.0000
85 1     8.1457     4.8874     0.0000
86 1     8.1457     3.2583     1.6291
87 1     6.5165     4.8874     1.6291
88 1     6.5165     3.2583     3.2583
89 1     8.1457     4.8874     3.2583
90 1     8.1457     3.2583     4.8874
91 1     6.5165     4.8874     4.8874
92 1     6.5165     3.2583     6.5165
93 1     8.1457     4.8874     6.5165
94 1     8.1457     3.2583     8.1457
95 1     6.5165     4.8874     8.1457
96 1     6.5165     6.5165     0.0000
97 1     8.1457     8.1457     0.0000
98 1     8.1457     6.5165     1.6291
99 1     6.5165     8.1457     1.6291
100 1     6.5165     6.5165     3.2583
101 1     8.1457     8.1457     3.2583
102 1     8.1457     6.5165     4.8874
103 1     6.5165     8.1457     4.8874
104 1     6.5165     6.5165     6.5165
105 1     8.1457     8.1457     6.5165
106 1     8.1457     6.5165     8.1457
107 1     6.5165     8.1457     8.1457
