LAMMPS (10 Feb 2015)
Reading data file ...
  triclinic box = (0 0 0) to (4.2565 4.2565 4.2565) with tilt (0 0 0)
  1 by 1 by 1 MPI processor grid
  reading atoms ...
  8 atoms
4 atoms in group Mg
4 atoms in group O
Setting atom values ...
  4 settings made for charge
Setting atom values ...
  4 settings made for charge
PPPM initialization ...
  G vector (1/distance) = 0.353118
  grid = 8 8 8
  stencil order = 5
  estimated absolute RMS force accuracy = 4.08652e-05
  estimated relative force accuracy = 2.83793e-06
  using double precision FFTs
  3d grid and FFT values/proc = 3375 512
Neighbor list info ...
  1 neighbor list requests
  update every 1 steps, delay 0 steps, check yes
  master list distance cutoff = 11
Setting up minimization ...
Memory usage per processor = 4.06549 Mbytes
Step PotEng Lx Ly Lz Xy Xz Yz Press Pxx Pyy Pzz Pxy Pxz Pyz eatoms 
       0   -115.99413       4.2565       4.2565       4.2565            0            0            0    97842.713    97842.713    97842.713    97842.713 -3.9648682e-11 -1.4130262e-10 -2.4072873e-11   -115.99413 
      10   -116.09248     4.299065     4.299065     4.299065            0            0            0    39915.456    39915.456    39915.456    39915.456 -6.718901e-11 1.6759609e-10 -1.4910019e-10   -116.09248 
      20   -116.11494    4.3319944    4.3319944    4.3319944            0            0            0    7.4200549    7.4200549    7.4200549    7.4200549 -9.9303313e-12 -1.50322e-10 -3.7717238e-11   -116.11494 
      22   -116.11494    4.3320008    4.3320008    4.3320008            0            0            0  0.022500426  0.022500427  0.022500425  0.022500427 -1.5011423e-10 -9.5142159e-11 1.463096e-10   -116.11494 
Loop time of 0.0171471 on 1 procs for 22 steps with 8 atoms

Minimization stats:
  Stopping criterion = linesearch alpha is zero
  Energy initial, next-to-last, final = 
        -115.994127563     -116.114943198     -116.114943198
  Force two-norm initial, final = 14.1285 3.9258e-05
  Force max component initial, final = 14.1285 8.20487e-06
  Final line search alpha, max atom move = 0.5 4.10243e-06
  Iterations, force evaluations = 22 41

Pair  time (%) = 0.00443578 (25.869)
Kspce time (%) = 0.0029552 (17.2344)
Neigh time (%) = 0 (0)
Comm  time (%) = 0.000576496 (3.36207)
Outpt time (%) = 5.6982e-05 (0.332314)
Other time (%) = 0.00912261 (53.2022)

Nlocal:    8 ave 8 max 8 min
Histogram: 1 0 0 0 0 0 0 0 0 0
Nghost:    2189 ave 2189 max 2189 min
Histogram: 1 0 0 0 0 0 0 0 0 0
Neighs:    2344 ave 2344 max 2344 min
Histogram: 1 0 0 0 0 0 0 0 0 0

Total # of neighbors = 2344
Ave neighs/atom = 293
Neighbor list builds = 0
Dangerous builds = 0
pypospack:output_section:begin
tot_energy = -116.114943197766
num_atoms = 8
xx = 4.33200077919323
yy = 4.33200077919323
zz = 4.33200077919323
xy = 0
xz = 0
yz = 0
tot_press = 0.0225004262556315
pxx = 0.0225004265502418
pyy = 0.0225004253807009
pzz = 0.0225004268359518
pxy = -1.50114228566484e-10
pxz = -9.5142158828828e-11
pyz = 1.46309599907844e-10
pypospack:output_section:done
pypospack:lammps_sim:done
PPPM initialization ...
  G vector (1/distance) = 0.352343
  grid = 8 8 8
  stencil order = 5
  estimated absolute RMS force accuracy = 4.23631e-05
  estimated relative force accuracy = 2.94196e-06
  using double precision FFTs
  3d grid and FFT values/proc = 3375 512
Setting up run ...
Memory usage per processor = 3.06549 Mbytes
Step Temp PotEng KinEng TotEng Press Lx Ly Lz Press Pxx Pyy Pzz Pxy Pxz Pyz Volume 
       0         1400   -116.11495    1.2667494   -114.84821    16641.482    4.3320008    4.3320008    4.3320008    16641.482    37113.455    5527.3739     7283.616    6614.3046    9602.4544    4749.4101    81.295326 
     100    591.08638   -115.23309   0.53482738   -114.69826   -37.658177    4.3624319    4.3624319    4.3624319   -37.658177     35918.04   -3395.7336   -32635.281   -6614.4528    -22127.35   -1993.0798     83.02062 
     200    557.57774   -114.83693   0.50450806   -114.33242   -25984.446     4.391049     4.391049     4.391049   -25984.446    12856.748   -28040.376    -62769.71   -10367.713   -34068.133    348.35575    84.665182 
     300    1834.7975   -115.68838    1.6601633   -114.02822   -13092.297    4.3836005    4.3836005    4.3836005   -13092.297    28858.122   -37034.906   -31100.107    5848.4114    12321.597    1731.3493    84.235062 
     400    874.19436   -114.59162   0.79098943   -113.80063    9701.0887    4.3904355    4.3904355    4.3904355    9701.0887    83543.551   -10866.092   -43574.193   -4907.5464   -30826.988   -4508.5624    84.629699 
     500    1191.4764   -114.71839    1.0780729   -113.64032   -12954.589    4.3922967    4.3922967    4.3922967   -12954.589    51494.979   -27433.297   -62925.449   -5689.4785   -34860.072    4666.0954    84.737374 
     600    1686.6464   -115.10088    1.5261131   -113.57477   -5037.6859    4.3882317    4.3882317    4.3882317   -5037.6859    28522.928   -16622.917   -27013.069   -4194.7413    8321.3493   -3080.3281    84.502324 
     700    1848.6232    -115.2522    1.6726731   -113.57953   -25461.433     4.396708     4.396708     4.396708   -25461.433      1681.95    -39799.56   -38266.689    12864.222   -4732.7961    -1190.653    84.992945 
     800    1294.2122   -114.75539    1.1710304   -113.58436   -33837.378    4.4117587    4.4117587    4.4117587   -33837.378    1757.8559   -48143.409   -55126.581   -8924.9711   -30869.609    2164.3436    85.868769 
     900    1146.2037   -114.60006    1.0371092   -113.56295    36456.294     4.374953     4.374953     4.374953    36456.294    102755.94   -25704.371    32317.315    4789.9441    27328.073     -10367.1    83.737538 
    1000    1174.9202   -114.64668    1.0630925   -113.58359    18492.631    4.3731699    4.3731699    4.3731699    18492.631    39357.801   -16739.715    32859.807    27950.329   -3032.5935    3346.9494    83.635189 
    1100    1664.9507   -115.09371    1.5064823   -113.58723   -34380.091     4.407586     4.407586     4.407586   -34380.091    6989.6923   -57582.493   -52547.473    6386.1157   -13258.132   -45.272755    85.625358 
    1200    1414.9674    -114.8384    1.2802923   -113.55811   -18511.236    4.4051139    4.4051139    4.4051139   -18511.236   -4141.4255   -42574.706   -8817.5753   -19168.016   -2386.3273    4322.3449     85.48136 
    1300    1095.6457   -114.53809   0.99136327   -113.54673    6209.0531    4.3732143    4.3732143    4.3732143    6209.0531    39597.029   -23281.835    2311.9651    8057.9137    15329.589    2011.6976    83.637738 
    1400    966.46374   -114.45033    0.8744767   -113.57585    40230.513    4.3732322    4.3732322    4.3732322    40230.513    145852.57    -10016.11   -15144.916    9551.3376   -3050.8525    5748.2128    83.638765 
    1500    1797.9391   -115.20714    1.6268131   -113.58032   -38765.377    4.4024375    4.4024375    4.4024375   -38765.377   -38147.008   -40227.038   -37922.085   -3716.2159   -18532.122    7411.2996    85.325649 
    1600    1228.0952   -114.67418    1.1112063   -113.56297   -11369.777    4.3990794    4.3990794    4.3990794   -11369.777    24599.512   -46934.953   -11773.892    24535.684    12602.346   -5901.0885    85.130541 
    1700    1198.2689   -114.63332    1.0842189    -113.5491    13145.167    4.3934279    4.3934279    4.3934279    13145.167    79617.706   -12938.865   -27243.339   -2842.7548   -2760.4657    4461.3492    84.802863 
    1800    1745.9866    -115.1304    1.5798053   -113.55059   -9078.8191    4.3838528    4.3838528    4.3838528   -9078.8191    36558.343    -38840.57   -24954.231    4536.9296   -35008.167    6833.9767    84.249605 
    1900    1458.4123    -114.8901    1.3196021    -113.5705    4252.7092    4.3791047    4.3791047    4.3791047    4252.7092   -9671.6807   -9286.0184    31715.827     26785.31    17779.253    1616.6122    83.976153 
    2000    1055.1169   -114.53316   0.95469192   -113.57847   -12983.205    4.4013099    4.4013099    4.4013099   -12983.205    19988.612   -40635.218   -18303.009   -10485.016   -4809.3708    3250.0308    85.260099 
    2100      1387.83   -114.81359    1.2557377   -113.55785   -2211.7872    4.3984039    4.3984039    4.3984039   -2211.7872    29521.732   -47044.481    10887.388   -4235.5342    13447.405   -2549.8526    85.091335 
    2200    1667.7513   -115.05392    1.5090165    -113.5449    9750.6864    4.3846567    4.3846567    4.3846567    9750.6864    59030.158    -26359.29   -3418.8084     8730.627   -5748.9035   -1144.4549    84.295968 
    2300    952.09096    -114.4152   0.86147191   -113.55373   -156.59436     4.394003     4.394003     4.394003   -156.59436    76860.433   -34149.661   -43180.555   -1124.7738    3921.9529   -8350.6193    84.836169 
    2400    1346.7309   -114.77367    1.2185505   -113.55512    -38501.93    4.3978712    4.3978712    4.3978712    -38501.93   -25862.916   -63103.694   -26539.179    -33420.46   -1629.4308   -3528.0247     85.06042 
    2500    2037.6664   -115.38929    1.8437233   -113.54556    11195.634    4.3771134    4.3771134    4.3771134    11195.634    33731.314   -14179.832     14035.42    3595.4596    5653.9493    5634.9505     83.86165 
    2600    1565.4039   -114.97905    1.4164103   -113.56264   -4756.9548     4.391747     4.391747     4.391747   -4756.9548    8979.9416   -16379.953   -6870.8534   -5572.1105   -2821.2143   -19630.993    84.705562 
    2700    784.70766   -114.27229   0.71001998   -113.56227   -13872.472    4.4116842    4.4116842    4.4116842   -13872.472    75657.241   -78071.276   -39203.381   -20803.082   -7612.7306   -1843.1675    85.864421 
    2800    1596.5863   -114.98106    1.4446249   -113.53644    -2033.568    4.3922522    4.3922522    4.3922522    -2033.568    15562.556   -29576.978    7913.7182   -10928.293    2371.2721    11728.467    84.734797 
    2900    1731.2608   -115.09505    1.5664811   -113.52857    39687.258     4.367886     4.367886     4.367886    39687.258    112011.06     25233.84   -18183.131     13474.55   -23672.265   -1395.6131      83.3324 
    3000    950.11587   -114.43266   0.85968481   -113.57298   -35828.057    4.3972148    4.3972148    4.3972148   -35828.057    -10550.89   -66869.567   -30063.714   -29474.955    16014.749    11032.048     85.02234 
    3100    1433.5861   -114.85683    1.2971389   -113.55969   -32773.913    4.3958571    4.3958571    4.3958571   -32773.913   -17787.563   -49236.602   -31297.572   -16097.352   -2370.3701   -4843.7523    84.943609 
    3200    1801.5873   -115.17744     1.630114   -113.54733    17536.596     4.385327     4.385327     4.385327    17536.596    66989.881   -610.86995   -13769.221    8121.0937   -4961.8679    1041.5412    84.334632 
    3300    1177.2829   -114.62691    1.0652303   -113.56168    5739.1985    4.3931861    4.3931861    4.3931861    5739.1985     78286.81   -34652.004   -26417.211   -26819.705    2142.4416     13386.01    84.788861 
    3400    1266.8121   -114.70858    1.1462382   -113.56235   -12517.515     4.387616     4.387616     4.387616   -12517.515    16165.689     -54054.3    336.06548   -19259.349    17648.072    6336.3875    84.466762 
    3500    1819.2058   -115.20296    1.6460556   -113.55691   -25565.637     4.394833     4.394833     4.394833   -25565.637   -12233.738    -33648.79   -30814.383    13928.208   -9657.6673   -9125.4315    84.884256 
    3600    1395.0164   -114.81792    1.2622402   -113.55568   -7356.6537     4.398488     4.398488     4.398488   -7356.6537     65057.23   -33627.592   -53499.598   -4117.6316   -13204.327    10176.202    85.096212 
    3700    845.65478   -114.32138   0.76516622   -113.55621    21534.099    4.3802142    4.3802142    4.3802142    21534.099    122847.56       -48735    -9510.264    2150.2378    3923.5983     19038.37    84.040003 
    3800    1716.0326   -115.11934    1.5527023   -113.56664   -33561.879    4.3900858    4.3900858    4.3900858   -33561.879   -32327.275   -61072.858   -7285.5043    12239.536   -7796.2103   -331.03257    84.609479 
    3900    1831.4364   -115.22072    1.6571222    -113.5636   -39606.384    4.4063423    4.4063423    4.4063423   -39606.384   -273.79544   -46886.013   -71659.342    5198.2142   -32289.495    3319.8663    85.552894 
    4000    1149.4031    -114.6033    1.0400041    -113.5633     28704.41     4.378527     4.378527     4.378527     28704.41     120658.7   -15232.896   -19312.573     7360.006   -20979.651     4435.163    83.942925 
    4100    1314.7566   -114.75413    1.1896194   -113.56451    18366.176    4.3645329    4.3645329    4.3645329    18366.176    37714.437   -16922.251    34306.342   -2135.3438    240.92588    662.26881    83.140631 
    4200    1318.2011   -114.76487     1.192736   -113.57213    -39938.01    4.4044299    4.4044299    4.4044299    -39938.01   -28824.621   -38301.984   -52687.426   -1245.5298   -33579.555     2808.391    85.441546 
    4300    1633.9172   -115.02566    1.4784026   -113.54726   -9429.9204    4.3968633    4.3968633    4.3968633   -9429.9204    74151.462   -40364.418   -62076.805    3144.9418   -26159.282   -3668.7543     85.00195 
    4400    1127.3967   -114.56403    1.0200923   -113.54393    40632.363    4.3652635    4.3652635    4.3652635    40632.363     101994.6   -10091.196    29993.684    5146.2248    9175.6217     7564.897    83.182387 
    4500    1251.8657    -114.7119    1.1327144   -113.57919   -1818.2213    4.3836068    4.3836068    4.3836068   -1818.2213    24879.972   -12524.965   -17809.672   -3033.6264   -9305.2085    5746.5708    84.235424 
    4600    1844.3871   -115.23073    1.6688402   -113.56189   -20958.577    4.4045573    4.4045573    4.4045573   -20958.577    43833.398   -46930.681   -59778.448   -6875.6936   -6686.5931   -5958.8434    85.448961 
    4700    1029.2782   -114.49405   0.93131256   -113.56274    31223.801    4.3758434    4.3758434    4.3758434    31223.801    76173.393    30152.596   -12654.588    4273.3628    11122.856    229.73992    83.788674 
    4800    1319.2682   -114.76663    1.1937016   -113.57293    1573.0394     4.374983     4.374983     4.374983    1573.0394    30067.624   -32669.478    7320.9726    14014.422   -5078.8292    8018.1312     83.73926 
    4900    1920.9543   -115.29677    1.7381198   -113.55865   -14268.108    4.3940326    4.3940326    4.3940326   -14268.108    1702.1362   -18012.041    -26494.42   -3641.7959    301.76437    1502.1483    84.837881 
    5000    1567.1197   -114.96944    1.4179628   -113.55147    6590.5596    4.3915481    4.3915481    4.3915481    6590.5596    16699.484    43083.471   -40011.276      9138.68    27760.703   -781.78127    84.694057 
    5100    1397.5478   -114.82526    1.2645306   -113.56072   -21907.733    4.3906319    4.3906319    4.3906319   -21907.733   -7447.8269   -46133.421   -12141.952    20315.909    4279.2959    10299.559    84.641059 
    5200    1250.8479   -114.69475    1.1317935   -113.56296     18490.08    4.3845598    4.3845598    4.3845598     18490.08    44119.577    5941.9977    5408.6663   -1689.3747   -1993.6082   -4621.9933    84.290375 
    5300    1551.5492   -114.96343    1.4038743   -113.55955    -8630.123    4.3980974    4.3980974    4.3980974    -8630.123    25613.743   -1865.6262   -49638.486   -13391.093    22584.091   -2178.7405    85.073546 
    5400    795.80203    -114.2683    0.7200584   -113.54824   -1545.8761    4.3953123    4.3953123    4.3953123   -1545.8761    7805.5319     23775.26    -36218.42     11734.07   -2400.6817    520.00509    84.912026 
    5500    1046.6624   -114.49333   0.94704216   -113.54629    8858.2142    4.3850325    4.3850325    4.3850325    8858.2142    29935.926    26834.918   -30196.202    2142.2946   -4940.6025   -11469.395    84.317643 
    5600    1792.7661   -115.17357    1.6221324   -113.55144   -12843.293    4.3881717    4.3881717    4.3881717   -12843.293    5133.2532   -8981.3599   -34681.773   -9523.5038    7088.5586   -9956.4129    84.498856 
    5700    1358.3491   -114.79526    1.2290628    -113.5662   -6399.7585    4.3852313    4.3852313    4.3852313   -6399.7585   -13280.665     -2729.37    -3189.241    28601.036   -9195.1013     12714.45    84.329111 
    5800    874.74033   -114.36031   0.79148343   -113.56883    16127.967    4.3913322    4.3913322    4.3913322    16127.967   -12953.561    56792.321     4545.142    17315.646   -5371.2677   -7694.6227    84.681565 
    5900    1695.1587   -115.09307    1.5338152   -113.55926   -522.35017    4.3869138    4.3869138    4.3869138   -522.35017    9040.4995    9502.3538   -20109.904   -9789.7213    6414.7489   -13881.878    84.426209 
    6000    1347.7445   -114.78069    1.2194675   -113.56123    29007.947    4.3769462    4.3769462    4.3769462    29007.947   -10150.538    40641.146    56533.232     13933.61   -10268.778    4200.1032    83.852037 
    6100     1228.304   -114.67832    1.1113953   -113.56693    6197.3814    4.3966122    4.3966122    4.3966122    6197.3814   -10921.927    30060.641   -546.56987    7983.2229   -6668.7557     -4974.04     84.98739 
    6200    1750.7949   -115.12068     1.584156   -113.53653   -932.68784    4.4016296    4.4016296    4.4016296   -932.68784   -15.125303    -10315.06    7532.1217   -19078.478    10591.487   -22602.173     85.27868 
    6300    1112.6478   -114.53069    1.0067471   -113.52394    40970.152    4.3780462    4.3780462    4.3780462    40970.152   -25084.008     96975.12    51019.344    16238.455   -12335.223     1229.986    83.915276 
    6400    1450.6257    -114.8561    1.3125566   -113.54354   -8822.2564    4.3796112    4.3796112    4.3796112   -8822.2564     -3021.38   -30904.212    7458.8225    16456.684   -5823.0951   -18241.382    84.005296 
    6500    1697.1676   -115.09174    1.5356329   -113.55611    12802.464    4.3827867    4.3827867    4.3827867    12802.464    -406.5764    10708.951    28105.019   -553.44131   -6731.7774   -2129.5455    84.188157 
    6600    1167.3916   -114.62947    1.0562804   -113.57319   -9861.6144    4.3983618    4.3983618    4.3983618   -9861.6144   -16616.282   -9311.6667   -3656.8948    25426.087    1269.4582    2360.9582    85.088887 
    6700    954.68383   -114.41943   0.86381799   -113.55561   -22737.975    4.4037499    4.4037499    4.4037499   -22737.975   -16417.615    -28297.24   -23499.072    15250.163   -12429.019   -7405.6067     85.40198 
    6800    1702.3982   -115.06821    1.5403657   -113.52785    16432.036    4.3738647    4.3738647    4.3738647    16432.036    18911.182   -11320.243    41705.169   -5613.1842   -2164.0394   -17727.163    83.675059 
    6900    1392.0091   -114.80556     1.259519   -113.54604    4977.9028     4.374488     4.374488     4.374488    4977.9028   -20103.238    12321.931    22715.016    9207.0886   -108.70699    -10257.48    83.710837 
    7000    1053.8105   -114.51777    0.9535099   -113.56426    16074.818    4.4003397    4.4003397    4.4003397    16074.818    6270.8694    35463.422    6490.1631    20005.281   -9132.1299    4925.1737    85.203733 
    7100    1671.1277   -115.04363    1.5120714   -113.53156   -16126.792     4.415649     4.415649     4.415649   -16126.792   -46886.682    34179.355    -35673.05   -3770.2748    16450.667   -19395.292     86.09613 
    7200    1029.6257   -114.48167   0.93162701   -113.55004   -16412.381    4.3839126    4.3839126    4.3839126   -16412.381   -24188.531   -18952.185   -6096.4275    237.02729   -12488.667   -16960.379    84.253057 
    7300    1328.2686   -114.73903    1.2018454   -113.53718    49372.937     4.354505     4.354505     4.354505    49372.937    28278.278     72529.48    47311.051    14400.244   -9730.6962    13990.938    82.568879 
    7400    1783.9508   -115.17947    1.6141562   -113.56531   -19959.808    4.3953972    4.3953972    4.3953972   -19959.808   -30955.456   -21024.646   -7899.3203   -3431.5544   -1471.1491    21398.636    84.916952 
    7500    905.59449   -114.37705   0.81940092   -113.55765     13696.24    4.4009372    4.4009372    4.4009372     13696.24   -22066.165    19775.705    43379.179    12382.179     5225.358    8722.0083    85.238444 
    7600    1473.8276   -114.86735    1.3335502    -113.5338    11578.824    4.3941789    4.3941789    4.3941789    11578.824    11891.774    10637.517     12207.18    2047.5164   -4681.9157    21255.283    84.846356 
    7700    1156.5126   -114.58107    1.0464369   -113.53464    10699.723    4.3937004    4.3937004    4.3937004    10699.723   -34189.224     61300.54     4987.853   -15125.778    3985.9448    32209.572    84.818646 
    7800    1600.6604    -114.9933    1.4483112   -113.54499    -1245.781    4.3734004    4.3734004    4.3734004    -1245.781   -34514.654   -9101.3232    39878.634    30263.515   -13495.579   -8392.7828    83.648417 
    7900    1518.3921   -114.93783    1.3738731   -113.56396    6281.9486    4.3807666    4.3807666    4.3807666    6281.9486    4230.7781   -757.35564    15372.424    3664.1664   -10648.894    13076.252      84.0718 
    8000    1761.4301   -115.15384    1.5937789   -113.56006   -29619.158    4.3967947    4.3967947    4.3967947   -29619.158   -28211.093   -20859.648   -39786.732   -8683.5174    13418.945    21592.493    84.997973 
    8100    1001.8259    -114.4724   0.90647309   -113.56593    6991.6604    4.3813079    4.3813079    4.3813079    6991.6604   -10580.063    28239.193    3315.8517    9976.6234   -11729.861   -9984.3341    84.102967 
    8200    1320.1586   -114.75175    1.1945072   -113.55724    25320.808    4.3732764    4.3732764    4.3732764    25320.808    31674.758    70911.331   -26623.665    8654.4624    873.40954   -5983.8532    83.641302 
    8300    1656.2938   -115.05894    1.4986494   -113.56029   -24336.425     4.395921     4.395921     4.395921   -24336.425   -721.37583   -11494.725   -60793.176   -6552.0732    23559.391    13877.885    84.947312 
    8400    1142.6627    -114.5855    1.0339052    -113.5516    17389.936    4.3910613    4.3910613    4.3910613    17389.936    51734.285    4696.5663   -4261.0429    12758.346   -12454.684     -2661.51    84.665894 
    8500    1426.0047     -114.838    1.2902791   -113.54772   -16702.416    4.3894746    4.3894746    4.3894746   -16702.416   -21899.223   -915.28408   -27292.742    5386.9633    1917.8337   -7510.0045    84.574148 
    8600     1360.675   -114.78006    1.2311673    -113.5489   -7279.4988    4.3880953    4.3880953    4.3880953   -7279.4988   -16804.317    52501.452   -57535.631   -917.42069    29017.153    16130.888    84.494445 
    8700    1610.3365   -115.00441    1.4570663   -113.54734    9380.2396    4.3841637    4.3841637    4.3841637    9380.2396    7260.8787    48427.381   -27547.541    4398.7501   -7450.3299    882.70304    84.267535 
    8800    1323.3478   -114.74992    1.1973929   -113.55253   -9844.8853    4.3859296    4.3859296    4.3859296   -9844.8853   -38877.199    16687.388   -7344.8448    28334.594    7718.4313   -21323.132    84.369404 
    8900    1151.2123    -114.5965    1.0416411   -113.55486   -3103.3512     4.377739     4.377739     4.377739   -3103.3512   -6856.0371    5414.5097   -7868.5261   -11895.927    18662.317    25062.129    83.897609 
    9000    1838.7816   -115.21771    1.6637682   -113.55394   -18957.991    4.3808664    4.3808664    4.3808664   -18957.991    6690.5155    -37353.04   -26211.449   -4505.8891   -24388.618    24743.987    84.077548 
    9100    1394.2953   -114.81277    1.2615877   -113.55118   -1879.7404    4.3834293    4.3834293    4.3834293   -1879.7404    -41650.77    13779.104    22232.445    27028.595    23400.005   -17218.061    84.225193 
    9200    1228.6817   -114.66806     1.111737   -113.55633   -13506.172    4.3759067    4.3759067    4.3759067   -13506.172    8204.7469    290.48841   -49013.751   -8025.8715     22083.88    29975.162    83.792312 
    9300    1287.2341   -114.72211    1.1647165    -113.5574   -6684.9642    4.3809912    4.3809912    4.3809912   -6684.9642     8015.002    2418.7274   -30488.622   -15840.065   -10309.821    16538.529    84.084731 
    9400    1548.1884   -114.95292    1.4008334   -113.55209    -17438.58    4.3899206    4.3899206    4.3899206    -17438.58   -39042.829    34447.766   -47720.678    4584.4321    22034.256   -12318.043    84.599929 
    9500    1279.5961   -114.71085    1.1578054   -113.55305   -9800.3523    4.3913238    4.3913238    4.3913238   -9800.3523   -2233.4339    12381.087    -39548.71    5222.7102    7970.9335    16205.634    84.681077 
    9600    1445.9721   -114.85339    1.3083459   -113.54504    9727.8764    4.3815708    4.3815708    4.3815708    9727.8764    -4059.071    43686.746   -10444.046   -22853.859   -3582.7525    16118.091     84.11811 
    9700    1578.9198   -114.97757    1.4286398   -113.54893    7471.8143    4.3756973    4.3756973    4.3756973    7471.8143   -14623.454    52226.862   -15187.964   -15303.289    20076.201   -6574.1161    83.780279 
    9800    1731.6943   -115.13353    1.5668734   -113.56666   -29859.485    4.3834625    4.3834625    4.3834625   -29859.485   -21757.159   -32212.161   -35609.136    39071.292    2534.3168    3716.4182    84.227108 
    9900    1156.1902   -114.61574    1.0461452    -113.5696    13481.304    4.3804536    4.3804536    4.3804536    13481.304    40722.781    23846.163   -24125.032   -14789.719   -5221.9397      37479.9     84.05378 
   10000    1495.9854    -114.9175     1.353599    -113.5639   -17166.571    4.3860569    4.3860569    4.3860569   -17166.571   -33903.352    14619.284   -32215.646     -17518.5    13638.281   -3858.3503     84.37675 
   10100    1036.2395   -114.49437    0.9376113   -113.55676   -15806.946    4.3975812    4.3975812    4.3975812   -15806.946   -19282.484    7398.9384   -35537.293    27352.462     4954.498    6235.3613    85.043596 
   10200    1687.1865   -115.06668    1.5266018   -113.54008   -3509.1796    4.3759645    4.3759645    4.3759645   -3509.1796     9783.242    4679.7935   -24990.574   -9092.7415   -6744.5733    10719.957     83.79563 
   10300    1039.8887   -114.49596   0.94091311   -113.55505    18263.382    4.3766346    4.3766346    4.3766346    18263.382    28427.468    49449.039    -23086.36   -5446.5652    29117.285   -7206.4423    83.834129 
   10400    1582.5178   -114.98403    1.4318954   -113.55213    -19045.44    4.3945602    4.3945602    4.3945602    -19045.44   -29107.266    -17115.89   -10913.164    18930.545    6471.5191   -334.88839    84.868449 
   10500    1651.5874   -115.03543     1.494391   -113.54104    14386.231    4.3869926    4.3869926    4.3869926    14386.231   -7425.4467    78996.828   -28412.687    22180.246    343.33988    1793.4574    84.430764 
   10600    1384.3532   -114.80372    1.2525919   -113.55113   -4994.0563    4.3812659    4.3812659    4.3812659   -4994.0563   -9990.4129    42633.879   -47625.635   -10091.832    25714.323   -459.95181    84.100552 
   10700     1409.572   -114.83742    1.2754104   -113.56201    9176.3769    4.3775928    4.3775928    4.3775928    9176.3769   -7561.3946    45376.447   -10285.921   -3309.5415   -3006.6389   -20789.857    83.889208 
   10800    1719.6753   -115.11841    1.5559983   -113.56241   -12606.202    4.3818513    4.3818513    4.3818513   -12606.202   -20452.951    25930.501   -43296.156    9543.1358    7141.8604   -20458.216    84.134264 
   10900    1146.4947   -114.60135    1.0373725   -113.56398    9890.1441    4.3839731    4.3839731    4.3839731    9890.1441   -20870.912    81270.605   -30729.261    2942.2431    22827.848    3.3170046    84.256543 
   11000    1457.3917   -114.87092    1.3186786   -113.55224    12299.992    4.3817654    4.3817654    4.3817654    12299.992    9347.5724    34890.478   -7338.0736   -23646.256   -9064.2386   -12837.832    84.129315 
   11100    1069.5119   -114.52546   0.96771681   -113.55774   -11882.715    4.3819219    4.3819219    4.3819219   -11882.715   -1142.6172   -3594.2852   -30911.243    15273.646    22198.781   -9179.8059    84.138334 
   11200    1282.3463   -114.72019    1.1602938    -113.5599   -634.46631    4.3718439    4.3718439    4.3718439   -634.46631    6257.2605    16821.338   -24981.998    11933.292     18183.73     14977.18    83.559135 
   11300     1944.039   -115.32051    1.7590073   -113.56151    7028.8564    4.3805826    4.3805826    4.3805826    7028.8564    8690.7583    31793.394   -19397.583    5749.2548   -12158.756   -4288.1036    84.061206 
   11400     1078.639   -114.54179   0.97597526   -113.56581     15637.14    4.3888232    4.3888232    4.3888232     15637.14    30751.536     48587.33   -32427.447   -4812.1411    25207.536   -4276.7933      84.5365 
   11500    1086.3776   -114.54099   0.98297731   -113.55802   -3254.8523    4.3891319    4.3891319    4.3891319   -3254.8523   -27232.032    46961.254   -29493.779    19677.728    11120.873    13824.823    84.554339 
   11600    1952.1474   -115.31289     1.766344   -113.54654    4030.2547     4.372743     4.372743     4.372743    4030.2547    17887.596    7088.9815   -12885.814   -6614.8437   -10766.393    26218.067    83.610702 
   11700    1225.4149   -114.67542    1.1087811   -113.56664    35429.929    4.3722362    4.3722362    4.3722362    35429.929    -19879.02    116519.07    9649.7384   -4517.9042    29644.495   -9834.5606    83.581634 
   11800    1328.2398   -114.77023    1.2018193   -113.56842    -28476.21     4.398448     4.398448     4.398448    -28476.21   -59324.606    13204.191   -39308.216    9192.6548   -3419.3033   -5839.4176    85.093894 
   11900    1098.4581   -114.55473     0.993908   -113.56083    19948.723    4.3780916    4.3780916    4.3780916    19948.723   -22860.125    58590.258    24116.036    5408.3919    6672.7671    17346.986    83.917884 
   12000    1691.2968    -115.0924    1.5303209   -113.56208    11518.799    4.3729038    4.3729038    4.3729038    11518.799    17366.359    39140.273   -21950.234   -7879.0085     31011.06    -6620.119    83.619926 
   12100    1878.6832   -115.26275     1.699872   -113.56288   -6297.8684    4.3897031    4.3897031    4.3897031   -6297.8684   -4907.5833    404.90438   -14390.926     9545.651   -9135.4921   -11093.638    84.587355 
   12200    792.01467   -114.27948   0.71663152   -113.56285    27145.086    4.3901418    4.3901418    4.3901418    27145.086      5959.48    83623.571   -8147.7916    18144.554    14421.807    6720.4894    84.612719 
   12300    1349.5853   -114.77246    1.2211332   -113.55133    2789.1535    4.3995416    4.3995416    4.3995416    2789.1535    15015.937    26721.359   -33369.836   -8011.8349    18743.528    8037.0557    85.157376 
   12400    1953.8895   -115.30491    1.7679203   -113.53699   -777.97502    4.3823611    4.3823611    4.3823611   -777.97502   -2677.7487    26481.955   -26138.131   -2106.3578   -1810.5472   -11285.681    84.163632 
   12500    1047.3774   -114.49173   0.94768906   -113.54404    26352.186    4.3582651    4.3582651    4.3582651    26352.186    80882.372    5603.7801   -7429.5926    7507.5021     24843.67    544.11484    82.782957 
   12600    1076.7403   -114.54832   0.97425726   -113.57406   -18371.906    4.3788228    4.3788228    4.3788228   -18371.906   -33191.224   -21436.889   -487.60592   -11628.568    19300.395    18546.997    83.959936 
   12700    1861.4483   -115.23721    1.6842775   -113.55293   -5344.9443    4.3901161    4.3901161    4.3901161   -5344.9443    25947.137   -29767.997   -12213.973    4600.4133   -7837.7674   -17040.132    84.611232 
   12800     1290.258   -114.72156    1.1674526   -113.55411   -8938.0999     4.387209     4.387209     4.387209   -8938.0999   -12051.252    16830.303   -31593.351     1358.074    29112.898    5089.1982    84.443254 
   12900    1166.2095   -114.60442    1.0552109   -113.54921   -14882.946    4.3771888    4.3771888    4.3771888   -14882.946   -12707.756   -23123.754   -8817.3294    8246.1074    30854.254    12978.187    83.865983 
   13000    1486.5659    -114.8887    1.3450761   -113.54363    21807.126    4.3816752    4.3816752    4.3816752    21807.126    14809.231    63166.099   -12553.951   -8994.5776   -6535.6501   -10596.255     84.12412 
   13100    1692.0764   -115.07607    1.5310263   -113.54504   -22693.664    4.3865324    4.3865324    4.3865324   -22693.664   -19928.268   -2337.7238       -45815     3435.156    12355.136    11400.914    84.404193 
   13200    919.48555   -114.37616   0.83196985   -113.54419     26520.97    4.3784177    4.3784177    4.3784177     26520.97    44022.345    39629.096   -4088.5312    103.72393    22652.246    13954.936     83.93664 
   13300     1729.227   -115.09654     1.564641    -113.5319   -14515.872    4.3928869    4.3928869    4.3928869   -14515.872    6330.9085   -23518.896   -26359.628   -10153.069   -6962.3613   -9188.1795    84.771537 
   13400    1160.4377   -114.58874    1.0499884   -113.53875    20015.094    4.3782931    4.3782931    4.3782931    20015.094    96388.497    19656.876   -56000.092    1153.3142    10630.163   -9745.2302    83.929473 
   13500    1838.5222     -115.203    1.6635336   -113.53947    2391.2971    4.3659908    4.3659908    4.3659908    2391.2971   -1249.2895    33109.213   -24686.032   -2638.9325    20030.503    13928.841    83.223974 
   13600    1359.1865   -114.78573    1.2298205   -113.55591    241.82862     4.383734     4.383734     4.383734    241.82862      44249.1   -9638.1599   -33885.454   -10580.004    229.55056   -14062.305    84.242761 
   13700    1365.8985   -114.78489    1.2358936     -113.549   -10576.373    4.3873559    4.3873559    4.3873559   -10576.373    49147.409   -26413.077   -54463.451   -5473.9938    530.09609   -27766.679     84.45174 
   13800    1814.8219   -115.17693     1.642089   -113.53484   -6005.0823    4.3749927    4.3749927    4.3749927   -6005.0823   -22926.747    38555.145   -33643.646   -256.35444    22904.577    10649.673    83.739817 
   13900    1176.8032   -114.60798    1.0647963   -113.54318   -7164.9054    4.3733982    4.3733982    4.3733982   -7164.9054    63146.387   -41609.249   -43031.854    5585.8423   -3539.3675   -38803.928    83.648289 
   14000    1158.6511   -114.60309    1.0483719   -113.55472    -16801.97    4.3789202    4.3789202    4.3789202    -16801.97    13936.088   -16630.067   -47711.931    2560.4532    9678.4779    -27371.53    83.965541 
   14100    1415.0885   -114.83077    1.2804018   -113.55037   -2875.6966    4.3763254    4.3763254    4.3763254   -2875.6966   -13275.748    26592.488   -21943.829   -8762.1724    10417.071    19862.025    83.816366 
   14200    1211.8624   -114.65644    1.0965186   -113.55992   -25164.996    4.3811631    4.3811631    4.3811631   -25164.996     7012.819   -36095.469   -46412.339    10656.862    6193.1232   -36516.233     84.09463 
   14300    1312.3585   -114.74214    1.1874496   -113.55469   -5566.6696    4.3775727    4.3775727    4.3775727   -5566.6696   -4105.7168    17668.891   -30263.183   -6875.2171    -14332.72   -9903.2319    83.888053 
   14400    967.68849   -114.43519   0.87558488    -113.5596   -1199.1819    4.3761161    4.3761161    4.3761161   -1199.1819   -19764.604     66268.55   -50101.492     9873.615    21360.872    23481.954    83.804339 
   14500    1952.1286   -115.31556     1.766327   -113.54923   -13103.454    4.3746469    4.3746469    4.3746469   -13103.454     747.1444   -8852.4483   -31205.058   -5402.2812    2298.7782   -15451.701    83.719958 
   14600    1551.6618   -114.95678    1.4039762    -113.5528    1152.5703    4.3854288    4.3854288    4.3854288    1152.5703    -10564.17    49465.903   -35444.023   -1718.1887   -7401.4903   -683.27117    84.340504 
   14700    977.47041   -114.44595   0.88443577   -113.56151   -42442.001    4.3881754    4.3881754    4.3881754   -42442.001   -45947.265   -12491.424   -68887.313   -8294.5448    23497.389    45714.205    84.499073 
   14800    1695.1593   -115.08187    1.5338157   -113.54806    16612.019    4.3598255    4.3598255    4.3598255    16612.019    21701.663     5309.854    22824.541    5923.0431   -4432.9419    15263.901    82.871903 
   14900    1872.0939    -115.2571    1.6939099   -113.56319    9446.2913     4.381068     4.381068     4.381068    9446.2913    17964.855    3215.5568    7158.4623    7197.0409    15564.679   -9997.8977    84.089156 
   15000    811.62643   -114.28964   0.73437665   -113.55527    -28134.75    4.4028706    4.4028706    4.4028706    -28134.75   -39616.869   -26438.555   -18348.825   -6583.2287     21914.51    35998.811    85.350836 
   15100    1324.3126    -114.7324    1.1982658   -113.53413    14760.999    4.3649474    4.3649474    4.3649474    14760.999     27105.42    19141.662   -1964.0849   -2236.0758   -7753.0704    9236.7239    83.164322 
   15200    1520.4687   -114.91471     1.375752   -113.53896    18690.548    4.3656515    4.3656515    4.3656515    18690.548    13920.591    27199.436    14951.617    5026.9557    6153.8052   -14441.465     83.20457 
   15300     1183.282   -114.61762    1.0706584   -113.54696   -36580.599    4.3911223    4.3911223    4.3911223   -36580.599   -20496.734   -26900.304   -62344.759   -4887.1409    22407.244    17727.852    84.669423 
   15400    1306.4702   -114.71633    1.1821217   -113.53421    17003.737    4.3841907    4.3841907    4.3841907    17003.737   -4078.1277    40000.217    15089.124    2256.9037   -6774.7478    16151.414    84.269089 
   15500    1975.3048    -115.3137    1.7872973   -113.52641   -14928.721    4.3850483    4.3850483    4.3850483   -14928.721   -3936.6874   -30697.328   -10152.149   -1798.8773    2040.5667   -17050.351    84.318551 
   15600    1329.0468   -114.73583    1.2025495   -113.53328   -7069.5451    4.3778164    4.3778164    4.3778164   -7069.5451   -16648.635    -28509.45     23949.45   -9239.8464    10731.619    17841.286    83.902059 
   15700    1779.6636   -115.14367     1.610277   -113.53339    17141.496    4.3779795    4.3779795    4.3779795    17141.496   -20265.598    47002.768    24687.318    1535.3846   -3092.5345    10235.048    83.911441 
   15800    1882.1253   -115.23818    1.7029865   -113.53519   -11278.557    4.3824826    4.3824826    4.3824826   -11278.557    -6632.484   -29087.309    1884.1222   -1092.7534   -24.351167   -13823.842    84.170637 
   15900    1011.4287   -114.46442   0.91516197   -113.54926   -2590.5794    4.3799177    4.3799177    4.3799177   -2590.5794   -21626.518    24678.884   -10824.105    1974.1147    14333.006    14839.462    84.022938 
   16000    1643.5279   -115.03206    1.4870986   -113.54496   -3033.6646    4.3833445    4.3833445    4.3833445   -3033.6646   -28813.874    13441.088    6271.7921   -4850.4539    5123.9698     689.2644    84.220306 
   16100    1371.0809   -114.78139    1.2405828    -113.5408    3070.9164    4.3766229    4.3766229    4.3766229    3070.9164     845.6058     21346.45   -12979.307   -2297.8055   -10997.522   -7326.1871    83.833461 
   16200     879.7602   -114.34303   0.79602552     -113.547    11174.146    4.3811391    4.3811391    4.3811391    11174.146   -13486.408   -1406.0061    48414.852    7457.6518     7940.015    33560.474    84.093246 
   16300    1492.6044    -114.8805    1.3505399   -113.52996   -31293.414    4.4018322    4.4018322    4.4018322   -31293.414   -37784.566   -56047.397   -48.277512    -5589.637    5451.1579   -4141.8513    85.290457 
   16400    1375.5465   -114.77608    1.2446234   -113.53145    2461.5436    4.3658177    4.3658177    4.3658177    2461.5436    -6899.224   -17337.524    31621.379   -12743.182   -27178.111    986.28316    83.214078 
   16500    1427.6292   -114.83037    1.2917489   -113.53862    15828.698    4.3488502    4.3488502    4.3488502    15828.698      53767.2     4190.255   -10471.362    7239.1579     13871.31    26921.235    82.247622 
   16600    1579.0855    -114.9862    1.4287898   -113.55741   -21107.854    4.3846526    4.3846526    4.3846526   -21107.854   -9321.9801   -21760.734   -32240.849   -5587.2216     25911.39   -3087.7338    84.295731 
   16700    1149.8365   -114.58073    1.0403962   -113.54034   -15488.941    4.3949818    4.3949818    4.3949818   -15488.941    10875.773   -16515.917   -40826.679   -10487.691   -35772.372    1801.8955    84.892874 
   16800    1401.3542   -114.79758    1.2679747    -113.5296   -6927.2536    4.3781713    4.3781713    4.3781713   -6927.2536    36985.302   -7595.1489   -50171.914    9875.0576    6740.5215    32935.298    83.922471 
   16900    1592.1651   -114.96052    1.4406244    -113.5199    12040.281    4.3646822    4.3646822    4.3646822    12040.281    37405.757     6307.504   -7592.4162    13336.871     15177.29   -7913.0751     83.14916 
   17000    1030.8082    -114.4834   0.93269693   -113.55071   -24345.479     4.377268     4.377268     4.377268   -24345.479   -21839.672   -8304.7451    -42892.02   -12862.901   -48905.332     9530.531    83.870536 
   17100    959.01278   -114.42483   0.86773492   -113.55709   -21187.512    4.3871154    4.3871154    4.3871154   -21187.512    -31016.87    21203.985   -53749.653   -5475.8219    8283.6568    25989.248     84.43785 
   17200     1756.853   -115.13582    1.5896375   -113.54619     1317.426    4.3737099    4.3737099    4.3737099     1317.426   -6678.4354    29547.251   -18916.538   -8588.0583     6925.962   -5346.9342    83.666177 
   17300     1068.143   -114.51889   0.96647825   -113.55242     15759.05    4.3645989    4.3645989    4.3645989     15759.05   -10295.807     68736.78   -11163.823   -7955.0604   -30517.506     18859.38    83.144401 
   17400    1307.9421   -114.74151    1.1834535   -113.55806     5122.762    4.3796739    4.3796739    4.3796739     5122.762   -25420.815    11421.418    29367.684   -10697.789    5087.4303    35865.658    84.008907 
   17500    1936.7486   -115.28729    1.7524108   -113.53488     7769.168    4.3912617    4.3912617    4.3912617     7769.168   -17825.779    17516.519    23616.764    3818.1173    11545.679   -1648.5852    84.677487 
   17600    1072.4194   -114.51036   0.97034757   -113.54002    18113.873     4.374985     4.374985     4.374985    18113.873   -8575.1146    22666.969    40249.765   -3227.3379   -6686.1736    14128.265    83.739375 
   17700    1019.2424   -114.47263   0.92223197    -113.5504   -8397.3041    4.3673867    4.3673867    4.3673867   -8397.3041    2620.3615   -33750.309    5938.0353   -26525.079   -14565.434    32517.166    83.303828 
   17800    1505.6386   -114.91052    1.3623335   -113.54818    25371.475    4.3687942    4.3687942    4.3687942    25371.475    32229.451    10496.765    33388.209   -4673.3506    21437.986   -5222.0031    83.384388 
   17900    1202.1668   -114.65033    1.0877458   -113.56259    -18402.08    4.3842495    4.3842495    4.3842495    -18402.08    24619.703   -52162.189   -27663.754    3342.7015   -784.36202    14724.345    84.272482 
   18000     628.5389    -114.1255    0.5687152   -113.55679   -30553.177     4.386608     4.386608     4.386608   -30553.177    37593.117   -62198.806   -67053.841   -7024.7607    -17948.04    34070.337    84.408556 
   18100    1778.1162   -115.13902    1.6088769   -113.53014    28677.006    4.3559952    4.3559952    4.3559952    28677.006    34442.894    28177.231    23410.891   -5922.3363    2949.9955    -20998.11    82.653678 
   18200    1387.7728   -114.80781     1.255686   -113.55212    5232.1399    4.3701218    4.3701218    4.3701218    5232.1399    53105.246   -30949.225   -6459.6014    11660.839    2824.6014      28786.4     83.46043 
   18300    1221.0887   -114.64686    1.1048667   -113.54199   -32578.954    4.3910492    4.3910492    4.3910492   -32578.954    5200.1986   -39404.103   -63532.959   -5707.7403   -13072.601     29362.79    84.665193 
   18400    1779.6481      -115.14     1.610263   -113.52973    9327.7365    4.3675111    4.3675111    4.3675111    9327.7365   -18059.091    26779.635    19262.666   -10473.416   -3342.8124   -8501.6701    83.310941 
   18500    1742.5756   -115.11619    1.5767191   -113.53947   -5041.9296    4.3663982    4.3663982    4.3663982   -5041.9296     998.4074    -29878.18    13753.984    1462.3652    15062.529    31367.462    83.247271 
   18600    1386.0923   -114.80538    1.2541654   -113.55121    -9013.175    4.3753863    4.3753863    4.3753863    -9013.175   -323.34084   -29349.173    2632.9885    -3099.637   -30128.583    17802.948    83.762419 
   18700    1209.1668   -114.64614    1.0940795   -113.55207    7331.0452    4.3789803    4.3789803    4.3789803    7331.0452   -13772.615    18087.695    17678.056   -8476.5272    -8700.887   -3599.3091       83.969 
   18800    1375.7112   -114.78813    1.2447724   -113.54336   -11983.451    4.3842703    4.3842703    4.3842703   -11983.451   -1798.0986   -24207.664   -9944.5893     9924.334    23133.665    19166.846    84.273681 
   18900    1462.1501   -114.86416    1.3229841   -113.54118   -3909.6668    4.3751473    4.3751473    4.3751473   -3909.6668    9620.0628   -45143.751    23794.688   -7080.1925   -18328.143    4306.4976    83.748693 
   19000    1153.8973   -114.59378    1.0440705   -113.54971    18374.915    4.3611019    4.3611019    4.3611019    18374.915    17401.492    6151.8402    31571.412    -4563.703   -3051.4045   -5818.4117    82.944712 
   19100    955.90543   -114.43256   0.86492332   -113.56764    29232.228     4.370762     4.370762     4.370762    29232.228    25108.955    10793.131    51794.597   -1542.6394    34540.367    20046.563    83.497113 
   19200    1763.6315   -115.14991    1.5957709   -113.55414   -34688.193    4.3936558    4.3936558    4.3936558   -34688.193   -16695.953   -69859.859   -17508.766    898.69347   -7781.1508   -19990.057    84.816062 
   19300    1266.7291   -114.71202    1.1461631   -113.56586   -14438.693      4.36492      4.36492      4.36492   -14438.693    535.57423   -15730.588   -28121.066    285.68538   -14711.672   -27112.079    83.162753 
   19400    1440.5869   -114.85651    1.3034733   -113.55304    18187.017    4.3360079    4.3360079    4.3360079    18187.017   -14672.768    51134.388    18099.432    5665.9055    38822.478    16283.189    81.521131 
   19500    1751.8418   -115.16127    1.5851032   -113.57616   -11887.632    4.3731838    4.3731838    4.3731838   -11887.632   -18822.756   -40030.637    23190.496    13775.842    4544.1273   -19411.162    83.635988 
   19600    1698.2839   -115.09273     1.536643   -113.55609   -19347.078    4.3880469    4.3880469    4.3880469   -19347.078   -28097.958   -54312.153    24368.879    5920.4985   -10370.028   -19435.664     84.49165 
   19700     1445.608   -114.86162    1.3080165    -113.5536   -3257.4384    4.3594691    4.3594691    4.3594691   -3257.4384   -52842.061    38328.445    4741.3016   -4299.4551     36886.04     9750.276    82.851582 
   19800    1427.5372    -114.8542    1.2916656   -113.56253     12158.61    4.3527919    4.3527919    4.3527919     12158.61   -27076.381    7708.8446    55843.367    8322.9539    8423.9086   -4773.2961    82.471465 
   19900    1881.7068   -115.27277    1.7026079   -113.57016   -10750.973    4.3753105    4.3753105    4.3753105   -10750.973   -20194.929   -53177.682    41119.692    11187.524   -6959.7594   -10519.574    83.758063 
   20000    1272.2921   -114.71522    1.1511966   -113.56402   -27274.262    4.3833708    4.3833708    4.3833708   -27274.262   -59712.446   -15409.308   -6701.0329   -6639.4781    26446.121    1543.9599    84.221822 
   20100    1062.6891   -114.51844   0.96154347    -113.5569    -12995.18    4.3621046    4.3621046    4.3621046    -12995.18   -45517.445    4746.6005    1785.3043    14355.202   -4280.0923    10936.564     83.00194 
   20200    1379.4974   -114.80844    1.2481982   -113.56024    513.07911     4.361082     4.361082     4.361082    513.07911   -25998.846   -24105.366     51643.45    5016.8956   -22839.851   -14514.616    82.943574 
   20300     1463.804   -114.88549    1.3244806   -113.56101   -17726.555    4.3735888    4.3735888    4.3735888   -17726.555   -37665.406   -33451.008    17936.749   -19723.984    23800.307   -6647.9695    83.659228 
   20400    956.69209   -114.42458   0.86563511   -113.55894   -12368.442    4.3771465    4.3771465    4.3771465   -12368.442   -59248.196    9743.5755    12399.294    13226.385   -11378.482   -3070.0447    83.863553 
   20500    920.71322   -114.38271   0.83308067   -113.54963   -16360.619    4.3810906    4.3810906    4.3810906   -16360.619    -69450.38   -20025.264    40393.788    28.410478   -21217.601   -15311.001    84.090456 
   20600    1624.3238   -115.00179    1.4697223   -113.53207   -4749.4003    4.3692891    4.3692891    4.3692891   -4749.4003   -52328.727    2933.6829    35146.843   -29210.061    5922.3675   -5861.8041    83.412734 
   20700    1291.2424   -114.71281    1.1683432   -113.54447    12507.679    4.3649371    4.3649371    4.3649371    12507.679   -48581.543    91717.389   -5612.8105    2848.0995   -31283.814    -5251.763    83.163731 
   20800    1121.7574    -114.5735    1.0149897   -113.55851     18537.39    4.3700481    4.3700481    4.3700481     18537.39   -48673.546    98997.587    5288.1291   -10627.355   -5112.4714     -14400.7    83.456211 
   20900    1458.0243   -114.87914     1.319251   -113.55989   -11109.912    4.3815558    4.3815558    4.3815558   -11109.912   -65317.655    8359.2407    23628.679   -19523.046    2152.2783    -6640.883    84.117242 
   21000    1350.4837    -114.7723     1.221946   -113.55035   -5497.2858    4.3802123    4.3802123    4.3802123   -5497.2858   -64262.773    34282.646    13488.269    9517.5988   -29057.106   -2162.7861    84.039891 
   21100    1547.8069   -114.94294    1.4004882   -113.54245    12110.017    4.3660698    4.3660698    4.3660698    12110.017    -39824.72    18238.917    57915.855   -10554.464    7350.2299   -1843.9604    83.228493 
   21200    1371.5459   -114.79671    1.2410035   -113.55571   -10927.751    4.3704449    4.3704449    4.3704449   -10927.751   -65221.727   -37813.353    70251.828   -6668.9533    4628.8649    8559.6788    83.478943 
   21300    1678.6034   -115.06986    1.5188357   -113.55102   -17399.519    4.3781142    4.3781142    4.3781142   -17399.519   -61146.604    -21885.24    30833.287    20378.179    -18515.37    10414.528    83.919184 
   21400    1874.2661   -115.24366    1.6958754   -113.54778   -24799.205    4.3807518    4.3807518    4.3807518   -24799.205   -62219.549    5577.8572   -17755.925   -14940.713    16701.112    4625.4565    84.070947 
   21500    767.34787    -114.2501   0.69431248   -113.55579    989.27006    4.3748921    4.3748921    4.3748921    989.27006   -73273.808    3777.5918    72464.026    12179.786    9819.3044   -6573.2748    83.734039 
   21600    1797.9015   -115.17303    1.6267791   -113.54625   -3044.7294    4.3664657    4.3664657    4.3664657   -3044.7294   -41803.988   -10660.681    43330.482     12489.49   -10014.838    8199.7504    83.251134 
   21700    1785.5177   -115.16495    1.6155739   -113.54937    14949.249    4.3665406    4.3665406    4.3665406    14949.249   -19613.341    24763.806    39697.282   -3027.4459    12703.601   -608.72493    83.255417 
   21800    1246.5403   -114.69781    1.1278958   -113.56991   -6261.8619    4.3709125    4.3709125    4.3709125   -6261.8619    -65922.95    13546.892    33590.473    14888.385    18147.437    318.99138     83.50574 
   21900    1157.8253   -114.61794    1.0476246   -113.57032   -4258.5219    4.3713642    4.3713642    4.3713642   -4258.5219   -59551.977    22966.388    23810.023    16109.606   -20092.742    173.17854    83.531632 
   22000    1735.4446   -115.13116    1.5702668    -113.5609   -2883.2577    4.3641388    4.3641388    4.3641388   -2883.2577   -20127.332    16339.073   -4861.5137   -8375.3219   -23844.583   -5173.7106    83.118109 
   22100    1396.0489   -114.83095    1.2631743   -113.56777    9078.0451     4.367226     4.367226     4.367226    9078.0451   -39265.385    25431.052    41068.469    18675.894    16668.484    16662.252    83.294628 
   22200    843.68602   -114.33278   0.76338484    -113.5694   -17423.751    4.3774402    4.3774402    4.3774402   -17423.751   -75484.831    28063.675    -4850.097    12566.941   -19747.802   -3223.9664    83.880431 
   22300    1245.4452   -114.68552     1.126905   -113.55861    -10113.62    4.3680233    4.3680233    4.3680233    -10113.62   -42807.964    17947.749   -5480.6444    -12874.43   -28201.316    6613.0245    83.340255 
   22400     1689.084   -115.08246    1.5283187   -113.55414    19851.125    4.3616357    4.3616357    4.3616357    19851.125   -22102.238     46511.09    35144.523    12873.719    6046.9608     4772.263    82.975173 
   22500    1298.9499   -114.74399    1.1753172   -113.56867   -175.55234    4.3745819    4.3745819    4.3745819   -175.55234   -54958.177    33891.185    20540.335    3993.3583   -9188.3925    3908.8798     83.71623 
   22600    1192.2647   -114.64273    1.0787861   -113.56394   -12520.205    4.3757674    4.3757674    4.3757674   -12520.205   -66810.216   -5124.3309    34373.933   -7372.0222   -19262.328     1810.833     83.78431 
   22700    1617.3206   -115.02009    1.4633857    -113.5567    2686.9674    4.3627185    4.3627185    4.3627185    2686.9674   -24799.682    38094.949   -5234.3641    519.24116    20959.908    9776.6943    83.036985 
   22800    1684.8771   -115.08589    1.5245122   -113.56138    -9281.818    4.3680169    4.3680169    4.3680169    -9281.818    -35255.41   -1334.2743    8744.2303   -6218.0767    18083.392    -709.0088     83.33989 
   22900    1364.2669    -114.7915    1.2344173   -113.55708   -20899.316     4.385485     4.385485     4.385485   -20899.316   -64769.235   -54921.296    56992.583   -4105.1069    -19184.34   -8773.5415    84.343749 
   23000    1312.9541   -114.74369    1.1879885    -113.5557   -15092.584    4.3713703    4.3713703    4.3713703   -15092.584     -56261.8    7778.7223    3205.3259    5051.2606    28795.712    14163.571    83.531982 
   23100    1310.6738   -114.74227    1.1859252   -113.55635    25326.364    4.3538849    4.3538849    4.3538849    25326.364    -6784.497    20992.003    61771.587   -7222.4626    18662.019   -1117.5749    82.533605 
   23200    1580.3166   -114.99384    1.4299037   -113.56393   -13045.595    4.3792282    4.3792282    4.3792282   -13045.595   -34249.826   -57796.345    52909.386   -12857.451   -10783.315    5643.0291    83.983259 
   23300    1530.8518    -114.9401    1.3851468   -113.55495   -23062.087    4.3811733    4.3811733    4.3811733   -23062.087   -41349.957   -19860.634   -7975.6703    2668.6107    27549.266   -14667.664    84.095217 
   23400    1366.0907   -114.78408    1.2360676   -113.54801    2430.9969     4.365557     4.365557     4.365557    2430.9969   -11254.354    -1505.532    20052.877   -8132.5004    15164.764    7687.7307    83.199166 
   23500     1502.104   -114.91032    1.3591353   -113.55119   -10845.741    4.3734004    4.3734004    4.3734004   -10845.741   -21006.436   -35769.122    24238.335    620.20837   -22861.557   -17516.897    83.648415 
   23600    1332.9316   -114.75323    1.2060646   -113.54717   -14228.355    4.3876009    4.3876009    4.3876009   -14228.355   -11254.536   -17835.693   -13594.835    5889.2183    30749.265   -6586.9951     84.46589 
   23700    924.78003    -114.3677   0.83676041   -113.53094    -2321.799    4.3899782    4.3899782    4.3899782    -2321.799   -9368.4551     -27746.1    30149.158   -7733.6511    8132.9679    12436.308    84.603257 
   23800    1199.1101   -114.60823      1.08498   -113.52325    546.19081    4.3718894    4.3718894    4.3718894    546.19081   -14554.917   -26056.597    42250.086    4564.3529   -20060.957   -12645.156    83.561747 
   23900    1656.4979   -115.02907    1.4988341   -113.53024    13099.255    4.3622791    4.3622791    4.3622791    13099.255    16526.768   -4538.7852    27309.783    2189.5043    14275.927   -22782.321    83.011901 
   24000    1499.0747   -114.91569    1.3563943    -113.5593   -15284.533    4.3827366    4.3827366    4.3827366   -15284.533   -25866.566   -28625.337    8638.3044   -15615.955    20079.032    18016.133    84.185272 
   24100    1299.9478   -114.73397    1.1762201   -113.55775   -39535.282    4.3941308    4.3941308    4.3941308   -39535.282     -41742.5   -60330.768   -16532.577    2312.4106   -4035.6871   -13154.426    84.843569 
   24200    1647.1961   -115.03875    1.4904177   -113.54834    7652.3164    4.3783771    4.3783771    4.3783771    7652.3164   -4323.1665   -31092.557    58372.673    2992.2728   -1235.5368    -18465.05    83.934303 
   24300    2067.4752   -115.41769     1.870695   -113.54699    28443.987    4.3602559    4.3602559    4.3602559    28443.987    3679.1406    701.25577    80951.565   -12576.616    12912.964    5989.7594    82.896451 
   24400    1533.7445   -114.96826    1.3877643    -113.5805   -5773.1258    4.3668027    4.3668027    4.3668027   -5773.1258   -21575.747   -27847.741     32104.11   -3262.3422   -6015.9699   -2858.7766    83.270414 
   24500    804.47313   -114.31639   0.72790419   -113.58849    -52248.09    4.3839067    4.3839067    4.3839067    -52248.09   -62838.629   -27216.257   -66689.385    4541.3606   -34926.438   -23352.506    84.252716 
   24600    1913.6679   -115.29321     1.731527   -113.56169   -12001.285     4.364045     4.364045     4.364045   -12001.285   -21227.198   -4636.4804   -10140.176     -7283.12   -328.09191    8693.9291    83.112751 
   24700    1677.0408   -115.07926    1.5174218   -113.56184   -14967.769    4.3765858    4.3765858    4.3765858   -14967.769   -25223.543   -28101.404    8421.6388   -8026.9034   -17400.697   -2795.8895    83.831328 
   24800    962.18772   -114.43811   0.87060767   -113.56751   -43504.475    4.3813061    4.3813061    4.3813061   -43504.475   -51113.488   -26076.976   -53322.961    11675.895   -36418.103   -28297.941    84.102866 
   24900    1263.0041   -114.70207    1.1427926   -113.55927     26919.37    4.3619909    4.3619909    4.3619909     26919.37   -17833.718    36306.276    62285.552   -8194.5493    825.34006   -2521.0736    82.995445 
   25000    1895.2193   -115.27812    1.7148342   -113.56329    -12041.34    4.3738085    4.3738085    4.3738085    -12041.34   -1146.0443    -13823.29   -21154.686   -471.53741     25306.27    26324.901    83.671836 
   25100    1579.8572   -114.99608     1.429488    -113.5666    6796.8766     4.362264     4.362264     4.362264    6796.8766   -15979.334    786.56785    35583.396    13316.614   -10945.545   -18479.749    83.011038 
   25200    1169.2376   -114.64051    1.0579508   -113.58256   -6923.6426    4.3751779    4.3751779    4.3751779   -6923.6426    30796.063   -6762.8525   -44804.138    8562.6521   -16882.151   -10926.472     83.75045 
   25300    1367.0522   -114.80742    1.2369376   -113.57049   -25378.477    4.3818418    4.3818418    4.3818418   -25378.477    16120.175   -42696.598   -49559.008   -11406.155    14418.898    30740.149    84.133721 
   25400    1343.0108   -114.77591    1.2151844   -113.56073    36842.113    4.3531367    4.3531367    4.3531367    36842.113    59783.356   -2191.6923    52934.676   -1545.0797    4733.0537    2528.1999    82.491068 
   25500    1189.0694   -114.65219     1.075895   -113.57629    11625.363    4.3671166    4.3671166    4.3671166    11625.363   -7379.9441   -4995.0898    47251.124    10611.578   -38067.332   -18108.054    83.288371 
   25600     918.0189   -114.39264    0.8306428   -113.56199    -3248.381    4.3926873    4.3926873    4.3926873    -3248.381   -15721.195   -36088.224    42064.276   -8674.5393   -6382.3316    9833.8155    84.759982 
   25700    1311.0374   -114.72584    1.1862542   -113.53958    6490.0899    4.3831009    4.3831009    4.3831009    6490.0899    11016.146   -14912.648    23366.772    -6369.892     23100.86   -2841.2256    84.206267 
   25800    1746.7094   -115.10832    1.5804594   -113.52786    15466.284    4.3658663    4.3658663    4.3658663    15466.284    23327.587    4521.1975    18550.068      11452.7   -13313.883   -10721.622    83.216853 
   25900    1964.7383   -115.31838    1.7777365   -113.54065   -14481.661    4.3757018    4.3757018    4.3757018   -14481.661    17613.269   -25194.332   -35863.921   -6731.4335    524.17093    11080.585    83.780537 
   26000    1548.3681   -114.94757     1.400996   -113.54657   -17129.179    4.3792575    4.3792575    4.3792575   -17129.179   -8832.0514   -5203.5346   -37351.951    6043.3862    34606.997     4315.087    83.984944 
   26100    1862.2252   -115.22431    1.6849805   -113.53933    -10543.17    4.3842961    4.3842961    4.3842961    -10543.17   -29874.701    18992.473   -20747.283    4901.8656     24676.42   -8619.6355    84.275167 
   26200    1686.4117    -115.0562    1.5259008    -113.5303   -12243.966    4.3858299    4.3858299    4.3858299   -12243.966     15381.03   -17379.591   -34733.337    -7765.585   -11338.816    26821.001    84.363648 
   26300    1312.5986    -114.7172    1.1876668   -113.52953    6807.1794    4.3689665    4.3689665    4.3689665    6807.1794    7169.5547    31887.546   -18635.563   -16015.754    38404.786    4188.2926    83.394256 
   26400    1154.6201   -114.57792    1.0447245    -113.5332    9351.7767    4.3775347    4.3775347    4.3775347    9351.7767    20313.859    18759.548   -11018.076    3860.6853    12562.729    4860.6556    83.885864 
   26500    1134.8091   -114.55934    1.0267991   -113.53254   -4899.0779    4.3875493    4.3875493    4.3875493   -4899.0779    78902.468   -48328.954   -45270.747   -10163.991   -8212.9165     28212.59    84.462909 
   26600    1050.2833   -114.48709   0.95031843   -113.53677    9644.0801    4.3707256    4.3707256    4.3707256    9644.0801    23020.661    37419.833   -31508.253   -14413.773    36802.168   -7488.5318    83.495029 
   26700    1060.5659    -114.5036   0.95962232   -113.54398   -862.36882    4.3654785    4.3654785    4.3654785   -862.36882    14253.756    19259.036   -36099.898    249.13571    20500.758    12229.795    83.194682 
   26800    1384.2473   -114.80837    1.2524961   -113.55587    -22044.61    4.3713601    4.3713601    4.3713601    -22044.61   -12696.102   -48627.866   -4809.8631    25505.771   -8831.7404    28490.827      83.5314 
   26900    1345.5277   -114.77594    1.2174617   -113.55848    2704.9101    4.3716804    4.3716804    4.3716804    2704.9101   -7999.0031    27546.859   -11433.126   -5683.7845    39267.008   -6663.1054    83.549764 
   27000    1403.1664   -114.82212    1.2696144    -113.5525   -18489.905    4.3739404    4.3739404    4.3739404   -18489.905   -8066.6445   -2047.8031   -45355.268    2660.1073    25400.599    20154.922    83.679403 
   27100     1210.418     -114.652    1.0952116   -113.55678    6264.3066    4.3678733    4.3678733    4.3678733    6264.3066    69046.394   -42821.632    -7431.842    23232.426   -12703.722    22615.375    83.331673 
   27200    1767.8752   -115.15375    1.5996107   -113.55414    16169.971    4.3682813    4.3682813    4.3682813    16169.971    41945.711    10698.746    -4134.545    6195.6506    16700.311   -16089.269    83.355023 
   27300    1631.1096   -115.03516    1.4758623    -113.5593   -25449.915    4.3912784    4.3912784    4.3912784   -25449.915    14628.622   -39301.045   -51677.321    2241.9115    11133.583    26530.089    84.678455 
   27400    1634.3739   -115.02774    1.4788158   -113.54892   -35598.361     4.382436     4.382436     4.382436   -35598.361   -22774.468   -67184.635   -16835.982    27171.797   -5207.0692    21666.193    84.167951 
   27500    1677.2822   -115.05494    1.5176402    -113.5373    17514.212    4.3565652    4.3565652    4.3565652    17514.212    29310.687    2460.5858    20771.363    13683.412    13458.116   -8849.5465    82.686128 
   27600    1028.4122   -114.49499     0.930529   -113.56446    417.94484     4.376906     4.376906     4.376906    417.94484    92961.607   -36553.641   -55154.132   -8273.9226    13053.731     26643.81     83.84973 
   27700    1258.3893   -114.69339    1.1386171   -113.55477   -11221.804    4.3856999    4.3856999    4.3856999   -11221.804    53113.098    -70292.86   -16485.651    28109.084   -15693.597    7887.0656    84.356148 
   27800    1367.8795   -114.78311    1.2376861   -113.54542    -1742.041     4.377599     4.377599     4.377599    -1742.041     12618.83   -8149.4149   -9695.5375    16527.791    942.50783   -4298.7246     83.88956 
   27900    1327.3956   -114.74532    1.2010555   -113.54426   -20263.156    4.3753868    4.3753868    4.3753868   -20263.156    12984.855   -16029.977   -57744.346   -7459.8958    26800.066     26810.35    83.762449 
   28000    1527.5513   -114.93095    1.3821606   -113.54879     -8805.97    4.3602884    4.3602884    4.3602884     -8805.97   -14671.111   -14316.948    2570.1492    28305.956    -19965.83    264.42774    82.898302 
   28100    1117.3355   -114.57514    1.0109886   -113.56415    -407.1716    4.3660703    4.3660703    4.3660703    -407.1716   -24179.414    6471.1821    16486.717    11735.998   -1852.1189    645.30915    83.228522 
   28200     1488.522   -114.90265     1.346846    -113.5558    4926.4557    4.3844583    4.3844583    4.3844583    4926.4557    71968.738   -18563.254   -38626.117   -10955.785   -234.35855    16886.924    84.284521 
   28300    1351.1304   -114.77929    1.2225312   -113.55676    22161.942    4.3711848    4.3711848    4.3711848    22161.942    31785.798    36073.914   -1373.8869    18530.502    833.85877    238.56392     83.52135 
   28400     887.6786   -114.36685   0.80319025   -113.56366    14794.805    4.3678346    4.3678346    4.3678346    14794.805   -17887.051    41906.844    20364.622    16034.735    -15767.73    1185.2015    83.329457 
   28500    2043.0324   -115.39269    1.8485787   -113.54411   -12309.785    4.3870444    4.3870444    4.3870444   -12309.785   -9489.5148   -10081.455   -17358.384   -10790.538      2021.94    2855.9684    84.433753 
   28600    1668.3624    -115.0539    1.5095693   -113.54433    26347.289    4.3667269    4.3667269    4.3667269    26347.289    5166.4944    53310.017    20565.354    21724.597    5919.5318   -7126.3359    83.266076 
   28700    936.20808   -114.41144   0.84710075   -113.56434    20641.455    4.3706344    4.3706344    4.3706344    20641.455    33364.508    20477.056    8082.7995    9886.9693   -14266.808    679.87636    83.489802 
   28800    1914.4184   -115.27715     1.732206   -113.54495   -10999.809    4.3852405    4.3852405    4.3852405   -10999.809    22086.303   -13659.161    -41426.57   -8787.8258    2109.6194   -1326.8606    84.329642 
   28900    1505.4289   -114.90704    1.3621437   -113.54489    30777.603    4.3584532    4.3584532    4.3584532    30777.603     23920.14    60294.992    8117.6776    8028.4706    28853.466   -3680.2937    82.793677 
   29000    1552.7458   -114.96796     1.404957   -113.56301   -16532.679    4.3697919    4.3697919    4.3697919   -16532.679   -41162.224    -3277.623   -5158.1887    16756.367    -21692.65   -3920.7987    83.441529 
   29100    1728.7789   -115.11322    1.5642355   -113.54898    -17626.01    4.3836254    4.3836254    4.3836254    -17626.01   -9472.1149   -10402.836    -33003.08   -19111.115    11889.721     338.3286    84.236498 
   29200    1347.4156   -114.76183      1.21917   -113.54266   -9628.5648    4.3757413    4.3757413    4.3757413   -9628.5648   -23711.548    1209.5032   -6383.6492    1535.2016    36209.834     583.7537    83.782811 
   29300    1496.5994   -114.88974    1.3541545   -113.53559   -18252.226    4.3838088    4.3838088    4.3838088   -18252.226   -17137.977   -28877.038   -8741.6615    5912.0461   -12503.657   -1296.7922    84.247069 
   29400    1519.5041   -114.89739    1.3748792   -113.52251   -22665.894    4.3870528    4.3870528    4.3870528   -22665.894   -52470.117    7013.1898   -22540.754   -9669.7989    39573.872    -15253.23    84.434235 
   29500    1343.1805   -114.73846     1.215338   -113.52312   -1010.7947    4.3758217    4.3758217    4.3758217   -1010.7947   -28336.784     22354.51    2949.8895   -5205.5996    16480.965    9669.8059    83.787428 
   29600    1480.4699    -114.8683    1.3395602   -113.52874   -20359.597    4.3811014    4.3811014    4.3811014   -20359.597   -45534.709   -1055.9396   -14488.142    19000.925    -1353.055   -5946.9087    84.091077 
   29700     1252.349   -114.67355    1.1331517    -113.5404   -10086.728    4.3812599    4.3812599    4.3812599   -10086.728   -56412.049    60886.471   -34734.606    3904.5803    33609.866   -7517.5324    84.100205 
   29800    1676.7373   -115.05519    1.5171471   -113.53805   -14131.768    4.3793459    4.3793459    4.3793459   -14131.768   -1215.1333   -18575.955   -22604.216    -4970.951    8606.6242    5167.1916    83.990032 
   29900    1498.3789   -114.89303    1.3557647   -113.53726   -15950.822     4.383287     4.383287     4.383287   -15950.822    17069.768   -46346.604   -18575.629    9565.2192    740.85309     205.4787    84.216993 
   30000    1311.7493   -114.72001    1.1868984   -113.53311   -23743.493    4.3861831    4.3861831    4.3861831   -23743.493   -30380.478    13181.779    -54031.78    218.40397     35280.57   -6007.1576     84.38403 
   30100    1770.0618   -115.13078    1.6015891   -113.52919     347.7334    4.3668727    4.3668727    4.3668727     347.7334   -6075.7594    28145.475   -21026.515   -2809.5244    15149.893    8638.6033    83.274417 
   30200    1826.1727   -115.19052    1.6523595   -113.53816    13974.096    4.3595495    4.3595495    4.3595495    13974.096    30565.999   -24325.524    35681.812    6229.4056   -9467.2795    8006.4553    82.856169 
   30300    1036.8195   -114.50755   0.93813611   -113.56942   -20067.362    4.3794594    4.3794594    4.3794594   -20067.362    -41838.89    14779.603     -33142.8    2815.0346    43829.516   -21704.386    83.996565 
   30400    1951.3361   -115.31992    1.7656099   -113.55431   -6435.2791      4.37788      4.37788      4.37788   -6435.2791   -19580.325    -11045.86    11320.348   -10682.776    10114.583    3970.5171    83.905717 
   30500    1629.1082   -115.01956    1.4740513   -113.54551    7587.0328    4.3822993    4.3822993    4.3822993    7587.0328   -34378.099    11898.984    45240.214    5100.1832   -8158.1066   -166.76505    84.160071 
   30600    928.53349   -114.38027   0.84015662   -113.54012   -20685.876    4.3892976    4.3892976    4.3892976   -20685.876   -70759.771   -19458.989    28161.132   -120.38628    35543.592   -16453.169    84.563917 
   30700    1717.5077   -115.07827    1.5540371   -113.52424    12910.798    4.3719225    4.3719225    4.3719225    12910.798   -24250.314    4887.4108    58095.296   -14648.032   -2636.3939   -1740.1402    83.563642 
   30800    1527.1203    -114.9199    1.3817706   -113.53813    18256.807    4.3699207    4.3699207    4.3699207    18256.807   -18306.436    22158.891    50917.965        17091   -15186.302    6202.3671    83.448911 
   30900    1167.3372    -114.6112    1.0562313   -113.55496    -30365.01    4.3818024    4.3818024    4.3818024    -30365.01   -33942.903   -37027.292   -20124.833    7020.3582    37816.168   -11427.017    84.131448 
   31000    1559.9953   -114.96054    1.4115166   -113.54902   -19330.552    4.3753977    4.3753977    4.3753977   -19330.552   -491.58677   -18557.739    -38942.33   -8068.5531    8677.4279   -18010.749    83.763072 
   31100    1776.6806   -115.14922    1.6075779   -113.54164    10441.549    4.3723061    4.3723061    4.3723061    10441.549   -10341.144    29215.313    12450.478    13865.466   -10119.064    12610.362    83.585642 
   31200    1109.1413   -114.56202    1.0035743   -113.55844    756.15715    4.3750315    4.3750315    4.3750315    756.15715    822.56204   -12187.935    13633.844   -3785.5644    20414.518   -8981.8829    83.742043 
   31300    806.84243   -114.29606   0.73004798   -113.56601    16919.338    4.3710107    4.3710107    4.3710107    16919.338    31545.736   -18338.752     37551.03   -12317.998    12068.546   -33024.508    83.511371 
   31400    1965.9767   -115.33794     1.778857   -113.55908    1771.3617     4.370593     4.370593     4.370593    1771.3617    4700.2499   -6259.4023    6873.2376   -2995.8646   -10855.506    5619.4352    83.487429 
   31500    1375.7367   -114.81319    1.2447955   -113.56839    19817.295    4.3696688    4.3696688    4.3696688    19817.295    19155.549    25553.607     14742.73    1672.6315    16746.633    1428.3388    83.434481 
   31600    929.00319   -114.41406   0.84058161   -113.57348   -19752.249    4.3851276    4.3851276    4.3851276   -19752.249    23921.771   -12663.651   -70514.868   -15741.201    24019.924   -40083.339    84.323126 
   31700    1981.1222   -115.33455     1.792561   -113.54199   -10397.659    4.3854062    4.3854062    4.3854062   -10397.659    1768.0749    2280.9936   -35242.044   -2456.4418   -7217.8764   -8780.5866    84.339201 
   31800    2135.8987   -115.47178     1.932606   -113.53917   -1816.1442    4.3621517    4.3621517    4.3621517   -1816.1442    4090.4302    5836.7324   -15375.595    1358.1682    16234.938    17741.466    83.004624 
   31900    850.02181   -114.34072    0.7691176    -113.5716   -7138.4368    4.3621911    4.3621911    4.3621911   -7138.4368    16046.686   -11533.189   -25928.807   -10399.178    22999.314   -39929.839    83.006872 
   32000    1391.8296   -114.83837    1.2593567   -113.57901    2701.6345    4.3787038    4.3787038    4.3787038    2701.6345    30441.756   -25489.334    3152.4808     6947.365    2904.2302   -14006.214    83.953094 
   32100     2126.218   -115.46727    1.9238467   -113.54342   -23420.497    4.3996169    4.3996169    4.3996169   -23420.497   -22537.693    -30534.78   -17189.018   -227.93106    12055.832    10024.613    85.161754 
   32200     870.2635   -114.33308    0.7874327   -113.54565   -19760.227    4.3881188    4.3881188    4.3881188   -19760.227    2551.9847   -9333.2281   -52499.438   -3323.8864    29118.002   -31665.827    84.495803 
   32300    1378.6569   -114.77807    1.2474377   -113.53063    8868.7268    4.3529746    4.3529746    4.3529746    8868.7268    17491.481    19800.731   -10686.031    271.01562   -5359.1168    1302.0739    82.481852 
   32400    1681.6007   -115.06919    1.5215476   -113.54764    31737.298    4.3529198    4.3529198    4.3529198    31737.298    43434.116     32001.22    19776.559    24388.415   -5462.2623    14022.827    82.478734 
   32500    1515.9352   -114.93438      1.37165   -113.56273   -6190.5463    4.3835359    4.3835359    4.3835359   -6190.5463    7315.8117    9906.9455   -35794.396   -11322.552    5837.1124   -30502.545     84.23134 
   32600    1295.3919   -114.72943    1.1720978   -113.55733    -19732.71     4.384964     4.384964     4.384964    -19732.71   -17486.221    11302.383   -53014.292   -3031.6258    16378.545    -8568.335    84.313687 
   32700    1001.5637   -114.46052   0.90623585   -113.55428    10396.316    4.3626297    4.3626297    4.3626297    10396.316   -4833.7335    46145.779   -10123.097    18019.206   -7031.4309    24194.972    83.031916 
   32800    1783.1237   -115.16791    1.6134078    -113.5545    15248.034    4.3597002    4.3597002    4.3597002    15248.034    32124.966    28101.996    -14482.86   -11931.145   -4228.6182   -12126.399    82.864759 
   32900    1818.8918   -115.20733    1.6457715   -113.56156   -5448.3697    4.3812911    4.3812911    4.3812911   -5448.3697    11047.917    9351.8659   -36744.892   -13668.215    11837.597   -7468.0579    84.102002 
   33000    807.99169   -114.29641   0.73108787   -113.56532   -17784.832     4.387077     4.387077     4.387077   -17784.832   -26397.851   -4890.4286   -22066.217    5746.0528    4340.3727    19457.357    84.435637 
   33100    1346.3489   -114.76133    1.2182048   -113.54312    23694.232    4.3698272    4.3698272    4.3698272    23694.232    57086.351    5242.4111    8753.9345   -2760.5665   -356.36109    2696.1845    83.443552 
   33200    1822.1248     -115.192    1.6486968    -113.5433    11139.966    4.3739965    4.3739965    4.3739965    11139.966    62281.731    -13413.54   -15448.293   -16676.854    8557.8036    7938.7776    83.682627 
   33300     1079.207   -114.53063   0.97648918   -113.55414   -11963.349    4.3810951    4.3810951    4.3810951   -11963.349    35865.339   -17800.434   -53954.953   -1084.1366    2059.1962    28695.535    84.090715 
   33400    1122.3929   -114.56753    1.0155647   -113.55196   -8024.0645    4.3798425    4.3798425    4.3798425   -8024.0645   -25649.824    16609.129   -15031.499    18597.863   -9161.6453    8420.0205     84.01861 
   33500    1351.0764   -114.76701    1.2224823   -113.54453   -10278.919    4.3813847    4.3813847    4.3813847   -10278.919   -12211.534   -22655.057    4029.8325   -17477.356    6830.8292    14412.241    84.107393 
   33600    1377.3889   -114.78693    1.2462904   -113.54064   -12266.583    4.3709461    4.3709461    4.3709461   -12266.583    10053.406   -15764.505    -31088.65   -404.90858   -4213.5932    33609.408    83.507665 
   33700    1261.4985   -114.68797    1.1414304   -113.54654     3219.841    4.3721859    4.3721859    4.3721859     3219.841   -1081.0356     30793.85   -20053.292    18138.025   -10943.396    4289.9915    83.578745 
   33800    1467.2758   -114.87957     1.327622   -113.55195    -14106.71    4.3787025    4.3787025    4.3787025    -14106.71   -31990.683   -40320.139    29990.692   -127.02238    7464.7316    793.62813    83.953018 
   33900    1359.2041   -114.78341    1.2298365   -113.55357    11511.694    4.3690662    4.3690662    4.3690662    11511.694    11448.335   -12448.676    35535.424   -13331.674   -4685.7022     23545.24    83.399968 
   34000    1530.1621   -114.94034    1.3845228   -113.55582    2150.7175    4.3774016    4.3774016    4.3774016    2150.7175   -4138.6769    16677.953   -6087.1235    10273.239   -20176.208    2271.2657    83.878213 
   34100    1616.6405   -115.01557    1.4627703    -113.5528    -10409.01    4.3782967    4.3782967    4.3782967    -10409.01   -51079.467   -34956.402    54808.839   -9165.2639    5381.4242   -10439.047    83.929681 
   34200    1473.7873   -114.88615    1.3335138   -113.55264   -283.59217    4.3623325    4.3623325    4.3623325   -283.59217   -1156.7152   -25829.336    26135.274   -20241.116    4304.8246    11218.122    83.014946 
   34300    1148.4689   -114.59866    1.0391588    -113.5595    3273.3028    4.3700095    4.3700095    4.3700095    3273.3028    20957.655    26672.675   -37810.422    5197.3744   -6036.4275    2692.6809    83.453995 
   34400    1472.8353   -114.88735    1.3326523    -113.5547    -16043.02    4.3772235    4.3772235    4.3772235    -16043.02   -32954.685   -54584.657    39410.283   -8514.1471   -4140.4829   -15398.883    83.867979 
   34500    1611.3117   -115.01293    1.4579487   -113.55498    6597.1741    4.3615556    4.3615556    4.3615556    6597.1741   -12726.778   -18855.808    51374.108   -9425.5937    11037.593    3198.5914    82.970604 
   34600    1298.0638   -114.73794    1.1745154   -113.56343    9039.2668    4.3656915    4.3656915    4.3656915    9039.2668    30075.192    9969.6726   -12927.064    4020.4071    -10603.53    2670.7581    83.206861 
   34700    1053.4981    -114.5196   0.95322725   -113.56637   -19596.075    4.3803975    4.3803975    4.3803975   -19596.075   -6966.1155   -48742.412   -3079.6972     -6396.31   -9709.9923   -19300.633    84.050553 
   34800    1300.0162   -114.73187     1.176282   -113.55559   -13668.192    4.3776173    4.3776173    4.3776173   -13668.192   -18887.967   -51510.112    29393.502   -14727.566    16313.542    1579.1996    83.890617 
   34900    1675.2625   -115.06327    1.5158127   -113.54746    2745.5893     4.372254     4.372254     4.372254    2745.5893    30788.132    6371.4891   -28922.853    4987.4857   -11013.329    658.32582    83.582652 
   35000    1312.9874   -114.74376    1.1880186   -113.55574   -3990.4716    4.3744293    4.3744293    4.3744293   -3990.4716    13918.596   -25195.073   -694.93816   -11628.575   -13663.888     -13383.8    83.707467 
[...]
   91200    1640.8881   -115.02998      1.48471   -113.54527    5412.2437    4.3684712    4.3684712    4.3684712    5412.2437   -2994.9975    -33947.64    53179.369   -24435.347   -7787.7393     1892.701    83.365896 
   91300    1194.5685   -114.62259    1.0808707   -113.54172   -13443.582    4.3664349    4.3664349    4.3664349   -13443.582   -30469.921   -40601.198    30740.373    -15144.86    16306.701    3200.5327    83.249372 
   91400    1343.0993    -114.7545    1.2152644   -113.53924   -8108.1741    4.3550172    4.3550172    4.3550172   -8108.1741   -10551.826   -9758.3607    -4014.336    15359.506    6958.8915   -8946.4732    82.598019 
   91500    1321.8841   -114.74277    1.1960685    -113.5467    3027.8596    4.3494302    4.3494302    4.3494302    3027.8596    2626.8176   -40289.094    46745.855   -39875.196   -2993.7844   -2764.1414    82.280532 
   91600    989.77768   -114.45384   0.89557164   -113.55826   -16340.429    4.3651811    4.3651811    4.3651811   -16340.429   -19069.894   -38828.351    8876.9566   -22960.233    11961.654    14591.362    83.177681 
   91700    1272.3224   -114.69981     1.151224   -113.54858   -18384.041     4.366572     4.366572     4.366572   -18384.041   -35143.663    13067.742   -33076.201    19601.782    28207.625   -2701.7314    83.257213 
   91800    989.64482   -114.44259   0.89545143   -113.54714     3792.321    4.3504825    4.3504825    4.3504825     3792.321    4747.1709   -20326.703    26956.495    -45193.94   -594.57098   -5232.3105     82.34027 
   91900    1095.2358   -114.54394   0.99099241   -113.55294   -6617.4411    4.3571984    4.3571984    4.3571984   -6617.4411    948.17964   -25998.824    5198.3211   -20874.628     7117.474    18901.808    82.722189 
   92000    1450.4642   -114.86067    1.3124105   -113.54826   -1727.2671    4.3616126    4.3616126    4.3616126   -1727.2671   -1944.2852    15188.263    -18425.78     18510.17    25675.574   -2182.8456    82.973853 
   92100    1079.7777    -114.5372   0.97700555   -113.56019   -11704.048    4.3602295    4.3602295    4.3602295   -11704.048    -48979.31   -2329.5152    16196.683   -52482.077    3206.3698   -1369.0021    82.894947 
   92200    1728.4719   -115.11731    1.5639577   -113.55335   -7434.4065    4.3613947    4.3613947    4.3613947   -7434.4065   -15006.365    -11910.63    4613.7755   -22941.057   -9373.1807    10077.123    82.961418 
   92300    1798.4274   -115.17903    1.6272549   -113.55178    17981.452    4.3526358    4.3526358    4.3526358    17981.452    15327.733    39724.606   -1107.9828    14832.211    2381.4651    829.50669    82.462592 
   92400    997.57244   -114.47303   0.90262451    -113.5704    7742.3301    4.3588824    4.3588824    4.3588824    7742.3301   -3633.9577    -6580.888    33441.836   -46612.459    10546.933   -1123.2932    82.818134 
   92500    1715.3055   -115.10743    1.5520445   -113.55538    2342.3527    4.3665616    4.3665616    4.3665616    2342.3527    17894.345   -14288.058    3420.7714   -8330.7651   -19497.985   -7572.6265    83.256622 
   92600     1721.408   -115.10172    1.5575661   -113.54415    19842.761    4.3586236    4.3586236    4.3586236    19842.761    26001.981    29386.893    4139.4106    7149.3288   -18249.141    3887.0857    82.803389 
   92700    1013.2589   -114.47039   0.91681798   -113.55357   -10538.604     4.364647     4.364647     4.364647   -10538.604   -36040.223   -19961.682    24386.093    -45032.43    12953.871   -3061.9144    83.147152 
   92800    1460.4472   -114.86312    1.3214433   -113.54168   -4349.2057    4.3618336    4.3618336    4.3618336   -4349.2057    -20784.98     321.1174     7416.246   -1261.2608   -13578.898   -3564.4032    82.986467 
   92900    1268.2668   -114.69349    1.1475545   -113.54593    4631.1557    4.3552126    4.3552126    4.3552126    4631.1557   -48694.369      22601.4    39986.436   -8478.9431   -33703.653     3654.671    82.609138 
   93000    1179.4954   -114.62104    1.0672323    -113.5538    -5415.028    4.3587198    4.3587198    4.3587198    -5415.028    -65302.26   -9481.2813    58538.458   -36615.965    8959.7938    1206.9523    82.808868 
   93100    1251.3743   -114.68263    1.1322698   -113.55036    1906.5364    4.3606814    4.3606814    4.3606814    1906.5364   -28120.029   -264.81877    34104.457    5317.6785    5121.1153   -16500.874    82.920722 
   93200    1271.5073   -114.70496    1.1504865   -113.55448   -10643.092    4.3607428    4.3607428    4.3607428   -10643.092   -46747.262    4439.8598    10378.126   -12131.491   -32810.284   -2317.1769    82.924223 
   93300     1551.175   -114.95479    1.4035357   -113.55125    600.71573    4.3544495    4.3544495    4.3544495    600.71573   -16388.219   -17894.212    36084.577    -37946.52    3697.3239    3793.7952    82.565722 
   93400    1672.7787   -115.06601    1.5135653   -113.55245   -3347.9728    4.3551587    4.3551587    4.3551587   -3347.9728     4548.722   -10250.234   -4342.4059    4396.9954    14833.064   -16204.319    82.606069 
   93500    1564.5264   -114.97202    1.4156164    -113.5564   -14979.954    4.3612432    4.3612432    4.3612432   -14979.954   -9101.5218   -3194.0348   -32644.307    434.55114   -21364.122   -5958.0457    82.952774 
   93600    1633.3311   -115.02804    1.4778723   -113.55017    2334.2477    4.3627394    4.3627394    4.3627394    2334.2477    9702.7926   -25596.947    22896.898   -21878.368   -9521.3139     7778.255    83.038182 
   93700    1545.8821   -114.94829    1.3987466   -113.54954   -10530.011    4.3617073    4.3617073    4.3617073   -10530.011    11420.431   -16763.916   -26246.548   -910.53158    16080.968   -3341.0947    82.979262 
   93800    1300.3089   -114.72823    1.1765468   -113.55168    13586.236    4.3506311    4.3506311    4.3506311    13586.236    10841.327    15784.005    14133.377   -130.21041   -11608.063   -8805.8567    82.348704 
   93900    1383.4033   -114.80492    1.2517324   -113.55319    2581.4419    4.3580926    4.3580926    4.3580926    2581.4419   -5657.7866   -11416.107     24818.22   -13034.023   -6274.1341     14023.07    82.773128 
   94000    987.13279   -114.44663   0.89317849   -113.55346   -17460.899    4.3670572    4.3670572    4.3670572   -17460.899   -20608.369   -4899.6166   -26874.712   -2943.1792     27642.59    25893.076    83.284971 
   94100    1342.1221   -114.76221    1.2143803   -113.54783    -7476.061    4.3589325    4.3589325    4.3589325    -7476.061   -27566.593    16846.002   -11707.593    9452.3637    2275.1399   -13013.791     82.82099 
   94200    1478.4247   -114.88287    1.3377097   -113.54516   -1997.7338    4.3513685    4.3513685    4.3513685   -1997.7338   -1834.5839   -15189.431    11030.814   -8393.0862   -10335.318    16865.342    82.390584 
   94300    1082.3758    -114.5405   0.97935638   -113.56115   -10588.813    4.3529051    4.3529051    4.3529051   -10588.813   -6195.7386   -6.5373226   -25564.164   -7012.8558    34263.538    35052.973    82.477898 
   94400    1771.8311    -115.1627    1.6031901   -113.55951   -6294.7822    4.3644315    4.3644315    4.3644315   -6294.7822   -22864.608     14644.17   -10663.909   -120.97988    27275.323   -15363.426    83.134836 
   94500    1913.4935   -115.28308    1.7313691   -113.55171   -5543.3214    4.3653266    4.3653266    4.3653266   -5543.3214   -11193.896   -19552.759    14116.691   -818.70395   -19121.593    11355.721    83.185998 
   94600    1163.9912   -114.61322    1.0532037   -113.56002    9900.6892    4.3512052    4.3512052    4.3512052    9900.6892     37174.82    -4254.418   -3218.3342   -6917.7922    17671.128    35510.789    82.381313 
   94700    1800.7893   -115.18274     1.629392   -113.55335    12758.417    4.3565428    4.3565428    4.3565428    12758.417    10782.033    26341.139    1152.0786     -8252.96    29247.553   -15484.839    82.684853 
   94800    1769.5738   -115.15036    1.6011476   -113.54921    9326.9675    4.3617309    4.3617309    4.3617309    9326.9675    18372.277   -11496.811    21105.437    7879.1126   -13563.337    11616.761    82.980607 
   94900    806.47672   -114.28743   0.72971709   -113.55771   -4025.1371     4.364611     4.364611     4.364611   -4025.1371    29149.169   -30182.298   -11042.283    2359.1185    14965.515     40734.75    83.145093 
   95000     1382.395   -114.79826    1.2508201   -113.54744   -13695.679    4.3612553    4.3612553    4.3612553   -13695.679   -21183.857    13270.329   -33173.509   -2708.8949    28892.491   -11176.699    82.953465 
   95100     1447.725     -114.854     1.309932   -113.54407    9131.0067    4.3475333    4.3475333    4.3475333    9131.0067    39345.212    8213.8791   -20166.071   -1428.1831   -7837.8841    9286.7581    82.172927 
   95200    887.25543   -114.36524   0.80280736   -113.56243   -10800.321    4.3553398    4.3553398    4.3553398   -10800.321    18200.527   -24890.254   -25711.236    1037.7234    13534.751     41228.82    82.616372 
   95300    1206.1458   -114.64939     1.091346   -113.55805   -6696.8259    4.3624509    4.3624509    4.3624509   -6696.8259   -27174.109    15843.341   -8759.7098    3446.3753    36878.656   -6881.5197    83.021708 
   95400    1278.9469   -114.71011     1.157218   -113.55289   -3522.7052    4.3588928    4.3588928    4.3588928   -3522.7052    16356.363   -8761.9015   -18162.577    3268.2612   -6206.5334     614.5279     82.81873 
   95500    947.68784   -114.41696   0.85748787   -113.55947   -10207.417    4.3597825    4.3597825    4.3597825   -10207.417    17018.127   -41635.787    -6004.591    7170.4571    1069.9793    39414.383    82.869453 
   95600     1792.067    -115.1691    1.6214999    -113.5476    1316.7379    4.3593872    4.3593872    4.3593872    1316.7379   -18077.485     13896.59    8131.1095   -4860.5291    27217.316    717.59545    82.846911 
   95700    1582.3757   -114.98708    1.4317668   -113.55531    2353.4437    4.3514372    4.3514372    4.3514372    2353.4437    18259.299    2578.4188   -13777.387   -6309.3841    5124.4502    4698.2772     82.39449 
   95800    1111.0643   -114.57856    1.0053144   -113.57324   -8782.1422    4.3552809    4.3552809    4.3552809   -8782.1422    33929.621   -19365.271   -40910.777    15679.835   -11334.055    32041.386    82.613025 
   95900    2319.9705   -115.65294    2.0991581   -113.55378   -1517.8078    4.3646696    4.3646696    4.3646696   -1517.8078   -11092.232    24687.003   -18148.195   -517.57866     -72.1869   -7516.8756    83.148444 
   96000    1815.4654   -115.19554    1.6426713   -113.55287   -3919.1724    4.3671967    4.3671967    4.3671967   -3919.1724    574.89954    20801.294    -33133.71   -11149.465    4732.7898    11585.007    83.292952 
   96100    1141.8524   -114.58804    1.0331721   -113.55487   -17198.022    4.3638306    4.3638306    4.3638306   -17198.022    31590.066   -11129.263    -72054.87    7164.0294   -15336.453    24597.568    83.100505 
   96200    1935.6062   -115.29304    1.7513771   -113.54166    13959.395    4.3497197    4.3497197    4.3497197    13959.395    11933.894    31712.238   -1767.9467   -10786.972    716.90325   -12293.684    82.296965 
   96300    1608.3909    -115.0108    1.4553059   -113.55549   -507.66282    4.3510827    4.3510827    4.3510827   -507.66282    10096.946   -701.35457    -10918.58   -18058.643    13618.238    12030.612    82.374354 
   96400    1157.7395   -114.61225     1.047547    -113.5647   -18596.796    4.3638788    4.3638788    4.3638788   -18596.796    34684.587   -27838.321   -62636.655    7198.7417   -2346.3289    34625.837    83.103256 
   96500     1571.032   -114.97136    1.4215027   -113.54986    5473.0325    4.3625984    4.3625984    4.3625984    5473.0325    21518.316    10644.309   -15743.528   -6443.2647   -1468.3483   -9497.0919    83.030128 
   96600    802.52179   -114.28029   0.72613858   -113.55415   -897.05987    4.3598552    4.3598552    4.3598552   -897.05987   -854.75716     -13081.6    11245.178    -17539.11    13536.544     13606.02    82.873601 
   96700    938.80253   -114.39878   0.84944825   -113.54934   -3159.2893    4.3599068    4.3599068    4.3599068   -3159.2893    22426.632   -9378.2743   -22526.226    1053.1822    7284.2433    33556.563    82.876543 
   96800    1670.0601   -115.04564    1.5111055   -113.53454   -8065.6848    4.3685587    4.3685587    4.3685587   -8065.6848    2495.3917   -9262.4116   -17430.034   -2567.8893   -4689.9756   -10532.413    83.370906 
   96900    649.79405    -114.1388   0.58794731   -113.55085   -23387.891     4.366368     4.366368     4.366368   -23387.891   -30747.549   -40121.887    705.76067   -28965.653    26557.725    17523.247    83.245547 
   97000    873.60025   -114.35605   0.79045186    -113.5656    573.86647    4.3416644    4.3416644    4.3416644    573.86647    20166.577   -28145.727    9700.7484    7088.7576    6497.4551    36691.691    81.840592 
   97100    1982.5477   -115.35757    1.7938508   -113.56372    17285.022     4.344665     4.344665     4.344665    17285.022    26591.563    1448.8978    23814.604    6071.8761   -10792.795   -1304.7669    82.010392 
   97200    1344.4965   -114.79096    1.2165287   -113.57444    7807.7285    4.3657136    4.3657136    4.3657136    7807.7285    -7417.245    -1441.992    32282.422   -26287.137    12204.752    4004.6012    83.208121 
   97300    966.56662   -114.43898   0.87456979   -113.56441    4516.4494    4.3698554    4.3698554    4.3698554    4516.4494    5287.3096   -10322.681     18584.72   -4273.4414    20670.731    37389.442    83.445172 
   97400    1859.5921     -115.221     1.682598    -113.5384    1750.4062    4.3610626    4.3610626    4.3610626    1750.4062   -12353.808    545.21201    17059.814    8708.2051   -8509.1873   -3889.1065     82.94247 
   97500     1195.922    -114.6268    1.0820954    -113.5447   -3977.4909    4.3513463    4.3513463    4.3513463   -3977.4909   -38505.367    8804.2313    17768.663   -15257.292    2298.4556    1436.8821    82.389326 
   97600    870.94512   -114.34734   0.78804945   -113.55929    1522.0585    4.3506323    4.3506323    4.3506323    1522.0585   -15547.385    11791.466     8322.094   -20874.989    33324.848    36299.788    82.348774 
   97700     1595.431   -115.00241    1.4435795   -113.55883    -4405.656    4.3573311    4.3573311    4.3573311    -4405.656   -14820.088    3272.9917   -1669.8717    10791.328   -11938.982   -12786.412    82.729743 
   97800    1199.9009   -114.64637    1.0856955   -113.56067   -13439.478    4.3628318    4.3628318    4.3628318   -13439.478    -53562.38    19219.458   -5975.5125   -4211.5459   -1751.4776   -11831.286    83.043455 
   97900    856.68094   -114.33646   0.77514292   -113.56132   -16636.399     4.361492     4.361492     4.361492   -16636.399   -54663.772    13564.395   -8809.8206   -20235.177    35386.137    27689.308    82.966975 
   98000     1709.647   -115.09428    1.5469246   -113.54736    9063.8045    4.3529386    4.3529386    4.3529386    9063.8045    7675.3003     11259.64     8256.473    4093.5689   -14595.575    4960.2252    82.479803 
   98100    1667.0662   -115.05888    1.5083966   -113.55048    3753.2757    4.3527162    4.3527162    4.3527162    3753.2757   -12925.676    30519.764   -6334.2611   -2530.7345    6701.5928   -12433.258    82.467165 
   98200     991.8367   -114.46527   0.89743469   -113.56783   -18039.036    4.3595974    4.3595974    4.3595974   -18039.036   -41857.125    122.91926   -12382.903   -18706.324    45044.466    16767.554    82.858898 
   98300    1743.4112   -115.13954    1.5774751   -113.56206   -472.95992    4.3593879    4.3593879    4.3593879   -472.95992   -8307.1023    -13658.85    20547.072    2371.0851   -10198.969    13585.732    82.846951 
   98400    2264.9594   -115.60239    2.0493829   -113.55301    6243.4038    4.3525987    4.3525987    4.3525987    6243.4038    4934.8333    21038.459   -7243.0812    9430.6818    6281.3154   -17454.606    82.460486 
   98500     1263.852   -114.70865    1.1435598   -113.56509    694.84757    4.3522059    4.3522059    4.3522059    694.84757   -7442.9198    17493.706   -7966.2431   -22145.295    41952.117    12652.862    82.438164 
   98600    1600.1563   -115.00969     1.447855   -113.56183   -9945.9452    4.3617634    4.3617634    4.3617634   -9945.9452    -7675.499   -32320.222    10157.886    5719.9139    -6569.233    12544.723     82.98246 
   98700    1864.2025   -115.23795    1.6867696   -113.55118   -1227.4091    4.3605667    4.3605667    4.3605667   -1227.4091   -13817.353    19396.701   -9261.5753    11707.644    16042.926   -7626.9045    82.914179 
   98800     1368.721    -114.7954    1.2384475   -113.55696    751.75952    4.3455717    4.3455717    4.3455717    751.75952   -26522.312    30974.451   -2196.8602   -9662.0667    38438.578    1833.6845    82.061748 
   98900    1233.2295   -114.67981    1.1158519   -113.56395   -2132.3695    4.3503386    4.3503386    4.3503386   -2132.3695   -23043.269   -7894.4449    24540.605   -9032.9501   -4329.2455    17828.306    82.332099 
   99000    1415.9947   -114.83861    1.2812217   -113.55739   -13251.968    4.3618137    4.3618137    4.3618137   -13251.968   -38747.591    9808.1366   -10816.449    10435.997    718.99215      5510.33    82.985333 
   99100    841.42852    -114.3237   0.76134221   -113.56236    1957.6536    4.3550602    4.3550602    4.3550602    1957.6536   -26681.566     48486.35   -15931.823   -1321.0821    30249.512   -18580.066    82.600465 
   99200    1179.4574   -114.62633    1.0671979   -113.55913   -7478.1283    4.3550319    4.3550319    4.3550319   -7478.1283   -26486.382    -6846.668    10898.665    -33561.33    1031.6976     694.6792    82.598853 
   99300     1534.619   -114.94174    1.3885555   -113.55319    3956.8014    4.3545203    4.3545203    4.3545203    3956.8014   -27732.978    31093.992     8509.391    5775.5051    6686.8636    6759.0415    82.569747 
   99400    1013.7817   -114.48124   0.91729098   -113.56395    5955.3451    4.3534629    4.3534629    4.3534629    5955.3451     3637.547    33660.582   -19432.094   -1674.3636    22309.108   -18360.378     82.50961 
   99500     1167.048   -114.62145    1.0559695   -113.56548   -18312.044    4.3602051    4.3602051    4.3602051   -18312.044   -22094.291   -25806.692   -7035.1494    -35663.01     487.9758   -17480.707    82.893554 
   99600    1857.3262   -115.23394    1.6805478    -113.5534    1264.2136    4.3525861    4.3525861    4.3525861    1264.2136   -2626.7525    261.14563    6158.2477   -11271.389   -5016.5484    2887.5366    82.459769 
   99700    1535.1291   -114.94765     1.389017   -113.55864    3822.6114    4.3532668    4.3532668    4.3532668    3822.6114    21704.007    16081.252   -26317.425    9719.2966    23605.209   -7396.8632    82.498462 
   99800    1075.3413   -114.53924   0.97299137   -113.56625   -13122.131    4.3608888    4.3608888    4.3608888   -13122.131    4474.5138   -22131.709   -21709.197   -28875.249    7835.0322   -17650.385    82.932555 
   99900    1605.7288   -115.00945    1.4528971   -113.55655    7061.7869    4.3523086    4.3523086    4.3523086    7061.7869    28327.912   -516.47265   -6626.0784   -29473.645   -8263.2916    9764.1833    82.443997 
  100000    1562.8412   -114.97146    1.4140916   -113.55737    1980.5026    4.3533457    4.3533457    4.3533457    1980.5026    36576.979     7190.468   -37825.939    16539.934    21144.463    8209.6285     82.50295 
Loop time of 21.668 on 1 procs for 100000 steps with 8 atoms

Pair  time (%) = 6.68108 (30.8338)
Kspce time (%) = 5.28274 (24.3803)
Neigh time (%) = 0.0923064 (0.426003)
Comm  time (%) = 0.970972 (4.48113)
Outpt time (%) = 0.0234833 (0.108378)
Other time (%) = 8.61744 (39.7703)

Nlocal:    8 ave 8 max 8 min
Histogram: 1 0 0 0 0 0 0 0 0 0
Nghost:    2075 ave 2075 max 2075 min
Histogram: 1 0 0 0 0 0 0 0 0 0
Neighs:    2122 ave 2122 max 2122 min
Histogram: 1 0 0 0 0 0 0 0 0 0

Total # of neighbors = 2122
Ave neighs/atom = 265.25
Neighbor list builds = 1126
Dangerous builds = 0
seeds:3245621
