# ['Ni']

20 atoms
1 atom types

    0.0000     3.1963 xlo xhi
    0.0000     3.1963 ylo yhi
    0.0000    31.9631 zlo zhi

    0.0000    -0.0000     0.0000 xy xz yz

Atoms

1 1     0.0000     0.0000     0.0000
2 1     1.5982     1.5982     0.0000
3 1     1.5982     0.0000     1.5982
4 1     0.0000     1.5982     1.5982
5 1     0.0000     0.0000     3.1963
6 1     1.5982     1.5982     3.1963
7 1     1.5982     0.0000     4.7945
8 1     0.0000     1.5982     4.7945
9 1     0.0000     0.0000     6.3926
10 1     1.5982     1.5982     6.3926
11 1     1.5982     0.0000     7.9908
12 1     0.0000     1.5982     7.9908
13 1     0.0000     0.0000     9.5889
14 1     1.5982     1.5982     9.5889
15 1     1.5982     0.0000    11.1871
16 1     0.0000     1.5982    11.1871
17 1     0.0000     0.0000    12.7852
18 1     1.5982     1.5982    12.7852
19 1     1.5982     0.0000    14.3834
20 1     0.0000     1.5982    14.3834
