LAMMPS (11 Aug 2017)
# ---- initialize simulations
clear
units metal
dimension 3
boundary p p p
atom_style atomic
atom_modify map array
# ---- create atoms
read_data /home/eragasa/repos/pypospack/examples/Ni__eam__born_exp_rose/preconditioning_3.5NN/rank_87/Ni_fcc.lmps_min_all/lammps.structure
  triclinic box = (0 0 0) to (3.5167 3.5167 3.5167) with tilt (0 -0 0)
  1 by 1 by 1 MPI processor grid
  reading atoms ...
  4 atoms
# ---- define interatomic potential
include potential.mod
mass 1 58.6934

group Ni type 1
4 atoms in group Ni

pair_style eam/alloy
pair_coeff * * /home/eragasa/repos/pypospack/examples/Ni__eam__born_exp_rose/preconditioning_3.5NN/rank_87/Ni_fcc.lmps_min_all/Ni.eam.alloy Ni

neighbor 1.0 bin
neigh_modify every 1 delay 0 check yes
# ---- define settings
compute eng all pe/atom
compute eatoms all reduce sum c_eng
# ---- run minimization
reset_timestep 0
fix 1 all box/relax aniso 0.0 vmax 0.001
thermo 10
thermo_style custom step pe xhi xlo yhi ylo zhi xy xz yz press pxx pyy pzz pxy pxz pyz c_eatoms
min_style cg
minimize 1e-25 1e-25 5000 10000
Neighbor list info ...
  update every 1 steps, delay 0 steps, check yes
  max neighbors/atom: 2000, page size: 100000
  master list distance cutoff = 5.64464
  ghost atom cutoff = 5.64464
  binsize = 2.82232, bins = 2 2 2
  1 neighbor lists, perpetual/occasional/extra = 1 0 0
  (1) pair eam/alloy, perpetual
      attributes: half, newton on
      pair build: half/bin/newton/tri
      stencil: half/bin/3d/newton/tri
      bin: standard
Per MPI rank memory allocation (min/avg/max) = 4.211 | 4.211 | 4.211 Mbytes
Step PotEng Xhi Xlo Yhi Ylo Zhi Xy Xz Yz Press Pxx Pyy Pzz Pxy Pxz Pyz c_eatoms 
       0   -17.806106       3.5167            0       3.5167            0       3.5167            0           -0            0    7423.1533    7423.1533    7423.1533    7423.1533 -1.1502895e-12 -1.1343133e-12 -1.182242e-12   -17.806106 
      10   -17.879275    3.5191086 -0.0024085828    3.5191086 -0.0024085828    3.5191086            0           -0            0     82699.44     82699.44     82699.44     82699.44 -1.7419111e-10 -2.8136605e-10 -3.7485774e-11   -17.879275 
      20   -17.926105    3.5366921 -0.019992083    3.5366921 -0.019992083    3.5366921            0           -0            0    27765.413    27765.413    27765.413    27765.413 -7.2159585e-10 -1.2504418e-09 -2.1639382e-10   -17.926105 
      30    -17.97842    3.5542756 -0.037575583    3.5542756 -0.037575583    3.5542756            0           -0            0    7210.9029    7210.9029    7210.9029    7210.9029 -8.3961972e-10 -1.4831292e-09 -2.0590146e-10    -17.97842 
      40   -18.052894    3.5718591 -0.055159083    3.5718591 -0.055159083    3.5718591            0           -0            0    9148.5772    9148.5772    9148.5772    9148.5772 -6.094343e-10 -9.6841076e-10 -1.3908499e-10   -18.052894 
      50   -18.120967    3.5894426 -0.072742583    3.5894426 -0.072742583    3.5894426            0           -0            0    10361.913    10361.913    10361.913    10361.913 -2.2794818e-10 -3.3864728e-10 -6.250078e-11   -18.120967 
      60   -18.183243    3.6070261 -0.090326083    3.6070261 -0.090326083    3.6070261            0           -0            0    11058.219    11058.219    11058.219    11058.219 1.0623687e-10 2.1409418e-10 2.8839503e-11   -18.183243 
      70   -18.240485    3.6246096  -0.10790958    3.6246096  -0.10790958    3.6246096            0           -0            0    11351.703    11351.703    11351.703    11351.703 5.0685257e-10 7.5874974e-10 1.5837253e-10   -18.240485 
      80   -18.293007    3.6421931  -0.12549308    3.6421931  -0.12549308    3.6421931            0           -0            0    11308.823    11308.823    11308.823    11308.823 7.2494695e-10 1.057298e-09 2.4375041e-10   -18.293007 
      90   -18.341318    3.6597766  -0.14307658    3.6597766  -0.14307658    3.6597766            0           -0            0    11116.558    11116.558    11116.558    11116.558 1.0307585e-09 1.4049366e-09 2.9177704e-10   -18.341318 
     100   -18.385762    3.6773601  -0.16066008    3.6773601  -0.16066008    3.6773601            0           -0            0    10753.069    10753.069    10753.069    10753.069 1.2036528e-09 1.5119893e-09 4.3128761e-10   -18.385762 
     110   -18.426762    3.6949436  -0.17824358    3.6949436  -0.17824358    3.6949436            0           -0            0    10286.623    10286.623    10286.623    10286.623 1.2643438e-09 1.5077223e-09 4.2222922e-10   -18.426762 
     120   -18.464555    3.7125271  -0.19582708    3.7125271  -0.19582708    3.7125271            0           -0            0    9770.0188    9770.0188    9770.0188    9770.0188 1.2843373e-09 1.5584484e-09 4.0611557e-10   -18.464555 
     130   -18.499361    3.7301106  -0.21341058    3.7301106  -0.21341058    3.7301106            0           -0            0    9216.2721    9216.2721    9216.2721    9216.2721 1.186382e-09 1.5078807e-09 3.445212e-10   -18.499361 
     140   -18.531459    3.7476941  -0.23099408    3.7476941  -0.23099408    3.7476941            0           -0            0    8639.1296    8639.1296    8639.1296    8639.1296 1.1765588e-09 1.2060367e-09 3.1651294e-10   -18.531459 
     150   -18.561038    3.7652776  -0.24857758    3.7652776  -0.24857758    3.7652776            0           -0            0     8071.666     8071.666     8071.666     8071.666 1.0428406e-09 1.2245555e-09 3.6901703e-10   -18.561038 
     160   -18.588278    3.7828611  -0.26616108    3.7828611  -0.26616108    3.7828611            0           -0            0    7512.5421    7512.5421    7512.5421    7512.5421 9.5167703e-10 1.1606022e-09 3.6293939e-10   -18.588278 
     170   -18.613356    3.8004446  -0.28374458    3.8004446  -0.28374458    3.8004446            0           -0            0     6978.524     6978.524     6978.524     6978.524 7.644451e-10 1.1454846e-09 4.5616623e-10   -18.613356 
     180   -18.636451    3.8180281  -0.30132808    3.8180281  -0.30132808    3.8180281            0           -0            0     6465.001     6465.001     6465.001     6465.001 6.4777918e-10 8.2701982e-10 2.3244028e-10   -18.636451 
     190   -18.657718    3.8356116  -0.31891158    3.8356116  -0.31891158    3.8356116            0           -0            0    5975.6999    5975.6999    5975.6999    5975.6999 6.2712711e-10 6.899561e-10 1.9963999e-10   -18.657718 
     200   -18.677298    3.8531951  -0.33649508    3.8531951  -0.33649508    3.8531951            0           -0            0    5512.0877    5512.0877    5512.0877    5512.0877 3.4375209e-10 6.0746164e-10 2.0540661e-10   -18.677298 
     210   -18.695318    3.8707786  -0.35407858    3.8707786  -0.35407858    3.8707786            0           -0            0    5076.5608    5076.5608    5076.5608    5076.5608 2.6613492e-10 5.4177861e-10 1.3166694e-10   -18.695318 
     220   -18.711892    3.8883621  -0.37166208    3.8883621  -0.37166208    3.8883621            0           -0            0    4668.9584    4668.9584    4668.9584    4668.9584 9.4801357e-11 4.8489977e-10 9.4109311e-11   -18.711892 
     230   -18.727129    3.9059456  -0.38924558    3.9059456  -0.38924558    3.9059456            0           -0            0    4288.2056    4288.2056    4288.2056    4288.2056 1.0201457e-10 2.8510414e-10 3.5705975e-11   -18.727129 
     240   -18.741128    3.9235291  -0.40682908    3.9235291  -0.40682908    3.9235291            0           -0            0    3933.4096    3933.4096    3933.4096    3933.4096 3.1711339e-11 1.8155726e-10 -3.083855e-11   -18.741128 
     250   -18.753984    3.9411126  -0.42441258    3.9411126  -0.42441258    3.9411126            0           -0            0    3603.7279    3603.7279    3603.7279    3603.7279 -6.0682928e-11 -6.3472372e-11 -1.1413335e-10   -18.753984 
     260   -18.765783    3.9586961  -0.44199608    3.9586961  -0.44199608    3.9586961            0           -0            0    3297.9382    3297.9382    3297.9382    3297.9382 5.9190809e-12 5.4625126e-12 -1.2448822e-10   -18.765783 
     270   -18.776606    3.9762796  -0.45957958    3.9762796  -0.45957958    3.9762796            0           -0            0    3014.7427    3014.7427    3014.7427    3014.7427 1.5378343e-10 5.152119e-11 -3.8370231e-12   -18.776606 
     280   -18.786525    3.9938631  -0.47716308    3.9938631  -0.47716308    3.9938631            0           -0            0    2752.9517    2752.9517    2752.9517    2752.9517 2.5499568e-12 -5.4287648e-11 -3.2069206e-10   -18.786525 
     290    -18.79561    4.0114466  -0.49474658    4.0114466  -0.49474658    4.0114466            0           -0            0    2511.1369    2511.1369    2511.1369    2511.1369 -5.4112429e-11 2.1641934e-11 -1.7001068e-10    -18.79561 
     300   -18.803925    4.0290301  -0.51233008    4.0290301  -0.51233008    4.0290301            0           -0            0    2288.0084    2288.0084    2288.0084    2288.0084 -8.2376291e-11 -3.5965441e-11 -1.44752e-10   -18.803925 
     310   -18.811528    4.0466136  -0.52991358    4.0466136  -0.52991358    4.0466136            0           -0            0    2082.3102    2082.3102    2082.3102    2082.3102 -1.3237953e-10 -6.7632296e-12 -2.604532e-11   -18.811528 
     320   -18.818473    4.0641971  -0.54749708    4.0641971  -0.54749708    4.0641971            0           -0            0    1892.8138    1892.8138    1892.8138    1892.8138 -7.4438656e-11 -3.1907848e-11 -1.0812644e-10   -18.818473 
     330   -18.824811    4.0817806  -0.56508058    4.0817806  -0.56508058    4.0817806            0           -0            0    1720.3948    1720.3948    1720.3948    1720.3948 -1.287615e-10 -8.3837452e-11 -1.336365e-10   -18.824811 
     340   -18.830604    4.0993641  -0.58266408    4.0993641  -0.58266408    4.0993641            0           -0            0    1567.2418    1567.2418    1567.2418    1567.2418 -1.8455944e-10 -1.2770292e-10 2.4371433e-11   -18.830604 
     350   -18.835906    4.1169476  -0.60024758    4.1169476  -0.60024758    4.1169476            0           -0            0    1426.7339    1426.7338    1426.7339    1426.7339 -9.6149101e-11 -1.218032e-10 5.2245701e-11   -18.835906 
     360   -18.840755    4.1345311  -0.61783108    4.1345311  -0.61783108    4.1345311            0           -0            0     1297.525    1297.5249     1297.525     1297.525 -2.5919044e-11 -5.5835594e-13 -1.466534e-11   -18.840755 
     370   -18.845185    4.1521146  -0.63541458    4.1521146  -0.63541458    4.1521146            0           -0            0    1178.7588    1178.7587    1178.7588    1178.7588 -4.7090088e-11 -5.6038899e-13 -1.2409173e-10   -18.845185 
     380    -18.84923    4.1696981  -0.65299808    4.1696981  -0.65299808    4.1696981            0           -0            0    1069.6366    1069.6365    1069.6366    1069.6367 -4.5812304e-11 -4.4048014e-11 1.971053e-11    -18.84923 
     390   -18.852918    4.1872816  -0.67058157    4.1872816  -0.67058158    4.1872816            0           -0            0    969.41395    969.41377    969.41397    969.41413 -1.8278918e-10 1.8998937e-10 3.8877288e-11   -18.852918 
     400   -18.856283    4.2048651  -0.68816506    4.2048651  -0.68816507    4.2048651            0           -0            0    884.61374    884.61338    884.61377    884.61407 -7.4757598e-11 2.0213733e-11 -4.6121476e-11   -18.856283 
     410   -18.859394    4.2224485  -0.70574854    4.2224486  -0.70574857    4.2224486            0           -0            0    1015.9602    1015.9594    1015.9602    1015.9608 -1.0981097e-10 -8.9539244e-11 -6.8083264e-11   -18.859394 
     420    -18.86225     4.240032    -0.723332     4.240032  -0.72333205    4.2400321            0           -0            0    1351.8202    1351.8187    1351.8203    1351.8215 1.3183788e-12 -2.4549122e-12 -4.4233881e-11    -18.86225 
     430   -18.864764    4.2576154   -0.7409154    4.2576155   -0.7409155    4.2576156            0           -0            0    478.88025    478.87695    478.88052    478.88329 -4.3395836e-12 2.0651967e-11 -8.6391095e-11   -18.864764 
     440   -18.867175    4.2751986  -0.75849864    4.2751989  -0.75849889    4.2751991            0           -0            0    751.38746    751.37982    751.38808    751.39447 2.0396472e-11 3.0594708e-11 2.1355281e-11   -18.867175 
     450   -18.869271    4.2927815   -0.7760815    4.2927821  -0.77608211    4.2927826            0           -0            0     138.8212    138.80249    138.82272    138.83839 1.9185289e-11 5.7193076e-12 9.9746433e-11   -18.869271 
     460   -18.871307    4.3103631  -0.79366312    4.3103648  -0.79366479    4.3103661            0           -0            0    525.58587    525.53694    525.58986    525.63081 -1.9679835e-11 -1.9815702e-11 -4.3602906e-11   -18.871307 
     470   -18.873061    4.3277985  -0.81109854    4.3278032   -0.8111032    4.3278068            0           -0            0    169.90888    169.77359     169.9199    170.03316 1.690619e-11 2.3961529e-11 3.5266456e-11   -18.873061 
     480   -18.874317    4.3410753  -0.82437529    4.3410863  -0.82438631    4.3410948            0           -0            0    139.74819    139.43405    139.77376    140.03676 1.147926e-10 1.9197638e-11 -3.8959911e-11   -18.874317 
     490   -18.875492    4.3538829  -0.83718295    4.3539112  -0.83721118     4.353933            0           -0            0    1002.8064    1002.0472    1002.8681    1003.5038 3.725282e-12 -3.6676643e-11 -5.9763457e-11   -18.875492 
     500   -18.876536    4.3671661  -0.85046611    4.3672359  -0.85053595      4.36729            0           -0            0    59.248565    57.323285    59.404573    61.017837 1.768709e-11 2.8174126e-12 -2.3537135e-11   -18.876536 
     510   -18.877393    4.3785873  -0.86188731     4.378755  -0.86205503    4.3788851            0           -0            0   -126.95205   -131.54321   -126.58281   -122.73013 -1.8912809e-11 -2.97353e-12 3.7593915e-11   -18.877393 
     520   -18.878281    4.3898234  -0.87312341    4.3902714  -0.87357144    4.3906196            0           -0            0    567.91792     556.2321    568.83805     578.6836 -2.0047678e-11 -5.7894341e-11 -1.736068e-11   -18.878281 
     530    -18.87908    4.4018588  -0.88515882    4.4031103   -0.8864103    4.4040899            0           -0            0   -133.21326   -166.40013   -130.76474    -102.4749 -5.8223471e-13 1.6152318e-11 1.4086324e-11    -18.87908 
     540   -18.879728    4.4101941  -0.89349415    4.4133069  -0.89660691    4.4157856            0           -0            0   -114.46812   -195.91048   -109.41943   -38.074442 -5.7136009e-11 -3.6394728e-11 -8.5713298e-11   -18.879728 
     550   -18.880354    4.4146863  -0.89798628    4.4220773  -0.90537727    4.4282073            0           -0            0    546.96397    361.41869    553.24738    726.22584 1.2376699e-11 -4.6049412e-11 -2.0413278e-12   -18.880354 
     560   -18.881043    4.4152292  -0.89852916    4.4299155  -0.91321547    4.4430505            0           -0            0    46.253999   -330.15876    38.294828    430.62592 -8.0354367e-12 -8.2624161e-11 4.9771395e-12   -18.881043 
     570   -18.882225     4.409784  -0.89308404     4.435043  -0.91834299     4.460634            0           -0            0    278.42386   -367.59007    203.61134    999.25031 -3.8299807e-11 4.3476191e-12 9.8364883e-12   -18.882225 
     580   -18.883961    4.4023024  -0.88560243    4.4373641  -0.92066412    4.4782175            0           -0            0    294.76242   -622.35115     85.84938     1420.789 -1.233475e-11 -7.8985678e-11 3.8807575e-11   -18.883961 
     590    -18.88636     4.394355    -0.877655    4.4376593  -0.92095929     4.495801            0           -0            0    344.17145   -826.31918   -60.505583    1919.3391 -1.8823017e-11 -1.5194981e-10 -1.9856261e-11    -18.88636 
     600   -18.889458    4.3866838  -0.86998383    4.4365452  -0.91984521    4.5133845            0           -0            0    414.62688     -990.049   -233.53012    2467.4598 9.4896742e-11 -1.2817711e-10 -3.2622015e-11   -18.889458 
     610   -18.893271    4.3795536  -0.86285362    4.4344613  -0.91776126     4.530968            0           -0            0    507.14278   -1114.7182   -416.14925    3052.2958 1.1066607e-10 -1.8411448e-10 -4.3049956e-11   -18.893271 
     620   -18.897799    4.3730423  -0.85634231     4.431737  -0.91503701    4.5485515            0           -0            0    621.25283   -1202.7642   -593.40127     3659.924 -1.347985e-11 -1.4264505e-10 -4.5280184e-11   -18.897799 
     630   -18.903025    4.3671501  -0.85045007    4.4286204  -0.91192035     4.566135            0           -0            0    755.30772   -1256.6061   -753.30689    4275.8362 -1.6843661e-10 -1.5225547e-10 -9.9129467e-11   -18.903025 
     640   -18.908915    4.3618463  -0.84514628    4.4252955  -0.90859549    4.5837185            0           -0            0    906.41249   -1278.8375   -887.44739    4885.5224 -3.4976112e-12 -1.9900079e-10 -1.0190888e-10   -18.908915 
     650   -18.915422    4.3570898  -0.84038977    4.4218975  -0.90519746     4.601302            0           -0            0    1070.2896   -1272.8532   -991.32213     5475.044 5.0337677e-11 -2.0452854e-10 -1.2118117e-10   -18.915422 
     660   -18.922489    4.3528368  -0.83613682    4.4185234  -0.90182336    4.6188855            0           -0            0    1242.3064   -1242.1924   -1063.2006    6032.3121 6.7995316e-11 -2.091947e-10 -1.2013562e-10   -18.922489 
     670   -18.930052    4.3490455  -0.83234549    4.4152417  -0.89854174     4.636469            0           -0            0      1417.75   -1190.5906   -1103.6378    6547.4786 3.2655593e-10 -2.3394162e-10 -1.3565632e-10   -18.930052 
     680   -18.938044    4.3456774  -0.82897741    4.4121003  -0.89540028    4.6540525            0           -0            0    1591.7834   -1122.2848   -1115.2961    7012.9312 1.7329338e-10 -2.362621e-10 -1.4671805e-10   -18.938044 
     690   -18.946396    4.3426962  -0.82599625    4.4091294  -0.89242938     4.671636            0           -0            0    1759.7654   -1041.8317   -1102.3461    7423.4741 -3.6538481e-10 -2.6230033e-10 -1.6024726e-10   -18.946396 
     700   -18.955043    4.3400673  -0.82336733     4.406346  -0.88964596    4.6892195            0           -0            0    1917.8447   -953.45775   -1069.4305    7776.4224 -6.9165273e-10 -2.6603478e-10 -1.7991116e-10   -18.955043 
     710   -18.963922    4.3377592  -0.82105925    4.4037584  -0.88705842     4.706803            0           -0            0    2063.4396     -860.397   -1020.6609    8071.3767 -3.1768258e-10 -2.5190639e-10 -1.7009035e-10   -18.963922 
     720   -18.972974    4.3357441  -0.81904405    4.4013696  -0.88466963    4.7243865            0           -0            0    2194.6098   -765.54775   -960.08803    8309.4653 1.1527712e-10 -2.1271481e-10 -1.7437078e-10   -18.972974 
     730   -18.982143    4.3339957   -0.8172957    4.3991774  -0.88247739      4.74197            0           -0            0    2309.7797    -671.7526   -891.85514    8492.9467 -3.356521e-10 -2.0539499e-10 -1.6864883e-10   -18.982143 
     740   -18.991382    4.3324899  -0.81578987    4.3971758  -0.88047578    4.7595535            0           -0            0    2408.2613   -581.05067   -819.28765    8625.1223 -1.2559503e-10 -1.9948135e-10 -1.7535033e-10   -18.991382 
     750   -19.000646    4.3312046  -0.81450456    4.3953571  -0.87865708     4.777137            0           -0            0    2490.0779   -494.77344   -744.91664    8709.9237 -1.2228952e-10 -2.0174431e-10 -1.8397602e-10   -19.000646 
     760   -19.009895    4.3301195  -0.81341946     4.393712  -0.87701203    4.7947205            0           -0            0    2555.4471    -414.1194   -671.05638    8751.5171 3.9327853e-10 -1.9772182e-10 -1.9688195e-10   -19.009895 
     770   -19.019094    4.3292156  -0.81251562    4.3922302  -0.87553022     4.812304            0           -0            0    2604.9234   -339.91322   -599.52227    8754.2056 5.3076663e-10 -1.9151313e-10 -1.8961051e-10   -19.019094 
     780   -19.028214    4.3284756  -0.81177564    4.3909008  -0.87420084    4.8298875            0           -0            0     2639.605   -272.26918   -531.25317    8722.3372 6.8634578e-10 -1.7931711e-10 -1.8095957e-10   -19.028214 
     790   -19.037227     4.327884  -0.81118404    4.3897135  -0.87301354     4.847471            0           -0            0    2660.6398   -211.17853    -466.9475    8660.0454 2.8736137e-10 -1.8548712e-10 -1.8543722e-10   -19.037227 
     800   -19.046111     4.327427  -0.81072699    4.3886585  -0.87195847    4.8650545            0           -0            0    2669.3125   -156.37285   -406.92092    8571.2312 5.6975499e-10 -1.7591389e-10 -1.7621177e-10   -19.046111 
     810   -19.054847     4.327092  -0.81039202    4.3877262  -0.87102622     4.882638            0           -0            0    2666.7313   -107.72495   -351.55241    8459.4714 3.0114089e-10 -1.7466295e-10 -1.7297131e-10   -19.054847 
     820   -19.063418    4.3268677  -0.81016766    4.3869077  -0.87020765    4.9002215            0           -0            0     2654.092   -64.895968   -300.90955    8328.0815 4.3945477e-10 -1.6666302e-10 -1.6179055e-10   -19.063418 
     830    -19.07181    4.3267436  -0.81004356    4.3861942   -0.8694942     4.917805            0           -0            0    2632.5658   -27.473932   -254.90898    8180.0802 6.0173576e-10 -1.8190545e-10 -1.6115338e-10    -19.07181 
     840   -19.080013    4.3267103  -0.81001034    4.3855778   -0.8688778    4.9353885            0           -0            0    2603.2512    4.9603776   -213.39797     8018.191 3.1283761e-10 -1.8600783e-10 -1.6219319e-10   -19.080013 
     850   -19.088018    4.3267596  -0.81005964    4.3850511  -0.86835111     4.952972            0           -0            0    2567.2353    32.915781   -176.07303    7844.8632 -1.2689204e-12 -1.8069346e-10 -1.5928049e-10   -19.088018 
     860   -19.095817     4.326884  -0.81018405    4.3846074  -0.86790744    4.9705555            0           -0            0      2525.48    56.830677   -142.66288    7662.2722 -2.9567981e-10 -1.8675263e-10 -1.6161432e-10   -19.095817 
     870   -19.103406    4.3270769  -0.81037693    4.3842406  -0.86754065     4.988139            0           -0            0    2478.8702    77.131589   -112.87137    7472.3504 -1.5248474e-10 -1.7976376e-10 -1.6207045e-10   -19.103406 
     880   -19.110781    4.3273324  -0.81063239    4.3839452  -0.86724519    5.0057225            0           -0            0    2428.2099    94.220586   -86.397309    7276.8065 -6.1360921e-10 -1.8515298e-10 -1.5815564e-10   -19.110781 
     890   -19.117939    4.3276452  -0.81094518     4.383716  -0.86701605     5.023306            0           -0            0    2374.2332    108.48365   -62.930458    7077.1465 -7.3107276e-12 -1.7334164e-10 -1.4729514e-10   -19.117939 
     900    -19.12488    4.3280107  -0.81131068    4.3835487  -0.86684869    5.0408895            0           -0            0    2317.5737    120.24113   -42.210131    6874.6901 9.1755258e-12 -1.6966964e-10 -1.3922167e-10    -19.12488 
     910   -19.131604    4.3284248  -0.81172478     4.383439  -0.86673902     5.058473            0           -0            0    2258.8173    129.81372   -23.956771     6670.595 4.0089606e-12 -1.7108019e-10 -1.3122416e-10   -19.131604 
     920    -19.13811    4.3288838  -0.81218385    4.3833834  -0.86668338    5.0760565            0           -0            0    2198.4788    137.48396    -7.917161    6465.8695 -4.5872802e-10 -1.6955311e-10 -1.2698443e-10    -19.13811 
     930   -19.144402    4.3293847  -0.81268473    4.3833785  -0.86667851      5.09364            0           -0            0    2137.0119    143.50446    6.1418456    6261.3895 4.6652369e-10 -1.6559201e-10 -1.2198069e-10   -19.144402 
     940    -19.15048    4.3299247  -0.81322467    4.3834215  -0.86672152    5.1112235            0           -0            0    2074.8155    148.10019     18.43369    6057.9125 3.644658e-12 -1.5640527e-10 -1.1575318e-10    -19.15048 
     950   -19.156348    4.3305013  -0.81380129    4.3835099  -0.86680987     5.128807            0           -0            0    2012.2382     151.4708    29.152761    5856.0912 -4.5464281e-10 -1.3856877e-10 -1.0869572e-10   -19.156348 
     960    -19.16201    4.3311125  -0.81441251    4.3836413   -0.8669413    5.1463905            0           -0            0    1949.5838    153.79234    38.474702    5656.4844 4.6644298e-10 -1.3390349e-10 -1.1185493e-10    -19.16201 
     970   -19.167469    4.3317565  -0.81505653     4.383814  -0.86711396     5.163974            0           -0            0    1887.5362    155.17178    46.645029    5460.7918 -1.4353186e-10 -1.264175e-10 -1.0058292e-10   -19.167469 
     980   -19.172728    4.3324313  -0.81573131    4.3840264   -0.8673264    5.1815575            0           -0            0    1826.2449     155.7613    53.713285    5269.2603 4.5011929e-10 -1.0838353e-10 -8.8982405e-11   -19.172728 
     990   -19.177792    4.3331357   -0.8164357    4.3842768  -0.86757684     5.199141            0           -0            0    1766.0763    155.79559    59.712636    5082.7205 -4.5864506e-10 -1.1250054e-10 -8.9139035e-11   -19.177792 
    1000   -19.182665    4.3338686  -0.81716864    4.3845637  -0.86786371    5.2167245            0           -0            0    1706.6507    155.28779    64.848669    4899.8156 1.5832192e-10 -1.0113444e-10 -8.4300668e-11   -19.182665 
    1010   -19.187352    4.3346293  -0.81792927    4.3848859   -0.8681859     5.234308            0           -0            0    1648.1134    154.33354    69.229035    4720.7775 1.5170942e-10 -9.5813563e-11 -7.7075599e-11   -19.187352 
    1020   -19.191858    4.3354169  -0.81871693    4.3852425   -0.8685425    5.2518915            0           -0            0    1590.5817    153.00981    72.942923    4545.7923 -1.4603158e-10 -8.6880236e-11 -7.7599019e-11   -19.191858 
    1030   -19.196188    4.3362311  -0.81953115    4.3856328  -0.86893278     5.269475            0           -0            0    1534.1528    151.38281    76.069188    4375.0063 1.5576623e-10 -8.9913104e-11 -7.6067431e-11   -19.196188 
    1040   -19.200347    4.3370716  -0.82037159    4.3860562  -0.86935618    5.2870585            0           -0            0    1478.9058    149.50931    78.677505    4208.5305 7.5970907e-10 -8.7297909e-11 -6.8485712e-11   -19.200347 
    1050    -19.20434    4.3379381  -0.82123807    4.3865123  -0.86981226     5.304642            0           -0            0     1424.904    147.43784    80.829303     4046.445 -6.0523182e-10 -8.2354351e-11 -6.9306957e-11    -19.20434 
    1060   -19.208173    4.3388305  -0.82213054    4.3870007  -0.87030075    5.3222255            0           -0            0    1372.1971    145.20969    82.578701     3888.803 2.0694604e-12 -7.5999676e-11 -6.9461205e-11   -19.208173 
    1070   -19.211849    4.3397491  -0.82304909    4.3875215  -0.87082147     5.339809            0           -0            0    1320.8224    142.85991    83.973338     3735.634 -3.6875362e-12 -7.2871718e-11 -6.3804626e-11   -19.211849 
    1080   -19.215376    4.3406939  -0.82399389    4.3880744  -0.87137438    5.3573925            0           -0            0    1270.8067    140.41811    85.055117     3586.947 3.0091213e-10 -7.5520544e-11 -6.5858954e-11   -19.215376 
    1090   -19.218756    4.3416652  -0.82496524    4.3886595  -0.87195955     5.374976            0           -0            0    1222.1677    137.90918    85.860873    3442.7329 1.8802448e-12 -7.5396448e-11 -6.8872582e-11   -19.218756 
    1100   -19.221996    4.3426635  -0.82596354    4.3892771  -0.87257714    5.3925595            0           -0            0    1174.9148    135.35399     86.42298    3302.9675 -2.8949628e-10 -7.0608876e-11 -6.2833508e-11   -19.221996 
    1110     -19.2251    4.3436893  -0.82698927    4.3899274  -0.87322743     5.410143            0           -0            0    1129.0508    132.76987    86.769875    3167.6128 -3.9433006e-12 -6.4790229e-11 -5.7852979e-11     -19.2251 
    1120   -19.228073    4.3447429  -0.82804286    4.3906118  -0.87391185    5.4277265            0           -0            0    1084.8656    130.09258    87.530497    3036.9738 -1.5539729e-10 -6.6754969e-11 -6.4124101e-11   -19.228073 
    1130   -19.230921    4.3458236  -0.82912365    4.3913374   -0.8746374      5.44531            0           -0            0    1042.2654    127.30967    88.556994    2910.9294 -1.3883683e-10 -6.5822266e-11 -6.2896558e-11   -19.230921 
    1140   -19.233647     4.346933  -0.83023305    4.3921059  -0.87540585    5.4628935            0           -0            0    1001.3063    125.14308    89.306781    2789.4689 1.5217777e-10 -6.4766446e-11 -6.3151339e-11   -19.233647 
    1150   -19.236258    4.3480793   -0.8313793    4.3929168  -0.87621677     5.480477            0           -0            0    961.90858    123.47834    89.768829    2672.4786 2.9115799e-10 -6.6550487e-11 -6.4284221e-11   -19.236258 
    1160   -19.238757    4.3492649  -0.83256486    4.3937708  -0.87707078    5.4980605            0           -0            0     923.8017    121.79019    90.078107    2559.5368 -4.2859556e-10 -6.4221231e-11 -6.0408581e-11   -19.238757 
    1170   -19.241149     4.350491  -0.83379098     4.394669  -0.87796896     5.515644            0           -0            0    886.96409    120.08441    90.248286    2450.5596 1.477683e-10 -6.1276614e-11 -5.8352806e-11   -19.241149 
    1180   -19.243437     4.351759  -0.83505901    4.3956124  -0.87891245    5.5332275            0           -0            0    851.37194    118.36558     90.29138    2345.4589 -4.2400581e-10 -6.1128753e-11 -5.9654632e-11   -19.243437 
    1190   -19.245627    4.3530704  -0.83637037    4.3966025  -0.87990249     5.550811            0           -0            0    816.99996    116.63773    90.218485    2244.1437 -2.7680767e-10 -5.7393513e-11 -5.5824015e-11   -19.245627 
    1200   -19.247721    4.3544265  -0.83772653    4.3976404  -0.88094039    5.5683945            0           -0            0    783.82116    114.90375    90.039146    2146.5206 -1.384175e-10 -5.3909714e-11 -5.1607083e-11   -19.247721 
    1210   -19.249724     4.355829  -0.83912904    4.3987275  -0.88202752     5.585978            0           -0            0    751.80742    113.16585    89.761835    2052.4946 -1.392519e-10 -5.1288248e-11 -4.7450472e-11   -19.249724 
    1220   -19.251639    4.3572795  -0.84057951    4.3998653  -0.88316532    5.6035615            0           -0            0    720.92972    111.42566    89.394087    1961.9694 -1.3258204e-10 -4.8061904e-11 -4.487934e-11   -19.251639 
    1230    -19.25347    4.3587796  -0.84207961    4.4010553   -0.8843553     5.621145            0           -0            0    691.15839    109.68433    88.942608    1874.8482 -1.4322908e-10 -4.7172671e-11 -4.0908146e-11    -19.25347 
    1240    -19.25522    4.3603311  -0.84363107     4.402299  -0.88559903    5.6387285            0           -0            0    662.46332    107.94262    88.413384     1791.034 -4.1645618e-10  -4.5032e-11 -3.835566e-11    -19.25522 
    1250   -19.256892    4.3619357  -0.84523568    4.4035981  -0.88689814     5.656312            0           -0            0    634.81412    106.20097    87.811762    1710.4296 -2.7736886e-10 -4.2725695e-11 -3.7261294e-11   -19.256892 
    1260    -19.25849    4.3635953  -0.84689526    4.4049543  -0.88825433    5.6738955            0           -0            0    608.18028    104.45958    87.142531    1632.9387 1.4180852e-10 -4.266009e-11 -3.7432303e-11    -19.25849 
    1270   -19.260016    4.3653117  -0.84861172    4.4063694  -0.88966935     5.691479            0           -0            0    582.53133    102.71843     86.40999    1558.4656 1.3503072e-10 -4.0379495e-11 -3.5593588e-11   -19.260016 
    1280   -19.261474     4.367087  -0.85038698     4.407845  -0.89114501    5.7090625            0           -0            0    557.83692    100.97733    85.618011    1486.9154 8.7787138e-13 -3.9131224e-11 -3.3428178e-11   -19.261474 
    1290   -19.262867     4.368923  -0.85222305    4.4093832  -0.89268317     5.726646            0           -0            0    534.06694    99.235997     84.77009    1418.1947 7.9695924e-13 -3.6008833e-11 -3.1587887e-11   -19.262867 
    1300   -19.264197    4.3708219  -0.85412194    4.4109857  -0.89428573    5.7442295            0           -0            0    511.19161    97.494043    83.869393    1352.2114 -1.3699504e-10 -3.6076856e-11 -3.1782332e-11   -19.264197 
    1310   -19.265467    4.3727857  -0.85608574    4.4126547  -0.89595467     5.761813            0           -0            0    489.18155    95.751033    82.918803    1288.8748 7.7531423e-13 -3.4960017e-11 -3.1192255e-11   -19.265467 
    1320   -19.266679    4.3748165  -0.85811655     4.414392  -0.89769199    5.7793965            0           -0            0    468.00784    94.006493    81.920952    1228.0961 -5.3327084e-10 -3.3573345e-11 -2.9730982e-11   -19.266679 
    1330   -19.267836    4.3769165  -0.86021653    4.4161997  -0.89949973      5.79698            0           -0            0    447.64206     92.25994    80.878256     1169.788 -1.2884184e-10 -3.2192334e-11 -2.7802943e-11   -19.267836 
    1340   -19.268941    4.3790879  -0.86238785      4.41808     -0.90138    5.8145635            0           -0            0    428.05637    90.510897    79.792948    1113.8653 -2.5882697e-10 -2.9957571e-11 -2.5471956e-11   -19.268941 
    1350   -19.269995    4.3813327  -0.86463274    4.4200349  -0.90333491     5.832147            0           -0            0    409.22351    88.758906    78.667101    1060.2445 1.2557185e-10 -2.8243657e-11 -2.5016035e-11   -19.269995 
    1360      -19.271    4.3836534  -0.86695343    4.4220666  -0.90536664    5.8497305            0           -0            0    391.11686    87.003545     77.50265    1008.8444 -2.6457605e-10 -2.8532019e-11 -2.3544616e-11      -19.271 
    1370    -19.27196    4.3860522  -0.86935217    4.4241774  -0.90747737     5.867314            0           -0            0    373.71048    85.244482    76.301469     959.5855 1.3128625e-10 -2.5514467e-11 -2.3638613e-11    -19.27196 
    1380   -19.272876    4.3885312  -0.87183125    4.4263693  -0.90966932    5.8848975            0           -0            0     356.9835    83.487801     75.07215    912.39055 2.5387815e-10 -2.6189567e-11 -2.4276792e-11   -19.272876 
    1390   -19.273749    4.3910908  -0.87439082    4.4286425  -0.91194248     5.902481            0           -0            0    342.21708    83.622543    75.839876    867.18881 -2.4887007e-10 -2.4332565e-11 -2.3031582e-11   -19.273749 
    1400   -19.274581    4.3936373  -0.87693732    4.4308979  -0.91419793    5.9200645            0           -0            0    387.49111    169.73698    168.63888    824.09747 -1.3249772e-10 -1.9951814e-11 -1.9539695e-11   -19.274581 
    1410   -19.275369    4.3962155  -0.87951552    4.4331828  -0.91648283     5.937648            0           -0            0    465.58936    302.52576    311.31219    782.93013 -2.5544496e-10 -1.5855348e-11 -1.5398696e-11   -19.275369 
    1420   -19.276133    4.3991909   -0.8824909    4.4358828  -0.91918277    5.9552315            0           -0            0    357.26118    164.61407    164.21239    742.95707 -1.2623695e-10 -1.8858265e-11 -1.8078309e-11   -19.276133 
    1430   -19.276855    4.4021018  -0.88540181    4.4385103   -0.9218103     5.972815            0           -0            0     344.3453    163.99943    164.04865    704.98784 3.3156722e-13 -1.8087626e-11 -1.7546151e-11   -19.276855 
    1440   -19.277536    4.4049265  -0.88822653    4.4410424  -0.92434243    5.9903985            0           -0            0    439.05582    318.48995    329.73145    668.94605 1.7343467e-13 -1.2484603e-11 -1.1855539e-11   -19.277536 
    1450     -19.2782    4.4083441   -0.8916441    4.4441954  -0.92749541     6.007982            0           -0            0    239.27566     45.65733    38.454764    633.71487 -1.1989213e-10 -1.939944e-11 -1.9051742e-11     -19.2782 
    1460   -19.278825    4.4116074  -0.89490742    4.4471809   -0.9304809    6.0255655            0           -0            0    191.34993   -7.9712907   -18.392392    600.41347 6.0225314e-10 -1.9482251e-11 -1.9047544e-11   -19.278825 
    1470   -19.279393    4.4151208  -0.89842085    4.4504361  -0.93373612    6.0427425            0           -0            0    11.570074   -253.74832   -280.54142    568.99996 9.0700215e-13 -2.5931885e-11 -2.5909086e-11   -19.279393 
    1480   -19.279836    4.4171342  -0.90043425    4.4522096  -0.93550961    6.0559789            0           -0            0    317.69498    200.88032    205.50406    546.70057 -2.469624e-10 -1.2111082e-11 -1.1615903e-11   -19.279836 
    1490    -19.28026    4.4204044  -0.90370444    4.4552877  -0.93858768    6.0698794            0           -0            0    4.6369113   -241.82346   -266.99996    522.73415 7.209467e-10 -2.3682522e-11 -2.3617704e-11    -19.28026 
    1500    -19.28064    4.4229456  -0.90624562    4.4576292  -0.94092916     6.082475            0           -0            0   0.15547266   -238.63275   -263.23579    502.33496 -1.1634652e-10 -2.352389e-11 -2.3504614e-11    -19.28064 
    1510   -19.281029    4.4251225  -0.90842247    4.4595749  -0.94287488    6.0954152            0           -0            0    276.78651    172.13091    175.62565    482.60297 -5.8739607e-10 -1.1149629e-11 -1.0686638e-11   -19.281029 
    1520   -19.281403    4.4285092  -0.91180916    4.4627715  -0.94607148    6.1091454            0           -0            0   -9.2000101   -232.70446   -256.18144    461.28586 8.0901616e-09 -2.2068157e-11 -2.1962643e-11   -19.281403 
    1530    -19.28174    4.4311952  -0.91449517    4.4652621   -0.9485621    6.1215818            0           -0            0    -15.83698   -233.69518   -256.91321    443.09745 -1.598884e-08 -2.2391761e-11 -2.239702e-11    -19.28174 
    1540   -19.282087    4.4335594  -0.91685944    4.4674007  -0.95070066    6.1344049            0           -0            0    238.77337    144.26827    146.64825     425.4036 -7.8528028e-08 -1.0598447e-11 -1.0341741e-11   -19.282087 
    1550   -19.282423    4.4371552  -0.92045516    4.4708045  -0.95410447    6.1482902            0           -0            0   -31.146181   -238.28989   -261.13985    405.99119 2.0148037e-06 -2.2249229e-11 -2.2321146e-11   -19.282423 
    1560    -19.28273    4.4400889  -0.92338887    4.4735408   -0.9568408    6.1609937            0           -0            0   -41.388908   -245.20247   -268.20134    389.23709 -1.4385501e-05 -2.1888881e-11 -2.196138e-11    -19.28273 
    1570   -19.283048    4.4427007   -0.9260007    4.4759265  -0.95922649    6.1740223            0           -0            0    203.15051    117.55503    118.87694    373.01955 -0.0001546146 -9.7328108e-12 -9.5044461e-12   -19.283048 
    1580   -19.283359    4.4466484  -0.92994839    4.4796745  -0.96297454     6.188528            0           -0            0   -59.757384   -255.53146   -278.56022    354.81953  0.012496252 -2.0190971e-11 -2.0350863e-11   -19.283359 
    1590   -19.283644    4.4498983  -0.93319828    4.4827206  -0.96602057    6.2017652            0           -0            0   -64.261751   -254.64037   -277.30643    339.16155  -0.33286341 -2.0610177e-11 -2.0641681e-11   -19.283644 
    1600   -19.283932    4.4527383  -0.93603828    4.4853359  -0.96863589    6.2148815            0           -0            0    175.11366    99.986033    100.84088    324.51405   -6.9720711 -9.7595449e-12 -9.5366122e-12   -19.283932 
    1610   -19.284202    4.4560818  -0.93938184    4.4884501  -0.97175014     6.228989            0           -0            0    313.82078    308.79946    323.50228    309.16059    36.532007 -1.0102685e-12 -5.7865466e-13   -19.284202 
    1620   -19.284447    4.4594735  -0.94277347    4.4916648  -0.97496483    6.2412777            0           -0            0    207.61488    160.82329    166.05063    295.97073   -3.6720197 -6.5411013e-12 -6.1965516e-12   -19.284447 
    1630   -19.284709    4.4636762   -0.9469762    4.4956681  -0.97896815    6.2557205            0           -0            0    7.5366103   -122.69331    -135.6384    280.94154   -101.60319 -1.7946025e-11 -1.8073913e-11   -19.284709 
    1640    -19.28494    4.4672042  -0.95050423    4.4989918  -0.98229182    6.2690249            0           -0            0    47.224427   -58.813604   -67.390035    267.87692   -234.34181 -1.9539465e-11 -1.9605208e-11    -19.28494 
    1650   -19.285127    4.4698419  -0.95314186    4.5014606  -0.98476055    6.2794562            0           -0            0     176.0049    132.99666    136.95077    258.06727    4.8398505 -5.650485e-12 -5.5099643e-12   -19.285127 
    1660   -19.285308    4.4732612  -0.95656119    4.5047254  -0.98802545    6.2907249            0           -0            0    38.247995   -62.154029   -70.585908    247.48392    170.14968 -6.1059147e-12 -5.9875187e-12   -19.285308 
    1670   -19.285493     4.476601  -0.95990101    4.5078906  -0.99119063    6.3024737            0           -0            0    43.315659   -49.777757   -57.228502    236.95324   -204.20145 -1.5644994e-11 -1.5691602e-11   -19.285493 
    1680   -19.285653      4.47925  -0.96254997    4.5103826  -0.99368256    6.3123685            0           -0            0    156.72965    119.12134    122.61306    228.45454    5.1603257 -5.0005346e-12 -4.7109629e-12   -19.285653 
    1690   -19.285807    4.4826039  -0.96590389     4.513593  -0.99689296    6.3229893            0           -0            0    34.011464    -54.92622   -62.390782    219.35139    152.94869 -5.4521325e-12 -5.3468729e-12   -19.285807 
    1700   -19.285968    4.4859409  -0.96924094    4.5167659   -1.0000659    6.3342165            0           -0            0    39.624831   -42.386178   -48.886865    210.14754   -179.46771 -1.4118387e-11 -1.4256451e-11   -19.285968 
    1710   -19.286105    4.4885974  -0.97189744     4.519276    -1.002576    6.3436392            0           -0            0    139.88703    106.91783    110.01436     202.7289    5.1885448 -4.2254396e-12 -4.0819213e-12   -19.286105 
    1720   -19.286237    4.4918927  -0.97519273    4.5224374   -1.0057374    6.3537002            0           -0            0     30.37931   -48.540104   -55.152869     194.8309    137.27834 -4.7943549e-12 -4.7018574e-12   -19.286237 
    1730   -19.286378    4.4952315  -0.97853149    4.5256215   -1.0089215    6.3644805            0           -0            0    36.059932   -36.420647   -42.120045    186.72049   -158.66575 -1.2054611e-11 -1.2182141e-11   -19.286378 
    1740   -19.286496    4.4978935  -0.98119349    4.5281467   -1.0114467    6.3734882            0           -0            0    125.04497    96.090374    98.845272    180.19926    5.0437304 -3.5588854e-12 -3.3589292e-12   -19.286496 
    1750    -19.28661    4.5011364  -0.98443645    4.5312644   -1.0145644    6.3830627            0           -0            0    27.184838   -42.938445   -48.801063    173.29402    123.60988 -3.6744453e-12 -3.6139948e-12    -19.28661 
    1760   -19.286733    4.5044777  -0.98777766    4.5344595   -1.0177595    6.3934491            0           -0            0    32.794935   -31.356495   -36.360311    166.10161   -140.55614 -9.61628e-12 -9.723553e-12   -19.286733 
    1770   -19.286836    4.5071439   -0.9904439    4.5369976   -1.0202976    6.4020896            0           -0            0    111.85538    86.388654    88.843702    160.33379     4.968585 -3.0129812e-12 -2.9339498e-12   -19.286836 
    1780   -19.286935    4.5103384  -0.99363842    4.5400747   -1.0233747    6.4112329            0           -0            0    24.202618     -38.2194   -43.431604    154.25886    111.33703 -3.4546564e-12 -3.3176399e-12   -19.286935 
    1790   -19.287043    4.5136825  -0.99698251    4.5432806   -1.0265806    6.4212709            0           -0            0    29.831153   -26.978955   -31.371908    147.84432   -124.75751 -8.600522e-12 -8.6974364e-12   -19.287043 
    1800   -19.287133    4.5163514  -0.99965141    4.5458292   -1.0291292    6.4295827            0           -0            0    100.06201    77.640327    79.829737    142.71598    4.9429901 -2.6236662e-12 -2.5075635e-12   -19.287133 
    1810   -19.287219    4.5195011   -1.0028011    4.5488687   -1.0321687    6.4383421            0           -0            0    21.409915   -34.233079   -38.878579     137.3414    100.11335 -2.9455419e-12 -2.8878795e-12   -19.287219 
    1820   -19.287314    4.5228489   -1.0061489    4.5520856   -1.0353856    6.4480717            0           -0            0     27.10485   -23.210203   -27.066129    131.59088   -110.98795 -6.5130129e-12 -6.6524224e-12   -19.287314 
    1830   -19.287392    4.5255187   -1.0088187    4.5546425   -1.0379425    6.4560867            0           -0            0    89.462245    69.712073    71.664443    127.01022    4.9100376 -2.2513502e-12 -2.1801388e-12   -19.287392 
    1840   -19.287467    4.5286267   -1.0119267    4.5576467   -1.0409467    6.4645027            0           -0            0    18.836355   -30.788453   -34.933738    122.23126    89.728046 -2.5133705e-12 -2.4996799e-12   -19.287467 
    1850   -19.287551    4.5319795   -1.0152795    4.5608753   -1.0441753    6.4739587            0           -0            0    24.496187   -20.086547   -23.476508    117.05162   -98.919971 -6.2222844e-12 -6.265695e-12   -19.287551 
    1860   -19.287619    4.5346482   -1.0179482    4.5634379   -1.0467379    6.4817036            0           -0            0    79.907163    62.518364     64.25923    112.94389    4.7268129 -2.0296786e-12 -1.9738675e-12   -19.287619 
    1870   -19.287685    4.5377162   -1.0210162    4.5664082   -1.0497082    6.4898093            0           -0            0    16.637138   -27.539303   -31.225329    108.67604    80.134169 -2.2893601e-12 -2.2714936e-12   -19.287685 
    1880   -19.287759    4.5410757   -1.0243757    4.5696498   -1.0529498    6.4990211            0           -0            0    21.754071   -17.861243   -20.867464    103.99092   -88.061922 -5.7745018e-12 -5.8224578e-12   -19.287759 
    1890   -19.287818    4.5437405   -1.0270405    4.5722147   -1.0555147    6.5065184            0           -0            0    71.300567    56.026192    57.580868    100.29464    4.1120395 -1.9273969e-12 -1.9426272e-12   -19.287818 
    1900   -19.287876     4.546768    -1.030068    4.5751501   -1.0584501    6.5143389            0           -0            0     15.14756   -23.899361   -27.128224    96.470265    71.522426 -2.1938635e-12 -2.1533135e-12   -19.287876 
    1910   -19.287941    4.5501361   -1.0334361    4.5784064   -1.0617064     6.523329            0           -0            0     18.51142    -16.97765   -19.705286    92.217197   -77.746909 -5.155355e-12 -5.2261893e-12   -19.287941 
    1920   -19.287993    4.5527941   -1.0360941    4.5809704   -1.0642704    6.5305999            0           -0            0    63.553453    50.193715    51.586403    88.880239    2.8355015 -1.920514e-12 -1.8343861e-12   -19.287993 
    1930   -19.288043    4.5557787   -1.0390787    4.5838681   -1.0671681     6.538154            0           -0            0    14.608143   -19.437046   -22.182717    85.444192    64.253961 -2.0231402e-12 -2.0063579e-12   -19.288043 
    1940     -19.2881    4.5591574   -1.0424574    4.5871408   -1.0704408    6.5469399            0           -0            0    14.587696   -17.623353   -20.184929     81.57137   -67.401086 -5.0498935e-12 -5.1294293e-12     -19.2881 
    1950   -19.288146    4.5618091   -1.0451091    4.5897036   -1.0730036    6.5540116            0           -0            0    56.480912    44.826033    46.070447    78.546256    1.3544179 -1.7939125e-12 -1.7865747e-12   -19.288146 
    1960    -19.28819    4.5647519   -1.0480519    4.5925644   -1.0758644    6.5613233            0           -0            0    14.501113   -14.834643   -17.110559    75.448542    58.465531 -1.8705122e-12 -1.8451023e-12    -19.28819 
    1970    -19.28824    4.5681425   -1.0514425    4.5958546   -1.0791546    6.5699247            0           -0            0    10.540398   -18.919024   -21.370637    71.910856   -57.328525 -4.5298781e-12 -4.6041779e-12    -19.28824 
    1980    -19.28828    4.5707942   -1.0540942     4.598422    -1.081722     6.576833            0           -0            0    49.920828    39.754194    40.855316    69.152974    1.2683669 -1.6071511e-12 -1.6090299e-12    -19.28828 
    1990   -19.288318    4.5737048   -1.0570048    4.6012548   -1.0845548    6.5839402            0           -0            0    13.894229   -11.383924   -13.278328    66.344941    53.737636 -1.5149571e-12 -1.5033655e-12   -19.288318 
    2000   -19.288362    4.5771167   -1.0604167    4.6045713   -1.0878713    6.5923977            0           -0            0    6.0981622   -21.193544   -23.607876    63.095907   -48.270811 -4.1013669e-12 -4.2220057e-12   -19.288362 
    2010   -19.288397     4.579781    -1.063081    4.6071552   -1.0904552    6.5991916            0           -0            0     43.57569    34.610898    35.553566    60.562607    5.0309861 -1.533543e-12 -1.5446288e-12   -19.288397 
    2020    -19.28843    4.5826815   -1.0659815    4.6099818   -1.0932818    6.6061442            0           -0            0    9.6943737   -13.527079   -15.387433    57.997633     47.53053 -1.732398e-12 -1.716867e-12    -19.28843 
    2030   -19.288468    4.5861068   -1.0694068     4.613316    -1.096616     6.614476            0           -0            0    2.4657461    -22.63524   -24.975054    55.007532   -41.565857 -4.3081856e-12 -4.4079583e-12   -19.288468 
    2040     -19.2885    4.5888836   -1.0721836    4.6160138   -1.0993138    6.6213932            0           -0            0    35.051878    25.993935    26.565506    52.596193    18.159624 -1.1724447e-12 -1.172483e-12     -19.2885 
    2050   -19.288541    4.5929632   -1.0762632    4.6199868   -1.1032868    6.6312438            0           -0            0    36.167663    29.224271    30.043984    49.234735   -6.1173051 -1.6196704e-12 -1.6351087e-12   -19.288541 
    2060   -19.288579    4.5971599   -1.0804599    4.6240843   -1.1073843    6.6410433            0           -0            0   -10.910006    -37.82802   -40.877909     45.97591   -52.666106 -4.1721961e-12 -4.298882e-12   -19.288579 
    2070   -19.288609    4.6002754   -1.0835754    4.6271149   -1.1104149    6.6486731            0           -0            0    30.024048    22.993892    23.547212    43.531042   -2.7010297 -1.4322821e-12 -1.4780416e-12   -19.288609 
    2080   -19.288635    4.6034407   -1.0867407    4.6302047   -1.1135047    6.6560811            0           -0            0    16.255427    4.0405631     3.529769    41.195948   -42.087241 -2.9277951e-12 -3.0146207e-12   -19.288635 
    2090   -19.288663    4.6068672   -1.0901672    4.6335494   -1.1168494    6.6640972            0           -0            0    8.8222756   -5.6189402   -6.6461054    38.731872   -25.988273 -2.6096316e-12 -2.7025326e-12   -19.288663 
    2100   -19.288696    4.6113435   -1.0946435    4.6379179   -1.1212179    6.6745983            0           -0            0    14.649124    4.3679958     3.978402    35.600974   -17.254882 -1.9125258e-12 -1.9704178e-12   -19.288696 
    2110   -19.288724    4.6154554   -1.0987554    4.6419317   -1.1252317    6.6842041            0           -0            0    26.324582    22.712837    23.432825    32.828084   -32.935185 -1.8886361e-12 -1.9699127e-12   -19.288724 
    2120   -19.288758    4.6208599   -1.1041599    4.6472129   -1.1305129    6.6966398            0           -0            0    21.266736     16.99745    17.446705    29.356053   -23.583759 -1.7213315e-12 -1.7861497e-12   -19.288758 
    2130   -19.288774     4.623763    -1.107063    4.6500533   -1.1333533    6.7031952            0           -0            0    4.0374211   -7.2755747   -8.1889352    27.576773   -7.8943571 -1.8803479e-12 -1.973489e-12   -19.288774 
    2140   -19.288791    4.6269985   -1.1102985    4.6532077   -1.1365077    6.7108536            0           -0            0    58.277538    72.782903    76.487098    25.562612    -13.10524 2.4113001e-13 2.2339023e-13   -19.288791 
    2150   -19.288813     4.631794    -1.115094    4.6579075   -1.1412075    6.7213882            0           -0            0   -9.1308653   -24.219827   -26.011008    22.838239   -77.887669 -4.0977776e-12 -4.2740329e-12   -19.288813 
    2160   -19.288828    4.6347748   -1.1180748    4.6608198   -1.1441198    6.7282021            0           -0            0    7.5151219   0.86929036   0.53774205    21.138333    5.7902735 -1.1027521e-12 -1.2019885e-12   -19.288828 
    2170   -19.288838     4.637398    -1.120698    4.6633835   -1.1466835    6.7341457            0           -0            0    16.058796    14.026215    14.465834    19.684338    21.277858 -2.2724196e-13 -3.0735157e-13   -19.288838 
    2180   -19.288851    4.6407709   -1.1240709    4.6666815   -1.1499815    6.7416991            0           -0            0    14.329515    12.370084    12.744841     17.87362  -0.99076163 -7.2585272e-13 -8.7616809e-13   -19.288851 
    2190   -19.288864    4.6446073   -1.1279073    4.6704319   -1.1537319    6.7502713            0           -0            0    12.745485    11.017335    11.347524    15.871597   -1.9906978 -6.7600419e-13 -8.1258711e-13   -19.288864 
    2200   -19.288876    4.6487367   -1.1320367    4.6744694   -1.1577694    6.7593553            0           -0            0   -9.5122254   -20.470187   -21.872587    13.806098    9.4090601 -1.1574486e-12 -1.314473e-12   -19.288876 
    2210   -19.288884    4.6519239   -1.1352239    4.6775822   -1.1608822    6.7663722            0           -0            0   -22.222048   -38.276165   -40.642846    12.252868    19.102771 -1.2851152e-12 -1.464078e-12   -19.288884 
    2220   -19.288893    4.6558625   -1.1391625    4.6814182   -1.1647182    6.7752403            0           -0            0    2.4147408   -1.4127877   -1.6903975    10.347408   -1.0960464 -7.5489552e-13 -9.44715e-13   -19.288893 
    2230     -19.2889    4.6594711   -1.1427711    4.6849242   -1.1682242    6.7833214            0           -0            0    19.362751    24.135207    25.295582     8.657464    35.830994 8.1040985e-13 6.7395907e-13     -19.2889 
    2240   -19.288904    4.6621475   -1.1454475    4.6875217   -1.1708217    6.7891743            0           -0            0    5.9644754    5.1540473    5.2825743    7.4568047    48.191622 6.9656856e-13 5.3854446e-13   -19.288904 
    2250    -19.28891    4.6662047   -1.1495047    4.6914373   -1.1747373     6.798158            0           -0            0    6.8202662    7.2658376    7.5331917    5.6617695   -8.5987224 -4.9016074e-13 -6.8502434e-13    -19.28891 
    2260   -19.288914    4.6700632   -1.1533632     4.695127    -1.178427    6.8066625            0           -0            0  -0.64526205   -2.8422021    -3.103012    4.0094279   -4.8273945 -6.0200729e-13 -7.4127939e-13   -19.288914 
    2270   -19.288915    4.6718735   -1.1551735    4.6968277   -1.1801277    6.8107154            0           -0            0    6.8644488    8.4972331    8.8562796    3.2398336    5.1058988 -3.1269069e-14 -2.3274165e-13   -19.288915 
    2280   -19.288916    4.6747232   -1.1580232    4.6994939   -1.1827939     6.816999            0           -0            0   0.98296009   0.47177794   0.41302589    2.0640765   0.60454588 -2.6603939e-13 -4.6601663e-13   -19.288916 
    2290   -19.288917     4.677674    -1.160974    4.7020491   -1.1853491    6.8235046            0           -0            0   0.25462092 -0.018238006 -0.092147005   0.87424776   -3.0506297 -3.6917661e-13 -1.786126e-13   -19.288917 
    2300   -19.288917    4.6788213   -1.1621213    4.7029014   -1.1862014    6.8261645            0           -0            0   -3.5114075   -5.4222481    -5.745825   0.63385067  0.047252164 -2.9935821e-13 -1.2948572e-13   -19.288917 
    2310   -19.288918    4.6804598   -1.1637598    4.7035278   -1.1868278    6.8322837            0           -0            0  0.021159481  0.006452633 -0.0082933938  0.065319205 -0.047063422 -1.9705196e-13 -1.5238512e-15   -19.288918 
    2320   -19.288918    4.6804995   -1.1637995    4.7034215   -1.1867215    6.8326539            0           -0            0  0.058794641  0.078338345  0.076464264  0.021581314  0.018531285 -1.3122921e-13 2.2333282e-15   -19.288918 
    2330   -19.288918    4.6805545   -1.1638545    4.7032659   -1.1865659    6.8331168            0           -0            0  -0.13410212  -0.19610424  -0.19577256 -0.010429543 -0.047097677 -8.4656559e-15 -6.1849581e-15   -19.288918 
    2340   -19.288918    4.6805295   -1.1638295    4.7034857   -1.1867857    6.8329639            0           -0            0 -0.008060408 -0.0055009664 -0.013664052 -0.0050162052  0.016504411 3.8333909e-16 2.7697777e-16   -19.288918 
    2350   -19.288918    4.6805402   -1.1638402    4.7033748   -1.1866748    6.8329132            0           -0            0 -0.0009085132 0.00039716353 -0.00084184252 -0.0022808606 -0.00034312118 3.8287547e-14 3.3281659e-17   -19.288918 
    2360   -19.288918    4.6805542   -1.1638542    4.7033666   -1.1866666    6.8328811            0           -0            0 0.0011746955 0.0022693884 0.0014538676 -0.00019916944 0.00089189162 4.2601673e-14 5.6005766e-17   -19.288918 
    2361   -19.288918    4.6805542   -1.1638542    4.7033666   -1.1866666    6.8328811            0           -0            0 -7.0471255e-05 0.0004467033 -0.00045889764 -0.00019921943 0.00032993654 5.1075127e-14 4.6628258e-18   -19.288918 
Loop time of 0.0192571 on 1 procs for 2361 steps with 4 atoms

95.3% CPU use with 1 MPI tasks x no OpenMP threads

Minimization stats:
  Stopping criterion = energy tolerance
  Energy initial, next-to-last, final = 
        -17.8061063756     -19.2889175994     -19.2889175994
  Force two-norm initial, final = 0.349016 1.39033e-07
  Force max component initial, final = 0.201504 6.60728e-08
  Final line search alpha, max atom move = 1 6.60728e-08
  Iterations, force evaluations = 2361 2982

MPI task timing breakdown:
Section |  min time  |  avg time  |  max time  |%varavg| %total
---------------------------------------------------------------
Pair    | 0.0074291  | 0.0074291  | 0.0074291  |   0.0 | 38.58
Neigh   | 0.00012875 | 0.00012875 | 0.00012875 |   0.0 |  0.67
Comm    | 0.0019078  | 0.0019078  | 0.0019078  |   0.0 |  9.91
Output  | 0.0025327  | 0.0025327  | 0.0025327  |   0.0 | 13.15
Modify  | 0          | 0          | 0          |   0.0 |  0.00
Other   |            | 0.007259   |            |       | 37.69

Nlocal:    4 ave 4 max 4 min
Histogram: 1 0 0 0 0 0 0 0 0 0
Nghost:    86 ave 86 max 86 min
Histogram: 1 0 0 0 0 0 0 0 0 0
Neighs:    10 ave 10 max 10 min
Histogram: 1 0 0 0 0 0 0 0 0 0

Total # of neighbors = 10
Ave neighs/atom = 2.5
Neighbor list builds = 15
Dangerous builds = 0
# ---- define output variables ----
variable natoms equal "count(all)"
variable tot_energy equal "c_eatoms"
variable a11 equal "xhi-xlo"
variable a22 equal "yhi-ylo"
variable a33 equal "zhi-zlo"
variable tilt_xy equal "xy"
variable tilt_xz equal "xz"
variable tilt_yz equal "yz"
variable tot_press equal "press"
variable press_xx equal "pxx"
variable press_yy equal "pyy"
variable press_zz equal "pzz"
variable press_xy equal "pxy"
variable press_xz equal "pxz"
variable press_yz equal "pyz"

# ---- output ----
print "pypospack:output_section:begin"
pypospack:output_section:begin
print "tot_energy = ${tot_energy}"
tot_energy = -19.2889175993871
print "num_atoms = ${natoms}"
num_atoms = 4
print "a11 = ${a11}"
a11 = 5.8444083847344
print "a22 = ${a22}"
a22 = 5.89003317439811
print "a33 = ${a33}"
a33 = 10.1490622228622
print "a12 = ${tilt_xy}"
a12 = 0
print "a13 = ${tilt_xz}"
a13 = -0
print "a23 = ${tilt_yz}"
a23 = 0
print "tot_press = ${tot_press}"
tot_press = -7.04712548732638e-05
print "pxx = ${press_xx}"
pxx = 0.00044670330126415
print "pyy = ${press_yy}"
pyy = -0.000458897638714834
print "pzz = ${press_zz}"
pzz = -0.000199219427169107
print "pxy = ${press_xy}"
pxy = 0.000329936537052266
print "pxz = ${press_xz}"
pxz = 5.10751270804361e-14
print "pyz = ${press_yz}"
pyz = 4.66282583862298e-18
print "pypospack:output_section:done"
pypospack:output_section:done
print "pypospack:lammps_sim:done"
pypospack:lammps_sim:done
Total wall time: 0:00:00
