# ['Ni']

18 atoms
1 atom types

    0.0000     2.4860 xlo xhi
    0.0000     4.3060 ylo yhi
    0.0000    36.5312 zlo zhi

    0.0000     0.0000    -0.0004 xy xz yz

Atoms

1 1     0.0000     0.0000     0.0000
2 1     1.2430     0.7177     2.0295
3 1     0.0000     1.4353     4.0590
4 1     1.2430     2.1530     0.0000
5 1     0.0000     2.8706     2.0295
6 1     1.2430     3.5883     4.0590
7 1     0.0000     0.0000     6.0885
8 1     1.2430     0.7177     8.1180
9 1     0.0000     1.4353    10.1476
10 1     1.2430     2.1530     6.0885
11 1     0.0000     2.8706     8.1180
12 1     1.2430     3.5883    10.1476
13 1     0.0000     0.0000    12.1771
14 1     1.2430     0.7177    14.2066
15 1     0.0000     1.4353    16.2361
16 1     1.2430     2.1530    12.1771
17 1     0.0000     2.8706    14.2066
18 1     1.2430     3.5883    16.2361
