    2    2    1    1
  0.9639684E+01  0.3009788E-09  0.3009788E-09  0.3009788E-09  0.5000000E-15
  1.000000000000000E-004
  CAR 
 automatically generated by pyflamestk   
      8     10     16
 
  0.1250000E+00  0.1250000E+00  0.1250000E+00  0.3125000E-01
    1      -13.599210   1.000000
    2        2.411498   1.000000
    3        3.256967   1.000000
    4        3.256968   1.000000
    5        8.698531   0.000000
    6       17.309464   0.000000
    7       19.318435   0.000000
    8       19.318438   0.000000
    9       23.529808   0.000000
   10       23.529808   0.000000
   11       24.863489   0.000000
   12       27.258656   0.000000
   13       28.680648   0.000000
   14       28.680650   0.000000
   15       38.894035   0.000000
   16       40.801911   0.000000
 
  0.3750000E+00  0.1250000E+00  0.1250000E+00  0.9375000E-01
    1      -12.950328   1.000000
    2        0.254148   1.000000
    3        2.402568   1.000000
    4        2.962533   1.000000
    5       11.117139   0.000000
    6       15.240446   0.000000
    7       18.617343   0.000000
    8       20.291123   0.000000
    9       22.114784   0.000000
   10       24.330057   0.000000
   11       26.408423   0.000000
   12       31.060089   0.000000
   13       32.314756   0.000000
   14       33.206919   0.000000
   15       35.573702   0.000000
   16       38.845963   0.000000
 
 -0.3750000E+00  0.1250000E+00  0.1250000E+00  0.9375000E-01
    1      -12.516881   1.000000
    2       -0.866959   1.000000
    3        2.253770   1.000000
    4        2.625523   1.000000
    5       11.723055   0.000000
    6       15.417688   0.000000
    7       17.910553   0.000000
    8       19.721502   0.000000
    9       23.698149   0.000000
   10       25.947847   0.000000
   11       26.024226   0.000000
   12       32.284808   0.000000
   13       32.870982   0.000000
   14       33.238963   0.000000
   15       35.793774   0.000000
   16       37.501895   0.000000
 
 -0.1250000E+00  0.1250000E+00  0.1250000E+00  0.9375000E-01
    1      -13.237738   1.000000
    2        1.135612   1.000000
    3        2.889679   1.000000
    4        2.893398   1.000000
    5       10.285629   0.000000
    6       15.496784   0.000000
    7       19.418407   0.000000
    8       19.905985   0.000000
    9       21.070425   0.000000
   10       24.910858   0.000000
   11       26.869789   0.000000
   12       29.951150   0.000000
   13       30.258881   0.000000
   14       30.982190   0.000000
   15       37.177742   0.000000
   16       38.950702   0.000000
 
  0.3750000E+00  0.3750000E+00  0.1250000E+00  0.9375000E-01
    1      -12.715868   1.000000
    2        0.070862   1.000000
    3        2.202993   1.000000
    4        2.434307   1.000000
    5       12.213206   0.000000
    6       13.907677   0.000000
    7       17.160578   0.000000
    8       20.780437   0.000000
    9       21.235523   0.000000
   10       27.083277   0.000000
   11       30.145587   0.000000
   12       30.398302   0.000000
   13       32.328291   0.000000
   14       34.818804   0.000000
   15       36.464977   0.000000
   16       37.868546   0.000000
 
 -0.3750000E+00  0.3750000E+00  0.1250000E+00  0.1875000E+00
    1      -12.306731   1.000000
    2       -0.041955   1.000000
    3        0.951664   1.000000
    4        2.025547   1.000000
    5       13.758161   0.000000
    6       14.766825   0.000000
    7       15.561373   0.000000
    8       19.546377   0.000000
    9       22.991175   0.000000
   10       26.444557   0.000000
   11       29.973693   0.000000
   12       31.399071   0.000000
   13       32.668332   0.000000
   14       36.333363   0.000000
   15       38.880775   0.000000
   16       41.085749   0.000000
 
 -0.1250000E+00  0.3750000E+00  0.1250000E+00  0.1875000E+00
    1      -12.561519   1.000000
    2       -0.246795   1.000000
    3        1.689532   1.000000
    4        2.524176   1.000000
    5       12.582899   0.000000
    6       14.789491   0.000000
    7       16.931758   0.000000
    8       20.117573   0.000000
    9       22.696540   0.000000
   10       25.354923   0.000000
   11       28.863171   0.000000
   12       31.629755   0.000000
   13       32.232714   0.000000
   14       34.881291   0.000000
   15       35.524072   0.000000
   16       41.006379   0.000000
 
 -0.3750000E+00 -0.3750000E+00  0.1250000E+00  0.9375000E-01
    1      -12.342543   1.000000
    2       -0.404163   1.000000
    3        1.687613   1.000000
    4        2.141473   1.000000
    5       12.853465   0.000000
    6       13.485751   0.000000
    7       16.008583   0.000000
    8       21.472890   0.000000
    9       21.485605   0.000000
   10       28.912953   0.000000
   11       29.390900   0.000000
   12       31.963532   0.000000
   13       32.660430   0.000000
   14       37.793340   0.000000
   15       38.168950   0.000000
   16       41.096593   0.000000
 
  0.3750000E+00  0.3750000E+00  0.3750000E+00  0.3125000E-01
    1      -12.752163   1.000000
    2       -0.600355   1.000000
    3        2.819311   1.000000
    4        2.819311   1.000000
    5       10.928982   0.000000
    6       15.431023   0.000000
    7       19.524647   0.000000
    8       19.524649   0.000000
    9       24.070402   0.000000
   10       24.442242   0.000000
   11       24.442245   0.000000
   12       31.898333   0.000000
   13       33.210264   0.000000
   14       33.210267   0.000000
   15       36.839042   0.000000
   16       36.839046   0.000000
 
 -0.3750000E+00  0.3750000E+00  0.3750000E+00  0.9375000E-01
    1      -12.389947   1.000000
    2       -0.283505   1.000000
    3        1.056926   1.000000
    4        2.494231   1.000000
    5       13.073235   0.000000
    6       15.231658   0.000000
    7       16.121619   0.000000
    8       20.426995   0.000000
    9       22.510058   0.000000
   10       25.549408   0.000000
   11       29.075479   0.000000
   12       31.613280   0.000000
   13       32.036235   0.000000
   14       35.363938   0.000000
   15       37.237422   0.000000
   16       40.110099   0.000000
