LAMMPS (11 Aug 2017)
include init.mod
# ---- init.mod file
variable up equal 1.0e-6
units metal
dimension 3
boundary p p p
atom_style atomic
atom_modify map array
variable cfac equal 1.0e-4
variable cunits string GPa
# ---- define minimization parameters
variable etol equal 0.0
variable ftol equal 1.0e-10
variable maxiter equal 100
variable maxeval equal 1000
variable dmax equal 1.0e-2
# --- read data structure
read_data lammps.structure
  triclinic box = (0 0 0) to (3.5167 3.5167 3.5167) with tilt (0 -0 0)
  1 by 1 by 1 MPI processor grid
  reading atoms ...
  4 atoms
include potential.mod
mass 1 58.6934

group Ni type 1
4 atoms in group Ni

pair_style eam/alloy
pair_coeff * * /ufrc/phillpot/eragasa/pareto_optimization_3.5NN/rank_27/Ni_fcc.lmps_elastic/Ni.eam.alloy Ni

neighbor 1.0 bin
neigh_modify every 1 delay 0 check yes
thermo	1
thermo_style custom step temp pe press pxx pyy pzz pxy pxz pyz lx ly lz vol
thermo_modify norm no
# ---- Compute initial state
fix 3 all box/relax aniso 0.0
minimize ${etol} ${ftol} ${maxiter} ${maxeval}
minimize 0 ${ftol} ${maxiter} ${maxeval}
minimize 0 1e-10 ${maxiter} ${maxeval}
minimize 0 1e-10 100 ${maxeval}
minimize 0 1e-10 100 1000
Neighbor list info ...
  update every 1 steps, delay 0 steps, check yes
  max neighbors/atom: 2000, page size: 100000
  master list distance cutoff = 5.64464
  ghost atom cutoff = 5.64464
  binsize = 2.82232, bins = 2 2 2
  1 neighbor lists, perpetual/occasional/extra = 1 0 0
  (1) pair eam/alloy, perpetual
      attributes: half, newton on
      pair build: half/bin/newton/tri
      stencil: half/bin/3d/newton/tri
      bin: standard
Per MPI rank memory allocation (min/avg/max) = 4.086 | 4.086 | 4.086 Mbytes
Step Temp PotEng Press Pxx Pyy Pzz Pxy Pxz Pyz Lx Ly Lz Volume 
       0            0   -13.136044   -213329.99   -213329.99   -213329.99   -213329.99 1.3164424e-11 1.0224796e-12 8.5632662e-12       3.5167       3.5167       3.5167    43.491658 
       1            0   -13.137781   -213160.95   -213160.95   -213160.95   -213160.95 3.3879798e-11 -2.1094969e-11 -1.5853189e-11    3.5163483    3.5163483    3.5163483    43.478612 
       2            0   -13.139515   -212991.44   -212991.44   -212991.44   -212991.44 1.0486706e-11 -1.2149233e-11 2.6856199e-12    3.5159967    3.5159967    3.5159967    43.465568 
       3            0   -13.141248   -212821.44   -212821.44   -212821.44   -212821.44 1.3176279e-11 2.1363482e-11 2.0723857e-11     3.515645     3.515645     3.515645    43.452527 
       4            0    -13.14298   -212650.96   -212650.96   -212650.96   -212650.96 -5.1185375e-13 2.4313053e-11 1.2796344e-13    3.5152933    3.5152933    3.5152933    43.439489 
       5            0   -13.144709      -212480      -212480      -212480      -212480 1.3056189e-11 2.8160407e-12 -1.1904172e-11    3.5149417    3.5149417    3.5149417    43.426453 
       6            0   -13.146437   -212308.55   -212308.55   -212308.55   -212308.55 -2.4711774e-11 1.2163826e-11 2.5608056e-12      3.51459      3.51459      3.51459     43.41342 
       7            0   -13.148163   -212136.62   -212136.62   -212136.62   -212136.62 -8.0689594e-12 6.4039361e-13 -3.5862042e-12    3.5142383    3.5142383    3.5142383    43.400389 
       8            0   -13.149887    -211964.2    -211964.2    -211964.2    -211964.2 -1.2811718e-11 6.7902105e-12 -5.1246872e-13    3.5138866    3.5138866    3.5138866    43.387362 
       9            0    -13.15161   -211791.29   -211791.29   -211791.29   -211791.29 -9.9961409e-12 -5.1262261e-12 -6.5359383e-12     3.513535     3.513535     3.513535    43.374336 
      10            0    -13.15333    -211617.9    -211617.9    -211617.9    -211617.9 1.2306638e-11 -1.7434403e-11 -1.9870092e-11    3.5131833    3.5131833    3.5131833    43.361313 
      11            0   -13.155049   -211444.02   -211444.02   -211444.02   -211444.02 -6.2833997e-12 -2.7185321e-11 -2.2825411e-11    3.5128316    3.5128316    3.5128316    43.348293 
      12            0   -13.156767   -211269.65   -211269.65   -211269.65   -211269.65 -4.5407993e-11 -3.2709147e-11 -3.7326909e-11      3.51248      3.51248      3.51248    43.335276 
      13            0   -13.158482    -211094.8    -211094.8    -211094.8    -211094.8 -2.2197578e-11 6.2871754e-12 2.566194e-13    3.5121283    3.5121283    3.5121283    43.322261 
      14            0   -13.160196   -210919.45   -210919.45   -210919.45   -210919.45 4.1071441e-12 -3.5937511e-12 -1.1551343e-11    3.5117766    3.5117766    3.5117766    43.309249 
      15            0   -13.161908   -210743.61   -210743.61   -210743.61   -210743.61 -4.6219255e-12 -4.6219255e-12 1.4636097e-11     3.511425     3.511425     3.511425    43.296239 
      16            0   -13.163618   -210567.27   -210567.27   -210567.27   -210567.27 -2.0548064e-12 6.1644192e-12 -1.0274032e-11    3.5110733    3.5110733    3.5110733    43.283232 
      17            0   -13.165326   -210390.45   -210390.45   -210390.45   -210390.45 6.0378079e-12 -1.670032e-12 1.0148656e-11    3.5107216    3.5107216    3.5107216    43.270227 
      18            0   -13.167033   -210213.13   -210213.13   -210213.13   -210213.13 3.0840626e-11 1.9275391e-12 1.0023204e-11    3.5103699    3.5103699    3.5103699    43.257226 
      19            0   -13.168738   -210035.31   -210035.31   -210035.31   -210035.31 3.8562371e-11 3.3806346e-11 1.6967443e-11    3.5100183    3.5100183    3.5100183    43.244226 
      20            0   -13.170441      -209857      -209857      -209857      -209857 7.8433728e-12 2.9444793e-11 2.4944497e-11    3.5096666    3.5096666    3.5096666     43.23123 
      21            0   -13.172142   -209678.19   -209678.19   -209678.19   -209678.19 9.0032978e-12 -1.8263833e-11 -9.7750091e-12    3.5093149    3.5093149    3.5093149    43.218236 
      22            0   -13.173842   -209498.89   -209498.89   -209498.89   -209498.89 2.1357098e-11 -1.0549892e-11 -1.2608407e-11    3.5089633    3.5089633    3.5089633    43.205244 
      23            0   -13.175539   -209319.09   -209319.09   -209319.09   -209319.09 2.2907871e-11 5.4824455e-11 5.4438368e-11    3.5086116    3.5086116    3.5086116    43.192255 
      24            0   -13.177235   -209138.78   -209138.78   -209138.78   -209138.78 1.3774603e-11 1.7507907e-11 -4.5057114e-12    3.5082599    3.5082599    3.5082599    43.179269 
      25            0   -13.178929   -208957.98   -208957.98   -208957.98   -208957.98 -2.31792e-11 -9.1429065e-12 -1.6354213e-11    3.5079083    3.5079083    3.5079083    43.166285 
      26            0   -13.180622   -208776.68   -208776.68   -208776.68   -208776.68 7.599912e-12 1.0047341e-11 8.6304086e-12    3.5075566    3.5075566    3.5075566    43.153304 
      27            0   -13.182312   -208594.88   -208594.88   -208594.88   -208594.88 1.3013933e-11 3.8010992e-11 2.4739357e-11    3.5072049    3.5072049    3.5072049    43.140326 
      28            0   -13.184001   -208412.57   -208412.57   -208412.57   -208412.57 -7.4755961e-12 -1.9462328e-11 -6.0578106e-12    3.5068532    3.5068532    3.5068532     43.12735 
      29            0   -13.185688   -208229.76   -208229.76   -208229.76   -208229.76 -2.2304608e-11 8.8960576e-12 1.031427e-12    3.5065016    3.5065016    3.5065016    43.114377 
      30            0   -13.187373   -208046.45   -208046.45   -208046.45   -208046.45 1.2896717e-13 6.4483585e-13 -2.9662449e-12    3.5061499    3.5061499    3.5061499    43.101406 
      31            0   -13.189056   -207862.63   -207862.63   -207862.63   -207862.63 -2.4382131e-11 -8.256383e-12 -1.2255569e-11    3.5057982    3.5057982    3.5057982    43.088438 
      32            0   -13.190737    -207678.3    -207678.3    -207678.3    -207678.3 1.5485378e-11 2.6583232e-11 1.419493e-11    3.5054466    3.5054466    3.5054466    43.075473 
      33            0   -13.192417   -207493.47   -207493.47   -207493.47   -207493.47 -7.7450196e-13 -2.5816732e-13 -4.7760954e-12    3.5050949    3.5050949    3.5050949     43.06251 
      34            0   -13.194094   -207308.13   -207308.13   -207308.13   -207308.13 -4.2610432e-11 -3.0472915e-11 -3.9640614e-11    3.5047432    3.5047432    3.5047432     43.04955 
      35            0    -13.19577   -207122.29   -207122.29   -207122.29   -207122.29 -3.2677834e-11 -2.7123893e-12 -1.3561947e-11    3.5043916    3.5043916    3.5043916    43.036592 
      36            0   -13.197444   -206935.93   -206935.93   -206935.93   -206935.93 4.2636096e-12 -9.1732206e-12 2.7132061e-12    3.5040399    3.5040399    3.5040399    43.023637 
      37            0   -13.199116   -206749.06   -206749.06   -206749.06   -206749.06 2.5330883e-11 -1.3699355e-11 -1.1890006e-11    3.5036882    3.5036882    3.5036882    43.010685 
      38            0   -13.200787   -206561.68   -206561.68   -206561.68   -206561.68 -2.3657896e-11 4.0076218e-12 -5.6882373e-12    3.5033365    3.5033365    3.5033365    42.997735 
      39            0   -13.202455   -206373.79   -206373.79   -206373.79   -206373.79 1.9526876e-11 3.1036095e-11 2.638068e-11    3.5029849    3.5029849    3.5029849    42.984788 
      40            0   -13.204122   -206185.39   -206185.39   -206185.39   -206185.39 5.4329526e-12 -2.0050182e-11 -1.6298858e-11    3.5026332    3.5026332    3.5026332    42.971843 
      41            0   -13.205787   -205996.48   -205996.48   -205996.48   -205996.48 9.057649e-13 -1.5268608e-11 -2.9372662e-11    3.5022815    3.5022815    3.5022815    42.958901 
      42            0   -13.207449   -205807.04   -205807.04   -205807.04   -205807.04 2.0709436e-11 4.659623e-12 1.4237737e-11    3.5019299    3.5019299    3.5019299    42.945961 
      43            0    -13.20911    -205617.1    -205617.1    -205617.1    -205617.1 1.0746257e-11 -1.5925176e-11 -1.2817824e-11    3.5015782    3.5015782    3.5015782    42.933025 
      44            0    -13.21077   -205426.64   -205426.64   -205426.64   -205426.64 1.2303639e-11 1.1008519e-11 1.2303639e-11    3.5012265    3.5012265    3.5012265     42.92009 
      45            0   -13.212427   -205235.66   -205235.66   -205235.66   -205235.66 9.3276738e-12 -1.9303103e-11 -4.7933879e-12    3.5008749    3.5008749    3.5008749    42.907159 
      46            0   -13.214082   -205044.16   -205044.16   -205044.16   -205044.16 2.4233344e-11 2.2678263e-11 2.1123182e-11    3.5005232    3.5005232    3.5005232     42.89423 
      47            0   -13.215736   -204852.14   -204852.14   -204852.14   -204852.14 -2.5925828e-12 -1.9444371e-12 1.4259205e-11    3.5001715    3.5001715    3.5001715    42.881303 
      48            0   -13.217388   -204659.61   -204659.61   -204659.61   -204659.61 -2.5933644e-12 -2.7878667e-11 -1.9320564e-11    3.4998198    3.4998198    3.4998198    42.868379 
      49            0   -13.219037   -204466.55   -204466.55   -204466.55   -204466.55 -1.1933073e-11 -2.5811755e-11 -2.996239e-11    3.4994682    3.4994682    3.4994682    42.855458 
      50            0   -13.220685   -204272.97   -204272.97   -204272.97   -204272.97 2.4651821e-12 -5.8385892e-12 -1.5569571e-12    3.4991165    3.4991165    3.4991165     42.84254 
      51            0   -13.222331   -204078.87   -204078.87   -204078.87   -204078.87 -9.863702e-12 1.9467833e-12 -6.6190632e-12    3.4987648    3.4987648    3.4987648    42.829624 
      52            0   -13.223975   -203884.25   -203884.25   -203884.25   -203884.25 -8.3087806e-12 2.129125e-11 1.908423e-11    3.4984132    3.4984132    3.4984132     42.81671 
      53            0   -13.225617    -203689.1    -203689.1    -203689.1    -203689.1 -1.2986386e-12 1.3116249e-11 2.0778217e-12    3.4980615    3.4980615    3.4980615    42.803799 
      54            0   -13.227258   -203493.43   -203493.43   -203493.43   -203493.43 -5.3000436e-11 -5.6767624e-11 -5.8066654e-11    3.4977098    3.4977098    3.4977098    42.790891 
      55            0   -13.228896   -203297.23   -203297.23   -203297.23   -203297.23 -5.9773421e-12 1.8061969e-11 2.9886711e-12    3.4973582    3.4973582    3.4973582    42.777985 
      56            0   -13.230532   -203100.51   -203100.51   -203100.51   -203100.51 -7.6689041e-12 -9.0986998e-12 4.4193685e-12    3.4970065    3.4970065    3.4970065    42.765082 
      57            0   -13.232167   -202903.25   -202903.25   -202903.25   -202903.25 -2.0413242e-11 -3.3545327e-11 -2.9514687e-11    3.4966548    3.4966548    3.4966548    42.752182 
      58            0     -13.2338   -202705.47   -202705.47   -202705.47   -202705.47 -1.0534851e-11 -1.4696767e-11 -2.3410779e-11    3.4963031    3.4963031    3.4963031    42.739284 
      59            0    -13.23543   -202507.16   -202507.16   -202507.16   -202507.16 -1.3270112e-11 -5.594263e-12 -2.2377052e-11    3.4959515    3.4959515    3.4959515    42.726389 
      60            0   -13.237059   -202308.32   -202308.32   -202308.32   -202308.32 7.8083045e-12 -1.96509e-11 -1.96509e-11    3.4955998    3.4955998    3.4955998    42.713496 
      61            0   -13.238686   -202108.94   -202108.94   -202108.94   -202108.94 2.6035539e-12 2.9029626e-11 3.3976378e-11    3.4952481    3.4952481    3.4952481    42.700606 
      62            0   -13.240311   -201909.04   -201909.04   -201909.04   -201909.04 6.2504157e-12 -7.6828027e-12 1.6928209e-12    3.4948965    3.4948965    3.4948965    42.687718 
      63            0   -13.241934    -201708.6    -201708.6    -201708.6    -201708.6 -7.8153787e-13 3.8034843e-11 4.6631759e-11    3.4945448    3.4945448    3.4945448    42.674833 
      64            0   -13.243555   -201507.63   -201507.63   -201507.63   -201507.63 -5.6027127e-12 8.4692168e-12 -6.1238953e-12    3.4941931    3.4941931    3.4941931    42.661951 
      65            0   -13.245174   -201306.12   -201306.12   -201306.12   -201306.12 1.1208809e-11 1.0426799e-12 -1.4076179e-11    3.4938415    3.4938415    3.4938415    42.649071 
      66            0   -13.246791   -201104.08   -201104.08   -201104.08   -201104.08 -1.4993051e-11 7.692087e-12 3.0116476e-11    3.4934898    3.4934898    3.4934898    42.636194 
      67            0   -13.248406    -200901.5    -200901.5    -200901.5    -200901.5 9.911444e-12 2.3213645e-11 3.0647228e-11    3.4931381    3.4931381    3.4931381     42.62332 
      68            0    -13.25002   -200698.38   -200698.38   -200698.38   -200698.38 -6.914016e-12 -1.6958907e-11 8.0880942e-12    3.4927864    3.4927864    3.4927864    42.610448 
      69            0   -13.251631   -200494.73   -200494.73   -200494.73   -200494.73 1.0047926e-11 1.5006643e-11 1.2266299e-11    3.4924348    3.4924348    3.4924348    42.597578 
      70            0    -13.25324   -200290.53   -200290.53   -200290.53   -200290.53 4.829683e-12 1.5924901e-11 1.5924901e-11    3.4920831    3.4920831    3.4920831    42.584712 
      71            0   -13.254847    -200085.8    -200085.8    -200085.8    -200085.8 6.1368565e-12 2.1152569e-11 3.6559996e-12    3.4917314    3.4917314    3.4917314    42.571847 
      72            0   -13.256453   -199880.52   -199880.52   -199880.52   -199880.52 -2.4816066e-12 -7.8366525e-13 -1.9069188e-11    3.4913798    3.4913798    3.4913798    42.558986 
      73            0   -13.258056    -199674.7    -199674.7    -199674.7    -199674.7 -5.6179651e-12 1.2411783e-11 8.2309721e-12    3.4910281    3.4910281    3.4910281    42.546127 
      74            0   -13.259658   -199468.34   -199468.34   -199468.34   -199468.34 3.2019011e-11 1.2023465e-11 4.4565236e-11    3.4906764    3.4906764    3.4906764     42.53327 
      75            0   -13.261257   -199261.43   -199261.43   -199261.43   -199261.43 1.6994815e-11 1.1111995e-11 1.5295334e-11    3.4903248    3.4903248    3.4903248    42.520417 
      76            0   -13.262855   -199053.98   -199053.98   -199053.98   -199053.98 -5.3615238e-12 3.1907605e-11 2.3930704e-11    3.4899731    3.4899731    3.4899731    42.507565 
      77            0    -13.26445   -198845.99   -198845.99   -198845.99   -198845.99 -1.2950033e-11 8.3717383e-12 -1.0464673e-11    3.4896214    3.4896214    3.4896214    42.494717 
      78            0   -13.266044   -198637.44   -198637.44   -198637.44   -198637.44 -1.2430557e-11 -2.5777049e-11 -1.7664475e-11    3.4892697    3.4892697    3.4892697    42.481871 
      79            0   -13.267635   -198428.35   -198428.35   -198428.35   -198428.35 -5.6281641e-12 -1.2826979e-11 -7.8532522e-12    3.4889181    3.4889181    3.4889181    42.469027 
      80            0   -13.269225   -198218.71   -198218.71   -198218.71   -198218.71 -1.3092712e-13 -1.9639069e-12 -1.1259733e-11    3.4885664    3.4885664    3.4885664    42.456186 
      81            0   -13.270812   -198008.52   -198008.52   -198008.52   -198008.52 -1.1263139e-11 2.0299843e-11 2.3835944e-11    3.4882147    3.4882147    3.4882147    42.443348 
      82            0   -13.272398   -197797.78   -197797.78   -197797.78   -197797.78 -2.1747053e-11 -2.3843155e-11 -1.0480508e-11    3.4878631    3.4878631    3.4878631    42.430512 
      83            0   -13.273981   -197586.49   -197586.49   -197586.49   -197586.49 1.4546104e-11 2.6340242e-11 1.8215391e-11    3.4875114    3.4875114    3.4875114    42.417679 
      84            0   -13.275562   -197374.65   -197374.65   -197374.65   -197374.65 1.0355765e-11 -8.2583948e-12 -1.9662845e-12    3.4871597    3.4871597    3.4871597    42.404849 
      85            0   -13.277142   -197162.25   -197162.25   -197162.25   -197162.25 7.8675179e-12 -1.8095291e-11 -2.202905e-11    3.4868081    3.4868081    3.4868081    42.392021 
      86            0   -13.278719    -196949.3    -196949.3    -196949.3    -196949.3 -1.9674747e-12 1.8363097e-12 1.6002128e-11    3.4864564    3.4864564    3.4864564    42.379195 
      87            0   -13.280295    -196735.8    -196735.8    -196735.8    -196735.8 7.6098714e-12 2.4535275e-11 1.7975041e-11    3.4861047    3.4861047    3.4861047    42.366373 
      88            0   -13.281868   -196521.74   -196521.74   -196521.74   -196521.74 -2.0474126e-11 3.9373318e-12 -1.1287018e-11     3.485753     3.485753     3.485753    42.353553 
      89            0   -13.283439   -196307.12   -196307.12   -196307.12   -196307.12 5.1200809e-12 7.7457634e-12 1.9430051e-11    3.4854014    3.4854014    3.4854014    42.340735 
      90            0   -13.285009   -196091.94   -196091.94   -196091.94   -196091.94 6.4348698e-12 -4.0710401e-12 -1.3526359e-11    3.4850497    3.4850497    3.4850497     42.32792 
      91            0   -13.286576   -195876.21   -195876.21   -195876.21   -195876.21   -7.225e-12 -1.8916364e-11    -2.89e-12     3.484698     3.484698     3.484698    42.315108 
      92            0   -13.288141   -195659.91   -195659.91   -195659.91   -195659.91 5.7817502e-12 3.6792956e-12 1.1432097e-11    3.4843464    3.4843464    3.4843464    42.302298 
      93            0   -13.289704   -195443.06   -195443.06   -195443.06   -195443.06 -5.7835012e-12 1.6956174e-11 1.9847925e-11    3.4839947    3.4839947    3.4839947    42.289491 
      94            0   -13.291265   -195225.64   -195225.64   -195225.64   -195225.64 9.2038115e-12 -2.7479951e-11 -1.9985419e-11     3.483643     3.483643     3.483643    42.276686 
      95            0   -13.292825   -195007.66   -195007.66   -195007.66   -195007.66 -8.5489851e-12 -4.4717768e-12 -4.6032997e-12    3.4832914    3.4832914    3.4832914    42.263884 
      96            0   -13.294382   -194789.12   -194789.12   -194789.12   -194789.12 1.0525015e-12 -1.5787523e-12 1.0525015e-11    3.4829397    3.4829397    3.4829397    42.251084 
      97            0   -13.295936   -194570.01   -194570.01   -194570.01   -194570.01 -1.4213075e-11 1.9740383e-11 1.5792306e-12     3.482588     3.482588     3.482588    42.238287 
      98            0   -13.297489   -194350.33   -194350.33   -194350.33   -194350.33 1.3427527e-11 2.2115928e-11 4.1599007e-11    3.4822363    3.4822363    3.4822363    42.225493 
      99            0    -13.29904   -194130.09   -194130.09   -194130.09   -194130.09 1.2641503e-11 -3.4237403e-11 -2.9760204e-11    3.4818847    3.4818847    3.4818847    42.212701 
     100            0   -13.300589   -193909.29   -193909.29   -193909.29   -193909.29 -2.1075556e-12 -1.1591556e-11            0     3.481533     3.481533     3.481533    42.199912 
Loop time of 0.0386178 on 1 procs for 100 steps with 4 atoms

4.2% CPU use with 1 MPI tasks x no OpenMP threads

Minimization stats:
  Stopping criterion = max iterations
  Energy initial, next-to-last, final = 
        -13.1360443281     -13.2990401857     -13.3005889205
  Force two-norm initial, final = 10.0302 8.93563
  Force max component initial, final = 5.79092 5.15899
  Final line search alpha, max atom move = 1.93577e-05 9.98661e-05
  Iterations, force evaluations = 100 100

MPI task timing breakdown:
Section |  min time  |  avg time  |  max time  |%varavg| %total
---------------------------------------------------------------
Pair    | 0.00097227 | 0.00097227 | 0.00097227 |   0.0 |  2.52
Neigh   | 0          | 0          | 0          |   0.0 |  0.00
Comm    | 0.00019765 | 0.00019765 | 0.00019765 |   0.0 |  0.51
Output  | 0.036784   | 0.036784   | 0.036784   |   0.0 | 95.25
Modify  | 0          | 0          | 0          |   0.0 |  0.00
Other   |            | 0.0006638  |            |       |  1.72

Nlocal:    4 ave 4 max 4 min
Histogram: 1 0 0 0 0 0 0 0 0 0
Nghost:    360 ave 360 max 360 min
Histogram: 1 0 0 0 0 0 0 0 0 0
Neighs:    156 ave 156 max 156 min
Histogram: 1 0 0 0 0 0 0 0 0 0

Total # of neighbors = 156
Ave neighs/atom = 39
Neighbor list builds = 0
Dangerous builds = 0

variable tmp equal pxx
variable pxx0 equal ${tmp}
variable pxx0 equal -193909.287541148
variable tmp equal pyy
variable pyy0 equal ${tmp}
variable pyy0 equal -193909.287541149
variable tmp equal pzz
variable pzz0 equal ${tmp}
variable pzz0 equal -193909.287541148
variable tmp equal pyz
variable pyz0 equal ${tmp}
variable pyz0 equal 0
variable tmp equal pxz
variable pxz0 equal ${tmp}
variable pxz0 equal -1.15915558743487e-11
variable tmp equal pxy
variable pxy0 equal ${tmp}
variable pxy0 equal -2.10755561351795e-12

variable tmp equal lx
variable lx0 equal ${tmp}
variable lx0 equal 3.48153300000002
variable tmp equal ly
variable ly0 equal ${tmp}
variable ly0 equal 3.48153300000002
variable tmp equal lz
variable lz0 equal ${tmp}
variable lz0 equal 3.48153300000002

 # ---- define the derivatives w.r.t. strain components
variable d1 equal -(v_pxx1-${pxx0})/(v_delta/v_len0)*${cfac}
variable d1 equal -(v_pxx1--193909.287541148)/(v_delta/v_len0)*${cfac}
variable d1 equal -(v_pxx1--193909.287541148)/(v_delta/v_len0)*0.0001
variable d2 equal -(v_pyy1-${pyy0})/(v_delta/v_len0)*${cfac}
variable d2 equal -(v_pyy1--193909.287541149)/(v_delta/v_len0)*${cfac}
variable d2 equal -(v_pyy1--193909.287541149)/(v_delta/v_len0)*0.0001
variable d3 equal -(v_pzz1-${pzz0})/(v_delta/v_len0)*${cfac}
variable d3 equal -(v_pzz1--193909.287541148)/(v_delta/v_len0)*${cfac}
variable d3 equal -(v_pzz1--193909.287541148)/(v_delta/v_len0)*0.0001
variable d4 equal -(v_pyz1-${pyz0})/(v_delta/v_len0)*${cfac}
variable d4 equal -(v_pyz1-0)/(v_delta/v_len0)*${cfac}
variable d4 equal -(v_pyz1-0)/(v_delta/v_len0)*0.0001
variable d5 equal -(v_pxz1-${pxz0})/(v_delta/v_len0)*${cfac}
variable d5 equal -(v_pxz1--1.15915558743487e-11)/(v_delta/v_len0)*${cfac}
variable d5 equal -(v_pxz1--1.15915558743487e-11)/(v_delta/v_len0)*0.0001
variable d6 equal -(v_pxy1-${pxy0})/(v_delta/v_len0)*${cfac}
variable d6 equal -(v_pxy1--2.10755561351795e-12)/(v_delta/v_len0)*${cfac}
variable d6 equal -(v_pxy1--2.10755561351795e-12)/(v_delta/v_len0)*0.0001

# ---- write restart files
unfix 3
write_restart restart.equil
# ---- uxx Perturbation
variable dir equal 1
include displace.mod
# NOTE: This script should not need to be
# modified. See in.elastic for more info.
# Find which reference length to use

if "${dir} == 1" then    "variable len0 equal ${lx0}"
variable len0 equal ${lx0}
variable len0 equal 3.48153300000002
if "${dir} == 2" then    "variable len0 equal ${ly0}"
if "${dir} == 3" then    "variable len0 equal ${lz0}"
if "${dir} == 4" then    "variable len0 equal ${lz0}"
if "${dir} == 5" then    "variable len0 equal ${lz0}"
if "${dir} == 6" then    "variable len0 equal ${ly0}"

# Reset box and simulation parameters

clear
read_restart restart.equil remap
  triclinic box = (0.0175835 0.0175835 0.0175835) to (3.49912 3.49912 3.49912) with tilt (0 -0 0)
  1 by 1 by 1 MPI processor grid
  4 atoms
include potential.mod
mass 1 58.6934

group Ni type 1
4 atoms in group Ni

pair_style eam/alloy
pair_coeff * * /ufrc/phillpot/eragasa/pareto_optimization_3.5NN/rank_27/Ni_fcc.lmps_elastic/Ni.eam.alloy Ni

neighbor 1.0 bin
neigh_modify every 1 delay 0 check yes
thermo	1
thermo_style custom step temp pe press pxx pyy pzz pxy pxz pyz lx ly lz vol
thermo_modify norm no

# Negative deformation

variable delta equal -${up}*${len0}
variable delta equal -1e-06*${len0}
variable delta equal -1e-06*3.48153300000002
if "${dir} == 1" then    "change_box all x delta 0 ${delta} remap units box"
change_box all x delta 0 ${delta} remap units box
change_box all x delta 0 -3.48153300000002e-06 remap units box
  triclinic box = (0.0175835 0.0175835 0.0175835) to (3.49911 3.49912 3.49912) with tilt (0 -0 0)
if "${dir} == 2" then    "change_box all y delta 0 ${delta} remap units box"
if "${dir} == 3" then    "change_box all z delta 0 ${delta} remap units box"
if "${dir} == 4" then    "change_box all yz delta ${delta} remap units box"
if "${dir} == 5" then    "change_box all xz delta ${delta} remap units box"
if "${dir} == 6" then    "change_box all xy delta ${delta} remap units box"

# Relax atoms positions

minimize ${etol} ${ftol} ${maxiter} ${maxeval}
minimize 0 ${ftol} ${maxiter} ${maxeval}
minimize 0 1e-10 ${maxiter} ${maxeval}
minimize 0 1e-10 100 ${maxeval}
minimize 0 1e-10 100 1000
Neighbor list info ...
  update every 1 steps, delay 0 steps, check yes
  max neighbors/atom: 2000, page size: 100000
  master list distance cutoff = 5.64464
  ghost atom cutoff = 5.64464
  binsize = 2.82232, bins = 2 2 2
  1 neighbor lists, perpetual/occasional/extra = 1 0 0
  (1) pair eam/alloy, perpetual
      attributes: half, newton on
      pair build: half/bin/newton/tri
      stencil: half/bin/3d/newton/tri
      bin: standard
Per MPI rank memory allocation (min/avg/max) = 4.086 | 4.086 | 4.086 Mbytes
Step Temp PotEng Press Pxx Pyy Pzz Pxy Pxz Pyz Lx Ly Lz Volume 
     100            0   -13.300594   -193908.56    -193908.3   -193908.69   -193908.69 2.4236914e-11 1.5806683e-12 2.6607916e-11    3.4815295     3.481533     3.481533     42.19987 
     101            0   -13.300594   -193908.57   -193908.31    -193908.7    -193908.7 -2.3973469e-11 -1.3172236e-12 2.7661695e-11    3.4815295     3.481533     3.481533     42.19987 
     102            0   -13.300594   -193908.57   -193908.31    -193908.7    -193908.7 3.1613366e-12 -1.3699125e-11 1.9494909e-11    3.4815295     3.481533     3.481533     42.19987 
Loop time of 9.32217e-05 on 1 procs for 2 steps with 4 atoms

100.8% CPU use with 1 MPI tasks x no OpenMP threads

Minimization stats:
  Stopping criterion = force tolerance
  Energy initial, next-to-last, final = 
        -13.3005940279     -13.3005940594     -13.3005940594
  Force two-norm initial, final = 0.000746496 3.3467e-15
  Force max component initial, final = 0.000215495 1.65493e-15
  Final line search alpha, max atom move = 1 1.65493e-15
  Iterations, force evaluations = 2 4

MPI task timing breakdown:
Section |  min time  |  avg time  |  max time  |%varavg| %total
---------------------------------------------------------------
Pair    | 5.2929e-05 | 5.2929e-05 | 5.2929e-05 |   0.0 | 56.78
Neigh   | 0          | 0          | 0          |   0.0 |  0.00
Comm    | 1.2159e-05 | 1.2159e-05 | 1.2159e-05 |   0.0 | 13.04
Output  | 1.2875e-05 | 1.2875e-05 | 1.2875e-05 |   0.0 | 13.81
Modify  | 0          | 0          | 0          |   0.0 |  0.00
Other   |            | 1.526e-05  |            |       | 16.37

Nlocal:    4 ave 4 max 4 min
Histogram: 1 0 0 0 0 0 0 0 0 0
Nghost:    360 ave 360 max 360 min
Histogram: 1 0 0 0 0 0 0 0 0 0
Neighs:    156 ave 156 max 156 min
Histogram: 1 0 0 0 0 0 0 0 0 0

Total # of neighbors = 156
Ave neighs/atom = 39
Neighbor list builds = 0
Dangerous builds = 0

# Obtain new stress tensor

variable tmp equal pxx
variable pxx1 equal ${tmp}
variable pxx1 equal -193908.305705616
variable tmp equal pyy
variable pyy1 equal ${tmp}
variable pyy1 equal -193908.695412377
variable tmp equal pzz
variable pzz1 equal ${tmp}
variable pzz1 equal -193908.695412377
variable tmp equal pxy
variable pxy1 equal ${tmp}
variable pxy1 equal 3.1613365816135e-12
variable tmp equal pxz
variable pxz1 equal ${tmp}
variable pxz1 equal -1.36991251869918e-11
variable tmp equal pyz
variable pyz1 equal ${tmp}
variable pyz1 equal 1.94949089199499e-11

# Compute elastic constant from pressure tensor

variable C1neg equal ${d1}
variable C1neg equal 98.1835532002151
variable C2neg equal ${d2}
variable C2neg equal 59.2128771997523
variable C3neg equal ${d3}
variable C3neg equal 59.2128770978888
variable C4neg equal ${d4}
variable C4neg equal 1.94949089199499e-09
variable C5neg equal ${d5}
variable C5neg equal -2.1075693126431e-10
variable C6neg equal ${d6}
variable C6neg equal 5.26889219513145e-10

# Reset box and simulation parameters

clear
read_restart restart.equil remap
  triclinic box = (0.0175835 0.0175835 0.0175835) to (3.49912 3.49912 3.49912) with tilt (0 -0 0)
  1 by 1 by 1 MPI processor grid
  4 atoms
include potential.mod
mass 1 58.6934

group Ni type 1
4 atoms in group Ni

pair_style eam/alloy
pair_coeff * * /ufrc/phillpot/eragasa/pareto_optimization_3.5NN/rank_27/Ni_fcc.lmps_elastic/Ni.eam.alloy Ni

neighbor 1.0 bin
neigh_modify every 1 delay 0 check yes
thermo	1
thermo_style custom step temp pe press pxx pyy pzz pxy pxz pyz lx ly lz vol
thermo_modify norm no

# Positive deformation

variable delta equal ${up}*${len0}
variable delta equal 1e-06*${len0}
variable delta equal 1e-06*3.48153300000002
if "${dir} == 1" then    "change_box all x delta 0 ${delta} remap units box"
change_box all x delta 0 ${delta} remap units box
change_box all x delta 0 3.48153300000002e-06 remap units box
  triclinic box = (0.0175835 0.0175835 0.0175835) to (3.49912 3.49912 3.49912) with tilt (0 -0 0)
if "${dir} == 2" then    "change_box all y delta 0 ${delta} remap units box"
if "${dir} == 3" then    "change_box all z delta 0 ${delta} remap units box"
if "${dir} == 4" then    "change_box all yz delta ${delta} remap units box"
if "${dir} == 5" then    "change_box all xz delta ${delta} remap units box"
if "${dir} == 6" then    "change_box all xy delta ${delta} remap units box"

# Relax atoms positions

minimize ${etol} ${ftol} ${maxiter} ${maxeval}
minimize 0 ${ftol} ${maxiter} ${maxeval}
minimize 0 1e-10 ${maxiter} ${maxeval}
minimize 0 1e-10 100 ${maxeval}
minimize 0 1e-10 100 1000
Neighbor list info ...
  update every 1 steps, delay 0 steps, check yes
  max neighbors/atom: 2000, page size: 100000
  master list distance cutoff = 5.64464
  ghost atom cutoff = 5.64464
  binsize = 2.82232, bins = 2 2 2
  1 neighbor lists, perpetual/occasional/extra = 1 0 0
  (1) pair eam/alloy, perpetual
      attributes: half, newton on
      pair build: half/bin/newton/tri
      stencil: half/bin/3d/newton/tri
      bin: standard
Per MPI rank memory allocation (min/avg/max) = 4.086 | 4.086 | 4.086 Mbytes
Step Temp PotEng Press Pxx Pyy Pzz Pxy Pxz Pyz Lx Ly Lz Volume 
     100            0   -13.300584   -193910.02   -193910.28   -193909.89   -193909.89 3.1613303e-12 2.3446533e-11 2.7925084e-11    3.4815365     3.481533     3.481533    42.199954 
     101            0   -13.300584   -193910.02   -193910.28   -193909.89   -193909.89 -1.0537768e-12 6.0592163e-12 9.747435e-12    3.4815365     3.481533     3.481533    42.199954 
     102            0   -13.300584   -193910.02   -193910.28   -193909.89   -193909.89 4.4785512e-12 -2.4763754e-11 -7.1129931e-12    3.4815365     3.481533     3.481533    42.199954 
Loop time of 9.08375e-05 on 1 procs for 2 steps with 4 atoms

77.1% CPU use with 1 MPI tasks x no OpenMP threads

Minimization stats:
  Stopping criterion = force tolerance
  Energy initial, next-to-last, final = 
        -13.3005838131     -13.3005838446     -13.3005838446
  Force two-norm initial, final = 0.000746486 1.65662e-15
  Force max component initial, final = 0.000215492 8.04912e-16
  Final line search alpha, max atom move = 1 8.04912e-16
  Iterations, force evaluations = 2 4

MPI task timing breakdown:
Section |  min time  |  avg time  |  max time  |%varavg| %total
---------------------------------------------------------------
Pair    | 5.4359e-05 | 5.4359e-05 | 5.4359e-05 |   0.0 | 59.84
Neigh   | 0          | 0          | 0          |   0.0 |  0.00
Comm    | 8.5831e-06 | 8.5831e-06 | 8.5831e-06 |   0.0 |  9.45
Output  | 1.0014e-05 | 1.0014e-05 | 1.0014e-05 |   0.0 | 11.02
Modify  | 0          | 0          | 0          |   0.0 |  0.00
Other   |            | 1.788e-05  |            |       | 19.69

Nlocal:    4 ave 4 max 4 min
Histogram: 1 0 0 0 0 0 0 0 0 0
Nghost:    360 ave 360 max 360 min
Histogram: 1 0 0 0 0 0 0 0 0 0
Neighs:    156 ave 156 max 156 min
Histogram: 1 0 0 0 0 0 0 0 0 0

Total # of neighbors = 156
Ave neighs/atom = 39
Neighbor list builds = 0
Dangerous builds = 0

# Obtain new stress tensor

variable tmp equal pe
variable e1 equal ${tmp}
variable e1 equal -13.3005838446129
variable tmp equal press
variable p1 equal ${tmp}
variable p1 equal -193910.024711992
variable tmp equal pxx
variable pxx1 equal ${tmp}
variable pxx1 equal -193910.284515667
variable tmp equal pyy
variable pyy1 equal ${tmp}
variable pyy1 equal -193909.894810155
variable tmp equal pzz
variable pzz1 equal ${tmp}
variable pzz1 equal -193909.894810155
variable tmp equal pxy
variable pxy1 equal ${tmp}
variable pxy1 equal 4.47855120017444e-12
variable tmp equal pxz
variable pxz1 equal ${tmp}
variable pxz1 equal -2.47637536950822e-11
variable tmp equal pyz
variable pyz1 equal ${tmp}
variable pyz1 equal -7.11299308262999e-12

# Compute elastic constant from pressure tensor

variable C1pos equal ${d1}
variable C1pos equal 99.6974519017385
variable C2pos equal ${d2}
variable C2pos equal 60.7269005995477
variable C3pos equal ${d3}
variable C3pos equal 60.7269007014111
variable C4pos equal ${d4}
variable C4pos equal 7.11299308262999e-10
variable C5pos equal ${d5}
variable C5pos equal 1.31721978207335e-09
variable C6pos equal ${d6}
variable C6pos equal -6.58610681369239e-10

# Combine positive and negative

variable C1${dir} equal 0.5*(${C1neg}+${C1pos})
variable C11 equal 0.5*(${C1neg}+${C1pos})
variable C11 equal 0.5*(98.1835532002151+${C1pos})
variable C11 equal 0.5*(98.1835532002151+99.6974519017385)
variable C2${dir} equal 0.5*(${C2neg}+${C2pos})
variable C21 equal 0.5*(${C2neg}+${C2pos})
variable C21 equal 0.5*(59.2128771997523+${C2pos})
variable C21 equal 0.5*(59.2128771997523+60.7269005995477)
variable C3${dir} equal 0.5*(${C3neg}+${C3pos})
variable C31 equal 0.5*(${C3neg}+${C3pos})
variable C31 equal 0.5*(59.2128770978888+${C3pos})
variable C31 equal 0.5*(59.2128770978888+60.7269007014111)
variable C4${dir} equal 0.5*(${C4neg}+${C4pos})
variable C41 equal 0.5*(${C4neg}+${C4pos})
variable C41 equal 0.5*(1.94949089199499e-09+${C4pos})
variable C41 equal 0.5*(1.94949089199499e-09+7.11299308262999e-10)
variable C5${dir} equal 0.5*(${C5neg}+${C5pos})
variable C51 equal 0.5*(${C5neg}+${C5pos})
variable C51 equal 0.5*(-2.1075693126431e-10+${C5pos})
variable C51 equal 0.5*(-2.1075693126431e-10+1.31721978207335e-09)
variable C6${dir} equal 0.5*(${C6neg}+${C6pos})
variable C61 equal 0.5*(${C6neg}+${C6pos})
variable C61 equal 0.5*(5.26889219513145e-10+${C6pos})
variable C61 equal 0.5*(5.26889219513145e-10+-6.58610681369239e-10)

# Delete dir to make sure it is not reused

variable dir delete
# ---- uyy Perturbation
variable dir equal 2
include displace.mod
# NOTE: This script should not need to be
# modified. See in.elastic for more info.
# Find which reference length to use

if "${dir} == 1" then    "variable len0 equal ${lx0}"
if "${dir} == 2" then    "variable len0 equal ${ly0}"
variable len0 equal ${ly0}
variable len0 equal 3.48153300000002
if "${dir} == 3" then    "variable len0 equal ${lz0}"
if "${dir} == 4" then    "variable len0 equal ${lz0}"
if "${dir} == 5" then    "variable len0 equal ${lz0}"
if "${dir} == 6" then    "variable len0 equal ${ly0}"

# Reset box and simulation parameters

clear
read_restart restart.equil remap
  triclinic box = (0.0175835 0.0175835 0.0175835) to (3.49912 3.49912 3.49912) with tilt (0 -0 0)
  1 by 1 by 1 MPI processor grid
  4 atoms
include potential.mod
mass 1 58.6934

group Ni type 1
4 atoms in group Ni

pair_style eam/alloy
pair_coeff * * /ufrc/phillpot/eragasa/pareto_optimization_3.5NN/rank_27/Ni_fcc.lmps_elastic/Ni.eam.alloy Ni

neighbor 1.0 bin
neigh_modify every 1 delay 0 check yes
thermo	1
thermo_style custom step temp pe press pxx pyy pzz pxy pxz pyz lx ly lz vol
thermo_modify norm no

# Negative deformation

variable delta equal -${up}*${len0}
variable delta equal -1e-06*${len0}
variable delta equal -1e-06*3.48153300000002
if "${dir} == 1" then    "change_box all x delta 0 ${delta} remap units box"
if "${dir} == 2" then    "change_box all y delta 0 ${delta} remap units box"
change_box all y delta 0 ${delta} remap units box
change_box all y delta 0 -3.48153300000002e-06 remap units box
  triclinic box = (0.0175835 0.0175835 0.0175835) to (3.49912 3.49911 3.49912) with tilt (0 -0 0)
if "${dir} == 3" then    "change_box all z delta 0 ${delta} remap units box"
if "${dir} == 4" then    "change_box all yz delta ${delta} remap units box"
if "${dir} == 5" then    "change_box all xz delta ${delta} remap units box"
if "${dir} == 6" then    "change_box all xy delta ${delta} remap units box"

# Relax atoms positions

minimize ${etol} ${ftol} ${maxiter} ${maxeval}
minimize 0 ${ftol} ${maxiter} ${maxeval}
minimize 0 1e-10 ${maxiter} ${maxeval}
minimize 0 1e-10 100 ${maxeval}
minimize 0 1e-10 100 1000
Neighbor list info ...
  update every 1 steps, delay 0 steps, check yes
  max neighbors/atom: 2000, page size: 100000
  master list distance cutoff = 5.64464
  ghost atom cutoff = 5.64464
  binsize = 2.82232, bins = 2 2 2
  1 neighbor lists, perpetual/occasional/extra = 1 0 0
  (1) pair eam/alloy, perpetual
      attributes: half, newton on
      pair build: half/bin/newton/tri
      stencil: half/bin/3d/newton/tri
      bin: standard
Per MPI rank memory allocation (min/avg/max) = 4.086 | 4.086 | 4.086 Mbytes
Step Temp PotEng Press Pxx Pyy Pzz Pxy Pxz Pyz Lx Ly Lz Volume 
     100            0   -13.300594   -193908.56   -193908.69    -193908.3   -193908.69 5.4269611e-11 3.1613366e-11 1.0274344e-11     3.481533    3.4815295     3.481533     42.19987 
     101            0   -13.300594   -193908.57    -193908.7   -193908.31    -193908.7 -1.2118457e-11 2.2129356e-11 -3.3194034e-11     3.481533    3.4815295     3.481533     42.19987 
     102            0   -13.300594   -193908.57    -193908.7   -193908.31    -193908.7 -2.6344472e-12 -3.0823032e-11 -4.3995267e-11     3.481533    3.4815295     3.481533     42.19987 
Loop time of 8.58307e-05 on 1 procs for 2 steps with 4 atoms

79.2% CPU use with 1 MPI tasks x no OpenMP threads

Minimization stats:
  Stopping criterion = force tolerance
  Energy initial, next-to-last, final = 
        -13.3005940279     -13.3005940594     -13.3005940594
  Force two-norm initial, final = 0.000746496 3.09635e-15
  Force max component initial, final = 0.000215495 1.69829e-15
  Final line search alpha, max atom move = 1 1.69829e-15
  Iterations, force evaluations = 2 4

MPI task timing breakdown:
Section |  min time  |  avg time  |  max time  |%varavg| %total
---------------------------------------------------------------
Pair    | 4.9829e-05 | 4.9829e-05 | 4.9829e-05 |   0.0 | 58.06
Neigh   | 0          | 0          | 0          |   0.0 |  0.00
Comm    | 9.7752e-06 | 9.7752e-06 | 9.7752e-06 |   0.0 | 11.39
Output  | 1.0014e-05 | 1.0014e-05 | 1.0014e-05 |   0.0 | 11.67
Modify  | 0          | 0          | 0          |   0.0 |  0.00
Other   |            | 1.621e-05  |            |       | 18.89

Nlocal:    4 ave 4 max 4 min
Histogram: 1 0 0 0 0 0 0 0 0 0
Nghost:    360 ave 360 max 360 min
Histogram: 1 0 0 0 0 0 0 0 0 0
Neighs:    156 ave 156 max 156 min
Histogram: 1 0 0 0 0 0 0 0 0 0

Total # of neighbors = 156
Ave neighs/atom = 39
Neighbor list builds = 0
Dangerous builds = 0

# Obtain new stress tensor

variable tmp equal pxx
variable pxx1 equal ${tmp}
variable pxx1 equal -193908.695412377
variable tmp equal pyy
variable pyy1 equal ${tmp}
variable pyy1 equal -193908.305705616
variable tmp equal pzz
variable pzz1 equal ${tmp}
variable pzz1 equal -193908.695412377
variable tmp equal pxy
variable pxy1 equal ${tmp}
variable pxy1 equal -2.63444715134458e-12
variable tmp equal pxz
variable pxz1 equal ${tmp}
variable pxz1 equal -3.08230316707316e-11
variable tmp equal pyz
variable pyz1 equal ${tmp}
variable pyz1 equal -4.39952674274546e-11

# Compute elastic constant from pressure tensor

variable C1neg equal ${d1}
variable C1neg equal 59.2128770978888
variable C2neg equal ${d2}
variable C2neg equal 98.1835533020785
variable C3neg equal ${d3}
variable C3neg equal 59.2128770978888
variable C4neg equal ${d4}
variable C4neg equal -4.39952674274546e-09
variable C5neg equal ${d5}
variable C5neg equal -1.92314757963829e-09
variable C6neg equal ${d6}
variable C6neg equal -5.2689153782663e-11

# Reset box and simulation parameters

clear
read_restart restart.equil remap
  triclinic box = (0.0175835 0.0175835 0.0175835) to (3.49912 3.49912 3.49912) with tilt (0 -0 0)
  1 by 1 by 1 MPI processor grid
  4 atoms
include potential.mod
mass 1 58.6934

group Ni type 1
4 atoms in group Ni

pair_style eam/alloy
pair_coeff * * /ufrc/phillpot/eragasa/pareto_optimization_3.5NN/rank_27/Ni_fcc.lmps_elastic/Ni.eam.alloy Ni

neighbor 1.0 bin
neigh_modify every 1 delay 0 check yes
thermo	1
thermo_style custom step temp pe press pxx pyy pzz pxy pxz pyz lx ly lz vol
thermo_modify norm no

# Positive deformation

variable delta equal ${up}*${len0}
variable delta equal 1e-06*${len0}
variable delta equal 1e-06*3.48153300000002
if "${dir} == 1" then    "change_box all x delta 0 ${delta} remap units box"
if "${dir} == 2" then    "change_box all y delta 0 ${delta} remap units box"
change_box all y delta 0 ${delta} remap units box
change_box all y delta 0 3.48153300000002e-06 remap units box
  triclinic box = (0.0175835 0.0175835 0.0175835) to (3.49912 3.49912 3.49912) with tilt (0 -0 0)
if "${dir} == 3" then    "change_box all z delta 0 ${delta} remap units box"
if "${dir} == 4" then    "change_box all yz delta ${delta} remap units box"
if "${dir} == 5" then    "change_box all xz delta ${delta} remap units box"
if "${dir} == 6" then    "change_box all xy delta ${delta} remap units box"

# Relax atoms positions

minimize ${etol} ${ftol} ${maxiter} ${maxeval}
minimize 0 ${ftol} ${maxiter} ${maxeval}
minimize 0 1e-10 ${maxiter} ${maxeval}
minimize 0 1e-10 100 ${maxeval}
minimize 0 1e-10 100 1000
Neighbor list info ...
  update every 1 steps, delay 0 steps, check yes
  max neighbors/atom: 2000, page size: 100000
  master list distance cutoff = 5.64464
  ghost atom cutoff = 5.64464
  binsize = 2.82232, bins = 2 2 2
  1 neighbor lists, perpetual/occasional/extra = 1 0 0
  (1) pair eam/alloy, perpetual
      attributes: half, newton on
      pair build: half/bin/newton/tri
      stencil: half/bin/3d/newton/tri
      bin: standard
Per MPI rank memory allocation (min/avg/max) = 4.086 | 4.086 | 4.086 Mbytes
Step Temp PotEng Press Pxx Pyy Pzz Pxy Pxz Pyz Lx Ly Lz Volume 
     100            0   -13.300584   -193910.02   -193909.89   -193910.28   -193909.89 1.949487e-11 2.9242305e-11 1.2908765e-11     3.481533    3.4815365     3.481533    42.199954 
     101            0   -13.300584   -193910.02   -193909.89   -193910.28   -193909.89 -1.0537768e-11 2.1338979e-11 1.0274323e-11     3.481533    3.4815365     3.481533    42.199954 
     102            0   -13.300584   -193910.02   -193909.89   -193910.28   -193909.89 2.0285202e-11 -8.9571024e-12 -2.1602423e-11     3.481533    3.4815365     3.481533    42.199954 
Loop time of 8.70228e-05 on 1 procs for 2 steps with 4 atoms

81.6% CPU use with 1 MPI tasks x no OpenMP threads

Minimization stats:
  Stopping criterion = force tolerance
  Energy initial, next-to-last, final = 
        -13.3005838131     -13.3005838446     -13.3005838446
  Force two-norm initial, final = 0.000746486 3.52851e-15
  Force max component initial, final = 0.000215492 2.10942e-15
  Final line search alpha, max atom move = 1 2.10942e-15
  Iterations, force evaluations = 2 4

MPI task timing breakdown:
Section |  min time  |  avg time  |  max time  |%varavg| %total
---------------------------------------------------------------
Pair    | 5.1022e-05 | 5.1022e-05 | 5.1022e-05 |   0.0 | 58.63
Neigh   | 0          | 0          | 0          |   0.0 |  0.00
Comm    | 1.0014e-05 | 1.0014e-05 | 1.0014e-05 |   0.0 | 11.51
Output  | 9.0599e-06 | 9.0599e-06 | 9.0599e-06 |   0.0 | 10.41
Modify  | 0          | 0          | 0          |   0.0 |  0.00
Other   |            | 1.693e-05  |            |       | 19.45

Nlocal:    4 ave 4 max 4 min
Histogram: 1 0 0 0 0 0 0 0 0 0
Nghost:    360 ave 360 max 360 min
Histogram: 1 0 0 0 0 0 0 0 0 0
Neighs:    156 ave 156 max 156 min
Histogram: 1 0 0 0 0 0 0 0 0 0

Total # of neighbors = 156
Ave neighs/atom = 39
Neighbor list builds = 0
Dangerous builds = 0

# Obtain new stress tensor

variable tmp equal pe
variable e1 equal ${tmp}
variable e1 equal -13.3005838446129
variable tmp equal press
variable p1 equal ${tmp}
variable p1 equal -193910.024711992
variable tmp equal pxx
variable pxx1 equal ${tmp}
variable pxx1 equal -193909.894810155
variable tmp equal pyy
variable pyy1 equal ${tmp}
variable pyy1 equal -193910.284515667
variable tmp equal pzz
variable pzz1 equal ${tmp}
variable pzz1 equal -193909.894810155
variable tmp equal pxy
variable pxy1 equal ${tmp}
variable pxy1 equal 2.02852024949077e-11
variable tmp equal pxz
variable pxz1 equal ${tmp}
variable pxz1 equal -8.95710240034887e-12
variable tmp equal pyz
variable pyz1 equal ${tmp}
variable pyz1 equal -2.16024234361355e-11

# Compute elastic constant from pressure tensor

variable C1pos equal ${d1}
variable C1pos equal 60.7269007014111
variable C2pos equal ${d2}
variable C2pos equal 99.6974517998751
variable C3pos equal ${d3}
variable C3pos equal 60.7269007014111
variable C4pos equal ${d4}
variable C4pos equal 2.16024234361355e-09
variable C5pos equal ${d5}
variable C5pos equal -2.63445347399983e-10
variable C6pos equal ${d6}
variable C6pos equal -2.23927581084257e-09

# Combine positive and negative

variable C1${dir} equal 0.5*(${C1neg}+${C1pos})
variable C12 equal 0.5*(${C1neg}+${C1pos})
variable C12 equal 0.5*(59.2128770978888+${C1pos})
variable C12 equal 0.5*(59.2128770978888+60.7269007014111)
variable C2${dir} equal 0.5*(${C2neg}+${C2pos})
variable C22 equal 0.5*(${C2neg}+${C2pos})
variable C22 equal 0.5*(98.1835533020785+${C2pos})
variable C22 equal 0.5*(98.1835533020785+99.6974517998751)
variable C3${dir} equal 0.5*(${C3neg}+${C3pos})
variable C32 equal 0.5*(${C3neg}+${C3pos})
variable C32 equal 0.5*(59.2128770978888+${C3pos})
variable C32 equal 0.5*(59.2128770978888+60.7269007014111)
variable C4${dir} equal 0.5*(${C4neg}+${C4pos})
variable C42 equal 0.5*(${C4neg}+${C4pos})
variable C42 equal 0.5*(-4.39952674274546e-09+${C4pos})
variable C42 equal 0.5*(-4.39952674274546e-09+2.16024234361355e-09)
variable C5${dir} equal 0.5*(${C5neg}+${C5pos})
variable C52 equal 0.5*(${C5neg}+${C5pos})
variable C52 equal 0.5*(-1.92314757963829e-09+${C5pos})
variable C52 equal 0.5*(-1.92314757963829e-09+-2.63445347399983e-10)
variable C6${dir} equal 0.5*(${C6neg}+${C6pos})
variable C62 equal 0.5*(${C6neg}+${C6pos})
variable C62 equal 0.5*(-5.2689153782663e-11+${C6pos})
variable C62 equal 0.5*(-5.2689153782663e-11+-2.23927581084257e-09)

# Delete dir to make sure it is not reused

variable dir delete
# ---- uzz Perturbation
variable dir equal 3
include displace.mod
# NOTE: This script should not need to be
# modified. See in.elastic for more info.
# Find which reference length to use

if "${dir} == 1" then    "variable len0 equal ${lx0}"
if "${dir} == 2" then    "variable len0 equal ${ly0}"
if "${dir} == 3" then    "variable len0 equal ${lz0}"
variable len0 equal ${lz0}
variable len0 equal 3.48153300000002
if "${dir} == 4" then    "variable len0 equal ${lz0}"
if "${dir} == 5" then    "variable len0 equal ${lz0}"
if "${dir} == 6" then    "variable len0 equal ${ly0}"

# Reset box and simulation parameters

clear
read_restart restart.equil remap
  triclinic box = (0.0175835 0.0175835 0.0175835) to (3.49912 3.49912 3.49912) with tilt (0 -0 0)
  1 by 1 by 1 MPI processor grid
  4 atoms
include potential.mod
mass 1 58.6934

group Ni type 1
4 atoms in group Ni

pair_style eam/alloy
pair_coeff * * /ufrc/phillpot/eragasa/pareto_optimization_3.5NN/rank_27/Ni_fcc.lmps_elastic/Ni.eam.alloy Ni

neighbor 1.0 bin
neigh_modify every 1 delay 0 check yes
thermo	1
thermo_style custom step temp pe press pxx pyy pzz pxy pxz pyz lx ly lz vol
thermo_modify norm no

# Negative deformation

variable delta equal -${up}*${len0}
variable delta equal -1e-06*${len0}
variable delta equal -1e-06*3.48153300000002
if "${dir} == 1" then    "change_box all x delta 0 ${delta} remap units box"
if "${dir} == 2" then    "change_box all y delta 0 ${delta} remap units box"
if "${dir} == 3" then    "change_box all z delta 0 ${delta} remap units box"
change_box all z delta 0 ${delta} remap units box
change_box all z delta 0 -3.48153300000002e-06 remap units box
  triclinic box = (0.0175835 0.0175835 0.0175835) to (3.49912 3.49912 3.49911) with tilt (0 -0 0)
if "${dir} == 4" then    "change_box all yz delta ${delta} remap units box"
if "${dir} == 5" then    "change_box all xz delta ${delta} remap units box"
if "${dir} == 6" then    "change_box all xy delta ${delta} remap units box"

# Relax atoms positions

minimize ${etol} ${ftol} ${maxiter} ${maxeval}
minimize 0 ${ftol} ${maxiter} ${maxeval}
minimize 0 1e-10 ${maxiter} ${maxeval}
minimize 0 1e-10 100 ${maxeval}
minimize 0 1e-10 100 1000
Neighbor list info ...
  update every 1 steps, delay 0 steps, check yes
  max neighbors/atom: 2000, page size: 100000
  master list distance cutoff = 5.64464
  ghost atom cutoff = 5.64464
  binsize = 2.82232, bins = 2 2 2
  1 neighbor lists, perpetual/occasional/extra = 1 0 0
  (1) pair eam/alloy, perpetual
      attributes: half, newton on
      pair build: half/bin/newton/tri
      stencil: half/bin/3d/newton/tri
      bin: standard
Per MPI rank memory allocation (min/avg/max) = 4.086 | 4.086 | 4.086 Mbytes
Step Temp PotEng Press Pxx Pyy Pzz Pxy Pxz Pyz Lx Ly Lz Volume 
     100            0   -13.300594   -193908.56   -193908.69   -193908.69    -193908.3 5.4533056e-11 4.5575936e-11 4.7946938e-11     3.481533     3.481533    3.4815295     42.19987 
     101            0   -13.300594   -193908.57    -193908.7    -193908.7   -193908.31 -6.5861179e-12 1.7650796e-11 9.4840097e-12     3.481533     3.481533    3.4815295     42.19987 
     102            0   -13.300594   -193908.57    -193908.7    -193908.7   -193908.31 3.688226e-12 1.0537789e-12 3.0559587e-11     3.481533     3.481533    3.4815295     42.19987 
Loop time of 8.60691e-05 on 1 procs for 2 steps with 4 atoms

86.0% CPU use with 1 MPI tasks x no OpenMP threads

Minimization stats:
  Stopping criterion = force tolerance
  Energy initial, next-to-last, final = 
        -13.3005940279     -13.3005940594     -13.3005940594
  Force two-norm initial, final = 0.000746496 3.81261e-15
  Force max component initial, final = 0.000215495 2.04871e-15
  Final line search alpha, max atom move = 1 2.04871e-15
  Iterations, force evaluations = 2 4

MPI task timing breakdown:
Section |  min time  |  avg time  |  max time  |%varavg| %total
---------------------------------------------------------------
Pair    | 5.0545e-05 | 5.0545e-05 | 5.0545e-05 |   0.0 | 58.73
Neigh   | 0          | 0          | 0          |   0.0 |  0.00
Comm    | 1.0729e-05 | 1.0729e-05 | 1.0729e-05 |   0.0 | 12.47
Output  | 1.0014e-05 | 1.0014e-05 | 1.0014e-05 |   0.0 | 11.63
Modify  | 0          | 0          | 0          |   0.0 |  0.00
Other   |            | 1.478e-05  |            |       | 17.17

Nlocal:    4 ave 4 max 4 min
Histogram: 1 0 0 0 0 0 0 0 0 0
Nghost:    360 ave 360 max 360 min
Histogram: 1 0 0 0 0 0 0 0 0 0
Neighs:    156 ave 156 max 156 min
Histogram: 1 0 0 0 0 0 0 0 0 0

Total # of neighbors = 156
Ave neighs/atom = 39
Neighbor list builds = 0
Dangerous builds = 0

# Obtain new stress tensor

variable tmp equal pxx
variable pxx1 equal ${tmp}
variable pxx1 equal -193908.695412377
variable tmp equal pyy
variable pyy1 equal ${tmp}
variable pyy1 equal -193908.695412377
variable tmp equal pzz
variable pzz1 equal ${tmp}
variable pzz1 equal -193908.305705616
variable tmp equal pxy
variable pxy1 equal ${tmp}
variable pxy1 equal 3.68822601188242e-12
variable tmp equal pxz
variable pxz1 equal ${tmp}
variable pxz1 equal 1.05377886053783e-12
variable tmp equal pyz
variable pyz1 equal ${tmp}
variable pyz1 equal 3.05595869555972e-11

# Compute elastic constant from pressure tensor

variable C1neg equal ${d1}
variable C1neg equal 59.2128770978888
variable C2neg equal ${d2}
variable C2neg equal 59.2128771997523
variable C3neg equal ${d3}
variable C3neg equal 98.1835532002151
variable C4neg equal ${d4}
variable C4neg equal 3.05595869555972e-09
variable C5neg equal ${d5}
variable C5neg equal 1.26453347348865e-09
variable C6neg equal ${d6}
variable C6neg equal 5.79578162540037e-10

# Reset box and simulation parameters

clear
read_restart restart.equil remap
  triclinic box = (0.0175835 0.0175835 0.0175835) to (3.49912 3.49912 3.49912) with tilt (0 -0 0)
  1 by 1 by 1 MPI processor grid
  4 atoms
include potential.mod
mass 1 58.6934

group Ni type 1
4 atoms in group Ni

pair_style eam/alloy
pair_coeff * * /ufrc/phillpot/eragasa/pareto_optimization_3.5NN/rank_27/Ni_fcc.lmps_elastic/Ni.eam.alloy Ni

neighbor 1.0 bin
neigh_modify every 1 delay 0 check yes
thermo	1
thermo_style custom step temp pe press pxx pyy pzz pxy pxz pyz lx ly lz vol
thermo_modify norm no

# Positive deformation

variable delta equal ${up}*${len0}
variable delta equal 1e-06*${len0}
variable delta equal 1e-06*3.48153300000002
if "${dir} == 1" then    "change_box all x delta 0 ${delta} remap units box"
if "${dir} == 2" then    "change_box all y delta 0 ${delta} remap units box"
if "${dir} == 3" then    "change_box all z delta 0 ${delta} remap units box"
change_box all z delta 0 ${delta} remap units box
change_box all z delta 0 3.48153300000002e-06 remap units box
  triclinic box = (0.0175835 0.0175835 0.0175835) to (3.49912 3.49912 3.49912) with tilt (0 -0 0)
if "${dir} == 4" then    "change_box all yz delta ${delta} remap units box"
if "${dir} == 5" then    "change_box all xz delta ${delta} remap units box"
if "${dir} == 6" then    "change_box all xy delta ${delta} remap units box"

# Relax atoms positions

minimize ${etol} ${ftol} ${maxiter} ${maxeval}
minimize 0 ${ftol} ${maxiter} ${maxeval}
minimize 0 1e-10 ${maxiter} ${maxeval}
minimize 0 1e-10 100 ${maxeval}
minimize 0 1e-10 100 1000
Neighbor list info ...
  update every 1 steps, delay 0 steps, check yes
  max neighbors/atom: 2000, page size: 100000
  master list distance cutoff = 5.64464
  ghost atom cutoff = 5.64464
  binsize = 2.82232, bins = 2 2 2
  1 neighbor lists, perpetual/occasional/extra = 1 0 0
  (1) pair eam/alloy, perpetual
      attributes: half, newton on
      pair build: half/bin/newton/tri
      stencil: half/bin/3d/newton/tri
      bin: standard
Per MPI rank memory allocation (min/avg/max) = 4.086 | 4.086 | 4.086 Mbytes
Step Temp PotEng Press Pxx Pyy Pzz Pxy Pxz Pyz Lx Ly Lz Volume 
     100            0   -13.300584   -193910.02   -193909.89   -193909.89   -193910.28 5.4532947e-11 6.0065275e-11 6.2436273e-11     3.481533     3.481533    3.4815365    42.199954 
     101            0   -13.300584   -193910.02   -193909.89   -193909.89   -193910.28 2.5027198e-11 2.3446533e-11 2.9769193e-11     3.481533     3.481533    3.4815365    42.199954 
     102            0   -13.300584   -193910.02   -193909.89   -193909.89   -193910.28 -3.9516628e-12 -3.1613303e-12 4.5048956e-11     3.481533     3.481533    3.4815365    42.199954 
Loop time of 8.4877e-05 on 1 procs for 2 steps with 4 atoms

84.8% CPU use with 1 MPI tasks x no OpenMP threads

Minimization stats:
  Stopping criterion = force tolerance
  Energy initial, next-to-last, final = 
        -13.3005838131     -13.3005838446     -13.3005838446
  Force two-norm initial, final = 0.000746486 2.1052e-15
  Force max component initial, final = 0.000215492 1.11022e-15
  Final line search alpha, max atom move = 1 1.11022e-15
  Iterations, force evaluations = 2 4

MPI task timing breakdown:
Section |  min time  |  avg time  |  max time  |%varavg| %total
---------------------------------------------------------------
Pair    | 5.1975e-05 | 5.1975e-05 | 5.1975e-05 |   0.0 | 61.24
Neigh   | 0          | 0          | 0          |   0.0 |  0.00
Comm    | 9.7752e-06 | 9.7752e-06 | 9.7752e-06 |   0.0 | 11.52
Output  | 1.0014e-05 | 1.0014e-05 | 1.0014e-05 |   0.0 | 11.80
Modify  | 0          | 0          | 0          |   0.0 |  0.00
Other   |            | 1.311e-05  |            |       | 15.45

Nlocal:    4 ave 4 max 4 min
Histogram: 1 0 0 0 0 0 0 0 0 0
Nghost:    360 ave 360 max 360 min
Histogram: 1 0 0 0 0 0 0 0 0 0
Neighs:    156 ave 156 max 156 min
Histogram: 1 0 0 0 0 0 0 0 0 0

Total # of neighbors = 156
Ave neighs/atom = 39
Neighbor list builds = 0
Dangerous builds = 0

# Obtain new stress tensor

variable tmp equal pe
variable e1 equal ${tmp}
variable e1 equal -13.3005838446129
variable tmp equal press
variable p1 equal ${tmp}
variable p1 equal -193910.024711992
variable tmp equal pxx
variable pxx1 equal ${tmp}
variable pxx1 equal -193909.894810155
variable tmp equal pyy
variable pyy1 equal ${tmp}
variable pyy1 equal -193909.894810155
variable tmp equal pzz
variable pzz1 equal ${tmp}
variable pzz1 equal -193910.284515667
variable tmp equal pxy
variable pxy1 equal ${tmp}
variable pxy1 equal -3.95166282368333e-12
variable tmp equal pxz
variable pxz1 equal ${tmp}
variable pxz1 equal -3.16133025894666e-12
variable tmp equal pyz
variable pyz1 equal ${tmp}
variable pyz1 equal 4.50489561899899e-11

# Compute elastic constant from pressure tensor

variable C1pos equal ${d1}
variable C1pos equal 60.7269007014111
variable C2pos equal ${d2}
variable C2pos equal 60.7269005995477
variable C3pos equal ${d3}
variable C3pos equal 99.6974519017385
variable C4pos equal ${d4}
variable C4pos equal -4.50489561899899e-09
variable C5pos equal ${d5}
variable C5pos equal -8.43022561540204e-10
variable C6pos equal ${d6}
variable C6pos equal 1.84410721016538e-10

# Combine positive and negative

variable C1${dir} equal 0.5*(${C1neg}+${C1pos})
variable C13 equal 0.5*(${C1neg}+${C1pos})
variable C13 equal 0.5*(59.2128770978888+${C1pos})
variable C13 equal 0.5*(59.2128770978888+60.7269007014111)
variable C2${dir} equal 0.5*(${C2neg}+${C2pos})
variable C23 equal 0.5*(${C2neg}+${C2pos})
variable C23 equal 0.5*(59.2128771997523+${C2pos})
variable C23 equal 0.5*(59.2128771997523+60.7269005995477)
variable C3${dir} equal 0.5*(${C3neg}+${C3pos})
variable C33 equal 0.5*(${C3neg}+${C3pos})
variable C33 equal 0.5*(98.1835532002151+${C3pos})
variable C33 equal 0.5*(98.1835532002151+99.6974519017385)
variable C4${dir} equal 0.5*(${C4neg}+${C4pos})
variable C43 equal 0.5*(${C4neg}+${C4pos})
variable C43 equal 0.5*(3.05595869555972e-09+${C4pos})
variable C43 equal 0.5*(3.05595869555972e-09+-4.50489561899899e-09)
variable C5${dir} equal 0.5*(${C5neg}+${C5pos})
variable C53 equal 0.5*(${C5neg}+${C5pos})
variable C53 equal 0.5*(1.26453347348865e-09+${C5pos})
variable C53 equal 0.5*(1.26453347348865e-09+-8.43022561540204e-10)
variable C6${dir} equal 0.5*(${C6neg}+${C6pos})
variable C63 equal 0.5*(${C6neg}+${C6pos})
variable C63 equal 0.5*(5.79578162540037e-10+${C6pos})
variable C63 equal 0.5*(5.79578162540037e-10+1.84410721016538e-10)

# Delete dir to make sure it is not reused

variable dir delete
# ---- uyz Perturbation
variable dir equal 4
include displace.mod
# NOTE: This script should not need to be
# modified. See in.elastic for more info.
# Find which reference length to use

if "${dir} == 1" then    "variable len0 equal ${lx0}"
if "${dir} == 2" then    "variable len0 equal ${ly0}"
if "${dir} == 3" then    "variable len0 equal ${lz0}"
if "${dir} == 4" then    "variable len0 equal ${lz0}"
variable len0 equal ${lz0}
variable len0 equal 3.48153300000002
if "${dir} == 5" then    "variable len0 equal ${lz0}"
if "${dir} == 6" then    "variable len0 equal ${ly0}"

# Reset box and simulation parameters

clear
read_restart restart.equil remap
  triclinic box = (0.0175835 0.0175835 0.0175835) to (3.49912 3.49912 3.49912) with tilt (0 -0 0)
  1 by 1 by 1 MPI processor grid
  4 atoms
include potential.mod
mass 1 58.6934

group Ni type 1
4 atoms in group Ni

pair_style eam/alloy
pair_coeff * * /ufrc/phillpot/eragasa/pareto_optimization_3.5NN/rank_27/Ni_fcc.lmps_elastic/Ni.eam.alloy Ni

neighbor 1.0 bin
neigh_modify every 1 delay 0 check yes
thermo	1
thermo_style custom step temp pe press pxx pyy pzz pxy pxz pyz lx ly lz vol
thermo_modify norm no

# Negative deformation

variable delta equal -${up}*${len0}
variable delta equal -1e-06*${len0}
variable delta equal -1e-06*3.48153300000002
if "${dir} == 1" then    "change_box all x delta 0 ${delta} remap units box"
if "${dir} == 2" then    "change_box all y delta 0 ${delta} remap units box"
if "${dir} == 3" then    "change_box all z delta 0 ${delta} remap units box"
if "${dir} == 4" then    "change_box all yz delta ${delta} remap units box"
change_box all yz delta ${delta} remap units box
change_box all yz delta -3.48153300000002e-06 remap units box
  triclinic box = (0.0175835 0.0175835 0.0175835) to (3.49912 3.49912 3.49912) with tilt (0 -0 -3.48153e-06)
if "${dir} == 5" then    "change_box all xz delta ${delta} remap units box"
if "${dir} == 6" then    "change_box all xy delta ${delta} remap units box"

# Relax atoms positions

minimize ${etol} ${ftol} ${maxiter} ${maxeval}
minimize 0 ${ftol} ${maxiter} ${maxeval}
minimize 0 1e-10 ${maxiter} ${maxeval}
minimize 0 1e-10 100 ${maxeval}
minimize 0 1e-10 100 1000
Neighbor list info ...
  update every 1 steps, delay 0 steps, check yes
  max neighbors/atom: 2000, page size: 100000
  master list distance cutoff = 5.64464
  ghost atom cutoff = 5.64464
  binsize = 2.82232, bins = 2 2 2
  1 neighbor lists, perpetual/occasional/extra = 1 0 0
  (1) pair eam/alloy, perpetual
      attributes: half, newton on
      pair build: half/bin/newton/tri
      stencil: half/bin/3d/newton/tri
      bin: standard
Per MPI rank memory allocation (min/avg/max) = 4.086 | 4.086 | 4.086 Mbytes
Step Temp PotEng Press Pxx Pyy Pzz Pxy Pxz Pyz Lx Ly Lz Volume 
     100            0   -13.300589   -193909.29   -193909.29   -193909.29   -193909.29 1.2645334e-11 3.2403668e-11   0.52975998     3.481533     3.481533     3.481533    42.199912 
     101            0   -13.300589    -193909.3    -193909.3    -193909.3    -193909.3 -1.1591556e-11 -1.5806667e-12   0.52975999     3.481533     3.481533     3.481533    42.199912 
     102            0   -13.300589    -193909.3    -193909.3    -193909.3    -193909.3 -1.5806667e-12 4.7156557e-11   0.52975999     3.481533     3.481533     3.481533    42.199912 
     103            0   -13.300589    -193909.3    -193909.3    -193909.3    -193909.3 -7.3764446e-12 -2.3183112e-11   0.52975999     3.481533     3.481533     3.481533    42.199912 
Loop time of 0.000106096 on 1 procs for 3 steps with 4 atoms

85.8% CPU use with 1 MPI tasks x no OpenMP threads

Minimization stats:
  Stopping criterion = force tolerance
  Energy initial, next-to-last, final = 
        -13.3005889205      -13.300588952      -13.300588952
  Force two-norm initial, final = 0.000746491 3.72126e-15
  Force max component initial, final = 0.000215494 1.88738e-15
  Final line search alpha, max atom move = 1 1.88738e-15
  Iterations, force evaluations = 3 6

MPI task timing breakdown:
Section |  min time  |  avg time  |  max time  |%varavg| %total
---------------------------------------------------------------
Pair    | 6.3896e-05 | 6.3896e-05 | 6.3896e-05 |   0.0 | 60.22
Neigh   | 0          | 0          | 0          |   0.0 |  0.00
Comm    | 1.3828e-05 | 1.3828e-05 | 1.3828e-05 |   0.0 | 13.03
Output  | 1.7166e-05 | 1.7166e-05 | 1.7166e-05 |   0.0 | 16.18
Modify  | 0          | 0          | 0          |   0.0 |  0.00
Other   |            | 1.121e-05  |            |       | 10.56

Nlocal:    4 ave 4 max 4 min
Histogram: 1 0 0 0 0 0 0 0 0 0
Nghost:    360 ave 360 max 360 min
Histogram: 1 0 0 0 0 0 0 0 0 0
Neighs:    156 ave 156 max 156 min
Histogram: 1 0 0 0 0 0 0 0 0 0

Total # of neighbors = 156
Ave neighs/atom = 39
Neighbor list builds = 0
Dangerous builds = 0

# Obtain new stress tensor

variable tmp equal pxx
variable pxx1 equal ${tmp}
variable pxx1 equal -193909.295115155
variable tmp equal pyy
variable pyy1 equal ${tmp}
variable pyy1 equal -193909.295113267
variable tmp equal pzz
variable pzz1 equal ${tmp}
variable pzz1 equal -193909.295112402
variable tmp equal pxy
variable pxy1 equal ${tmp}
variable pxy1 equal -7.37644464731281e-12
variable tmp equal pxz
variable pxz1 equal ${tmp}
variable pxz1 equal -2.31831117486974e-11
variable tmp equal pyz
variable pyz1 equal ${tmp}
variable pyz1 equal 0.529759989891817

# Compute elastic constant from pressure tensor

variable C1neg equal ${d1}
variable C1neg equal -0.757400700240396
variable C2neg equal ${d2}
variable C2neg equal -0.757211798918433
variable C3neg equal ${d3}
variable C3neg equal -0.75712540128734
variable C4neg equal ${d4}
variable C4neg equal 52.9759989891817
variable C5neg equal ${d5}
variable C5neg equal -1.15915558743487e-09
variable C6neg equal ${d6}
variable C6neg equal -5.26888903379486e-10

# Reset box and simulation parameters

clear
read_restart restart.equil remap
  triclinic box = (0.0175835 0.0175835 0.0175835) to (3.49912 3.49912 3.49912) with tilt (0 -0 0)
  1 by 1 by 1 MPI processor grid
  4 atoms
include potential.mod
mass 1 58.6934

group Ni type 1
4 atoms in group Ni

pair_style eam/alloy
pair_coeff * * /ufrc/phillpot/eragasa/pareto_optimization_3.5NN/rank_27/Ni_fcc.lmps_elastic/Ni.eam.alloy Ni

neighbor 1.0 bin
neigh_modify every 1 delay 0 check yes
thermo	1
thermo_style custom step temp pe press pxx pyy pzz pxy pxz pyz lx ly lz vol
thermo_modify norm no

# Positive deformation

variable delta equal ${up}*${len0}
variable delta equal 1e-06*${len0}
variable delta equal 1e-06*3.48153300000002
if "${dir} == 1" then    "change_box all x delta 0 ${delta} remap units box"
if "${dir} == 2" then    "change_box all y delta 0 ${delta} remap units box"
if "${dir} == 3" then    "change_box all z delta 0 ${delta} remap units box"
if "${dir} == 4" then    "change_box all yz delta ${delta} remap units box"
change_box all yz delta ${delta} remap units box
change_box all yz delta 3.48153300000002e-06 remap units box
  triclinic box = (0.0175835 0.0175835 0.0175835) to (3.49912 3.49912 3.49912) with tilt (0 -0 3.48153e-06)
if "${dir} == 5" then    "change_box all xz delta ${delta} remap units box"
if "${dir} == 6" then    "change_box all xy delta ${delta} remap units box"

# Relax atoms positions

minimize ${etol} ${ftol} ${maxiter} ${maxeval}
minimize 0 ${ftol} ${maxiter} ${maxeval}
minimize 0 1e-10 ${maxiter} ${maxeval}
minimize 0 1e-10 100 ${maxeval}
minimize 0 1e-10 100 1000
Neighbor list info ...
  update every 1 steps, delay 0 steps, check yes
  max neighbors/atom: 2000, page size: 100000
  master list distance cutoff = 5.64464
  ghost atom cutoff = 5.64464
  binsize = 2.82232, bins = 2 2 2
  1 neighbor lists, perpetual/occasional/extra = 1 0 0
  (1) pair eam/alloy, perpetual
      attributes: half, newton on
      pair build: half/bin/newton/tri
      stencil: half/bin/3d/newton/tri
      bin: standard
Per MPI rank memory allocation (min/avg/max) = 4.086 | 4.086 | 4.086 Mbytes
Step Temp PotEng Press Pxx Pyy Pzz Pxy Pxz Pyz Lx Ly Lz Volume 
     100            0   -13.300589   -193909.29   -193909.29   -193909.29   -193909.29 4.4522112e-11 7.1130002e-12  -0.52975998     3.481533     3.481533     3.481533    42.199912 
     101            0   -13.300589    -193909.3    -193909.3    -193909.3    -193909.3 5.1108224e-11 2.5290667e-11  -0.52975999     3.481533     3.481533     3.481533    42.199912 
     102            0   -13.300589    -193909.3    -193909.3    -193909.3    -193909.3 8.9571114e-12 -4.7420001e-12  -0.52975999     3.481533     3.481533     3.481533    42.199912 
     103            0   -13.300589    -193909.3    -193909.3    -193909.3    -193909.3 -3.9516668e-12 -3.6882223e-12  -0.52975999     3.481533     3.481533     3.481533    42.199912 
Loop time of 0.000118017 on 1 procs for 3 steps with 4 atoms

85.6% CPU use with 1 MPI tasks x no OpenMP threads

Minimization stats:
  Stopping criterion = force tolerance
  Energy initial, next-to-last, final = 
        -13.3005889205      -13.300588952      -13.300588952
  Force two-norm initial, final = 0.000746491 2.58967e-15
  Force max component initial, final = 0.000215494 1.45717e-15
  Final line search alpha, max atom move = 1 1.45717e-15
  Iterations, force evaluations = 3 6

MPI task timing breakdown:
Section |  min time  |  avg time  |  max time  |%varavg| %total
---------------------------------------------------------------
Pair    | 6.9857e-05 | 6.9857e-05 | 6.9857e-05 |   0.0 | 59.19
Neigh   | 0          | 0          | 0          |   0.0 |  0.00
Comm    | 1.3828e-05 | 1.3828e-05 | 1.3828e-05 |   0.0 | 11.72
Output  | 1.7881e-05 | 1.7881e-05 | 1.7881e-05 |   0.0 | 15.15
Modify  | 0          | 0          | 0          |   0.0 |  0.00
Other   |            | 1.645e-05  |            |       | 13.94

Nlocal:    4 ave 4 max 4 min
Histogram: 1 0 0 0 0 0 0 0 0 0
Nghost:    360 ave 360 max 360 min
Histogram: 1 0 0 0 0 0 0 0 0 0
Neighs:    156 ave 156 max 156 min
Histogram: 1 0 0 0 0 0 0 0 0 0

Total # of neighbors = 156
Ave neighs/atom = 39
Neighbor list builds = 0
Dangerous builds = 0

# Obtain new stress tensor

variable tmp equal pe
variable e1 equal ${tmp}
variable e1 equal -13.3005889520183
variable tmp equal press
variable p1 equal ${tmp}
variable p1 equal -193909.295113608
variable tmp equal pxx
variable pxx1 equal ${tmp}
variable pxx1 equal -193909.295115155
variable tmp equal pyy
variable pyy1 equal ${tmp}
variable pyy1 equal -193909.295113267
variable tmp equal pzz
variable pzz1 equal ${tmp}
variable pzz1 equal -193909.295112402
variable tmp equal pxy
variable pxy1 equal ${tmp}
variable pxy1 equal -3.95166677534615e-12
variable tmp equal pxz
variable pxz1 equal ${tmp}
variable pxz1 equal -3.68822232365641e-12
variable tmp equal pyz
variable pyz1 equal ${tmp}
variable pyz1 equal -0.529759989831225

# Compute elastic constant from pressure tensor

variable C1pos equal ${d1}
variable C1pos equal 0.757400700240396
variable C2pos equal ${d2}
variable C2pos equal 0.757211798918433
variable C3pos equal ${d3}
variable C3pos equal 0.75712540128734
variable C4pos equal ${d4}
variable C4pos equal 52.9759989831225
variable C5pos equal ${d5}
variable C5pos equal -7.90333355069229e-10
variable C6pos equal ${d6}
variable C6pos equal 1.8441111618282e-10

# Combine positive and negative

variable C1${dir} equal 0.5*(${C1neg}+${C1pos})
variable C14 equal 0.5*(${C1neg}+${C1pos})
variable C14 equal 0.5*(-0.757400700240396+${C1pos})
variable C14 equal 0.5*(-0.757400700240396+0.757400700240396)
variable C2${dir} equal 0.5*(${C2neg}+${C2pos})
variable C24 equal 0.5*(${C2neg}+${C2pos})
variable C24 equal 0.5*(-0.757211798918433+${C2pos})
variable C24 equal 0.5*(-0.757211798918433+0.757211798918433)
variable C3${dir} equal 0.5*(${C3neg}+${C3pos})
variable C34 equal 0.5*(${C3neg}+${C3pos})
variable C34 equal 0.5*(-0.75712540128734+${C3pos})
variable C34 equal 0.5*(-0.75712540128734+0.75712540128734)
variable C4${dir} equal 0.5*(${C4neg}+${C4pos})
variable C44 equal 0.5*(${C4neg}+${C4pos})
variable C44 equal 0.5*(52.9759989891817+${C4pos})
variable C44 equal 0.5*(52.9759989891817+52.9759989831225)
variable C5${dir} equal 0.5*(${C5neg}+${C5pos})
variable C54 equal 0.5*(${C5neg}+${C5pos})
variable C54 equal 0.5*(-1.15915558743487e-09+${C5pos})
variable C54 equal 0.5*(-1.15915558743487e-09+-7.90333355069229e-10)
variable C6${dir} equal 0.5*(${C6neg}+${C6pos})
variable C64 equal 0.5*(${C6neg}+${C6pos})
variable C64 equal 0.5*(-5.26888903379486e-10+${C6pos})
variable C64 equal 0.5*(-5.26888903379486e-10+1.8441111618282e-10)

# Delete dir to make sure it is not reused

variable dir delete
# ---- uxz Perturbation
variable dir equal 5
include displace.mod
# NOTE: This script should not need to be
# modified. See in.elastic for more info.
# Find which reference length to use

if "${dir} == 1" then    "variable len0 equal ${lx0}"
if "${dir} == 2" then    "variable len0 equal ${ly0}"
if "${dir} == 3" then    "variable len0 equal ${lz0}"
if "${dir} == 4" then    "variable len0 equal ${lz0}"
if "${dir} == 5" then    "variable len0 equal ${lz0}"
variable len0 equal ${lz0}
variable len0 equal 3.48153300000002
if "${dir} == 6" then    "variable len0 equal ${ly0}"

# Reset box and simulation parameters

clear
read_restart restart.equil remap
  triclinic box = (0.0175835 0.0175835 0.0175835) to (3.49912 3.49912 3.49912) with tilt (0 -0 0)
  1 by 1 by 1 MPI processor grid
  4 atoms
include potential.mod
mass 1 58.6934

group Ni type 1
4 atoms in group Ni

pair_style eam/alloy
pair_coeff * * /ufrc/phillpot/eragasa/pareto_optimization_3.5NN/rank_27/Ni_fcc.lmps_elastic/Ni.eam.alloy Ni

neighbor 1.0 bin
neigh_modify every 1 delay 0 check yes
thermo	1
thermo_style custom step temp pe press pxx pyy pzz pxy pxz pyz lx ly lz vol
thermo_modify norm no

# Negative deformation

variable delta equal -${up}*${len0}
variable delta equal -1e-06*${len0}
variable delta equal -1e-06*3.48153300000002
if "${dir} == 1" then    "change_box all x delta 0 ${delta} remap units box"
if "${dir} == 2" then    "change_box all y delta 0 ${delta} remap units box"
if "${dir} == 3" then    "change_box all z delta 0 ${delta} remap units box"
if "${dir} == 4" then    "change_box all yz delta ${delta} remap units box"
if "${dir} == 5" then    "change_box all xz delta ${delta} remap units box"
change_box all xz delta ${delta} remap units box
change_box all xz delta -3.48153300000002e-06 remap units box
  triclinic box = (0.0175835 0.0175835 0.0175835) to (3.49912 3.49912 3.49912) with tilt (0 -3.48153e-06 0)
if "${dir} == 6" then    "change_box all xy delta ${delta} remap units box"

# Relax atoms positions

minimize ${etol} ${ftol} ${maxiter} ${maxeval}
minimize 0 ${ftol} ${maxiter} ${maxeval}
minimize 0 1e-10 ${maxiter} ${maxeval}
minimize 0 1e-10 100 ${maxeval}
minimize 0 1e-10 100 1000
Neighbor list info ...
  update every 1 steps, delay 0 steps, check yes
  max neighbors/atom: 2000, page size: 100000
  master list distance cutoff = 5.64464
  ghost atom cutoff = 5.64464
  binsize = 2.82232, bins = 2 2 2
  1 neighbor lists, perpetual/occasional/extra = 1 0 0
  (1) pair eam/alloy, perpetual
      attributes: half, newton on
      pair build: half/bin/newton/tri
      stencil: half/bin/3d/newton/tri
      bin: standard
Per MPI rank memory allocation (min/avg/max) = 4.086 | 4.086 | 4.086 Mbytes
Step Temp PotEng Press Pxx Pyy Pzz Pxy Pxz Pyz Lx Ly Lz Volume 
     100            0   -13.300589   -193909.29   -193909.29   -193909.29   -193909.29 4.0570446e-11   0.52975998 2.4500334e-11     3.481533     3.481533     3.481533    42.199912 
     101            0   -13.300589    -193909.3    -193909.3    -193909.3    -193909.3 -2.6344445e-11   0.52975999 2.0285223e-11     3.481533     3.481533     3.481533    42.199912 
     102            0   -13.300589    -193909.3    -193909.3    -193909.3    -193909.3 3.1086445e-11   0.52975999 -1.0010889e-11     3.481533     3.481533     3.481533    42.199912 
     103            0   -13.300589    -193909.3    -193909.3    -193909.3    -193909.3 3.1613334e-12   0.52975999 -2.6344445e-11     3.481533     3.481533     3.481533    42.199912 
Loop time of 0.000120878 on 1 procs for 3 steps with 4 atoms

100.1% CPU use with 1 MPI tasks x no OpenMP threads

Minimization stats:
  Stopping criterion = force tolerance
  Energy initial, next-to-last, final = 
        -13.3005889205      -13.300588952      -13.300588952
  Force two-norm initial, final = 0.000746491 3.13973e-15
  Force max component initial, final = 0.000215494 1.49967e-15
  Final line search alpha, max atom move = 1 1.49967e-15
  Iterations, force evaluations = 3 6

MPI task timing breakdown:
Section |  min time  |  avg time  |  max time  |%varavg| %total
---------------------------------------------------------------
Pair    | 7.1287e-05 | 7.1287e-05 | 7.1287e-05 |   0.0 | 58.97
Neigh   | 0          | 0          | 0          |   0.0 |  0.00
Comm    | 1.502e-05  | 1.502e-05  | 1.502e-05  |   0.0 | 12.43
Output  | 1.7881e-05 | 1.7881e-05 | 1.7881e-05 |   0.0 | 14.79
Modify  | 0          | 0          | 0          |   0.0 |  0.00
Other   |            | 1.669e-05  |            |       | 13.81

Nlocal:    4 ave 4 max 4 min
Histogram: 1 0 0 0 0 0 0 0 0 0
Nghost:    360 ave 360 max 360 min
Histogram: 1 0 0 0 0 0 0 0 0 0
Neighs:    156 ave 156 max 156 min
Histogram: 1 0 0 0 0 0 0 0 0 0

Total # of neighbors = 156
Ave neighs/atom = 39
Neighbor list builds = 0
Dangerous builds = 0

# Obtain new stress tensor

variable tmp equal pxx
variable pxx1 equal ${tmp}
variable pxx1 equal -193909.295113267
variable tmp equal pyy
variable pyy1 equal ${tmp}
variable pyy1 equal -193909.295115156
variable tmp equal pzz
variable pzz1 equal ${tmp}
variable pzz1 equal -193909.295112402
variable tmp equal pxy
variable pxy1 equal ${tmp}
variable pxy1 equal 3.16133342027692e-12
variable tmp equal pxz
variable pxz1 equal ${tmp}
variable pxz1 equal 0.529759989880489
variable tmp equal pyz
variable pyz1 equal ${tmp}
variable pyz1 equal -2.63444451689743e-11

# Compute elastic constant from pressure tensor

variable C1neg equal ${d1}
variable C1neg equal -0.75721190078184
variable C2neg equal ${d2}
variable C2neg equal -0.757400700240396
variable C3neg equal ${d3}
variable C3neg equal -0.75712540128734
variable C4neg equal ${d4}
variable C4neg equal -2.63444451689743e-09
variable C5neg equal ${d5}
variable C5neg equal 52.9759989892081
variable C6neg equal ${d6}
variable C6neg equal 5.26888903379487e-10

# Reset box and simulation parameters

clear
read_restart restart.equil remap
  triclinic box = (0.0175835 0.0175835 0.0175835) to (3.49912 3.49912 3.49912) with tilt (0 -0 0)
  1 by 1 by 1 MPI processor grid
  4 atoms
include potential.mod
mass 1 58.6934

group Ni type 1
4 atoms in group Ni

pair_style eam/alloy
pair_coeff * * /ufrc/phillpot/eragasa/pareto_optimization_3.5NN/rank_27/Ni_fcc.lmps_elastic/Ni.eam.alloy Ni

neighbor 1.0 bin
neigh_modify every 1 delay 0 check yes
thermo	1
thermo_style custom step temp pe press pxx pyy pzz pxy pxz pyz lx ly lz vol
thermo_modify norm no

# Positive deformation

variable delta equal ${up}*${len0}
variable delta equal 1e-06*${len0}
variable delta equal 1e-06*3.48153300000002
if "${dir} == 1" then    "change_box all x delta 0 ${delta} remap units box"
if "${dir} == 2" then    "change_box all y delta 0 ${delta} remap units box"
if "${dir} == 3" then    "change_box all z delta 0 ${delta} remap units box"
if "${dir} == 4" then    "change_box all yz delta ${delta} remap units box"
if "${dir} == 5" then    "change_box all xz delta ${delta} remap units box"
change_box all xz delta ${delta} remap units box
[...]
---------------------------------------------------------------
Pair    | 7.1287e-05 | 7.1287e-05 | 7.1287e-05 |   0.0 | 59.44
Neigh   | 0          | 0          | 0          |   0.0 |  0.00
Comm    | 1.359e-05  | 1.359e-05  | 1.359e-05  |   0.0 | 11.33
Output  | 1.812e-05  | 1.812e-05  | 1.812e-05  |   0.0 | 15.11
Modify  | 0          | 0          | 0          |   0.0 |  0.00
Other   |            | 1.693e-05  |            |       | 14.12

Nlocal:    4 ave 4 max 4 min
Histogram: 1 0 0 0 0 0 0 0 0 0
Nghost:    360 ave 360 max 360 min
Histogram: 1 0 0 0 0 0 0 0 0 0
Neighs:    156 ave 156 max 156 min
Histogram: 1 0 0 0 0 0 0 0 0 0

Total # of neighbors = 156
Ave neighs/atom = 39
Neighbor list builds = 0
Dangerous builds = 0

# Obtain new stress tensor

variable tmp equal pe
variable e1 equal ${tmp}
variable e1 equal -13.3005889520183
variable tmp equal press
variable p1 equal ${tmp}
variable p1 equal -193909.295113608
variable tmp equal pxx
variable pxx1 equal ${tmp}
variable pxx1 equal -193909.295113266
variable tmp equal pyy
variable pyy1 equal ${tmp}
variable pyy1 equal -193909.295115155
variable tmp equal pzz
variable pzz1 equal ${tmp}
variable pzz1 equal -193909.295112402
variable tmp equal pxy
variable pxy1 equal ${tmp}
variable pxy1 equal -9.48400026083076e-12
variable tmp equal pxz
variable pxz1 equal ${tmp}
variable pxz1 equal -0.52975998988365
variable tmp equal pyz
variable pyz1 equal ${tmp}
variable pyz1 equal -2.10755561351795e-12

# Compute elastic constant from pressure tensor

variable C1pos equal ${d1}
variable C1pos equal 0.757211801828817
variable C2pos equal ${d2}
variable C2pos equal 0.757400598376989
variable C3pos equal ${d3}
variable C3pos equal 0.75712540128734
variable C4pos equal ${d4}
variable C4pos equal 2.10755561351795e-10
variable C5pos equal ${d5}
variable C5pos equal 52.9759989872059
variable C6pos equal ${d6}
variable C6pos equal 7.37644464731281e-10

# Combine positive and negative

variable C1${dir} equal 0.5*(${C1neg}+${C1pos})
variable C15 equal 0.5*(${C1neg}+${C1pos})
variable C15 equal 0.5*(-0.75721190078184+${C1pos})
variable C15 equal 0.5*(-0.75721190078184+0.757211801828817)
variable C2${dir} equal 0.5*(${C2neg}+${C2pos})
variable C25 equal 0.5*(${C2neg}+${C2pos})
variable C25 equal 0.5*(-0.757400700240396+${C2pos})
variable C25 equal 0.5*(-0.757400700240396+0.757400598376989)
variable C3${dir} equal 0.5*(${C3neg}+${C3pos})
variable C35 equal 0.5*(${C3neg}+${C3pos})
variable C35 equal 0.5*(-0.75712540128734+${C3pos})
variable C35 equal 0.5*(-0.75712540128734+0.75712540128734)
variable C4${dir} equal 0.5*(${C4neg}+${C4pos})
variable C45 equal 0.5*(${C4neg}+${C4pos})
variable C45 equal 0.5*(-2.63444451689743e-09+${C4pos})
variable C45 equal 0.5*(-2.63444451689743e-09+2.10755561351795e-10)
variable C5${dir} equal 0.5*(${C5neg}+${C5pos})
variable C55 equal 0.5*(${C5neg}+${C5pos})
variable C55 equal 0.5*(52.9759989892081+${C5pos})
variable C55 equal 0.5*(52.9759989892081+52.9759989872059)
variable C6${dir} equal 0.5*(${C6neg}+${C6pos})
variable C65 equal 0.5*(${C6neg}+${C6pos})
variable C65 equal 0.5*(5.26888903379487e-10+${C6pos})
variable C65 equal 0.5*(5.26888903379487e-10+7.37644464731281e-10)

# Delete dir to make sure it is not reused

variable dir delete
# ---- uxy Perturbation
variable dir equal 6
include displace.mod
# NOTE: This script should not need to be
# modified. See in.elastic for more info.
# Find which reference length to use

if "${dir} == 1" then    "variable len0 equal ${lx0}"
if "${dir} == 2" then    "variable len0 equal ${ly0}"
if "${dir} == 3" then    "variable len0 equal ${lz0}"
if "${dir} == 4" then    "variable len0 equal ${lz0}"
if "${dir} == 5" then    "variable len0 equal ${lz0}"
if "${dir} == 6" then    "variable len0 equal ${ly0}"
variable len0 equal ${ly0}
variable len0 equal 3.48153300000002

# Reset box and simulation parameters

clear
read_restart restart.equil remap
  triclinic box = (0.0175835 0.0175835 0.0175835) to (3.49912 3.49912 3.49912) with tilt (0 -0 0)
  1 by 1 by 1 MPI processor grid
  4 atoms
include potential.mod
mass 1 58.6934

group Ni type 1
4 atoms in group Ni

pair_style eam/alloy
pair_coeff * * /ufrc/phillpot/eragasa/pareto_optimization_3.5NN/rank_27/Ni_fcc.lmps_elastic/Ni.eam.alloy Ni

neighbor 1.0 bin
neigh_modify every 1 delay 0 check yes
thermo	1
thermo_style custom step temp pe press pxx pyy pzz pxy pxz pyz lx ly lz vol
thermo_modify norm no

# Negative deformation

variable delta equal -${up}*${len0}
variable delta equal -1e-06*${len0}
variable delta equal -1e-06*3.48153300000002
if "${dir} == 1" then    "change_box all x delta 0 ${delta} remap units box"
if "${dir} == 2" then    "change_box all y delta 0 ${delta} remap units box"
if "${dir} == 3" then    "change_box all z delta 0 ${delta} remap units box"
if "${dir} == 4" then    "change_box all yz delta ${delta} remap units box"
if "${dir} == 5" then    "change_box all xz delta ${delta} remap units box"
if "${dir} == 6" then    "change_box all xy delta ${delta} remap units box"
change_box all xy delta ${delta} remap units box
change_box all xy delta -3.48153300000002e-06 remap units box
  triclinic box = (0.0175835 0.0175835 0.0175835) to (3.49912 3.49912 3.49912) with tilt (-3.48153e-06 -0 0)

# Relax atoms positions

minimize ${etol} ${ftol} ${maxiter} ${maxeval}
minimize 0 ${ftol} ${maxiter} ${maxeval}
minimize 0 1e-10 ${maxiter} ${maxeval}
minimize 0 1e-10 100 ${maxeval}
minimize 0 1e-10 100 1000
Neighbor list info ...
  update every 1 steps, delay 0 steps, check yes
  max neighbors/atom: 2000, page size: 100000
  master list distance cutoff = 5.64464
  ghost atom cutoff = 5.64464
  binsize = 2.82232, bins = 2 2 2
  1 neighbor lists, perpetual/occasional/extra = 1 0 0
  (1) pair eam/alloy, perpetual
      attributes: half, newton on
      pair build: half/bin/newton/tri
      stencil: half/bin/3d/newton/tri
      bin: standard
Per MPI rank memory allocation (min/avg/max) = 4.086 | 4.086 | 4.086 Mbytes
Step Temp PotEng Press Pxx Pyy Pzz Pxy Pxz Pyz Lx Ly Lz Volume 
     100            0   -13.300589   -193909.29   -193909.29   -193909.29   -193909.29   0.52975998 -2.6344445e-12 1.7650778e-11     3.481533     3.481533     3.481533    42.199912 
     101            0   -13.300589    -193909.3    -193909.3    -193909.3    -193909.3   0.52975999 7.9033336e-12 2.1865889e-11     3.481533     3.481533     3.481533    42.199912 
     102            0   -13.300589    -193909.3    -193909.3    -193909.3    -193909.3   0.52975999 5.7957779e-12 4.2151112e-12     3.481533     3.481533     3.481533    42.199912 
     103            0   -13.300589    -193909.3    -193909.3    -193909.3    -193909.3   0.52975999 -7.0339669e-11 -2.2919667e-11     3.481533     3.481533     3.481533    42.199912 
Loop time of 0.000118017 on 1 procs for 3 steps with 4 atoms

100.8% CPU use with 1 MPI tasks x no OpenMP threads

Minimization stats:
  Stopping criterion = force tolerance
  Energy initial, next-to-last, final = 
        -13.3005889205      -13.300588952      -13.300588952
  Force two-norm initial, final = 0.000746491 2.68911e-15
  Force max component initial, final = 0.000215494 1.34615e-15
  Final line search alpha, max atom move = 1 1.34615e-15
  Iterations, force evaluations = 3 6

MPI task timing breakdown:
Section |  min time  |  avg time  |  max time  |%varavg| %total
---------------------------------------------------------------
Pair    | 7.081e-05  | 7.081e-05  | 7.081e-05  |   0.0 | 60.00
Neigh   | 0          | 0          | 0          |   0.0 |  0.00
Comm    | 1.2159e-05 | 1.2159e-05 | 1.2159e-05 |   0.0 | 10.30
Output  | 1.6928e-05 | 1.6928e-05 | 1.6928e-05 |   0.0 | 14.34
Modify  | 0          | 0          | 0          |   0.0 |  0.00
Other   |            | 1.812e-05  |            |       | 15.35

Nlocal:    4 ave 4 max 4 min
Histogram: 1 0 0 0 0 0 0 0 0 0
Nghost:    360 ave 360 max 360 min
Histogram: 1 0 0 0 0 0 0 0 0 0
Neighs:    156 ave 156 max 156 min
Histogram: 1 0 0 0 0 0 0 0 0 0

Total # of neighbors = 156
Ave neighs/atom = 39
Neighbor list builds = 0
Dangerous builds = 0

# Obtain new stress tensor

variable tmp equal pxx
variable pxx1 equal ${tmp}
variable pxx1 equal -193909.295113267
variable tmp equal pyy
variable pyy1 equal ${tmp}
variable pyy1 equal -193909.295112402
variable tmp equal pzz
variable pzz1 equal ${tmp}
variable pzz1 equal -193909.295115156
variable tmp equal pxy
variable pxy1 equal ${tmp}
variable pxy1 equal 0.529759989840182
variable tmp equal pxz
variable pxz1 equal ${tmp}
variable pxz1 equal -7.03396686011615e-11
variable tmp equal pyz
variable pyz1 equal ${tmp}
variable pyz1 equal -2.29196672970077e-11

# Compute elastic constant from pressure tensor

variable C1neg equal ${d1}
variable C1neg equal -0.75721190078184
variable C2neg equal ${d2}
variable C2neg equal -0.757125299423933
variable C3neg equal ${d3}
variable C3neg equal -0.757400802103803
variable C4neg equal ${d4}
variable C4neg equal -2.29196672970077e-09
variable C5neg equal ${d5}
variable C5neg equal -5.87481127268128e-09
variable C6neg equal ${d6}
variable C6neg equal 52.975998984229

# Reset box and simulation parameters

clear
read_restart restart.equil remap
  triclinic box = (0.0175835 0.0175835 0.0175835) to (3.49912 3.49912 3.49912) with tilt (0 -0 0)
  1 by 1 by 1 MPI processor grid
  4 atoms
include potential.mod
mass 1 58.6934

group Ni type 1
4 atoms in group Ni

pair_style eam/alloy
pair_coeff * * /ufrc/phillpot/eragasa/pareto_optimization_3.5NN/rank_27/Ni_fcc.lmps_elastic/Ni.eam.alloy Ni

neighbor 1.0 bin
neigh_modify every 1 delay 0 check yes
thermo	1
thermo_style custom step temp pe press pxx pyy pzz pxy pxz pyz lx ly lz vol
thermo_modify norm no

# Positive deformation

variable delta equal ${up}*${len0}
variable delta equal 1e-06*${len0}
variable delta equal 1e-06*3.48153300000002
if "${dir} == 1" then    "change_box all x delta 0 ${delta} remap units box"
if "${dir} == 2" then    "change_box all y delta 0 ${delta} remap units box"
if "${dir} == 3" then    "change_box all z delta 0 ${delta} remap units box"
if "${dir} == 4" then    "change_box all yz delta ${delta} remap units box"
if "${dir} == 5" then    "change_box all xz delta ${delta} remap units box"
if "${dir} == 6" then    "change_box all xy delta ${delta} remap units box"
change_box all xy delta ${delta} remap units box
change_box all xy delta 3.48153300000002e-06 remap units box
  triclinic box = (0.0175835 0.0175835 0.0175835) to (3.49912 3.49912 3.49912) with tilt (3.48153e-06 -0 0)

# Relax atoms positions

minimize ${etol} ${ftol} ${maxiter} ${maxeval}
minimize 0 ${ftol} ${maxiter} ${maxeval}
minimize 0 1e-10 ${maxiter} ${maxeval}
minimize 0 1e-10 100 ${maxeval}
minimize 0 1e-10 100 1000
Neighbor list info ...
  update every 1 steps, delay 0 steps, check yes
  max neighbors/atom: 2000, page size: 100000
  master list distance cutoff = 5.64464
  ghost atom cutoff = 5.64464
  binsize = 2.82232, bins = 2 2 2
  1 neighbor lists, perpetual/occasional/extra = 1 0 0
  (1) pair eam/alloy, perpetual
      attributes: half, newton on
      pair build: half/bin/newton/tri
      stencil: half/bin/3d/newton/tri
      bin: standard
Per MPI rank memory allocation (min/avg/max) = 4.086 | 4.086 | 4.086 Mbytes
Step Temp PotEng Press Pxx Pyy Pzz Pxy Pxz Pyz Lx Ly Lz Volume 
     100            0   -13.300589   -193909.29   -193909.29   -193909.29   -193909.29  -0.52975998 2.1339001e-11 1.2381889e-11     3.481533     3.481533     3.481533    42.199912 
     101            0   -13.300589    -193909.3    -193909.3    -193909.3    -193909.3  -0.52975999 -1.0537778e-12 -3.5565001e-11     3.481533     3.481533     3.481533    42.199912 
     102            0   -13.300589    -193909.3    -193909.3    -193909.3    -193909.3  -0.52975999 1.9231445e-11 5.7957779e-12     3.481533     3.481533     3.481533    42.199912 
     103            0   -13.300589    -193909.3    -193909.3    -193909.3    -193909.3  -0.52975999 -3.5828445e-11 1.8441112e-12     3.481533     3.481533     3.481533    42.199912 
Loop time of 0.000116825 on 1 procs for 3 steps with 4 atoms

101.0% CPU use with 1 MPI tasks x no OpenMP threads

Minimization stats:
  Stopping criterion = force tolerance
  Energy initial, next-to-last, final = 
        -13.3005889205      -13.300588952      -13.300588952
  Force two-norm initial, final = 0.000746491 3.44378e-15
  Force max component initial, final = 0.000215494 1.71391e-15
  Final line search alpha, max atom move = 1 1.71391e-15
  Iterations, force evaluations = 3 6

MPI task timing breakdown:
Section |  min time  |  avg time  |  max time  |%varavg| %total
---------------------------------------------------------------
Pair    | 7.0095e-05 | 7.0095e-05 | 7.0095e-05 |   0.0 | 60.00
Neigh   | 0          | 0          | 0          |   0.0 |  0.00
Comm    | 1.2875e-05 | 1.2875e-05 | 1.2875e-05 |   0.0 | 11.02
Output  | 1.812e-05  | 1.812e-05  | 1.812e-05  |   0.0 | 15.51
Modify  | 0          | 0          | 0          |   0.0 |  0.00
Other   |            | 1.574e-05  |            |       | 13.47

Nlocal:    4 ave 4 max 4 min
Histogram: 1 0 0 0 0 0 0 0 0 0
Nghost:    360 ave 360 max 360 min
Histogram: 1 0 0 0 0 0 0 0 0 0
Neighs:    156 ave 156 max 156 min
Histogram: 1 0 0 0 0 0 0 0 0 0

Total # of neighbors = 156
Ave neighs/atom = 39
Neighbor list builds = 0
Dangerous builds = 0

# Obtain new stress tensor

variable tmp equal pe
variable e1 equal ${tmp}
variable e1 equal -13.3005889520183
variable tmp equal press
variable p1 equal ${tmp}
variable p1 equal -193909.295113608
variable tmp equal pxx
variable pxx1 equal ${tmp}
variable pxx1 equal -193909.295113266
variable tmp equal pyy
variable pyy1 equal ${tmp}
variable pyy1 equal -193909.295112402
variable tmp equal pzz
variable pzz1 equal ${tmp}
variable pzz1 equal -193909.295115155
variable tmp equal pxy
variable pxy1 equal ${tmp}
variable pxy1 equal -0.529759989889446
variable tmp equal pxz
variable pxz1 equal ${tmp}
variable pxz1 equal -3.58284454298051e-11
variable tmp equal pyz
variable pyz1 equal ${tmp}
variable pyz1 equal 1.8441111618282e-12

# Compute elastic constant from pressure tensor

variable C1pos equal ${d1}
variable C1pos equal 0.757211801828817
variable C2pos equal ${d2}
variable C2pos equal 0.757125299423933
variable C3pos equal ${d3}
variable C3pos equal 0.757400700240396
variable C4pos equal ${d4}
variable C4pos equal -1.8441111618282e-10
variable C5pos equal ${d5}
variable C5pos equal 2.42368895554564e-09
variable C6pos equal ${d6}
variable C6pos equal 52.9759989887338

# Combine positive and negative

variable C1${dir} equal 0.5*(${C1neg}+${C1pos})
variable C16 equal 0.5*(${C1neg}+${C1pos})
variable C16 equal 0.5*(-0.75721190078184+${C1pos})
variable C16 equal 0.5*(-0.75721190078184+0.757211801828817)
variable C2${dir} equal 0.5*(${C2neg}+${C2pos})
variable C26 equal 0.5*(${C2neg}+${C2pos})
variable C26 equal 0.5*(-0.757125299423933+${C2pos})
variable C26 equal 0.5*(-0.757125299423933+0.757125299423933)
variable C3${dir} equal 0.5*(${C3neg}+${C3pos})
variable C36 equal 0.5*(${C3neg}+${C3pos})
variable C36 equal 0.5*(-0.757400802103803+${C3pos})
variable C36 equal 0.5*(-0.757400802103803+0.757400700240396)
variable C4${dir} equal 0.5*(${C4neg}+${C4pos})
variable C46 equal 0.5*(${C4neg}+${C4pos})
variable C46 equal 0.5*(-2.29196672970077e-09+${C4pos})
variable C46 equal 0.5*(-2.29196672970077e-09+-1.8441111618282e-10)
variable C5${dir} equal 0.5*(${C5neg}+${C5pos})
variable C56 equal 0.5*(${C5neg}+${C5pos})
variable C56 equal 0.5*(-5.87481127268128e-09+${C5pos})
variable C56 equal 0.5*(-5.87481127268128e-09+2.42368895554564e-09)
variable C6${dir} equal 0.5*(${C6neg}+${C6pos})
variable C66 equal 0.5*(${C6neg}+${C6pos})
variable C66 equal 0.5*(52.975998984229+${C6pos})
variable C66 equal 0.5*(52.975998984229+52.9759989887338)

# Delete dir to make sure it is not reused

variable dir delete

# ---- Output final values
variable C11all equal ${C11}
variable C11all equal 98.9405025509768
variable C22all equal ${C22}
variable C22all equal 98.9405025509768
variable C33all equal ${C33}
variable C33all equal 98.9405025509768
variable C12all equal 0.5*(${C12}+${C21})
variable C12all equal 0.5*(59.9698888996499+${C21})
variable C12all equal 0.5*(59.9698888996499+59.96988889965)
variable C13all equal 0.5*(${C13}+${C31})
variable C13all equal 0.5*(59.9698888996499+${C31})
variable C13all equal 0.5*(59.9698888996499+59.9698888996499)
variable C23all equal 0.5*(${C23}+${C32})
variable C23all equal 0.5*(59.96988889965+${C32})
variable C23all equal 0.5*(59.96988889965+59.9698888996499)
variable C44all equal ${C44}
variable C44all equal 52.9759989861521
variable C55all equal ${C55}
variable C55all equal 52.975998988207
variable C66all equal ${C66}
variable C66all equal 52.9759989864814
variable C14all equal 0.5*(${C14}+${C41})
variable C14all equal 0.5*(0+${C41})
variable C14all equal 0.5*(0+1.33039510012899e-09)
variable C15all equal 0.5*(${C15}+${C51})
variable C15all equal 0.5*(-4.94765114988915e-08+${C51})
variable C15all equal 0.5*(-4.94765114988915e-08+5.5323142540452e-10)
variable C16all equal 0.5*(${C16}+${C61})
variable C16all equal 0.5*(-4.94765114988915e-08+${C61})
variable C16all equal 0.5*(-4.94765114988915e-08+-6.5860730928047e-11)
variable C24all equal 0.5*(${C24}+${C42})
variable C24all equal 0.5*(0+${C42})
variable C24all equal 0.5*(0+-1.11964219956595e-09)
variable C25all equal 0.5*(${C25}+${C52})
variable C25all equal 0.5*(-5.09317034658174e-08+${C52})
variable C25all equal 0.5*(-5.09317034658174e-08+-1.09329646351914e-09)
variable C26all equal 0.5*(${C26}+${C62})
variable C26all equal 0.5*(0+${C62})
variable C26all equal 0.5*(0+-1.14598248231262e-09)
variable C34all equal 0.5*(${C34}+${C43})
variable C34all equal 0.5*(0+${C43})
variable C34all equal 0.5*(0+-7.24468461719635e-10)
variable C35all equal 0.5*(${C35}+${C53})
variable C35all equal 0.5*(0+${C53})
variable C35all equal 0.5*(0+2.10755455974223e-10)
variable C36all equal 0.5*(${C36}+${C63})
variable C36all equal 0.5*(-5.09317035213286e-08+${C63})
variable C36all equal 0.5*(-5.09317035213286e-08+3.81994441778288e-10)
variable C45all equal 0.5*(${C45}+${C54})
variable C45all equal 0.5*(-1.21184447777282e-09+${C54})
variable C45all equal 0.5*(-1.21184447777282e-09+-9.74744471252049e-10)
variable C46all equal 0.5*(${C46}+${C64})
variable C46all equal 0.5*(-1.2381889229418e-09+${C64})
variable C46all equal 0.5*(-1.2381889229418e-09+-1.71238893598333e-10)
variable C56all equal 0.5*(${C56}+${C65})
variable C56all equal 0.5*(-1.72556115856782e-09+${C65})
variable C56all equal 0.5*(-1.72556115856782e-09+6.32266684055384e-10)

print "c11 = ${C11all} ${cunits}"
c11 = 98.9405025509768 GPa
print "c22 = ${C22all} ${cunits}"
c22 = 98.9405025509768 GPa
print "c33 = ${C33all} ${cunits}"
c33 = 98.9405025509768 GPa
print "c12 = ${C12all} ${cunits}"
c12 = 59.96988889965 GPa
print "c13 = ${C13all} ${cunits}"
c13 = 59.9698888996499 GPa
print "c23 = ${C23all} ${cunits}"
c23 = 59.96988889965 GPa
print "c44 = ${C44all} ${cunits}"
c44 = 52.9759989861521 GPa
print "c55 = ${C55all} ${cunits}"
c55 = 52.975998988207 GPa
print "c66 = ${C66all} ${cunits}"
c66 = 52.9759989864814 GPa
print "c14 = ${C14all} ${cunits}"
c14 = 6.65197550064495e-10 GPa
print "c15 = ${C15all} ${cunits}"
c15 = -2.44616400367435e-08 GPa
print "c16 = ${C16all} ${cunits}"
c16 = -2.47711861149098e-08 GPa
print "c24 = ${C24all} ${cunits}"
c24 = -5.59821099782975e-10 GPa
print "c25 = ${C25all} ${cunits}"
c25 = -2.60124999646683e-08 GPa
print "c26 = ${C26all} ${cunits}"
c26 = -5.7299124115631e-10 GPa
print "c34 = ${C34all} ${cunits}"
c34 = -3.62234230859818e-10 GPa
print "c35 = ${C35all} ${cunits}"
c35 = 1.05377727987112e-10 GPa
print "c36 = ${C36all} ${cunits}"
c36 = -2.52748545397752e-08 GPa
print "c45 = ${C45all} ${cunits}"
c45 = -1.09329447451243e-09 GPa
print "c46 = ${C46all} ${cunits}"
c46 = -7.04713908270067e-10 GPa
print "c56 = ${C56all} ${cunits}"
c56 = -5.46647237256218e-10 GPa
print "lammps_sim_done"
lammps_sim_done
Total wall time: 0:00:00
