# ['Ni']

10 atoms
1 atom types

    0.0000     3.5132 xlo xhi
    0.0000     2.5149 ylo yhi
    0.0000    25.1493 zlo zhi

    0.0000     0.0000     0.0000 xy xz yz

Atoms

1 1     0.0000     0.0000     0.0000
2 1     1.7566     1.2575     1.2575
3 1     0.0000     0.0000     2.5149
4 1     1.7566     1.2575     3.7724
5 1     0.0000     0.0000     5.0299
6 1     1.7566     1.2575     6.2873
7 1     0.0000     0.0000     7.5448
8 1     1.7566     1.2575     8.8023
9 1     0.0000     0.0000    10.0597
10 1     1.7566     1.2575    11.3172
