# ['Ni']

10 atoms
1 atom types

    0.0000     3.5134 xlo xhi
    0.0000     2.5151 ylo yhi
    0.0000    25.1507 zlo zhi

    0.0000     0.0000     0.0000 xy xz yz

Atoms

1 1     0.0000     0.0000     0.0000
2 1     1.7567     1.2575     1.2575
3 1     0.0000     0.0000     2.5151
4 1     1.7567     1.2575     3.7726
5 1     0.0000     0.0000     5.0301
6 1     1.7567     1.2575     6.2877
7 1     0.0000     0.0000     7.5452
8 1     1.7567     1.2575     8.8028
9 1     0.0000     0.0000    10.0603
10 1     1.7567     1.2575    11.3178
