LAMMPS (11 Aug 2017)
# ---- initialize simulations
clear
units metal
dimension 3
boundary p p p
atom_style atomic
atom_modify map array
# ---- create atoms
read_data /home/sullberg/repos/pypospack/examples/Ni__eam__born_exp_rose/01_preconditioning_3.5NN/rank_0/Ni_fcc_110_s.lmps_min_pos/lammps.structure
  triclinic box = (0 0 0) to (3.5134 2.5151 25.1507) with tilt (0 0 0)
  1 by 1 by 1 MPI processor grid
  reading atoms ...
  10 atoms
# ---- define interatomic potential
include potential.mod
mass 1 58.6934

group Ni type 1
10 atoms in group Ni

pair_style eam/alloy
pair_coeff * * /home/sullberg/repos/pypospack/examples/Ni__eam__born_exp_rose/01_preconditioning_3.5NN/rank_0/Ni_fcc_110_s.lmps_min_pos/Ni.eam.alloy Ni

neighbor 1.0 bin
neigh_modify every 1 delay 0 check yes
# ---- define settings
compute eng all pe/atom
compute eatoms all reduce sum c_eng

# ---- run minimization
reset_timestep 0
thermo 1
thermo_style custom step pe lx ly lz xy xz yz press pxx pyy pzz pxy pxz pyz c_eatoms
min_style cg
minimize 1e-20 1e-20 1000 100000
Neighbor list info ...
  update every 1 steps, delay 0 steps, check yes
  max neighbors/atom: 2000, page size: 100000
  master list distance cutoff = 11
  ghost atom cutoff = 11
  binsize = 5.5, bins = 1 1 5
  1 neighbor lists, perpetual/occasional/extra = 1 0 0
  (1) pair eam/alloy, perpetual
      attributes: half, newton on
      pair build: half/bin/newton/tri
      stencil: half/bin/3d/newton/tri
      bin: standard
Per MPI rank memory allocation (min/avg/max) = 4.341 | 4.341 | 4.341 Mbytes
Step PotEng Lx Ly Lz Xy Xz Yz Press Pxx Pyy Pzz Pxy Pxz Pyz c_eatoms 
       0   -42.169369       3.5134       2.5151      25.1507            0            0            0   -43924.099    -49971.73   -48822.426    -32978.14 3.7529529e-12 -1.5130787e-13   0.35215494   -42.169369 
       1   -42.254284       3.5134       2.5151      25.1507            0            0            0   -34580.067   -40228.227   -40777.999   -22733.976 -7.4745438e-12 4.4372303e-12   0.28714022   -42.254284 
       2   -42.275298       3.5134       2.5151      25.1507            0            0            0   -27794.257   -33088.824   -35297.153   -14996.795 -9.1103468e-12 -3.9352929e-12 0.0066333613   -42.275298 
       3   -42.291609       3.5134       2.5151      25.1507            0            0            0     -19129.2   -24508.438   -28620.352   -4258.8086 -1.1224981e-11 5.8237744e-12  -0.18028378   -42.291609 
       4   -42.297782       3.5134       2.5151      25.1507            0            0            0   -17104.332   -22833.856   -27377.625   -1101.5147 -1.3560907e-11 4.5540743e-14   -0.0392504   -42.297782 
       5   -42.298131       3.5134       2.5151      25.1507            0            0            0   -16709.568   -22558.359   -27147.445   -422.90057 -5.6853752e-12 -1.704572e-12  0.021606714   -42.298131 
       6   -42.298146       3.5134       2.5151      25.1507            0            0            0   -16660.323    -22524.31   -27119.253   -337.40492 8.5271468e-12 4.2166649e-12  0.040520676   -42.298146 
       7   -42.298152       3.5134       2.5151      25.1507            0            0            0   -16604.649   -22474.107   -27081.977   -257.86256 7.2975102e-13 1.8206527e-12   0.05050817   -42.298152 
       8   -42.298157       3.5134       2.5151      25.1507            0            0            0   -16413.926   -22288.401   -26936.068   -17.309559 -7.6851377e-12 -5.2796852e-13  0.052882741   -42.298157 
       9   -42.298157       3.5134       2.5151      25.1507            0            0            0   -16396.863   -22269.287   -26921.001  -0.29956582 -3.3865997e-12 -7.9228435e-12  0.047850851   -42.298157 
      10   -42.298157       3.5134       2.5151      25.1507            0            0            0   -16397.382   -22269.728   -26921.389    -1.027815 6.2199446e-12 7.459327e-13  0.045714215   -42.298157 
      11   -42.298157       3.5134       2.5151      25.1507            0            0            0   -16397.259   -22269.598   -26921.295  -0.88303895 -3.2107628e-12 1.5855298e-12  0.041900966   -42.298157 
      12   -42.298157       3.5134       2.5151      25.1507            0            0            0   -16396.635   -22268.978   -26920.807  -0.12009413 -8.9903948e-12 3.1409556e-12  0.035116949   -42.298157 
      13   -42.298157       3.5134       2.5151      25.1507            0            0            0   -16396.583   -22268.938   -26920.777 -0.032600357 -4.8119309e-12 -7.1097172e-12  0.034586341   -42.298157 
      14   -42.298157       3.5134       2.5151      25.1507            0            0            0   -16396.566   -22268.929   -26920.769 0.00023716956 -2.6689147e-12 -1.5375222e-12  0.034663254   -42.298157 
      15   -42.298157       3.5134       2.5151      25.1507            0            0            0   -16396.557   -22268.921   -26920.762  0.012806998 4.9695465e-12 -6.2877001e-12  0.034217279   -42.298157 
      16   -42.298157       3.5134       2.5151      25.1507            0            0            0   -16396.561   -22268.924   -26920.765 0.0048407847 -7.2054028e-12 -4.7128562e-12  0.031454583   -42.298157 
      17   -42.298157       3.5134       2.5151      25.1507            0            0            0   -16396.562   -22268.925   -26920.766 0.0042533825 -8.982652e-12 -1.6390839e-11  0.027745287   -42.298157 
      18   -42.298157       3.5134       2.5151      25.1507            0            0            0   -16396.566   -22268.929   -26920.769 0.0002818173 -4.7379959e-13 2.3350469e-13   0.02334839   -42.298157 
      19   -42.298157       3.5134       2.5151      25.1507            0            0            0   -16396.565   -22268.927   -26920.767 0.00064066869 -4.8528186e-12 -5.5550974e-12  0.020948525   -42.298157 
      20   -42.298157       3.5134       2.5151      25.1507            0            0            0   -16396.572   -22268.935   -26920.773 -0.0074227486 2.4152568e-11 3.3293605e-11  0.018341349   -42.298157 
      21   -42.298157       3.5134       2.5151      25.1507            0            0            0   -16396.575   -22268.938   -26920.776 -0.011350526 7.1511056e-12 -1.0024978e-11  0.011043392   -42.298157 
      22   -42.298157       3.5134       2.5151      25.1507            0            0            0   -16396.573   -22268.936   -26920.774 -0.010258727 -4.975433e-12 1.7575777e-11 0.00021772772   -42.298157 
      23   -42.298157       3.5134       2.5151      25.1507            0            0            0   -16396.574   -22268.936   -26920.774 -0.010121284 -5.3221948e-11 -4.0356426e-11 0.0001213709   -42.298157 
      24   -42.298157       3.5134       2.5151      25.1507            0            0            0    -16396.57   -22268.934   -26920.772 -0.0057088699 -7.8378928e-12 -2.7164461e-11 7.7888903e-05   -42.298157 
      25   -42.298157       3.5134       2.5151      25.1507            0            0            0   -16396.566   -22268.929   -26920.769 -0.00057374313 4.6905133e-12 3.4486463e-11 1.7720516e-05   -42.298157 
      26   -42.298157       3.5134       2.5151      25.1507            0            0            0   -16396.566   -22268.929   -26920.769 -5.0784343e-05 3.5324912e-12 -4.2859243e-11 -3.4185572e-07   -42.298157 
      27   -42.298157       3.5134       2.5151      25.1507            0            0            0   -16396.566   -22268.929   -26920.769 -2.3844805e-05 2.7004842e-11 2.1993187e-11 -6.3526675e-07   -42.298157 
      28   -42.298157       3.5134       2.5151      25.1507            0            0            0   -16396.566   -22268.929   -26920.769 -1.812207e-05 -2.1100544e-11 -2.4481795e-11 -1.7010837e-07   -42.298157 
      29   -42.298157       3.5134       2.5151      25.1507            0            0            0   -16396.566   -22268.929   -26920.769 -1.1481656e-05 -1.2262562e-11 -2.5124104e-11 1.1654727e-07   -42.298157 
      30   -42.298157       3.5134       2.5151      25.1507            0            0            0   -16396.566   -22268.929   -26920.769 -1.0721114e-05 5.4717282e-13 -3.9345235e-12 7.6648133e-08   -42.298157 
      31   -42.298157       3.5134       2.5151      25.1507            0            0            0   -16396.566   -22268.929   -26920.769 -6.1533458e-07 -7.1145656e-13 3.5016361e-11 2.6326884e-08   -42.298157 
      32   -42.298157       3.5134       2.5151      25.1507            0            0            0   -16396.566   -22268.929   -26920.769 3.4787327e-06 3.472674e-12 -9.1722341e-12 6.2569793e-08   -42.298157 
      33   -42.298157       3.5134       2.5151      25.1507            0            0            0   -16396.566   -22268.929   -26920.769 4.2239207e-06 1.4358927e-11 9.9278898e-11 1.5172831e-07   -42.298157 
      34   -42.298157       3.5134       2.5151      25.1507            0            0            0   -16396.566   -22268.929   -26920.769 1.7338122e-06 3.623751e-11 -3.0954401e-10 1.5976121e-07   -42.298157 
      35   -42.298157       3.5134       2.5151      25.1507            0            0            0   -16396.566   -22268.929   -26920.769 5.0117409e-07 9.7471356e-12 3.7143877e-10 8.3265668e-08   -42.298157 
      36   -42.298157       3.5134       2.5151      25.1507            0            0            0   -16396.566   -22268.929   -26920.769 1.500378e-07 -3.5988544e-12 -7.0101694e-10 8.5620214e-08   -42.298157 
      37   -42.298157       3.5134       2.5151      25.1507            0            0            0   -16396.566   -22268.929   -26920.769 -1.2497476e-09 -1.0712516e-11 7.7439433e-10 9.2845142e-08   -42.298157 
      38   -42.298157       3.5134       2.5151      25.1507            0            0            0   -16396.566   -22268.929   -26920.769 -1.0660803e-08 -2.3489424e-11 -6.0076522e-10 9.1845209e-08   -42.298157 
      39   -42.298157       3.5134       2.5151      25.1507            0            0            0   -16396.566   -22268.929   -26920.769 -7.7550523e-11 -1.143897e-11 7.3800703e-10 8.7807961e-08   -42.298157 
      40   -42.298157       3.5134       2.5151      25.1507            0            0            0   -16396.566   -22268.929   -26920.769 -1.9940536e-09 -2.3927148e-11 -3.2817319e-09 7.7283297e-08   -42.298157 
      41   -42.298157       3.5134       2.5151      25.1507            0            0            0   -16396.566   -22268.929   -26920.769 -4.7240449e-09 -9.2990801e-12 8.0440731e-10 6.6584591e-08   -42.298157 
      42   -42.298157       3.5134       2.5151      25.1507            0            0            0   -16396.566   -22268.929   -26920.769 -1.0775851e-11 -3.2454441e-11 -2.6788282e-11 6.2948565e-08   -42.298157 
      43   -42.298157       3.5134       2.5151      25.1507            0            0            0   -16396.566   -22268.929   -26920.769 2.3237625e-10 8.1533439e-12 1.6064835e-10 5.8958047e-08   -42.298157 
      44   -42.298157       3.5134       2.5151      25.1507            0            0            0   -16396.566   -22268.929   -26920.769 4.676754e-09 -1.9921419e-12 -7.3279998e-10 5.6924093e-08   -42.298157 
      45   -42.298157       3.5134       2.5151      25.1507            0            0            0   -16396.566   -22268.929   -26920.769 -5.3019033e-10 -2.0341239e-11 -7.3718933e-10 5.1402871e-08   -42.298157 
      46   -42.298157       3.5134       2.5151      25.1507            0            0            0   -16396.566   -22268.929   -26920.769 -9.5983815e-09 1.675699e-11 1.2523268e-09 4.3403332e-08   -42.298157 
      47   -42.298157       3.5134       2.5151      25.1507            0            0            0   -16396.566   -22268.929   -26920.769 2.7761192e-09 7.0697454e-12 6.9960829e-10 3.4767594e-08   -42.298157 
      48   -42.298157       3.5134       2.5151      25.1507            0            0            0   -16396.566   -22268.929   -26920.769 2.1440228e-09 -1.6095264e-11 -9.8727105e-10 3.2834419e-08   -42.298157 
      49   -42.298157       3.5134       2.5151      25.1507            0            0            0   -16396.566   -22268.929   -26920.769 -5.7197141e-09 2.2572601e-11 -1.9499684e-10 3.0305569e-08   -42.298157 
      50   -42.298157       3.5134       2.5151      25.1507            0            0            0   -16396.566   -22268.929   -26920.769 2.739807e-09 1.0575638e-11 1.0082124e-09 2.6503027e-08   -42.298157 
      51   -42.298157       3.5134       2.5151      25.1507            0            0            0   -16396.566   -22268.929   -26920.769 9.9022094e-09 -1.3346405e-12 -3.4610136e-10 1.9107171e-08   -42.298157 
      52   -42.298157       3.5134       2.5151      25.1507            0            0            0   -16396.566   -22268.929   -26920.769 -2.8574365e-09 1.9384553e-11 -3.0613456e-10 1.6289509e-08   -42.298157 
      53   -42.298157       3.5134       2.5151      25.1507            0            0            0   -16396.566   -22268.929   -26920.769 -4.3417955e-09 -2.3576695e-11 2.8175234e-10 1.4777756e-08   -42.298157 
      54   -42.298157       3.5134       2.5151      25.1507            0            0            0   -16396.566   -22268.929   -26920.769 1.7755639e-09 -1.7426069e-11 -5.7611384e-11 1.4117154e-08   -42.298157 
      55   -42.298157       3.5134       2.5151      25.1507            0            0            0   -16396.566   -22268.929   -26920.769 2.5742978e-09 1.0974501e-11 -2.7030312e-10 1.3158248e-08   -42.298157 
      56   -42.298157       3.5134       2.5151      25.1507            0            0            0   -16396.566   -22268.929   -26920.769 -2.2076423e-09 -2.6244609e-12 3.5178938e-10 1.1687818e-08   -42.298157 
      57   -42.298157       3.5134       2.5151      25.1507            0            0            0   -16396.566   -22268.929   -26920.769 -1.8930247e-09 -2.0653246e-11 -1.2394548e-10 1.0310403e-08   -42.298157 
      58   -42.298157       3.5134       2.5151      25.1507            0            0            0   -16396.566   -22268.929   -26920.769 1.4941785e-10 1.1336506e-11 -3.5129293e-10 8.5788723e-09   -42.298157 
      59   -42.298157       3.5134       2.5151      25.1507            0            0            0   -16396.566   -22268.929   -26920.769 3.6366969e-10 4.7312301e-11 3.7996197e-10 7.3124815e-09   -42.298157 
      60   -42.298157       3.5134       2.5151      25.1507            0            0            0   -16396.566   -22268.929   -26920.769 -1.0067672e-10 -1.627132e-12 -8.0082187e-11 7.1086975e-09   -42.298157 
      61   -42.298157       3.5134       2.5151      25.1507            0            0            0   -16396.566   -22268.929   -26920.769 -7.9716661e-10 -3.7290724e-11 9.8979995e-11 6.822645e-09   -42.298157 
      62   -42.298157       3.5134       2.5151      25.1507            0            0            0   -16396.566   -22268.929   -26920.769 7.5629649e-10 4.3159044e-12 7.9159318e-11 6.1914727e-09   -42.298157 
      63   -42.298157       3.5134       2.5151      25.1507            0            0            0   -16396.566   -22268.929   -26920.769 1.2114651e-09 -1.2643693e-12 -8.1628508e-11 5.5696518e-09   -42.298157 
      64   -42.298157       3.5134       2.5151      25.1507            0            0            0   -16396.566   -22268.929   -26920.769 3.2021099e-10 -1.2344924e-11 7.2612388e-13 5.2417382e-09   -42.298157 
      65   -42.298157       3.5134       2.5151      25.1507            0            0            0   -16396.566   -22268.929   -26920.769 -1.8908213e-11 -1.0595837e-11 9.6373493e-11 4.6041718e-09   -42.298157 
      66   -42.298157       3.5134       2.5151      25.1507            0            0            0   -16396.566   -22268.929   -26920.769 -3.7072524e-10 -1.4648365e-11 -1.5545973e-10 3.6152668e-09   -42.298157 
Loop time of 0.0409381 on 1 procs for 66 steps with 10 atoms

43.0% CPU use with 1 MPI tasks x no OpenMP threads

Minimization stats:
  Stopping criterion = energy tolerance
  Energy initial, next-to-last, final = 
        -42.1693686402     -42.2981568467     -42.2981568467
  Force two-norm initial, final = 0.937246 2.32989e-13
  Force max component initial, final = 0.624515 1.17083e-13
  Final line search alpha, max atom move = 1 1.17083e-13
  Iterations, force evaluations = 66 130

MPI task timing breakdown:
Section |  min time  |  avg time  |  max time  |%varavg| %total
---------------------------------------------------------------
Pair    | 0.038976   | 0.038976   | 0.038976   |   0.0 | 95.21
Neigh   | 0          | 0          | 0          |   0.0 |  0.00
Comm    | 0.00085974 | 0.00085974 | 0.00085974 |   0.0 |  2.10
Output  | 0.00084996 | 0.00084996 | 0.00084996 |   0.0 |  2.08
Modify  | 0          | 0          | 0          |   0.0 |  0.00
Other   |            | 0.0002525  |            |       |  0.62

Nlocal:    10 ave 10 max 10 min
Histogram: 1 0 0 0 0 0 0 0 0 0
Nghost:    1357 ave 1357 max 1357 min
Histogram: 1 0 0 0 0 0 0 0 0 0
Neighs:    1766 ave 1766 max 1766 min
Histogram: 1 0 0 0 0 0 0 0 0 0

Total # of neighbors = 1766
Ave neighs/atom = 176.6
Neighbor list builds = 0
Dangerous builds = 0

# ---- define output variables ----
variable natoms equal "count(all)"
variable tot_energy equal "c_eatoms"
variable a11 equal "xhi-xlo"
variable a22 equal "yhi-ylo"
variable a33 equal "zhi-zlo"
variable tilt_xy equal "xy"
variable tilt_xz equal "xz"
variable tilt_yz equal "yz"
variable tot_press equal "press"
variable press_xx equal "pxx"
variable press_yy equal "pyy"
variable press_zz equal "pzz"
variable press_xy equal "pxy"
variable press_xz equal "pxz"
variable press_yz equal "pyz"

# ---- output ----
print "pypospack:output_section:begin"
pypospack:output_section:begin
print "tot_energy = ${tot_energy}"
tot_energy = -42.2981568466729
print "num_atoms = ${natoms}"
num_atoms = 10
print "a11 = ${a11}"
a11 = 3.5134
print "a22 = ${a22}"
a22 = 2.5151
print "a33 = ${a33}"
a33 = 25.1507
print "a12 = ${tilt_xy}"
a12 = 0
print "a13 = ${tilt_xz}"
a13 = 0
print "a23 = ${tilt_yz}"
a23 = 0
print "tot_press = ${tot_press}"
tot_press = -16396.5657731485
print "pxx = ${press_xx}"
pxx = -22268.9287716774
print "pyy = ${press_yy}"
pyy = -26920.7685477677
print "pzz = ${press_zz}"
pzz = -3.70725240144882e-10
print "pxy = ${press_xy}"
pxy = -1.46483649040788e-11
print "pxz = ${press_xz}"
pxz = -1.55459730644484e-10
print "pyz = ${press_yz}"
pyz = 3.61526676930643e-09
print "pypospack:output_section:done"
pypospack:output_section:done
print "pypospack:lammps_sim:done"
pypospack:lammps_sim:done
Total wall time: 0:00:00
