LAMMPS (11 Aug 2017)
Reading data file ...
  triclinic box = (0 0 0) to (2.4862 4.3062 36.5336) with tilt (0 0 -0.0004)
  1 by 1 by 1 MPI processor grid
  reading atoms ...
  18 atoms
18 atoms in group Ni
Neighbor list info ...
  update every 1 steps, delay 0 steps, check yes
  max neighbors/atom: 2000, page size: 100000
  master list distance cutoff = 11
  ghost atom cutoff = 11
  binsize = 5.5, bins = 1 1 7
  1 neighbor lists, perpetual/occasional/extra = 1 0 0
  (1) pair eam/alloy, perpetual
      attributes: half, newton on
      pair build: half/bin/newton/tri
      stencil: half/bin/3d/newton/tri
      bin: standard
Setting up cg style minimization ...
  Unit style    : metal
  Current step  : 0
Per MPI rank memory allocation (min/avg/max) = 4.343 | 4.343 | 4.343 Mbytes
Step PotEng Lx Ly Lz Xy Xz Yz Press Pxx Pyy Pzz Pxy Pxz Pyz c_eatoms 
       0   -78.052333       2.4862       4.3062      36.5336            0            0      -0.0004    -6980.274   -9237.9989    -9234.846   -2467.9773 1.1345207e-12 6.2973652e-13  -0.71559584   -78.052333 
       1    -78.05405       2.4862       4.3062      36.5336            0            0      -0.0004   -6408.5188   -8814.0139   -8810.8715   -1600.6711  4.92166e-12 3.4249506e-12  -0.71079105    -78.05405 
       2   -78.054377       2.4862       4.3062      36.5336            0            0      -0.0004   -6067.3625   -8557.3029   -8554.1827   -1090.6018 -7.7498576e-12 7.7875443e-13  -0.69798642   -78.054377 
       3   -78.054456       2.4862       4.3062      36.5336            0            0      -0.0004   -5875.2661    -8411.428   -8408.3279   -806.04246 4.0367454e-12 -3.4612351e-12  -0.68578364   -78.054456 
       4   -78.054472       2.4862       4.3062      36.5336            0            0      -0.0004   -5827.4205   -8376.8293   -8373.7595   -731.67278 -4.7599891e-12 -9.9848313e-12  -0.66671195   -78.054472 
       5   -78.054533       2.4862       4.3062      36.5336            0            0      -0.0004   -5328.4288   -8004.9224   -8002.0569    21.692957 -4.2698551e-12 -1.7003936e-11  -0.53848053   -78.054533 
       6   -78.054534       2.4862       4.3062      36.5336            0            0      -0.0004   -5327.8947   -8004.4017   -8001.5393    22.256891 -1.2323369e-11 2.0722701e-12  -0.53648614   -78.054534 
       7   -78.054534       2.4862       4.3062      36.5336            0            0      -0.0004   -5332.0109   -8007.4975   -8004.6402    16.105123 -6.6384745e-11 -4.1614952e-12  -0.53328964   -78.054534 
       8   -78.054534       2.4862       4.3062      36.5336            0            0      -0.0004   -5334.9997   -8009.7566   -8006.9052    11.662638 3.4629553e-11 1.693566e-11  -0.52959313   -78.054534 
       9   -78.054534       2.4862       4.3062      36.5336            0            0      -0.0004   -5336.6008   -8010.9282   -8008.0927    9.2184337 5.4482585e-12 -1.4314256e-11  -0.51952895   -78.054534 
      10   -78.054534       2.4862       4.3062      36.5336            0            0      -0.0004   -5342.1837    -8015.024   -8012.2487   0.72160663 4.1193409e-12 3.0420339e-11  -0.48155372   -78.054534 
      11   -78.054534       2.4862       4.3062      36.5336            0            0      -0.0004   -5342.6235   -8015.3404   -8012.5798  0.049620645 -4.9911876e-11 1.4506354e-11  -0.47220491   -78.054534 
      12   -78.054534       2.4862       4.3062      36.5336            0            0      -0.0004   -5342.6521   -8015.3568   -8012.6062  0.006699706 8.0083218e-12 -4.9672835e-12  -0.46577503   -78.054534 
      13   -78.054534       2.4862       4.3062      36.5336            0            0      -0.0004   -5342.6717   -8015.3564   -8012.6351  -0.02348211 4.6098895e-11 1.916401e-11  -0.44706827   -78.054534 
      14   -78.054534       2.4862       4.3062      36.5336            0            0      -0.0004   -5342.6739   -8015.3502   -8012.6444 -0.026886499 9.3263481e-12 -8.8886109e-12  -0.43724152   -78.054534 
      15   -78.054534       2.4862       4.3062      36.5336            0            0      -0.0004    -5342.705   -8015.2846   -8012.7566 -0.073736315 4.0288088e-11 1.6820414e-11  -0.32415741   -78.054534 
      16   -78.054534       2.4862       4.3062      36.5336            0            0      -0.0004   -5342.7658   -8015.1924   -8012.9426  -0.16223001 1.8599782e-11 2.3601232e-11  -0.14732196   -78.054534 
      17   -78.054534       2.4862       4.3062      36.5336            0            0      -0.0004   -5342.6724   -8015.0359   -8012.9582 -0.023221306 3.2830121e-12 4.4446865e-12  -0.03808079   -78.054534 
      18   -78.054534       2.4862       4.3062      36.5336            0            0      -0.0004   -5342.6287   -8014.9866   -8012.9406  0.040988728 -4.9894367e-11 -3.4056133e-11 -0.017963186   -78.054534 
      19   -78.054534       2.4862       4.3062      36.5336            0            0      -0.0004    -5342.648   -8014.9878   -8012.9688  0.012558612 -2.4433732e-12 -5.149888e-11 -0.0010558669   -78.054534 
      20   -78.054534       2.4862       4.3062      36.5336            0            0      -0.0004   -5342.6508   -8014.9893   -8012.9715 0.0083545693 2.3995565e-11 -2.3530757e-11 -0.00028574913   -78.054534 
      21   -78.054534       2.4862       4.3062      36.5336            0            0      -0.0004   -5342.6512   -8014.9895   -8012.9718 0.0078356627 -3.8755341e-11 -2.6374273e-11 -0.00021985708   -78.054534 
      22   -78.054534       2.4862       4.3062      36.5336            0            0      -0.0004   -5342.6521     -8014.99   -8012.9726 0.0064504805 -1.0679049e-11 -3.9227598e-11 -7.1401839e-05   -78.054534 
      23   -78.054534       2.4862       4.3062      36.5336            0            0      -0.0004   -5342.6529   -8014.9906   -8012.9733 0.0052524053 -2.6257159e-11 1.9248223e-11 2.6716327e-06   -78.054534 
      24   -78.054534       2.4862       4.3062      36.5336            0            0      -0.0004   -5342.6537   -8014.9912   -8012.9739 0.0039089124 -6.4827756e-11 -4.1070425e-11 2.5836208e-06   -78.054534 
      25   -78.054534       2.4862       4.3062      36.5336            0            0      -0.0004   -5342.6554   -8014.9925   -8012.9752 0.0013200036 -5.1725994e-11 -3.1502478e-11 -1.1169518e-05   -78.054534 
      26   -78.054534       2.4862       4.3062      36.5336            0            0      -0.0004   -5342.6559   -8014.9928   -8012.9755 0.00055707311 -3.3667744e-11 -4.4300077e-11 -1.4400794e-05   -78.054534 
      27   -78.054534       2.4862       4.3062      36.5336            0            0      -0.0004   -5342.6563   -8014.9931   -8012.9758 3.204016e-06 6.7068199e-12 -3.7877125e-11 -1.6329599e-05   -78.054534 
Loop time of 0.0144901 on 1 procs for 27 steps with 18 atoms

91.7% CPU use with 1 MPI tasks x no OpenMP threads

Minimization stats:
  Stopping criterion = energy tolerance
  Energy initial, next-to-last, final = 
        -78.0523326048      -78.054533637      -78.054533637
  Force two-norm initial, final = 0.194825 3.16874e-09
  Force max component initial, final = 0.0716472 1.13643e-09
  Final line search alpha, max atom move = 1 1.13643e-09
  Iterations, force evaluations = 27 54

MPI task timing breakdown:
Section |  min time  |  avg time  |  max time  |%varavg| %total
---------------------------------------------------------------
Pair    | 0.013474   | 0.013474   | 0.013474   |   0.0 | 92.99
Neigh   | 0          | 0          | 0          |   0.0 |  0.00
Comm    | 0.00047255 | 0.00047255 | 0.00047255 |   0.0 |  3.26
Output  | 0.0003922  | 0.0003922  | 0.0003922  |   0.0 |  2.71
Modify  | 0          | 0          | 0          |   0.0 |  0.00
Other   |            | 0.0001514  |            |       |  1.04

Nlocal:    18 ave 18 max 18 min
Histogram: 1 0 0 0 0 0 0 0 0 0
Nghost:    1737 ave 1737 max 1737 min
Histogram: 1 0 0 0 0 0 0 0 0 0
Neighs:    3690 ave 3690 max 3690 min
Histogram: 1 0 0 0 0 0 0 0 0 0

Total # of neighbors = 3690
Ave neighs/atom = 205
Neighbor list builds = 0
Dangerous builds = 0
pypospack:output_section:begin
tot_energy = -78.054533636977
num_atoms = 18
a11 = 2.4862
a22 = 4.3062
a33 = 36.5336
a12 = 0
a13 = 0
a23 = -0.0004
tot_press = -5342.6563084899
pxx = -8014.99312137509
pyy = -8012.97580729862
pzz = 3.20401602587253e-06
pxy = 6.70681985459578e-12
pxz = -3.78771253324231e-11
pyz = -1.63295989858225e-05
pypospack:output_section:done
pypospack:lammps_sim:done
Total wall time: 0:00:00
