# ['Ni']

10 atoms
1 atom types

    0.0000     3.3594 xlo xhi
    0.0000     2.4048 ylo yhi
    0.0000    24.0478 zlo zhi

    0.0000     0.0000     0.0000 xy xz yz

Atoms

1 1     0.0000     0.0000     0.0000
2 1     1.6797     1.2024     1.2024
3 1     0.0000     0.0000     2.4048
4 1     1.6797     1.2024     3.6072
5 1     0.0000     0.0000     4.8096
6 1     1.6797     1.2024     6.0119
7 1     0.0000     0.0000     7.2143
8 1     1.6797     1.2024     8.4167
9 1     0.0000     0.0000     9.6191
10 1     1.6797     1.2024    10.8215
