LAMMPS (11 Aug 2017)
# ---- initialize simulations
clear
units metal
dimension 3
boundary p p p
atom_style atomic
atom_modify map array
# ---- create atoms
read_data /home/sullberg/repos/pypospack/examples/Ni__eam__born_exp_rose/01_preconditioning_3.5NN/rank_44/Ni_fcc_111_s.lmps_min_pos/lammps.structure
  triclinic box = (0 0 0) to (2.4896 4.3122 36.5839) with tilt (0 0 -0.0004)
  1 by 1 by 1 MPI processor grid
  reading atoms ...
  18 atoms
# ---- define interatomic potential
include potential.mod
mass 1 58.6934

group Ni type 1
18 atoms in group Ni

pair_style eam/alloy
pair_coeff * * /home/sullberg/repos/pypospack/examples/Ni__eam__born_exp_rose/01_preconditioning_3.5NN/rank_44/Ni_fcc_111_s.lmps_min_pos/Ni.eam.alloy Ni

neighbor 1.0 bin
neigh_modify every 1 delay 0 check yes
# ---- define settings
compute eng all pe/atom
compute eatoms all reduce sum c_eng

# ---- run minimization
reset_timestep 0
thermo 1
thermo_style custom step pe lx ly lz xy xz yz press pxx pyy pzz pxy pxz pyz c_eatoms
min_style cg
minimize 1e-20 1e-20 1000 100000
Neighbor list info ...
  update every 1 steps, delay 0 steps, check yes
  max neighbors/atom: 2000, page size: 100000
  master list distance cutoff = 11
  ghost atom cutoff = 11
  binsize = 5.5, bins = 1 1 7
  1 neighbor lists, perpetual/occasional/extra = 1 0 0
  (1) pair eam/alloy, perpetual
      attributes: half, newton on
      pair build: half/bin/newton/tri
      stencil: half/bin/3d/newton/tri
      bin: standard
Per MPI rank memory allocation (min/avg/max) = 4.343 | 4.343 | 4.343 Mbytes
Step PotEng Lx Ly Lz Xy Xz Yz Press Pxx Pyy Pzz Pxy Pxz Pyz c_eatoms 
       0   -79.473465       2.4896       4.3122      36.5839            0            0      -0.0004   -18128.308   -21575.259   -21580.484    -11229.18 3.7250068e-13 3.1675895e-13    1.2300492   -79.473465 
       1   -79.526004       2.4896       4.3122      36.5839            0            0      -0.0004   -14081.961   -17819.633   -17824.888   -6601.3617 -1.3068656e-12 2.3244437e-12    1.2621593   -79.526004 
       2   -79.532531       2.4896       4.3122      36.5839            0            0      -0.0004   -12042.933   -15973.601   -15978.824   -4176.3732 -2.0007883e-12 2.9430737e-13    1.2549589   -79.532531 
       3   -79.533453       2.4896       4.3122      36.5839            0            0      -0.0004   -11528.213   -15525.931    -15531.11    -3527.597 4.7326563e-13 8.8170441e-12    1.2311646   -79.533453 
       4   -79.534398       2.4896       4.3122      36.5839            0            0      -0.0004   -9933.6355   -14137.926   -14142.925   -1520.0557 -5.2659603e-12 1.9724008e-13    1.1319004   -79.534398 
       5   -79.535034       2.4896       4.3122      36.5839            0            0      -0.0004   -8664.7384   -13021.273   -13026.121    53.179471 3.7410569e-13 -2.7029471e-12    1.0486162   -79.535034 
       6   -79.535203       2.4896       4.3122      36.5839            0            0      -0.0004   -8702.2424   -13071.218   -13076.026    40.517368 2.6915112e-13 3.2537789e-13    1.0237968   -79.535203 
       7   -79.535209       2.4896       4.3122      36.5839            0            0      -0.0004   -8688.2215   -13058.124   -13062.924     56.38333 -6.3994278e-12 3.2483005e-12    1.0191101   -79.535209 
       8   -79.535209       2.4896       4.3122      36.5839            0            0      -0.0004   -8711.0944   -13078.408   -13083.182      28.3059 -4.4101355e-12 -1.0559475e-12    1.0026605   -79.535209 
       9   -79.535209       2.4896       4.3122      36.5839            0            0      -0.0004   -8722.9843   -13088.551    -13093.29    12.888851 2.4241932e-12 6.8826418e-12   0.98094225   -79.535209 
      10   -79.535209       2.4896       4.3122      36.5839            0            0      -0.0004    -8733.103   -13097.298   -13101.986 -0.024924203 1.7938231e-12 1.0110984e-12   0.94914142   -79.535209 
      11   -79.535209       2.4896       4.3122      36.5839            0            0      -0.0004   -8732.9773   -13097.187   -13101.855   0.10987909 -5.2324089e-12 3.0209289e-12   0.93754461   -79.535209 
      12   -79.535209       2.4896       4.3122      36.5839            0            0      -0.0004   -8733.0776   -13097.298   -13101.926 -0.0091228361 -1.8413221e-13 -1.390962e-12   0.91318116   -79.535209 
      13   -79.535209       2.4896       4.3122      36.5839            0            0      -0.0004   -8733.1242   -13097.352   -13101.959  -0.06207556 -2.4139601e-13 7.6608642e-12   0.90036625   -79.535209 
      14   -79.535209       2.4896       4.3122      36.5839            0            0      -0.0004   -8733.1001   -13097.393   -13101.874 -0.034173925 -3.414965e-12 -2.7640606e-12   0.82322575   -79.535209 
      15   -79.535209       2.4896       4.3122      36.5839            0            0      -0.0004   -8733.0743   -13097.402   -13101.817 -0.0037906665 7.3400539e-12 1.1238664e-12   0.78241508   -79.535209 
      16   -79.535209       2.4896       4.3122      36.5839            0            0      -0.0004   -8733.0518   -13097.466   -13101.714  0.024728778 6.1915245e-12 -3.6393486e-13   0.68025938   -79.535209 
      17   -79.535209       2.4896       4.3122      36.5839            0            0      -0.0004   -8733.0323   -13097.686   -13101.465  0.053840291 -6.2097118e-12 8.3975645e-12   0.39318759   -79.535209 
      18   -79.535209       2.4896       4.3122      36.5839            0            0      -0.0004   -8732.9955   -13097.748   -13101.335  0.096686142 1.0242139e-11 3.5818744e-12   0.27582756   -79.535209 
      19   -79.535209       2.4896       4.3122      36.5839            0            0      -0.0004   -8732.9731   -13097.849   -13101.191   0.12105385 -7.8829673e-12 -2.3915237e-12   0.12607639   -79.535209 
      20   -79.535209       2.4896       4.3122      36.5839            0            0      -0.0004   -8733.0157   -13097.912   -13101.208  0.072808094 -1.5217297e-12 4.4696945e-12  0.097841493   -79.535209 
      21   -79.535209       2.4896       4.3122      36.5839            0            0      -0.0004   -8733.0217   -13097.922   -13101.208  0.065566556 6.4703921e-12 -1.1161104e-12  0.091862598   -79.535209 
      22   -79.535209       2.4896       4.3122      36.5839            0            0      -0.0004   -8733.0108   -13097.914   -13101.195  0.076457979 2.0008038e-13 2.9021015e-12  0.089148198   -79.535209 
      23   -79.535209       2.4896       4.3122      36.5839            0            0      -0.0004   -8733.0327   -13097.935   -13101.212  0.048796525 3.6928547e-12 2.5615123e-13  0.085733768   -79.535209 
      24   -79.535209       2.4896       4.3122      36.5839            0            0      -0.0004   -8733.0653   -13097.966    -13101.24  0.010036433 -6.5367055e-12 -1.0412834e-11  0.084489424   -79.535209 
      25   -79.535209       2.4896       4.3122      36.5839            0            0      -0.0004   -8733.0877   -13097.986   -13101.258   -0.0183466 -4.7914853e-12 7.7626541e-12  0.083081289   -79.535209 
      26   -79.535209       2.4896       4.3122      36.5839            0            0      -0.0004   -8733.0975   -13097.996   -13101.265 -0.031749853 -1.5885301e-11 -9.4434816e-12  0.081474284   -79.535209 
      27   -79.535209       2.4896       4.3122      36.5839            0            0      -0.0004   -8733.1053   -13098.004   -13101.271 -0.041113396 -9.0434729e-12 -1.1567614e-11  0.079652931   -79.535209 
      28   -79.535209       2.4896       4.3122      36.5839            0            0      -0.0004    -8733.098       -13098   -13101.261 -0.032256842 3.6932106e-12 -3.9884229e-12  0.076327977   -79.535209 
      29   -79.535209       2.4896       4.3122      36.5839            0            0      -0.0004   -8733.0856   -13097.995   -13101.245 -0.017153909 3.1052377e-12 8.7360766e-12  0.069926383   -79.535209 
      30   -79.535209       2.4896       4.3122      36.5839            0            0      -0.0004    -8733.082       -13098   -13101.234 -0.011755875 5.2595403e-12 -6.3431466e-12  0.059680335   -79.535209 
      31   -79.535209       2.4896       4.3122      36.5839            0            0      -0.0004   -8733.0764   -13098.004   -13101.221 -0.0040447186 -1.1238006e-11 -1.2071937e-11  0.049671932   -79.535209 
      32   -79.535209       2.4896       4.3122      36.5839            0            0      -0.0004   -8733.0495   -13097.999   -13101.179  0.029883093 -4.5875108e-12 -9.7336525e-12  0.026394012   -79.535209 
      33   -79.535209       2.4896       4.3122      36.5839            0            0      -0.0004   -8733.0375   -13097.994   -13101.163  0.044120065 -4.7963988e-12 1.1408429e-12  0.019659973   -79.535209 
      34   -79.535209       2.4896       4.3122      36.5839            0            0      -0.0004   -8733.0373   -13097.997    -13101.16   0.04426644 -1.2434688e-11 1.1235748e-12  0.016383038   -79.535209 
      35   -79.535209       2.4896       4.3122      36.5839            0            0      -0.0004   -8733.0526   -13098.013    -13101.17  0.025595759 -6.8052968e-12 -3.7681252e-12    0.0125867   -79.535209 
      36   -79.535209       2.4896       4.3122      36.5839            0            0      -0.0004    -8733.058   -13098.019   -13101.173  0.018428364 -5.5599952e-12 9.0328969e-12  0.010802408   -79.535209 
      37   -79.535209       2.4896       4.3122      36.5839            0            0      -0.0004   -8733.0613   -13098.023   -13101.175  0.014088824 -1.2706019e-11 -6.0366354e-12 0.0098459049   -79.535209 
      38   -79.535209       2.4896       4.3122      36.5839            0            0      -0.0004   -8733.0688    -13098.03   -13101.181  0.004862051 -3.2412956e-12 2.2184058e-12 0.0088867345   -79.535209 
      39   -79.535209       2.4896       4.3122      36.5839            0            0      -0.0004   -8733.0712   -13098.033   -13101.183 0.0018725619 -4.5452657e-12 7.7064109e-12 0.0083498162   -79.535209 
      40   -79.535209       2.4896       4.3122      36.5839            0            0      -0.0004   -8733.0712   -13098.033   -13101.182 0.0016291708 -7.5042452e-13 -9.7138775e-13 0.0080193196   -79.535209 
      41   -79.535209       2.4896       4.3122      36.5839            0            0      -0.0004   -8733.0738   -13098.036   -13101.184 -0.0016082988 -4.337409e-12 1.5863538e-11 0.0070944004   -79.535209 
      42   -79.535209       2.4896       4.3122      36.5839            0            0      -0.0004    -8733.075   -13098.037   -13101.185 -0.003060434 -2.7064159e-12 -3.0099797e-12 0.0066241159   -79.535209 
      43   -79.535209       2.4896       4.3122      36.5839            0            0      -0.0004   -8733.0752   -13098.038   -13101.184 -0.0032603907 -8.4469514e-13 5.4479744e-13 0.0061770301   -79.535209 
      44   -79.535209       2.4896       4.3122      36.5839            0            0      -0.0004   -8733.0748   -13098.038   -13101.183 -0.0027768334 1.4261827e-11 1.787679e-12 0.0051540152   -79.535209 
      45   -79.535209       2.4896       4.3122      36.5839            0            0      -0.0004   -8733.0742   -13098.039   -13101.181 -0.0020901456 -5.1317839e-12 -5.8879585e-12 0.0033333816   -79.535209 
Loop time of 0.0226979 on 1 procs for 45 steps with 18 atoms

98.5% CPU use with 1 MPI tasks x no OpenMP threads

Minimization stats:
  Stopping criterion = energy tolerance
  Energy initial, next-to-last, final = 
        -79.4734651983     -79.5352088988     -79.5352088988
  Force two-norm initial, final = 0.834731 2.81192e-07
  Force max component initial, final = 0.309155 1.0412e-07
  Final line search alpha, max atom move = 1 1.0412e-07
  Iterations, force evaluations = 45 89

MPI task timing breakdown:
Section |  min time  |  avg time  |  max time  |%varavg| %total
---------------------------------------------------------------
Pair    | 0.021031   | 0.021031   | 0.021031   |   0.0 | 92.66
Neigh   | 0          | 0          | 0          |   0.0 |  0.00
Comm    | 0.00076246 | 0.00076246 | 0.00076246 |   0.0 |  3.36
Output  | 0.00066352 | 0.00066352 | 0.00066352 |   0.0 |  2.92
Modify  | 0          | 0          | 0          |   0.0 |  0.00
Other   |            | 0.0002408  |            |       |  1.06

Nlocal:    18 ave 18 max 18 min
Histogram: 1 0 0 0 0 0 0 0 0 0
Nghost:    1737 ave 1737 max 1737 min
Histogram: 1 0 0 0 0 0 0 0 0 0
Neighs:    3690 ave 3690 max 3690 min
Histogram: 1 0 0 0 0 0 0 0 0 0

Total # of neighbors = 3690
Ave neighs/atom = 205
Neighbor list builds = 0
Dangerous builds = 0

# ---- define output variables ----
variable natoms equal "count(all)"
variable tot_energy equal "c_eatoms"
variable a11 equal "xhi-xlo"
variable a22 equal "yhi-ylo"
variable a33 equal "zhi-zlo"
variable tilt_xy equal "xy"
variable tilt_xz equal "xz"
variable tilt_yz equal "yz"
variable tot_press equal "press"
variable press_xx equal "pxx"
variable press_yy equal "pyy"
variable press_zz equal "pzz"
variable press_xy equal "pxy"
variable press_xz equal "pxz"
variable press_yz equal "pyz"

# ---- output ----
print "pypospack:output_section:begin"
pypospack:output_section:begin
print "tot_energy = ${tot_energy}"
tot_energy = -79.5352088987557
print "num_atoms = ${natoms}"
num_atoms = 18
print "a11 = ${a11}"
a11 = 2.4896
print "a22 = ${a22}"
a22 = 4.3122
print "a33 = ${a33}"
a33 = 36.5839
print "a12 = ${tilt_xy}"
a12 = 0
print "a13 = ${tilt_xz}"
a13 = 0
print "a23 = ${tilt_yz}"
a23 = -0.0004
print "tot_press = ${tot_press}"
tot_press = -8733.07421560691
print "pxx = ${press_xx}"
pxx = -13098.0394358461
print "pyy = ${press_yy}"
pyy = -13101.181120829
print "pzz = ${press_zz}"
pzz = -0.00209014560820387
print "pxy = ${press_xy}"
pxy = -5.13178386752081e-12
print "pxz = ${press_xz}"
pxz = -5.88795852814352e-12
print "pyz = ${press_yz}"
pyz = 0.00333338155376521
print "pypospack:output_section:done"
pypospack:output_section:done
print "pypospack:lammps_sim:done"
pypospack:lammps_sim:done
Total wall time: 0:00:00
