# ['Ni']

20 atoms
1 atom types

    0.0000     3.6791 xlo xhi
    0.0000     3.6791 ylo yhi
    0.0000    36.7913 zlo zhi

    0.0000    -0.0000     0.0000 xy xz yz

Atoms

1 1     0.0000     0.0000     0.0000
2 1     1.8396     1.8396     0.0000
3 1     1.8396     0.0000     1.8396
4 1     0.0000     1.8396     1.8396
5 1     0.0000     0.0000     3.6791
6 1     1.8396     1.8396     3.6791
7 1     1.8396     0.0000     5.5187
8 1     0.0000     1.8396     5.5187
9 1     0.0000     0.0000     7.3583
10 1     1.8396     1.8396     7.3583
11 1     1.8396     0.0000     9.1978
12 1     0.0000     1.8396     9.1978
13 1     0.0000     0.0000    11.0374
14 1     1.8396     1.8396    11.0374
15 1     1.8396     0.0000    12.8770
16 1     0.0000     1.8396    12.8770
17 1     0.0000     0.0000    14.7165
18 1     1.8396     1.8396    14.7165
19 1     1.8396     0.0000    16.5561
20 1     0.0000     1.8396    16.5561
