LAMMPS (11 Aug 2017)
Reading data file ...
  triclinic box = (0 0 0) to (2.322 2.322 2.322) with tilt (-0 -0 0)
  1 by 1 by 1 MPI processor grid
  reading atoms ...
  1 atoms
1 atoms in group Ni
Neighbor list info ...
  update every 1 steps, delay 0 steps, check yes
  max neighbors/atom: 2000, page size: 100000
  master list distance cutoff = 5.64464
  ghost atom cutoff = 5.64464
  binsize = 2.82232, bins = 1 1 1
  1 neighbor lists, perpetual/occasional/extra = 1 0 0
  (1) pair eam/alloy, perpetual
      attributes: half, newton on
      pair build: half/bin/newton/tri
      stencil: half/bin/3d/newton/tri
      bin: standard
Setting up cg style minimization ...
  Unit style    : metal
  Current step  : 0
WARNING: Energy due to 3 extra global DOFs will be included in minimizer energies
Per MPI rank memory allocation (min/avg/max) = 4.239 | 4.239 | 4.239 Mbytes
Step PotEng Xhi Xlo Yhi Ylo Zhi Xy Xz Yz Press Pxx Pyy Pzz Pxy Pxz Pyz c_eatoms 
       0   -2.2491862        2.322            0        2.322            0        2.322           -0           -0            0    66605.621    66605.621    66605.621    66605.621            0            0            0   -2.2491862 
      10   -2.2614042      2.33361     -0.01161      2.33361     -0.01161      2.33361           -0           -0            0    37453.656    37453.656    37453.656    37453.656            0 6.8950882e-12 3.4475441e-12   -2.2614042 
      20   -2.2673526      2.34522     -0.02322      2.34522     -0.02322      2.34522           -0           -0            0    12549.611    12549.611    12549.611    12549.611 -3.3471366e-12 -4.1839207e-12 -3.3471366e-12   -2.2673526 
      28    -2.268218    2.3518646 -0.029864556    2.3518646 -0.029864556    2.3518646           -0           -0            0 2.1449097e-10 2.1558811e-10 2.0900526e-10 2.1887953e-10            0 -8.2285537e-13 1.6457107e-12    -2.268218 
Loop time of 0.000281811 on 1 procs for 28 steps with 1 atoms

57.5% CPU use with 1 MPI tasks x no OpenMP threads

Minimization stats:
  Stopping criterion = energy tolerance
  Energy initial, next-to-last, final = 
         -2.2491861812     -2.26821801285     -2.26821801285
  Force two-norm initial, final = 0.901463 3.05482e-15
  Force max component initial, final = 0.52046 1.79946e-15
  Final line search alpha, max atom move = 1 1.79946e-15
  Iterations, force evaluations = 28 31

MPI task timing breakdown:
Section |  min time  |  avg time  |  max time  |%varavg| %total
---------------------------------------------------------------
Pair    | 9.2983e-05 | 9.2983e-05 | 9.2983e-05 |   0.0 | 32.99
Neigh   | 0          | 0          | 0          |   0.0 |  0.00
Comm    | 3.4094e-05 | 3.4094e-05 | 3.4094e-05 |   0.0 | 12.10
Output  | 2.0981e-05 | 2.0981e-05 | 2.0981e-05 |   0.0 |  7.45
Modify  | 0          | 0          | 0          |   0.0 |  0.00
Other   |            | 0.0001338  |            |       | 47.46

Nlocal:    1 ave 1 max 1 min
Histogram: 1 0 0 0 0 0 0 0 0 0
Nghost:    215 ave 215 max 215 min
Histogram: 1 0 0 0 0 0 0 0 0 0
Neighs:    28 ave 28 max 28 min
Histogram: 1 0 0 0 0 0 0 0 0 0

Total # of neighbors = 28
Ave neighs/atom = 28
Neighbor list builds = 0
Dangerous builds = 0
pypospack:output_section:begin
tot_energy = -2.26821801285385
num_atoms = 1
a11 = 2.38172911190106
a22 = 2.38172911190106
a33 = 2.38172911190106
a12 = -0
a13 = -0
a23 = 0
tot_press = 2.14490967238231e-10
pxx = 2.15588107735613e-10
pyy = 2.09005264751319e-10
pzz = 2.1887952922776e-10
pxy = 0
pxz = -8.2285537303669e-13
pyz = 1.64571074607338e-12
pypospack:output_section:done
pypospack:lammps_sim:done
Total wall time: 0:00:00
