# ['Ni']

28 atoms
1 atom types

    0.0000     2.4821 xlo xhi
    0.0000     4.2991 ylo yhi
    0.0000    28.3724 zlo zhi

    0.0000     0.0000     0.0000 xy xz yz

Atoms

1 1     0.0000     0.0000     0.0000
2 1     1.2410     2.1495     0.0000
3 1     1.2410     0.7165     2.0266
4 1     0.0000     2.8660     2.0266
5 1     0.0000     1.4330     4.0532
6 1     1.2410     3.5825     4.0532
7 1     0.0000     0.0000     6.0798
8 1     1.2410     2.1495     6.0798
9 1     1.2410     0.7165     8.1064
10 1     0.0000     2.8660     8.1064
11 1     0.0000     1.4330    10.1330
12 1     1.2410     3.5825    10.1330
13 1     0.0000     0.0000    12.1596
14 1     1.2410     2.1495    12.1596
15 1     0.0000     1.4330    14.1862
16 1     1.2410     3.5825    14.1862
17 1     0.0000     0.0000    16.2128
18 1     1.2410     2.1495    16.2128
19 1     1.2410     0.7165    18.2394
20 1     0.0000     2.8660    18.2394
21 1     0.0000     1.4330    20.2660
22 1     1.2410     3.5825    20.2660
23 1     0.0000     0.0000    22.2926
24 1     1.2410     2.1495    22.2926
25 1     1.2410     0.7165    24.3192
26 1     0.0000     2.8660    24.3192
27 1     0.0000     1.4330    26.3457
28 1     1.2410     3.5825    26.3457
