   4   4   0   0
  0.1064635E+02  0.3492102E-09  0.3492102E-09  0.3492102E-09  0.5000000E-15
  1.000000000000000E-004
  CAR 
 automatically generated by pyflamestk   
     33.72284138     -0.88473934  301      9.69554259      1.00000000
     -0.885  0.0000E+00  0.0000E+00  0.0000E+00  0.0000E+00
     -0.769  0.0000E+00  0.0000E+00  0.0000E+00  0.0000E+00
     -0.654  0.0000E+00  0.0000E+00  0.0000E+00  0.0000E+00
     -0.539 -0.5044E-29 -0.1850E-29 -0.5819E-30 -0.2134E-30
     -0.423 -0.4676E-25 -0.1841E-25 -0.5395E-26 -0.2124E-26
     -0.308 -0.2216E-21 -0.9365E-22 -0.2557E-22 -0.1081E-22
     -0.193 -0.5363E-18 -0.2433E-18 -0.6190E-19 -0.2808E-19
     -0.077 -0.6619E-15 -0.3224E-15 -0.7642E-16 -0.3722E-16
      0.038 -0.4017E-12 -0.2103E-12 -0.4642E-13 -0.2430E-13
      0.153 -0.1271E-09 -0.7148E-10 -0.1470E-10 -0.8270E-11
      0.269 -0.2025E-07 -0.1225E-07 -0.2351E-08 -0.1421E-08
      0.384 -0.1612E-05 -0.1050E-05 -0.1884E-06 -0.1226E-06
      0.500 -0.6318E-04 -0.4440E-04 -0.7477E-05 -0.5244E-05
      0.615 -0.1180E-02 -0.8990E-03 -0.1437E-03 -0.1090E-03
      0.730 -0.9713E-02 -0.8124E-02 -0.1264E-02 -0.1046E-02
      0.846 -0.2533E-01 -0.2500E-01 -0.4186E-02 -0.3930E-02
      0.961  0.5542E-01  0.3642E-01  0.2208E-02  0.2715E-03
      1.076  0.3480E+00  0.3135E+00  0.4235E-01  0.3644E-01
      1.192  0.4984E+00  0.5045E+00  0.9985E-01  0.9463E-01
      1.307  0.2401E+00  0.2753E+00  0.1275E+00  0.1264E+00
      1.422  0.6162E-02  0.1914E-01  0.1283E+00  0.1286E+00
      1.538 -0.2228E-01 -0.2385E-01  0.1257E+00  0.1258E+00
      1.653 -0.5403E-02 -0.6609E-02  0.1251E+00  0.1251E+00
      1.769 -0.4953E-03 -0.6624E-03  0.1250E+00  0.1250E+00
      1.884 -0.2273E-04 -0.3225E-04  0.1250E+00  0.1250E+00
      1.999 -0.9219E-04 -0.1016E-03  0.1250E+00  0.1250E+00
      2.115 -0.2018E-02 -0.2174E-02  0.1248E+00  0.1247E+00
      2.230 -0.2003E-01 -0.2108E-01  0.1224E+00  0.1223E+00
      2.345 -0.7177E-01 -0.7277E-01  0.1142E+00  0.1139E+00
      2.461  0.5975E-01  0.7144E-01  0.1211E+00  0.1222E+00
      2.576  0.8315E+00  0.8592E+00  0.2170E+00  0.2213E+00
      2.691  0.1514E+01  0.1516E+01  0.3916E+00  0.3961E+00
      2.807  0.9349E+00  0.9073E+00  0.4995E+00  0.5008E+00
      2.922  0.1065E+00  0.9314E-01  0.5117E+00  0.5115E+00
      3.037 -0.7488E-01 -0.7422E-01  0.5031E+00  0.5030E+00
      3.153 -0.2413E-01 -0.2299E-01  0.5003E+00  0.5003E+00
      3.268 -0.2697E-02 -0.2756E-02  0.5000E+00  0.5000E+00
      3.384 -0.1162E-02 -0.4962E-02  0.4999E+00  0.4994E+00
      3.499 -0.1251E-01 -0.3551E-01  0.4984E+00  0.4953E+00
      3.614 -0.5991E-01 -0.7341E-01  0.4915E+00  0.4868E+00
      3.730 -0.1828E-01  0.2459E+00  0.4894E+00  0.5152E+00
      3.845  0.5951E+00  0.1160E+01  0.5581E+00  0.6491E+00
      3.960  0.1451E+01  0.1446E+01  0.7254E+00  0.8158E+00
      4.076  0.1163E+01  0.5738E+00  0.8596E+00  0.8820E+00
      4.191  0.2442E+00 -0.5881E-02  0.8877E+00  0.8813E+00
      4.306 -0.9262E-01  0.1762E+00  0.8771E+00  0.9017E+00
      4.422 -0.6287E-01  0.4146E+00  0.8698E+00  0.9495E+00
      4.537  0.1000E+00  0.4890E+00  0.8813E+00  0.1006E+01
      4.652  0.4652E+00  0.1052E+01  0.9350E+00  0.1127E+01
      4.768  0.1070E+01  0.1341E+01  0.1058E+01  0.1282E+01
      4.883  0.1581E+01  0.8742E+00  0.1241E+01  0.1383E+01
      4.999  0.1077E+01  0.1538E+01  0.1365E+01  0.1560E+01
      5.114  0.1321E+00  0.2619E+01  0.1380E+01  0.1862E+01
      5.229 -0.2525E+00  0.2439E+01  0.1351E+01  0.2144E+01
      5.345  0.1869E+00  0.2721E+01  0.1373E+01  0.2458E+01
      5.460  0.2047E+01  0.3031E+01  0.1609E+01  0.2807E+01
      5.575  0.4176E+01  0.2672E+01  0.2091E+01  0.3116E+01
      5.691  0.4336E+01  0.3696E+01  0.2591E+01  0.3542E+01
      5.806  0.2274E+01  0.4647E+01  0.2853E+01  0.4078E+01
      5.921  0.9027E-01  0.4131E+01  0.2863E+01  0.4555E+01
      6.037  0.1800E+00  0.4298E+01  0.2884E+01  0.5050E+01
      6.152  0.3218E+01  0.3121E+01  0.3255E+01  0.5410E+01
      6.267  0.5616E+01  0.1292E+01  0.3903E+01  0.5560E+01
      6.383  0.3472E+01  0.2713E+01  0.4304E+01  0.5873E+01
      6.498  0.1255E+01  0.4636E+01  0.4448E+01  0.6407E+01
      6.614  0.3036E+01  0.4169E+01  0.4799E+01  0.6888E+01
      6.729  0.4559E+01  0.3455E+01  0.5325E+01  0.7287E+01
      6.844  0.3526E+01  0.4511E+01  0.5731E+01  0.7807E+01
      6.960  0.3244E+01  0.6629E+01  0.6106E+01  0.8572E+01
      7.075  0.3004E+01  0.6599E+01  0.6452E+01  0.9333E+01
      7.190  0.1715E+01  0.4518E+01  0.6650E+01  0.9854E+01
      7.306  0.2307E+01  0.4028E+01  0.6916E+01  0.1032E+02
      7.421  0.4679E+01  0.5492E+01  0.7456E+01  0.1095E+02
      7.536  0.6563E+01  0.7254E+01  0.8213E+01  0.1179E+02
      7.652  0.6694E+01  0.6726E+01  0.8985E+01  0.1257E+02
      7.767  0.4653E+01  0.3512E+01  0.9522E+01  0.1297E+02
      7.883  0.2831E+01  0.2544E+01  0.9849E+01  0.1326E+02
      7.998  0.4508E+01  0.4181E+01  0.1037E+02  0.1375E+02
      8.113  0.7480E+01  0.4681E+01  0.1123E+02  0.1429E+02
      8.229  0.7332E+01  0.5832E+01  0.1208E+02  0.1496E+02
      8.344  0.4730E+01  0.7296E+01  0.1262E+02  0.1580E+02
      8.459  0.2649E+01  0.5554E+01  0.1293E+02  0.1644E+02
      8.575  0.2874E+01  0.2890E+01  0.1326E+02  0.1677E+02
      8.690  0.4122E+01  0.4244E+01  0.1374E+02  0.1726E+02
      8.805  0.3573E+01  0.6815E+01  0.1415E+02  0.1805E+02
      8.921  0.5062E+01  0.6507E+01  0.1473E+02  0.1880E+02
      9.036  0.8479E+01  0.6798E+01  0.1571E+02  0.1959E+02
      9.151  0.6688E+01  0.7789E+01  0.1648E+02  0.2048E+02
      9.267  0.2189E+01  0.5682E+01  0.1673E+02  0.2114E+02
      9.382  0.1499E+01  0.2162E+01  0.1691E+02  0.2139E+02
      9.498  0.4199E+01  0.1608E+00  0.1739E+02  0.2141E+02
      9.613  0.6482E+01 -0.1957E+00  0.1814E+02  0.2138E+02
      9.728  0.5680E+01 -0.7255E-01  0.1879E+02  0.2138E+02
      9.844  0.6212E+01 -0.1023E-01  0.1951E+02  0.2138E+02
      9.959  0.8801E+01 -0.6705E-03  0.2053E+02  0.2138E+02
     10.074  0.6484E+01 -0.3017E-04  0.2127E+02  0.2137E+02
     10.190  0.1486E+01 -0.3515E-03  0.2145E+02  0.2137E+02
     10.305 -0.3582E+00 -0.6809E-02  0.2140E+02  0.2137E+02
     10.420 -0.2136E+00 -0.5953E-01  0.2138E+02  0.2137E+02
     10.536 -0.3493E-01 -0.1829E+00  0.2138E+02  0.2135E+02
     10.651 -0.2630E-02  0.2248E+00  0.2138E+02  0.2137E+02
     10.766 -0.1669E-02  0.2222E+01  0.2137E+02  0.2163E+02
     10.882 -0.2163E-01  0.4083E+01  0.2137E+02  0.2210E+02
     10.997 -0.1273E+00  0.2981E+01  0.2136E+02  0.2244E+02
     11.113 -0.1641E+00  0.7392E+00  0.2134E+02  0.2253E+02
     11.228  0.1044E+01 -0.1298E+00  0.2146E+02  0.2251E+02
     11.343  0.3701E+01 -0.9917E-01  0.2189E+02  0.2250E+02
     11.459  0.4088E+01 -0.1827E-01  0.2236E+02  0.2250E+02
     11.574  0.1515E+01 -0.1558E-02  0.2253E+02  0.2250E+02
     11.689 -0.8682E-01 -0.1936E-02  0.2252E+02  0.2250E+02
     11.805 -0.1598E+00 -0.1908E-01  0.2250E+02  0.2250E+02
     11.920 -0.3301E-01 -0.7073E-01  0.2250E+02  0.2249E+02
     12.035 -0.1333E-01  0.4916E-01  0.2250E+02  0.2250E+02
     12.151 -0.5569E-01  0.8050E+00  0.2249E+02  0.2259E+02
     12.266 -0.3460E-01  0.1511E+01  0.2249E+02  0.2276E+02
     12.381  0.5260E+00  0.9610E+00  0.2255E+02  0.2287E+02
     12.497  0.1415E+01  0.1197E+00  0.2271E+02  0.2289E+02
     12.612  0.1227E+01 -0.7552E-01  0.2285E+02  0.2288E+02
     12.728  0.3004E+00 -0.2815E-01  0.2289E+02  0.2287E+02
     12.843 -0.6936E-01 -0.2833E-01  0.2288E+02  0.2287E+02
     12.958 -0.3984E-01 -0.7560E-01  0.2288E+02  0.2286E+02
     13.074 -0.8670E-02  0.1224E+00  0.2287E+02  0.2288E+02
     13.189 -0.2565E-01  0.9661E+00  0.2287E+02  0.2299E+02
     13.304 -0.7540E-01  0.1511E+01  0.2286E+02  0.2316E+02
     13.420  0.1200E+00  0.7999E+00  0.2288E+02  0.2326E+02
     13.535  0.9616E+00  0.4714E-01  0.2299E+02  0.2326E+02
     13.650  0.1511E+01 -0.7052E-01  0.2316E+02  0.2325E+02
     13.766  0.8044E+00 -0.1890E-01  0.2325E+02  0.2325E+02
     13.881  0.4891E-01 -0.2031E-02  0.2326E+02  0.2325E+02
     13.997 -0.7071E-01 -0.4030E-02  0.2325E+02  0.2325E+02
     14.112 -0.1908E-01 -0.3947E-01  0.2325E+02  0.2324E+02
     14.227 -0.2819E-02 -0.1429E+00  0.2325E+02  0.2323E+02
     14.343 -0.1420E-01  0.1128E+00  0.2325E+02  0.2324E+02
     14.458 -0.8888E-01  0.1647E+01  0.2324E+02  0.2343E+02
     14.573 -0.1248E+00  0.3026E+01  0.2322E+02  0.2378E+02
     14.689  0.7285E+00  0.1886E+01  0.2331E+02  0.2400E+02
     14.804  0.2585E+01  0.2210E+00  0.2361E+02  0.2402E+02
     14.919  0.2732E+01 -0.1501E+00  0.2392E+02  0.2401E+02
     15.035  0.9040E+00 -0.4895E-01  0.2403E+02  0.2400E+02
     15.150 -0.9822E-01 -0.5429E-02  0.2401E+02  0.2400E+02
     15.265 -0.1013E+00 -0.2687E-03  0.2400E+02  0.2400E+02
     15.381 -0.1789E-01 -0.1185E-04  0.2400E+02  0.2400E+02
     15.496 -0.1299E-02 -0.2102E-03  0.2400E+02  0.2400E+02
     15.612 -0.4402E-04 -0.3833E-02  0.2400E+02  0.2400E+02
     15.727 -0.2214E-05 -0.3066E-01  0.2400E+02  0.2400E+02
     15.842 -0.7154E-04 -0.7577E-01  0.2400E+02  0.2399E+02
     15.958 -0.1660E-02  0.1849E+00  0.2400E+02  0.2401E+02
     16.073 -0.1751E-01  0.1074E+01  0.2400E+02  0.2413E+02
     16.188 -0.6876E-01  0.1487E+01  0.2399E+02  0.2430E+02
     16.304  0.3219E-01  0.6853E+00  0.2399E+02  0.2438E+02
     16.419  0.7598E+00 -0.2229E-01  0.2408E+02  0.2438E+02
     16.534  0.1503E+01 -0.1410E+00  0.2425E+02  0.2436E+02
     16.650  0.9958E+00  0.1710E+00  0.2437E+02  0.2438E+02
     16.765  0.9124E-01  0.1075E+01  0.2438E+02  0.2451E+02
     16.880 -0.1200E+00  0.1486E+01  0.2437E+02  0.2468E+02
     16.996  0.4520E+00  0.6870E+00  0.2442E+02  0.2476E+02
     17.111  0.1382E+01  0.7795E-02  0.2458E+02  0.2476E+02
     17.227  0.1268E+01 -0.6535E-01  0.2472E+02  0.2475E+02
     17.342  0.3398E+00 -0.1971E-01  0.2476E+02  0.2475E+02
     17.457 -0.6562E-01 -0.4477E-01  0.2476E+02  0.2474E+02
     17.573 -0.4838E-01 -0.1466E+00  0.2475E+02  0.2473E+02
     17.688 -0.5734E-01  0.1571E+00  0.2474E+02  0.2475E+02
     17.803 -0.1513E+00  0.1751E+01  0.2473E+02  0.2495E+02
     17.919  0.2423E+00  0.3032E+01  0.2475E+02  0.2530E+02
     18.034  0.1928E+01  0.1782E+01  0.2498E+02  0.2550E+02
     18.149  0.3022E+01  0.1677E+00  0.2532E+02  0.2552E+02
     18.265  0.1604E+01 -0.1660E+00  0.2551E+02  0.2550E+02
     18.380  0.9491E-01 -0.5642E-01  0.2552E+02  0.2550E+02
     18.496 -0.1510E+00  0.1695E+00  0.2550E+02  0.2552E+02
     18.611 -0.6327E-01  0.4707E+00  0.2550E+02  0.2557E+02
     18.726  0.5197E-01  0.4099E+00  0.2550E+02  0.2562E+02
     18.842  0.3483E+00  0.1010E+00  0.2554E+02  0.2563E+02
     18.957  0.4983E+00 -0.2306E-01  0.2560E+02  0.2563E+02
     19.072  0.2396E+00 -0.1406E-01  0.2563E+02  0.2563E+02
     19.188  0.5979E-02 -0.1403E-01  0.2563E+02  0.2562E+02
     19.303 -0.2313E-01 -0.8127E-01  0.2563E+02  0.2561E+02
     19.418 -0.1868E-01 -0.1365E+00  0.2562E+02  0.2560E+02
     19.534 -0.8632E-01  0.6241E+00  0.2561E+02  0.2567E+02
     19.649 -0.1298E+00  0.2479E+01  0.2560E+02  0.2596E+02
     19.764  0.6869E+00  0.2812E+01  0.2568E+02  0.2628E+02
     19.880  0.2545E+01  0.1023E+01  0.2597E+02  0.2640E+02
     19.995  0.2764E+01 -0.7591E-01  0.2629E+02  0.2639E+02
     20.111  0.9501E+00 -0.1182E+00  0.2640E+02  0.2638E+02
     20.226 -0.9056E-01 -0.7103E-01  0.2639E+02  0.2637E+02
     20.341 -0.1142E+00 -0.5153E-01  0.2638E+02  0.2636E+02
     20.457 -0.7189E-01  0.4472E+00  0.2637E+02  0.2641E+02
     20.572 -0.4427E-01  0.1362E+01  0.2636E+02  0.2657E+02
     20.687  0.4857E+00  0.1297E+01  0.2642E+02  0.2672E+02
     20.803  0.1389E+01  0.3687E+00  0.2658E+02  0.2676E+02
     20.918  0.1263E+01 -0.6188E-01  0.2672E+02  0.2676E+02
     21.033  0.3341E+00 -0.4620E-01  0.2676E+02  0.2675E+02
     21.149 -0.6618E-01 -0.2644E-01  0.2676E+02  0.2675E+02
     21.264 -0.4662E-01 -0.1059E+00  0.2675E+02  0.2674E+02
     21.379 -0.4902E-01 -0.8790E-01  0.2674E+02  0.2673E+02
     21.495 -0.1469E+00  0.9541E+00  0.2673E+02  0.2684E+02
     21.610  0.1385E+00  0.2719E+01  0.2674E+02  0.2715E+02
     21.726  0.1679E+01  0.2495E+01  0.2694E+02  0.2744E+02
     21.841  0.2980E+01  0.1189E+01  0.2728E+02  0.2757E+02
     21.956  0.2247E+01  0.1277E+01  0.2754E+02  0.2772E+02
     22.072  0.1540E+01  0.1152E+01  0.2772E+02  0.2785E+02
     22.187  0.1153E+01  0.2929E+00  0.2785E+02  0.2789E+02
     22.302  0.3275E+00 -0.1006E+00  0.2789E+02  0.2788E+02
     22.418 -0.7539E-01 -0.1358E+00  0.2788E+02  0.2786E+02
     22.533 -0.1043E+00  0.9231E-01  0.2787E+02  0.2787E+02
     22.648 -0.1096E+00  0.1101E+01  0.2786E+02  0.2800E+02
     22.764  0.3922E+00  0.2307E+01  0.2790E+02  0.2826E+02
     22.879  0.1817E+01  0.2227E+01  0.2811E+02  0.2852E+02
     22.994  0.2674E+01  0.9696E+00  0.2842E+02  0.2863E+02
     23.110  0.1660E+01  0.4871E-01  0.2861E+02  0.2864E+02
     23.225  0.2956E+00 -0.9529E-01  0.2864E+02  0.2863E+02
     23.341 -0.1107E+00 -0.5901E-01  0.2863E+02  0.2862E+02
     23.456 -0.7271E-01 -0.9612E-01  0.2862E+02  0.2861E+02
     23.571 -0.9369E-01  0.9282E-01  0.2861E+02  0.2862E+02
     23.687 -0.2249E-01  0.9875E+00  0.2861E+02  0.2873E+02
     23.802  0.7212E+00  0.2378E+01  0.2869E+02  0.2901E+02
     23.917  0.2235E+01  0.3400E+01  0.2895E+02  0.2940E+02
     24.033  0.3496E+01  0.2597E+01  0.2935E+02  0.2970E+02
     24.148  0.2837E+01  0.6721E+00  0.2968E+02  0.2978E+02
     24.263  0.8387E+00 -0.1386E+00  0.2978E+02  0.2976E+02
     24.379 -0.1201E+00 -0.9077E-01  0.2976E+02  0.2975E+02
     24.494 -0.1045E+00 -0.1434E-01  0.2975E+02  0.2975E+02
     24.610 -0.1822E-01 -0.9751E-03  0.2975E+02  0.2975E+02
     24.725 -0.1336E-02 -0.6041E-03  0.2975E+02  0.2975E+02
     24.840 -0.5592E-03 -0.9721E-02  0.2975E+02  0.2975E+02
     24.956 -0.8946E-02 -0.7119E-01  0.2975E+02  0.2974E+02
     25.071 -0.6771E-01 -0.1473E+00  0.2974E+02  0.2972E+02
     25.186 -0.1515E+00  0.4867E+00  0.2972E+02  0.2978E+02
     25.302  0.4283E+00  0.2287E+01  0.2977E+02  0.3004E+02
     25.417  0.2212E+01  0.2880E+01  0.3003E+02  0.3038E+02
     25.532  0.3047E+01  0.1545E+01  0.3038E+02  0.3055E+02
     25.648  0.1962E+01  0.9082E+00  0.3061E+02  0.3066E+02
     25.763  0.9760E+00  0.6961E+00  0.3072E+02  0.3074E+02
     25.878  0.3478E+00  0.1736E+00  0.3076E+02  0.3076E+02
     25.994 -0.1738E-01 -0.4845E-01  0.3076E+02  0.3075E+02
     26.109 -0.4642E-01 -0.2643E-01  0.3075E+02  0.3075E+02
     26.225 -0.1063E-01 -0.4051E-02  0.3075E+02  0.3075E+02
     26.340 -0.1098E-02 -0.3917E-02  0.3075E+02  0.3075E+02
     26.455 -0.2856E-02 -0.2986E-01  0.3075E+02  0.3075E+02
     26.571 -0.2508E-01 -0.7591E-01  0.3075E+02  0.3074E+02
     26.686 -0.7531E-01  0.1750E+00  0.3074E+02  0.3076E+02
     26.801  0.1176E+00  0.1058E+01  0.3075E+02  0.3088E+02
     26.917  0.9569E+00  0.1491E+01  0.3086E+02  0.3105E+02
     27.032  0.1512E+01  0.7055E+00  0.3104E+02  0.3113E+02
     27.147  0.8092E+00  0.1366E-01  0.3113E+02  0.3113E+02
     27.263  0.5081E-01 -0.6611E-01  0.3114E+02  0.3113E+02
     27.378 -0.7090E-01 -0.1574E-01  0.3113E+02  0.3113E+02
     27.493 -0.1923E-01 -0.1432E-02  0.3113E+02  0.3113E+02
     27.609 -0.1914E-02 -0.3113E-03  0.3113E+02  0.3112E+02
     27.724 -0.5390E-03 -0.4409E-02  0.3112E+02  0.3112E+02
     27.840 -0.6864E-02 -0.3349E-01  0.3112E+02  0.3112E+02
     27.955 -0.4372E-01 -0.7470E-01  0.3112E+02  0.3111E+02
     28.070 -0.6361E-01  0.2203E+00  0.3111E+02  0.3114E+02
     28.186  0.3545E+00  0.1126E+01  0.3115E+02  0.3127E+02
     28.301  0.1283E+01  0.1468E+01  0.3130E+02  0.3144E+02
     28.416  0.1374E+01  0.6344E+00  0.3146E+02  0.3151E+02
     28.532  0.4627E+00 -0.7749E-02  0.3151E+02  0.3151E+02
     28.647 -0.4724E-01 -0.6236E-01  0.3151E+02  0.3150E+02
     28.762 -0.5245E-01 -0.1632E-01  0.3150E+02  0.3150E+02
     28.878 -0.2200E-01 -0.2559E-01  0.3150E+02  0.3150E+02
     28.993 -0.6124E-01 -0.7507E-01  0.3149E+02  0.3149E+02
     29.108 -0.1548E-01  0.1099E+00  0.3149E+02  0.3150E+02
     29.224  0.6060E+00  0.9419E+00  0.3156E+02  0.3161E+02
     29.339  0.1456E+01  0.1513E+01  0.3173E+02  0.3178E+02
     29.455  0.1153E+01  0.8244E+00  0.3186E+02  0.3188E+02
     29.570  0.2399E+00  0.5688E-01  0.3189E+02  0.3189E+02
     29.685 -0.7376E-01 -0.7150E-01  0.3188E+02  0.3188E+02
     29.801 -0.3504E-01 -0.1978E-01  0.3188E+02  0.3188E+02
     29.916 -0.4739E-02 -0.1980E-02  0.3188E+02  0.3188E+02
     30.031 -0.2776E-03 -0.8957E-04  0.3188E+02  0.3188E+02
     30.147 -0.7710E-05 -0.1950E-05  0.3188E+02  0.3188E+02
     30.262 -0.1051E-06 -0.2098E-07  0.3188E+02  0.3188E+02
     30.377 -0.7147E-09 -0.1131E-09  0.3188E+02  0.3188E+02
     30.493 -0.2448E-11 -0.3392E-12  0.3188E+02  0.3187E+02
     30.608 -0.5759E-13 -0.1325E-10  0.3187E+02  0.3187E+02
     30.724 -0.2103E-10 -0.2794E-08  0.3187E+02  0.3187E+02
     30.839 -0.4191E-08 -0.2954E-06  0.3187E+02  0.3187E+02
     30.954 -0.4188E-06 -0.1549E-04  0.3187E+02  0.3187E+02
     31.070 -0.2072E-04 -0.3934E-03  0.3187E+02  0.3187E+02
     31.185 -0.4953E-03 -0.4592E-02  0.3187E+02  0.3187E+02
     31.300 -0.5403E-02 -0.2085E-01  0.3187E+02  0.3187E+02
     31.416 -0.2228E-01 -0.2042E-02  0.3187E+02  0.3187E+02
     31.531  0.6162E-02  0.2134E+00  0.3187E+02  0.3190E+02
     31.646  0.2401E+00  0.4900E+00  0.3190E+02  0.3195E+02
     31.762  0.4984E+00  0.3735E+00  0.3196E+02  0.3200E+02
     31.877  0.3480E+00  0.7213E-01  0.3200E+02  0.3200E+02
     31.992  0.5542E-01 -0.2495E-01  0.3200E+02  0.3200E+02
     32.108 -0.2533E-01 -0.1106E-01  0.3200E+02  0.3200E+02
     32.223 -0.9713E-02 -0.1448E-02  0.3200E+02  0.3200E+02
     32.339 -0.1180E-02 -0.8250E-04  0.3200E+02  0.3200E+02
     32.454 -0.6318E-04 -0.2233E-05  0.3200E+02  0.3200E+02
     32.569 -0.1612E-05 -0.2969E-07  0.3200E+02  0.3200E+02
     32.685 -0.2025E-07 -0.1971E-09  0.3200E+02  0.3200E+02
     32.800 -0.1271E-09 -0.6588E-12  0.3200E+02  0.3200E+02
     32.915 -0.4016E-12 -0.1203E-14  0.3200E+02  0.3200E+02
     33.031 -0.7218E-15  0.0000E+00  0.3200E+02  0.3200E+02
     33.146  0.0000E+00  0.0000E+00  0.3200E+02  0.3200E+02
     33.261  0.0000E+00  0.0000E+00  0.3200E+02  0.3200E+02
     33.377  0.0000E+00  0.0000E+00  0.3200E+02  0.3200E+02
     33.492  0.0000E+00  0.0000E+00  0.3200E+02  0.3200E+02
     33.607  0.0000E+00  0.0000E+00  0.3200E+02  0.3200E+02
     33.723  0.0000E+00  0.0000E+00  0.3200E+02  0.3200E+02
