 vasp.5.4.1 24Jun15 (build Jun 05 2017 10:38:15) complex                        
  
 executed on           IFC91_ompi date 2017.08.15  16:40:41
 running on   16 total cores
 distrk:  each k-point on   16 cores,    1 groups
 distr:  one band on NCORES_PER_BAND=   1 cores,   16 groups


--------------------------------------------------------------------------------------------------------


 INCAR:
 POTCAR:    PAW_PBE Ni 02Aug2007                  

 ----------------------------------------------------------------------------- 
|                                                                             |
|           W    W    AA    RRRRR   N    N  II  N    N   GGGG   !!!           |
|           W    W   A  A   R    R  NN   N  II  NN   N  G    G  !!!           |
|           W    W  A    A  R    R  N N  N  II  N N  N  G       !!!           |
|           W WW W  AAAAAA  RRRRR   N  N N  II  N  N N  G  GGG   !            |
|           WW  WW  A    A  R   R   N   NN  II  N   NN  G    G                |
|           W    W  A    A  R    R  N    N  II  N    N   GGGG   !!!           |
|                                                                             |
|      For optimal performance we recommend to set                            |
|        NCORE= 4 - approx SQRT( number of cores)                             |
|      NCORE specifies how many cores store one orbital (NPAR=cpu/NCORE).     |
|      This setting can  greatly improve the performance of VASP for DFT.     |
|      The default, NPAR=number of cores might be grossly inefficient         |
|      on modern multi-core architectures or massively parallel machines.     |
|      Do your own testing !!!!                                               |
|      Unfortunately you need to use the default for GW and RPA calculations. |
|      (for HF NCORE is supported but not extensively tested yet)             |
|                                                                             |
 ----------------------------------------------------------------------------- 

 POTCAR:    PAW_PBE Ni 02Aug2007                  
   VRHFIN =Ni:                                                                  
   LEXCH  = PE                                                                  
   EATOM  =  1077.6734 eV,   79.2068 Ry                                         
                                                                                
   TITEL  = PAW_PBE Ni 02Aug2007                                                
   LULTRA =        F    use ultrasoft PP ?                                      
   IUNSCR =        1    unscreen: 0-lin 1-nonlin 2-no                           
   RPACOR =    2.000    partial core radius                                     
   POMASS =   58.690; ZVAL   =   10.000    mass and valenz                      
   RCORE  =    2.300    outmost cutoff radius                                   
   RWIGS  =    2.430; RWIGS  =    1.286    wigner-seitz radius (au A)           
   ENMAX  =  269.532; ENMIN  =  202.149 eV                                      
   RCLOC  =    1.201    cutoff for local pot                                    
   LCOR   =        T    correct aug charges                                     
   LPAW   =        T    paw PP                                                  
   EAUG   =  544.565                                                            
   DEXC   =    0.000                                                            
   RMAX   =    2.808    core radius for proj-oper                               
   RAUG   =    1.300    factor for augmentation sphere                          
   RDEP   =    2.390    radius for radial grids                                 
   QCUT   =   -4.451; QGAM   =    8.902    optimization parameters              
                                                                                
   Description                                                                  
     l     E      TYP  RCUT    TYP  RCUT                                        
     2    -4.65     23  2.300                                                   
     2    -6.01     23  2.300                                                   
     0    -4.49     23  2.300                                                   
     0     5.01     23  2.300                                                   
     1    -2.72     23  2.300                                                   
     1    16.52     23  2.300                                                   
  local pseudopotential read in
  partial core-charges read in
  atomic valenz-charges read in
  non local Contribution for L=           2  read in
    real space projection operators read in
  non local Contribution for L=           2  read in
    real space projection operators read in
  non local Contribution for L=           0  read in
    real space projection operators read in
  non local Contribution for L=           0  read in
    real space projection operators read in
  non local Contribution for L=           1  read in
    real space projection operators read in
  non local Contribution for L=           1  read in
    real space projection operators read in
    PAW grid and wavefunctions read in
 
   number of l-projection  operators is LMAX  =           6
   number of lm-projection operators is LMMAX =          18
 
  PAW_PBE Ni 02Aug2007                  :
 energy of atom  1       EATOM=-1077.6734
 kinetic energy error for atom=    0.0027 (will be added to EATOM!!)
 
 
 POSCAR: Automatically generated by pypospack    
  positions in direct lattice
  No initial velocities read in
 exchange correlation table for  LEXCH =        8
   RHO(1)=    0.500       N(1)  =     2000
   RHO(2)=  100.500       N(2)  =     4000
 


--------------------------------------------------------------------------------------------------------


 ion  position               nearest neighbor table
   1  0.000  0.000  0.000-   2 2.47   3 2.47   4 2.47   2 2.47   3 2.47   2 2.47   4 2.47   2 2.47
                             3 2.47   4 2.47   3 2.47   4 2.47
   2  0.000  0.500  0.500-   1 2.47   3 2.47   4 2.47   1 2.47   4 2.47   1 2.47   3 2.47   1 2.47
                             3 2.47   4 2.47   4 2.47   3 2.47
   3  0.500  0.000  0.500-   1 2.47   2 2.47   4 2.47   1 2.47   4 2.47   2 2.47   4 2.47   4 2.47
                             1 2.47   2 2.47   1 2.47   2 2.47
   4  0.500  0.500  0.000-   1 2.47   2 2.47   3 2.47   2 2.47   3 2.47   1 2.47   3 2.47   3 2.47
                             1 2.47   2 2.47   2 2.47   1 2.47
 
  LATTYP: Found a simple cubic cell.
 ALAT       =     3.4921020000
  
  Lattice vectors:
  
 A1 = (   3.4921020000,   0.0000000000,   0.0000000000)
 A2 = (   0.0000000000,   3.4921020000,   0.0000000000)
 A3 = (   0.0000000000,   0.0000000000,   3.4921020000)


Analysis of symmetry for initial positions (statically):
=====================================================================
 Subroutine PRICEL returns following result:
 
  LATTYP: Found a face centered cubic cell.
 ALAT       =     3.4921020000
  
  Lattice vectors:
  
 A1 = (   1.7460510000,   1.7460510000,  -0.0000000000)
 A2 = (   1.7460510000,   0.0000000000,  -1.7460510000)
 A3 = (   0.0000000000,   1.7460510000,  -1.7460510000)
 
   4 primitive cells build up your supercell.
 

 Routine SETGRP: Setting up the symmetry group for a 
 simple cubic supercell.


 Subroutine GETGRP returns: Found 48 space group operations
 (whereof 48 operations were pure point group operations)
 out of a pool of 48 trial point group operations.


The static configuration has the point symmetry O_h .


Analysis of symmetry for dynamics (positions and initial velocities):
=====================================================================
 Subroutine PRICEL returns following result:
 
  LATTYP: Found a face centered cubic cell.
 ALAT       =     3.4921020000
  
  Lattice vectors:
  
 A1 = (   1.7460510000,   1.7460510000,  -0.0000000000)
 A2 = (   1.7460510000,   0.0000000000,  -1.7460510000)
 A3 = (   0.0000000000,   1.7460510000,  -1.7460510000)
 
   4 primitive cells build up your supercell.
 

 Routine SETGRP: Setting up the symmetry group for a 
 simple cubic supercell.


 Subroutine GETGRP returns: Found 48 space group operations
 (whereof 48 operations were pure point group operations)
 out of a pool of 48 trial point group operations.


The dynamic configuration has the point symmetry O_h .


Analysis of structural, dynamic, and magnetic symmetry:
=====================================================================
 Subroutine PRICEL returns following result:
 
  LATTYP: Found a face centered cubic cell.
 ALAT       =     3.4921020000
  
  Lattice vectors:
  
 A1 = (   1.7460510000,   1.7460510000,  -0.0000000000)
 A2 = (   1.7460510000,   0.0000000000,  -1.7460510000)
 A3 = (   0.0000000000,   1.7460510000,  -1.7460510000)
 
   4 primitive cells build up your supercell.
 

 Routine SETGRP: Setting up the symmetry group for a 
 simple cubic supercell.


 Subroutine GETGRP returns: Found 48 space group operations
 (whereof 48 operations were pure point group operations)
 out of a pool of 48 trial point group operations.


The magnetic configuration has the point symmetry O_h .


 Subroutine INISYM returns: Found 48 space group operations
 (whereof 48 operations are pure point group operations),
 and found     4 'primitive' translations

 
 
 KPOINTS: Automatic Mesh                          

Automatic generation of k-mesh.
Space group operators:
 irot       det(A)        alpha          n_x          n_y          n_z        tau_x        tau_y        tau_z
    1     1.000000     0.000000     1.000000     0.000000     0.000000     0.000000     0.000000     0.000000
    2    -1.000000     0.000000     1.000000     0.000000     0.000000     0.000000     0.000000     0.000000
    3     1.000000   120.000000    -0.577350    -0.577350    -0.577350     0.000000     0.000000     0.000000
    4    -1.000000   120.000000    -0.577350    -0.577350    -0.577350     0.000000     0.000000     0.000000
    5     1.000000   120.000000     0.577350     0.577350     0.577350     0.000000     0.000000     0.000000
    6    -1.000000   120.000000     0.577350     0.577350     0.577350     0.000000     0.000000     0.000000
    7     1.000000    90.000000     0.000000     0.000000    -1.000000     0.000000     0.000000     0.000000
    8    -1.000000    90.000000     0.000000     0.000000    -1.000000     0.000000     0.000000     0.000000
    9     1.000000   180.000000     0.000000     0.707107     0.707107     0.000000     0.000000     0.000000
   10    -1.000000   180.000000     0.000000     0.707107     0.707107     0.000000     0.000000     0.000000
   11     1.000000    90.000000     0.000000     1.000000     0.000000     0.000000     0.000000     0.000000
   12    -1.000000    90.000000     0.000000     1.000000     0.000000     0.000000     0.000000     0.000000
   13     1.000000   180.000000     0.000000     0.000000     1.000000     0.000000     0.000000     0.000000
   14    -1.000000   180.000000     0.000000     0.000000     1.000000     0.000000     0.000000     0.000000
   15     1.000000   120.000000    -0.577350     0.577350     0.577350     0.000000     0.000000     0.000000
   16    -1.000000   120.000000    -0.577350     0.577350     0.577350     0.000000     0.000000     0.000000
   17     1.000000   120.000000    -0.577350     0.577350    -0.577350     0.000000     0.000000     0.000000
   18    -1.000000   120.000000    -0.577350     0.577350    -0.577350     0.000000     0.000000     0.000000
   19     1.000000    90.000000     0.000000     0.000000     1.000000     0.000000     0.000000     0.000000
   20    -1.000000    90.000000     0.000000     0.000000     1.000000     0.000000     0.000000     0.000000
   21     1.000000    90.000000    -1.000000     0.000000     0.000000     0.000000     0.000000     0.000000
   22    -1.000000    90.000000    -1.000000     0.000000     0.000000     0.000000     0.000000     0.000000
   23     1.000000   180.000000     0.707107     0.000000     0.707107     0.000000     0.000000     0.000000
   24    -1.000000   180.000000     0.707107     0.000000     0.707107     0.000000     0.000000     0.000000
   25     1.000000   120.000000     0.577350    -0.577350     0.577350     0.000000     0.000000     0.000000
   26    -1.000000   120.000000     0.577350    -0.577350     0.577350     0.000000     0.000000     0.000000
   27     1.000000   120.000000    -0.577350    -0.577350     0.577350     0.000000     0.000000     0.000000
   28    -1.000000   120.000000    -0.577350    -0.577350     0.577350     0.000000     0.000000     0.000000
   29     1.000000   180.000000     1.000000     0.000000     0.000000     0.000000     0.000000     0.000000
   30    -1.000000   180.000000     1.000000     0.000000     0.000000     0.000000     0.000000     0.000000
   31     1.000000    90.000000     0.000000    -1.000000     0.000000     0.000000     0.000000     0.000000
   32    -1.000000    90.000000     0.000000    -1.000000     0.000000     0.000000     0.000000     0.000000
   33     1.000000   180.000000     0.707107     0.707107     0.000000     0.000000     0.000000     0.000000
   34    -1.000000   180.000000     0.707107     0.707107     0.000000     0.000000     0.000000     0.000000
   35     1.000000    90.000000     1.000000     0.000000     0.000000     0.000000     0.000000     0.000000
   36    -1.000000    90.000000     1.000000     0.000000     0.000000     0.000000     0.000000     0.000000
   37     1.000000   120.000000     0.577350    -0.577350    -0.577350     0.000000     0.000000     0.000000
   38    -1.000000   120.000000     0.577350    -0.577350    -0.577350     0.000000     0.000000     0.000000
   39     1.000000   180.000000     0.000000     1.000000     0.000000     0.000000     0.000000     0.000000
   40    -1.000000   180.000000     0.000000     1.000000     0.000000     0.000000     0.000000     0.000000
   41     1.000000   120.000000     0.577350     0.577350    -0.577350     0.000000     0.000000     0.000000
   42    -1.000000   120.000000     0.577350     0.577350    -0.577350     0.000000     0.000000     0.000000
   43     1.000000   180.000000     0.000000    -0.707107     0.707107     0.000000     0.000000     0.000000
   44    -1.000000   180.000000     0.000000    -0.707107     0.707107     0.000000     0.000000     0.000000
   45     1.000000   180.000000     0.707107    -0.707107     0.000000     0.000000     0.000000     0.000000
   46    -1.000000   180.000000     0.707107    -0.707107     0.000000     0.000000     0.000000     0.000000
   47     1.000000   180.000000     0.707107     0.000000    -0.707107     0.000000     0.000000     0.000000
   48    -1.000000   180.000000     0.707107     0.000000    -0.707107     0.000000     0.000000     0.000000
 
 Subroutine IBZKPT returns following result:
 ===========================================
 
 Found      4 irreducible k-points:
 
 Following reciprocal coordinates:
            Coordinates               Weight
  0.125000  0.125000  0.125000      8.000000
  0.375000  0.125000  0.125000     24.000000
  0.375000  0.375000  0.125000     24.000000
  0.375000  0.375000  0.375000      8.000000
 
 Following cartesian coordinates:
            Coordinates               Weight
  0.035795  0.035795  0.035795      8.000000
  0.107385  0.035795  0.035795     24.000000
  0.107385  0.107385  0.035795     24.000000
  0.107385  0.107385  0.107385      8.000000
 


--------------------------------------------------------------------------------------------------------




 Dimension of arrays:
   k-points           NKPTS =      4   k-points in BZ     NKDIM =      4   number of bands    NBANDS=     32
   number of dos      NEDOS =    301   number of ions     NIONS =      4
   non local maximal  LDIM  =      6   non local SUM 2l+1 LMDIM =     18
   total plane-waves  NPLWV =  21952
   max r-space proj   IRMAX =      1   max aug-charges    IRDMAX=   4638
   dimension x,y,z NGX =    28 NGY =   28 NGZ =   28
   dimension x,y,z NGXF=    36 NGYF=   36 NGZF=   36
   support grid    NGXF=    36 NGYF=   36 NGZF=   36
   ions per type =               4
 NGX,Y,Z   is equivalent  to a cutoff of  13.33, 13.33, 13.33 a.u.
 NGXF,Y,Z  is equivalent  to a cutoff of  17.14, 17.14, 17.14 a.u.


 I would recommend the setting:
   dimension x,y,z NGX =    27 NGY =   27 NGZ =   27
 SYSTEM =  automatically generated by pyflamestk   
 POSCAR =  Automatically generated by pypospack    

 Startparameter for this run:
   NWRITE =      2    write-flag & timer
   PREC   = high      normal or accurate (medium, high low for compatibility)
   ISTART =      0    job   : 0-new  1-cont  2-samecut
   ICHARG =      0    charge: 1-file 2-atom 10-const
   ISPIN  =      2    spin polarized calculation?
   LNONCOLLINEAR =      F non collinear calculations
   LSORBIT =      F    spin-orbit coupling
   INIWAV =      1    electr: 0-lowe 1-rand  2-diag
   LASPH  =      F    aspherical Exc in radial PAW
   METAGGA=      F    non-selfconsistent MetaGGA calc.

 Electronic Relaxation 1
   ENCUT  =  550.0 eV  40.42 Ry    6.36 a.u.   6.68  6.68  6.68*2*pi/ulx,y,z
   ENINI  =  550.0     initial cutoff
   ENAUG  =  544.6 eV  augmentation charge cutoff
   NELM   =     40;   NELMIN=  2; NELMDL= -5     # of ELM steps 
   EDIFF  = 0.1E-05   stopping-criterion for ELM
   LREAL  =      F    real-space projection
   NLSPLINE    = F    spline interpolate recip. space projectors
   LCOMPAT=      F    compatible to vasp.4.4
   GGA_COMPAT  = T    GGA compatible to vasp.4.4-vasp.4.6
   LMAXPAW     = -100 max onsite density
   LMAXMIX     =    2 max onsite mixed and CHGCAR
   VOSKOWN=      0    Vosko Wilk Nusair interpolation
   ROPT   =    0.00000
 Ionic relaxation
   EDIFFG = 0.1E-04   stopping-criterion for IOM
   NSW    =      0    number of steps for IOM
   NBLOCK =      1;   KBLOCK =      1    inner block; outer block 
   IBRION =     -1    ionic relax: 0-MD 1-quasi-New 2-CG
   NFREE  =      0    steps in history (QN), initial steepest desc. (CG)
   ISIF   =      2    stress and relaxation
   IWAVPR =     10    prediction:  0-non 1-charg 2-wave 3-comb
   ISYM   =      2    0-nonsym 1-usesym 2-fastsym
   LCORR  =      T    Harris-Foulkes like correction to forces

   POTIM  = 0.5000    time-step for ionic-motion
   TEIN   =    0.0    initial temperature
   TEBEG  =    0.0;   TEEND  =   0.0 temperature during run
   SMASS  =  -3.00    Nose mass-parameter (am)
   estimated Nose-frequenzy (Omega)   =  0.10E-29 period in steps =****** mass=  -0.279E-27a.u.
   SCALEE = 1.0000    scale energy and forces
   NPACO  =    256;   APACO  = 16.0  distance and # of slots for P.C.
   PSTRESS=    0.0 pullay stress

  Mass of Ions in am
   POMASS =  58.69
  Ionic Valenz
   ZVAL   =  10.00
  Atomic Wigner-Seitz radii
   RWIGS  =  -1.00
  virtual crystal weights 
   VCA    =   1.00
   NELECT =      40.0000    total number of electrons
   NUPDOWN=      -1.0000    fix difference up-down

 DOS related values:
   EMIN   =  10.00;   EMAX   =-10.00  energy-range for DOS
   EFERMI =   0.00
   ISMEAR =     1;   SIGMA  =   0.20  broadening in eV -4-tet -1-fermi 0-gaus

 Electronic relaxation 2 (details)
   IALGO  =     38    algorithm
   LDIAG  =      T    sub-space diagonalisation (order eigenvalues)
   LSUBROT=      F    optimize rotation matrix (better conditioning)
   TURBO    =      0    0=normal 1=particle mesh
   IRESTART =      0    0=no restart 2=restart with 2 vectors
   NREBOOT  =      0    no. of reboots
   NMIN     =      0    reboot dimension
   EREF     =   0.00    reference energy to select bands
   IMIX   =      4    mixing-type and parameters
     AMIX     =   0.40;   BMIX     =  1.00
     AMIX_MAG =   1.60;   BMIX_MAG =  1.00
     AMIN     =   0.10
     WC   =   100.;   INIMIX=   1;  MIXPRE=   1;  MAXMIX= -45

 Intra band minimization:
   WEIMIN = 0.0000     energy-eigenvalue tresh-hold
   EBREAK =  0.78E-08  absolut break condition
   DEPER  =   0.30     relativ break condition  

   TIME   =   0.40     timestep for ELM

  volume/ion in A,a.u.               =      10.65        71.85
  Fermi-wavevector in a.u.,A,eV,Ry     =   1.603275  3.029750 34.973631  2.570489
  Thomas-Fermi vector in A             =   2.699963
 
 Write flags
   LWAVE  =      F    write WAVECAR
   LCHARG =      F    write CHGCAR
   LVTOT  =      F    write LOCPOT, total local potential
   LVHAR  =      F    write LOCPOT, Hartree potential only
   LELF   =      F    write electronic localiz. function (ELF)
   LORBIT =      0    0 simple, 1 ext, 2 COOP (PROOUT)


 Dipole corrections
   LMONO  =      F    monopole corrections only (constant potential shift)
   LDIPOL =      F    correct potential (dipole corrections)
   IDIPOL =      0    1-x, 2-y, 3-z, 4-all directions 
   EPSILON=  1.0000000 bulk dielectric constant

 Exchange correlation treatment:
   GGA     =    --    GGA type
   LEXCH   =     8    internal setting for exchange type
   VOSKOWN=      0    Vosko Wilk Nusair interpolation
   LHFCALC =     F    Hartree Fock is set to
   LHFONE  =     F    Hartree Fock one center treatment
   AEXX    =    0.0000 exact exchange contribution

 Linear response parameters
   LEPSILON=     F    determine dielectric tensor
   LRPA    =     F    only Hartree local field effects (RPA)
   LNABLA  =     F    use nabla operator in PAW spheres
   LVEL    =     F    velocity operator in full k-point grid
   LINTERFAST=   F  fast interpolation
   KINTER  =     0    interpolate to denser k-point grid
   CSHIFT  =0.1000    complex shift for real part using Kramers Kronig
   OMEGAMAX=  -1.0    maximum frequency
   DEG_THRESHOLD= 0.2000000E-02 threshold for treating states as degnerate
   RTIME   =    0.100 relaxation time in fs

 Orbital magnetization related:
   ORBITALMAG=     F  switch on orbital magnetization
   LCHIMAG   =     F  perturbation theory with respect to B field
   DQ        =  0.001000  dq finite difference perturbation B field



--------------------------------------------------------------------------------------------------------


 Static calculation
 charge density and potential will be updated during run
 spin polarized calculation
 Variant of blocked Davidson
 Davidson routine will perform the subspace rotation
 perform sub-space diagonalisation
    after iterative eigenvector-optimisation
 modified Broyden-mixing scheme, WC =      100.0
 initial mixing is a Kerker type mixing with AMIX =  0.4000 and BMIX =      1.0000
 Hartree-type preconditioning will be used
 using additional bands           12
 reciprocal scheme for non local part
 use partial core corrections
 calculate Harris-corrections to forces 
   (improved forces if not selfconsistent)
 use gradient corrections 
 use of overlap-Matrix (Vanderbilt PP)
 Methfessel and Paxton  Order N= 1 SIGMA  =   0.20


--------------------------------------------------------------------------------------------------------


  energy-cutoff  :      550.00
  volume of cell :       42.59
      direct lattice vectors                 reciprocal lattice vectors
     3.492102000  0.000000000  0.000000000     0.286360479  0.000000000  0.000000000
     0.000000000  3.492102000  0.000000000     0.000000000  0.286360479  0.000000000
     0.000000000  0.000000000  3.492102000     0.000000000  0.000000000  0.286360479

  length of vectors
     3.492102000  3.492102000  3.492102000     0.286360479  0.286360479  0.286360479


 
 k-points in units of 2pi/SCALE and weight: Automatic Mesh                          
   0.03579506  0.03579506  0.03579506       0.125
   0.10738518  0.03579506  0.03579506       0.375
   0.10738518  0.10738518  0.03579506       0.375
   0.10738518  0.10738518  0.10738518       0.125
 
 k-points in reciprocal lattice and weights: Automatic Mesh                          
   0.12500000  0.12500000  0.12500000       0.125
   0.37500000  0.12500000  0.12500000       0.375
   0.37500000  0.37500000  0.12500000       0.375
   0.37500000  0.37500000  0.37500000       0.125
 
 position of ions in fractional coordinates (direct lattice) 
   0.00000000  0.00000000  0.00000000
   0.00000000  0.50000000  0.50000000
   0.50000000  0.00000000  0.50000000
   0.50000000  0.50000000  0.00000000
 
 position of ions in cartesian coordinates  (Angst):
   0.00000000  0.00000000  0.00000000
   0.00000000  1.74605100  1.74605100
   1.74605100  0.00000000  1.74605100
   1.74605100  1.74605100  0.00000000
 


--------------------------------------------------------------------------------------------------------


 k-point  1 :   0.1250 0.1250 0.1250  plane waves:    1267
 k-point  2 :   0.3750 0.1250 0.1250  plane waves:    1240
 k-point  3 :   0.3750 0.3750 0.1250  plane waves:    1250
 k-point  4 :   0.3750 0.3750 0.3750  plane waves:    1244

 maximum and minimum number of plane-waves per node :      1267     1240

 maximum number of plane-waves:      1267
 maximum index in each direction: 
   IXMAX=    6   IYMAX=    6   IZMAX=    6
   IXMIN=   -7   IYMIN=   -7   IZMIN=   -7

 NGX is ok and might be reduce to  28
 NGY is ok and might be reduce to  28
 NGZ is ok and might be reduce to  28

 serial   3D FFT for wavefunctions
 parallel 3D FFT for charge:
    minimum data exchange during FFTs selected (reduces bandwidth)


 total amount of memory used by VASP on root node    33598. kBytes
========================================================================

   base      :      30000. kBytes
   nonl-proj :        819. kBytes
   fftplans  :        234. kBytes
   grid      :       2073. kBytes
   one-center:        124. kBytes
   wavefun   :        348. kBytes
 
     INWAV:  cpu time    0.0000: real time    0.0001
 Broyden mixing: mesh for mixing (old mesh)
   NGX = 13   NGY = 13   NGZ = 13
  (NGX  = 36   NGY  = 36   NGZ  = 36)
  gives a total of   2197 points

 charge density for first step will be calculated from the start-wavefunctions


--------------------------------------------------------------------------------------------------------


 Maximum index for augmentation-charges          602 (set IRDMAX)


--------------------------------------------------------------------------------------------------------


 initial charge from wavefunction
 First call to EWALD:  gamma=   0.508
 Maximum number of real-space cells 3x 3x 3
 Maximum number of reciprocal cells 3x 3x 3

 FEWALD executed in parallel
    FEWALD:  cpu time    0.0010: real time    0.0015


----------------------------------------- Iteration    1(   1)  ---------------------------------------


    POTLOK:  cpu time    0.0080: real time    0.0085
    SETDIJ:  cpu time    0.0070: real time    0.0067
     EDDAV:  cpu time    0.1070: real time    0.1076
       DOS:  cpu time    0.0010: real time    0.0004
    --------------------------------------------
      LOOP:  cpu time    0.1270: real time    0.1291

 eigenvalue-minimisations  :   512
 total energy-change (2. order) :-0.8748820E+03  (-0.3254175E+04)
 number of electron      40.0000056 magnetization      -0.0000004
 augmentation part        3.0882677 magnetization      -0.3407999

 Free energy of the ion-electron system (eV)
  ---------------------------------------------------
  alpha Z        PSCENC =       191.61485929
  Ewald energy   TEWEN  =     -3781.16325108
  -Hartree energ DENC   =       -78.40147773
  -exchange      EXHF   =         0.00000000
  -V(xc)+E(xc)   XCENC  =        85.81118273
  PAW double counting   =     81208.95435742   -81255.19267104
  entropy T*S    EENTRO =        -0.00905095
  eigenvalues    EBANDS =     -1557.17860802
  atomic energy  EATOM  =      4310.68262569
  Solvation  Ediel_sol  =         0.00000000
  ---------------------------------------------------
  free energy    TOTEN  =      -874.88203369 eV

  energy without entropy =     -874.87298274  energy(sigma->0) =     -874.87901671


--------------------------------------------------------------------------------------------------------




----------------------------------------- Iteration    1(   2)  ---------------------------------------


     EDDAV:  cpu time    0.1680: real time    0.1677
       DOS:  cpu time    0.0000: real time    0.0003
    --------------------------------------------
      LOOP:  cpu time    0.1680: real time    0.1710

 eigenvalue-minimisations  :   736
 total energy-change (2. order) :-0.1747274E+03  (-0.1724154E+03)
 number of electron      40.0000056 magnetization      -0.0000004
 augmentation part        3.0882677 magnetization      -0.3407999

 Free energy of the ion-electron system (eV)
  ---------------------------------------------------
  alpha Z        PSCENC =       191.61485929
  Ewald energy   TEWEN  =     -3781.16325108
  -Hartree energ DENC   =       -78.40147773
  -exchange      EXHF   =         0.00000000
  -V(xc)+E(xc)   XCENC  =        85.81118273
  PAW double counting   =     81208.95435742   -81255.19267104
  entropy T*S    EENTRO =         0.30842565
  eigenvalues    EBANDS =     -1732.22347203
  atomic energy  EATOM  =      4310.68262569
  Solvation  Ediel_sol  =         0.00000000
  ---------------------------------------------------
  free energy    TOTEN  =     -1049.60942111 eV

  energy without entropy =    -1049.91784676  energy(sigma->0) =    -1049.71222966


--------------------------------------------------------------------------------------------------------




----------------------------------------- Iteration    1(   3)  ---------------------------------------


     EDDAV:  cpu time    0.1080: real time    0.1081
       DOS:  cpu time    0.0000: real time    0.0003
    --------------------------------------------
      LOOP:  cpu time    0.1090: real time    0.1117

 eigenvalue-minimisations  :   528
 total energy-change (2. order) :-0.2067364E+01  (-0.1996559E+01)
 number of electron      40.0000056 magnetization      -0.0000004
 augmentation part        3.0882677 magnetization      -0.3407999

 Free energy of the ion-electron system (eV)
  ---------------------------------------------------
  alpha Z        PSCENC =       191.61485929
  Ewald energy   TEWEN  =     -3781.16325108
  -Hartree energ DENC   =       -78.40147773
  -exchange      EXHF   =         0.00000000
  -V(xc)+E(xc)   XCENC  =        85.81118273
  PAW double counting   =     81208.95435742   -81255.19267104
  entropy T*S    EENTRO =         0.25488424
  eigenvalues    EBANDS =     -1734.23729441
  atomic energy  EATOM  =      4310.68262569
  Solvation  Ediel_sol  =         0.00000000
  ---------------------------------------------------
  free energy    TOTEN  =     -1051.67678489 eV

  energy without entropy =    -1051.93166913  energy(sigma->0) =    -1051.76174630


--------------------------------------------------------------------------------------------------------




----------------------------------------- Iteration    1(   4)  ---------------------------------------


     EDDAV:  cpu time    0.1620: real time    0.1624
       DOS:  cpu time    0.0010: real time    0.0003
    --------------------------------------------
      LOOP:  cpu time    0.1630: real time    0.1656

 eigenvalue-minimisations  :   752
 total energy-change (2. order) :-0.5784359E-01  (-0.5777484E-01)
 number of electron      40.0000056 magnetization      -0.0000004
 augmentation part        3.0882677 magnetization      -0.3407999

 Free energy of the ion-electron system (eV)
  ---------------------------------------------------
  alpha Z        PSCENC =       191.61485929
  Ewald energy   TEWEN  =     -3781.16325108
  -Hartree energ DENC   =       -78.40147773
  -exchange      EXHF   =         0.00000000
  -V(xc)+E(xc)   XCENC  =        85.81118273
  PAW double counting   =     81208.95435742   -81255.19267104
  entropy T*S    EENTRO =         0.25471478
  eigenvalues    EBANDS =     -1734.29496853
  atomic energy  EATOM  =      4310.68262569
  Solvation  Ediel_sol  =         0.00000000
  ---------------------------------------------------
  free energy    TOTEN  =     -1051.73462848 eV

  energy without entropy =    -1051.98934326  energy(sigma->0) =    -1051.81953341


--------------------------------------------------------------------------------------------------------




----------------------------------------- Iteration    1(   5)  ---------------------------------------


     EDDAV:  cpu time    0.1590: real time    0.1590
       DOS:  cpu time    0.0000: real time    0.0002
    CHARGE:  cpu time    0.0190: real time    0.0191
    MIXING:  cpu time    0.0010: real time    0.0004
    --------------------------------------------
      LOOP:  cpu time    0.1790: real time    0.1827

 eigenvalue-minimisations  :   720
 total energy-change (2. order) :-0.8255829E-03  (-0.8255169E-03)
 number of electron      40.0000733 magnetization      -0.4265556
 augmentation part       37.3526837 magnetization      -0.4056015

 Broyden mixing:
  rms(total) = 0.14187E+02    rms(broyden)= 0.14182E+02
  rms(prec ) = 0.33618E+02
  weight for this iteration     100.00

 Free energy of the ion-electron system (eV)
  ---------------------------------------------------
  alpha Z        PSCENC =       191.61485929
  Ewald energy   TEWEN  =     -3781.16325108
  -Hartree energ DENC   =       -78.40147773
  -exchange      EXHF   =         0.00000000
  -V(xc)+E(xc)   XCENC  =        85.81118273
  PAW double counting   =     81208.95435742   -81255.19267104
  entropy T*S    EENTRO =         0.25470593
  eigenvalues    EBANDS =     -1734.29578527
  atomic energy  EATOM  =      4310.68262569
  Solvation  Ediel_sol  =         0.00000000
  ---------------------------------------------------
  free energy    TOTEN  =     -1051.73545406 eV

  energy without entropy =    -1051.99015999  energy(sigma->0) =    -1051.82035604


--------------------------------------------------------------------------------------------------------




----------------------------------------- Iteration    1(   6)  ---------------------------------------


    POTLOK:  cpu time    0.0060: real time    0.0062
    SETDIJ:  cpu time    0.0070: real time    0.0061
     EDDAV:  cpu time    0.1680: real time    0.1689
       DOS:  cpu time    0.0010: real time    0.0003
    CHARGE:  cpu time    0.0190: real time    0.0190
    MIXING:  cpu time    0.0000: real time    0.0003
    --------------------------------------------
      LOOP:  cpu time    0.2010: real time    0.2046

 eigenvalue-minimisations  :   752
 total energy-change (2. order) : 0.9116862E+03  (-0.5997191E+02)
 number of electron      40.0000690 magnetization       0.1022226
 augmentation part       33.9698511 magnetization       0.1113129

 Broyden mixing:
  rms(total) = 0.73051E+01    rms(broyden)= 0.73047E+01
  rms(prec ) = 0.17643E+02
  weight for this iteration     100.00

 eigenvalues of (default mixing * dielectric matrix)
  average eigenvalue GAMMA=   1.9833
  1.9833

 Free energy of the ion-electron system (eV)
  ---------------------------------------------------
  alpha Z        PSCENC =       191.61485929
  Ewald energy   TEWEN  =     -3781.16325108
  -Hartree energ DENC   =      -492.96915473
  -exchange      EXHF   =         0.00000000
  -V(xc)+E(xc)   XCENC  =       104.25683876
  PAW double counting   =     43485.45311051   -43774.94117284
  entropy T*S    EENTRO =         0.07589991
  eigenvalues    EBANDS =      -183.05898907
  atomic energy  EATOM  =      4310.68262569
  Solvation  Ediel_sol  =         0.00000000
  ---------------------------------------------------
  free energy    TOTEN  =      -140.04923355 eV

  energy without entropy =     -140.12513345  energy(sigma->0) =     -140.07453352


--------------------------------------------------------------------------------------------------------




----------------------------------------- Iteration    1(   7)  ---------------------------------------


    POTLOK:  cpu time    0.0060: real time    0.0062
    SETDIJ:  cpu time    0.0060: real time    0.0061
     EDDAV:  cpu time    0.1320: real time    0.1320
       DOS:  cpu time    0.0010: real time    0.0003
    CHARGE:  cpu time    0.0190: real time    0.0192
    MIXING:  cpu time    0.0000: real time    0.0003
    --------------------------------------------
      LOOP:  cpu time    0.1640: real time    0.1672

 eigenvalue-minimisations  :   640
 total energy-change (2. order) :-0.1719935E+03  (-0.3816927E+03)
 number of electron      40.0000182 magnetization      -0.1661007
 augmentation part        8.4149156 magnetization      -0.1239890

 Broyden mixing:
  rms(total) = 0.11494E+02    rms(broyden)= 0.11494E+02
  rms(prec ) = 0.26930E+02
  weight for this iteration     100.00

 eigenvalues of (default mixing * dielectric matrix)
  average eigenvalue GAMMA=   0.9270
  0.9270  0.9270

 Free energy of the ion-electron system (eV)
  ---------------------------------------------------
  alpha Z        PSCENC =       191.61485929
  Ewald energy   TEWEN  =     -3781.16325108
  -Hartree energ DENC   =     -1366.77243784
  -exchange      EXHF   =         0.00000000
  -V(xc)+E(xc)   XCENC  =       149.85164751
  PAW double counting   =      9109.17450513    -9637.53630681
  entropy T*S    EENTRO =         0.00367761
  eigenvalues    EBANDS =       712.10198228
  atomic energy  EATOM  =      4310.68262569
  Solvation  Ediel_sol  =         0.00000000
  ---------------------------------------------------
  free energy    TOTEN  =      -312.04269823 eV

  energy without entropy =     -312.04637583  energy(sigma->0) =     -312.04392410


--------------------------------------------------------------------------------------------------------




----------------------------------------- Iteration    1(   8)  ---------------------------------------


    POTLOK:  cpu time    0.0070: real time    0.0061
    SETDIJ:  cpu time    0.0060: real time    0.0060
     EDDAV:  cpu time    0.1040: real time    0.1046
       DOS:  cpu time    0.0000: real time    0.0003
    CHARGE:  cpu time    0.0200: real time    0.0193
    MIXING:  cpu time    0.0000: real time    0.0002
    --------------------------------------------
      LOOP:  cpu time    0.1370: real time    0.1399

 eigenvalue-minimisations  :   512
 total energy-change (2. order) : 0.2710413E+03  (-0.1954862E+03)
 number of electron      40.0000621 magnetization      -0.3850764
 augmentation part       30.4971763 magnetization      -0.3538034

 Broyden mixing:
  rms(total) = 0.41771E+01    rms(broyden)= 0.41769E+01
  rms(prec ) = 0.10115E+02
  weight for this iteration     100.00

 eigenvalues of (default mixing * dielectric matrix)
  average eigenvalue GAMMA=   1.3461
  2.2135  1.2480  0.5768

 Free energy of the ion-electron system (eV)
  ---------------------------------------------------
  alpha Z        PSCENC =       191.61485929
  Ewald energy   TEWEN  =     -3781.16325108
  -Hartree energ DENC   =      -680.20076898
  -exchange      EXHF   =         0.00000000
  -V(xc)+E(xc)   XCENC  =       113.15620939
  PAW double counting   =     19004.88743266   -19308.29851634
  entropy T*S    EENTRO =        -0.02333864
  eigenvalues    EBANDS =       108.34334008
  atomic energy  EATOM  =      4310.68262569
  Solvation  Ediel_sol  =         0.00000000
  ---------------------------------------------------
  free energy    TOTEN  =       -41.00140793 eV

  energy without entropy =      -40.97806929  energy(sigma->0) =      -40.99362838


--------------------------------------------------------------------------------------------------------




----------------------------------------- Iteration    1(   9)  ---------------------------------------


    POTLOK:  cpu time    0.0070: real time    0.0061
    SETDIJ:  cpu time    0.0060: real time    0.0061
     EDDAV:  cpu time    0.1380: real time    0.1389
       DOS:  cpu time    0.0010: real time    0.0003
    CHARGE:  cpu time    0.0190: real time    0.0191
    MIXING:  cpu time    0.0000: real time    0.0003
    --------------------------------------------
      LOOP:  cpu time    0.1710: real time    0.1740

 eigenvalue-minimisations  :   656
 total energy-change (2. order) : 0.1666635E+02  (-0.1207469E+02)
 number of electron      40.0000553 magnetization      -1.0628929
 augmentation part       26.5337161 magnetization      -1.0003761

 Broyden mixing:
  rms(total) = 0.13868E+01    rms(broyden)= 0.13868E+01
  rms(prec ) = 0.33964E+01
  weight for this iteration     100.00

 eigenvalues of (default mixing * dielectric matrix)
  average eigenvalue GAMMA=   1.1711
  2.1043  1.4562  0.5619  0.5619

 Free energy of the ion-electron system (eV)
  ---------------------------------------------------
  alpha Z        PSCENC =       191.61485929
  Ewald energy   TEWEN  =     -3781.16325108
  -Hartree energ DENC   =      -808.89638958
  -exchange      EXHF   =         0.00000000
  -V(xc)+E(xc)   XCENC  =       119.41252493
  PAW double counting   =      7463.13155788    -7751.94050748
  entropy T*S    EENTRO =        -0.02151129
  eigenvalues    EBANDS =       232.84503725
  atomic energy  EATOM  =      4310.68262569
  Solvation  Ediel_sol  =         0.00000000
  ---------------------------------------------------
  free energy    TOTEN  =       -24.33505439 eV

  energy without entropy =      -24.31354310  energy(sigma->0) =      -24.32788396


--------------------------------------------------------------------------------------------------------




----------------------------------------- Iteration    1(  10)  ---------------------------------------


    POTLOK:  cpu time    0.0070: real time    0.0061
    SETDIJ:  cpu time    0.0060: real time    0.0061
     EDDAV:  cpu time    0.1240: real time    0.1245
       DOS:  cpu time    0.0000: real time    0.0003
    CHARGE:  cpu time    0.0200: real time    0.0192
    MIXING:  cpu time    0.0000: real time    0.0003
    --------------------------------------------
      LOOP:  cpu time    0.1570: real time    0.1595

 eigenvalue-minimisations  :   608
 total energy-change (2. order) :-0.1018911E+02  (-0.1129754E+01)
 number of electron      40.0000591 magnetization      -0.9403871
 augmentation part       28.6583887 magnetization      -0.9294587

 Broyden mixing:
  rms(total) = 0.26677E+01    rms(broyden)= 0.26677E+01
  rms(prec ) = 0.63672E+01
  weight for this iteration     100.00

 eigenvalues of (default mixing * dielectric matrix)
  average eigenvalue GAMMA=   1.2891
  2.6206  1.0294  1.0294  0.5738  1.1924

 Free energy of the ion-electron system (eV)
  ---------------------------------------------------
  alpha Z        PSCENC =       191.61485929
  Ewald energy   TEWEN  =     -3781.16325108
  -Hartree energ DENC   =      -781.48398857
  -exchange      EXHF   =         0.00000000
  -V(xc)+E(xc)   XCENC  =       117.71889101
  PAW double counting   =      5425.42649515    -5677.41330021
  entropy T*S    EENTRO =         0.00128326
  eigenvalues    EBANDS =       160.09221646
  atomic energy  EATOM  =      4310.68262569
  Solvation  Ediel_sol  =         0.00000000
  ---------------------------------------------------
  free energy    TOTEN  =       -34.52416899 eV

  energy without entropy =      -34.52545225  energy(sigma->0) =      -34.52459675


--------------------------------------------------------------------------------------------------------




----------------------------------------- Iteration    1(  11)  ---------------------------------------


    POTLOK:  cpu time    0.0060: real time    0.0061
    SETDIJ:  cpu time    0.0060: real time    0.0062
     EDDAV:  cpu time    0.1200: real time    0.1197
       DOS:  cpu time    0.0000: real time    0.0003
    CHARGE:  cpu time    0.0200: real time    0.0193
    MIXING:  cpu time    0.0000: real time    0.0004
    --------------------------------------------
      LOOP:  cpu time    0.1520: real time    0.1557

 eigenvalue-minimisations  :   576
 total energy-change (2. order) : 0.1279117E+02  (-0.5030886E+01)
 number of electron      40.0000520 magnetization      -1.2560231
 augmentation part       24.4000344 magnetization      -0.9592861

 Broyden mixing:
  rms(total) = 0.56162E+00    rms(broyden)= 0.56154E+00
  rms(prec ) = 0.64482E+00
  weight for this iteration     100.00

 eigenvalues of (default mixing * dielectric matrix)
  average eigenvalue GAMMA=   1.2016
  2.6073  1.5128  1.5128  0.8258  0.5960  0.1552

 Free energy of the ion-electron system (eV)
  ---------------------------------------------------
  alpha Z        PSCENC =       191.61485929
  Ewald energy   TEWEN  =     -3781.16325108
  -Hartree energ DENC   =      -882.39929209
  -exchange      EXHF   =         0.00000000
  -V(xc)+E(xc)   XCENC  =       122.96047045
  PAW double counting   =      5130.30380685    -5414.50308642
  entropy T*S    EENTRO =         0.00424656
  eigenvalues    EBANDS =       300.76662274
  atomic energy  EATOM  =      4310.68262569
  Solvation  Ediel_sol  =         0.00000000
  ---------------------------------------------------
  free energy    TOTEN  =       -21.73299800 eV

  energy without entropy =      -21.73724456  energy(sigma->0) =      -21.73441352


--------------------------------------------------------------------------------------------------------




----------------------------------------- Iteration    1(  12)  ---------------------------------------


    POTLOK:  cpu time    0.0070: real time    0.0061
    SETDIJ:  cpu time    0.0060: real time    0.0062
     EDDAV:  cpu time    0.1420: real time    0.1425
       DOS:  cpu time    0.0000: real time    0.0003
    CHARGE:  cpu time    0.0200: real time    0.0196
    MIXING:  cpu time    0.0000: real time    0.0003
    --------------------------------------------
      LOOP:  cpu time    0.1750: real time    0.1786

 eigenvalue-minimisations  :   672
 total energy-change (2. order) :-0.1429988E+01  (-0.3028717E+00)
 number of electron      40.0000500 magnetization      -1.7363816
 augmentation part       23.3481522 magnetization      -1.4039511

 Broyden mixing:
  rms(total) = 0.10299E+01    rms(broyden)= 0.10299E+01
  rms(prec ) = 0.20534E+01
  weight for this iteration     100.00

 eigenvalues of (default mixing * dielectric matrix)
  average eigenvalue GAMMA=   1.1496
  2.6417  1.5436  1.5436  0.8135  0.5934  0.4558  0.4558

 Free energy of the ion-electron system (eV)
  ---------------------------------------------------
  alpha Z        PSCENC =       191.61485929
  Ewald energy   TEWEN  =     -3781.16325108
  -Hartree energ DENC   =      -908.52059402
  -exchange      EXHF   =         0.00000000
  -V(xc)+E(xc)   XCENC  =       124.33988210
  PAW double counting   =      5052.23107782    -5344.42542054
  entropy T*S    EENTRO =         0.01704628
  eigenvalues    EBANDS =       332.06078821
  atomic energy  EATOM  =      4310.68262569
  Solvation  Ediel_sol  =         0.00000000
  ---------------------------------------------------
  free energy    TOTEN  =       -23.16298623 eV

  energy without entropy =      -23.18003251  energy(sigma->0) =      -23.16866832


--------------------------------------------------------------------------------------------------------




----------------------------------------- Iteration    1(  13)  ---------------------------------------


    POTLOK:  cpu time    0.0070: real time    0.0061
    SETDIJ:  cpu time    0.0060: real time    0.0062
     EDDAV:  cpu time    0.1440: real time    0.1447
       DOS:  cpu time    0.0010: real time    0.0003
    CHARGE:  cpu time    0.0190: real time    0.0192
    MIXING:  cpu time    0.0000: real time    0.0004
    --------------------------------------------
      LOOP:  cpu time    0.1770: real time    0.1802

 eigenvalue-minimisations  :   688
 total energy-change (2. order) : 0.3982674E-01  (-0.7871314E-02)
 number of electron      40.0000501 magnetization      -3.1282052
 augmentation part       23.4123068 magnetization      -2.8159151

 Broyden mixing:
  rms(total) = 0.95107E+00    rms(broyden)= 0.95107E+00
  rms(prec ) = 0.19508E+01
  weight for this iteration     100.00

 eigenvalues of (default mixing * dielectric matrix)
  average eigenvalue GAMMA=   1.2436
  2.6837  2.2519  1.5634  0.8391  0.8391  0.7690  0.5893  0.4131

 Free energy of the ion-electron system (eV)
  ---------------------------------------------------
  alpha Z        PSCENC =       191.61485929
  Ewald energy   TEWEN  =     -3781.16325108
  -Hartree energ DENC   =      -908.69245901
  -exchange      EXHF   =         0.00000000
  -V(xc)+E(xc)   XCENC  =       124.38659700
  PAW double counting   =      4910.28921626    -5200.41159767
  entropy T*S    EENTRO =         0.02835809
  eigenvalues    EBANDS =       330.14249192
  atomic energy  EATOM  =      4310.68262569
  Solvation  Ediel_sol  =         0.00000000
  ---------------------------------------------------
  free energy    TOTEN  =       -23.12315949 eV

  energy without entropy =      -23.15151759  energy(sigma->0) =      -23.13261219


--------------------------------------------------------------------------------------------------------




----------------------------------------- Iteration    1(  14)  ---------------------------------------


    POTLOK:  cpu time    0.0060: real time    0.0062
    SETDIJ:  cpu time    0.0060: real time    0.0062
     EDDAV:  cpu time    0.1130: real time    0.1128
       DOS:  cpu time    0.0000: real time    0.0003
    CHARGE:  cpu time    0.0200: real time    0.0194
    MIXING:  cpu time    0.0000: real time    0.0004
    --------------------------------------------
      LOOP:  cpu time    0.1460: real time    0.1485

 eigenvalue-minimisations  :   544
 total energy-change (2. order) : 0.1198359E+01  (-0.2652002E+00)
 number of electron      40.0000521 magnetization      -2.8589113
 augmentation part       24.4683872 magnetization      -2.7576999

 Broyden mixing:
  rms(total) = 0.21952E+00    rms(broyden)= 0.21950E+00
  rms(prec ) = 0.32039E+00
  weight for this iteration     100.00

 eigenvalues of (default mixing * dielectric matrix)
  average eigenvalue GAMMA=   1.1847
  2.6826  2.6826  1.3052  0.8823  0.8823  0.7859  0.5907  0.4252  0.4252

 Free energy of the ion-electron system (eV)
  ---------------------------------------------------
  alpha Z        PSCENC =       191.61485929
  Ewald energy   TEWEN  =     -3781.16325108
  -Hartree energ DENC   =      -886.32997273
  -exchange      EXHF   =         0.00000000
  -V(xc)+E(xc)   XCENC  =       123.48920485
  PAW double counting   =      4531.48121493    -4808.74123463
  entropy T*S    EENTRO =         0.01240153
  eigenvalues    EBANDS =       297.02935191
  atomic energy  EATOM  =      4310.68262569
  Solvation  Ediel_sol  =         0.00000000
  ---------------------------------------------------
  free energy    TOTEN  =       -21.92480024 eV

  energy without entropy =      -21.93720176  energy(sigma->0) =      -21.92893408


--------------------------------------------------------------------------------------------------------




----------------------------------------- Iteration    1(  15)  ---------------------------------------


    POTLOK:  cpu time    0.0060: real time    0.0062
    SETDIJ:  cpu time    0.0070: real time    0.0062
     EDDAV:  cpu time    0.1610: real time    0.1620
       DOS:  cpu time    0.0010: real time    0.0003
    CHARGE:  cpu time    0.0190: real time    0.0193
    MIXING:  cpu time    0.0000: real time    0.0004
    --------------------------------------------
      LOOP:  cpu time    0.1940: real time    0.1976

 eigenvalue-minimisations  :   752
 total energy-change (2. order) :-0.6054727E-02  (-0.2444184E-01)
 number of electron      40.0000526 magnetization      -2.8232621
 augmentation part       24.7475284 magnetization      -2.6655601

 Broyden mixing:
  rms(total) = 0.10941E+00    rms(broyden)= 0.10940E+00
  rms(prec ) = 0.21846E+00
  weight for this iteration     100.00

 eigenvalues of (default mixing * dielectric matrix)
  average eigenvalue GAMMA=   1.2013
  3.0671  2.6385  1.2777  0.9349  0.9349  0.6979  0.6979  0.7468  0.5703  0.4473

 Free energy of the ion-electron system (eV)
  ---------------------------------------------------
  alpha Z        PSCENC =       191.61485929
  Ewald energy   TEWEN  =     -3781.16325108
  -Hartree energ DENC   =      -879.45799564
  -exchange      EXHF   =         0.00000000
  -V(xc)+E(xc)   XCENC  =       123.02061150
  PAW double counting   =      4538.41486401    -4813.23489829
  entropy T*S    EENTRO =         0.01289737
  eigenvalues    EBANDS =       288.17943218
  atomic energy  EATOM  =      4310.68262569
  Solvation  Ediel_sol  =         0.00000000
  ---------------------------------------------------
  free energy    TOTEN  =       -21.93085496 eV

  energy without entropy =      -21.94375233  energy(sigma->0) =      -21.93515409


--------------------------------------------------------------------------------------------------------




----------------------------------------- Iteration    1(  16)  ---------------------------------------


    POTLOK:  cpu time    0.0060: real time    0.0061
    SETDIJ:  cpu time    0.0060: real time    0.0061
     EDDAV:  cpu time    0.1310: real time    0.1326
       DOS:  cpu time    0.0000: real time    0.0003
    CHARGE:  cpu time    0.0200: real time    0.0194
    MIXING:  cpu time    0.0000: real time    0.0005
    --------------------------------------------
      LOOP:  cpu time    0.1640: real time    0.1684

 eigenvalue-minimisations  :   624
 total energy-change (2. order) : 0.4086239E-02  (-0.9056574E-03)
 number of electron      40.0000525 magnetization      -2.6486360
 augmentation part       24.7037835 magnetization      -2.4733266

 Broyden mixing:
  rms(total) = 0.59254E-01    rms(broyden)= 0.59254E-01
  rms(prec ) = 0.12362E+00
  weight for this iteration     100.00

 eigenvalues of (default mixing * dielectric matrix)
  average eigenvalue GAMMA=   1.2643
  3.3241  2.6203  1.3129  1.3129  1.2512  0.8855  0.8855  0.7457  0.5880  0.4906
  0.4906

 Free energy of the ion-electron system (eV)
  ---------------------------------------------------
  alpha Z        PSCENC =       191.61485929
  Ewald energy   TEWEN  =     -3781.16325108
  -Hartree energ DENC   =      -881.48011689
  -exchange      EXHF   =         0.00000000
  -V(xc)+E(xc)   XCENC  =       123.06257464
  PAW double counting   =      4431.88764725    -4706.47212712
  entropy T*S    EENTRO =         0.01312980
  eigenvalues    EBANDS =       289.92788968
  atomic energy  EATOM  =      4310.68262569
  Solvation  Ediel_sol  =         0.00000000
  ---------------------------------------------------
  free energy    TOTEN  =       -21.92676872 eV

  energy without entropy =      -21.93989853  energy(sigma->0) =      -21.93114533


--------------------------------------------------------------------------------------------------------




----------------------------------------- Iteration    1(  17)  ---------------------------------------


    POTLOK:  cpu time    0.0070: real time    0.0064
    SETDIJ:  cpu time    0.0060: real time    0.0062
     EDDAV:  cpu time    0.1280: real time    0.1287
       DOS:  cpu time    0.0000: real time    0.0003
    CHARGE:  cpu time    0.0260: real time    0.0255
    MIXING:  cpu time    0.0000: real time    0.0005
    --------------------------------------------
      LOOP:  cpu time    0.1670: real time    0.1715

 eigenvalue-minimisations  :   608
 total energy-change (2. order) : 0.4519495E-02  (-0.9033513E-03)
 number of electron      40.0000525 magnetization      -2.6829463
 augmentation part       24.6472598 magnetization      -2.4839063

 Broyden mixing:
  rms(total) = 0.49906E-01    rms(broyden)= 0.49906E-01
  rms(prec ) = 0.55979E-01
  weight for this iteration     100.00

 eigenvalues of (default mixing * dielectric matrix)
  average eigenvalue GAMMA=   1.3332
  2.9738  2.6244  2.6244  1.1429  1.1429  1.2889  0.9495  0.9495  0.6445  0.6445
  0.5519  0.4607

 Free energy of the ion-electron system (eV)
  ---------------------------------------------------
  alpha Z        PSCENC =       191.61485929
  Ewald energy   TEWEN  =     -3781.16325108
  -Hartree energ DENC   =      -883.04383423
  -exchange      EXHF   =         0.00000000
  -V(xc)+E(xc)   XCENC  =       123.08018848
  PAW double counting   =      4377.19892462    -4652.27747000
  entropy T*S    EENTRO =         0.01411217
  eigenvalues    EBANDS =       291.97159582
  atomic energy  EATOM  =      4310.68262569
  Solvation  Ediel_sol  =         0.00000000
  ---------------------------------------------------
  free energy    TOTEN  =       -21.92224923 eV

  energy without entropy =      -21.93636140  energy(sigma->0) =      -21.92695329


--------------------------------------------------------------------------------------------------------




----------------------------------------- Iteration    1(  18)  ---------------------------------------


    POTLOK:  cpu time    0.0070: real time    0.0061
    SETDIJ:  cpu time    0.0060: real time    0.0062
     EDDAV:  cpu time    0.1250: real time    0.1252
       DOS:  cpu time    0.0000: real time    0.0003
    CHARGE:  cpu time    0.0190: real time    0.0192
    MIXING:  cpu time    0.0010: real time    0.0005
    --------------------------------------------
      LOOP:  cpu time    0.1580: real time    0.1611

 eigenvalue-minimisations  :   592
 total energy-change (2. order) :-0.5659886E-03  (-0.5344931E-04)
 number of electron      40.0000524 magnetization      -2.7652179
 augmentation part       24.6368795 magnetization      -2.5747745

 Broyden mixing:
  rms(total) = 0.31257E-01    rms(broyden)= 0.31257E-01
  rms(prec ) = 0.32446E-01
  weight for this iteration     100.00

 eigenvalues of (default mixing * dielectric matrix)
  average eigenvalue GAMMA=   1.3245
  3.6382  2.5246  2.5246  1.1612  1.1612  1.2861  0.8879  0.8879  0.7640  0.7640
  0.4642  0.6062  0.5486

 Free energy of the ion-electron system (eV)
  ---------------------------------------------------
  alpha Z        PSCENC =       191.61485929
  Ewald energy   TEWEN  =     -3781.16325108
  -Hartree energ DENC   =      -883.41040089
  -exchange      EXHF   =         0.00000000
  -V(xc)+E(xc)   XCENC  =       123.10716496
  PAW double counting   =      4334.19866244    -4609.29326531
  entropy T*S    EENTRO =         0.01379729
  eigenvalues    EBANDS =       292.32699239
  atomic energy  EATOM  =      4310.68262569
  Solvation  Ediel_sol  =         0.00000000
  ---------------------------------------------------
  free energy    TOTEN  =       -21.92281522 eV

  energy without entropy =      -21.93661251  energy(sigma->0) =      -21.92741431


--------------------------------------------------------------------------------------------------------




----------------------------------------- Iteration    1(  19)  ---------------------------------------


    POTLOK:  cpu time    0.0070: real time    0.0061
    SETDIJ:  cpu time    0.0060: real time    0.0062
     EDDAV:  cpu time    0.1500: real time    0.1501
       DOS:  cpu time    0.0000: real time    0.0003
    CHARGE:  cpu time    0.0190: real time    0.0193
    MIXING:  cpu time    0.0010: real time    0.0006
    --------------------------------------------
      LOOP:  cpu time    0.1830: real time    0.1858

 eigenvalue-minimisations  :   688
 total energy-change (2. order) :-0.4513212E-03  (-0.4790577E-04)
 number of electron      40.0000524 magnetization      -2.7618010
 augmentation part       24.6265284 magnetization      -2.5841354

 Broyden mixing:
  rms(total) = 0.62024E-02    rms(broyden)= 0.62018E-02
  rms(prec ) = 0.11053E-01
  weight for this iteration     100.00

 eigenvalues of (default mixing * dielectric matrix)
  average eigenvalue GAMMA=   1.3259
  3.7265  2.6043  2.6043  1.1899  1.1899  1.2013  1.2013  0.9653  0.8148  0.8148
  0.4638  0.5540  0.6159  0.6159

 Free energy of the ion-electron system (eV)
  ---------------------------------------------------
  alpha Z        PSCENC =       191.61485929
  Ewald energy   TEWEN  =     -3781.16325108
  -Hartree energ DENC   =      -883.73269161
  -exchange      EXHF   =         0.00000000
  -V(xc)+E(xc)   XCENC  =       123.14891751
  PAW double counting   =      4311.27353843    -4586.38961314
  entropy T*S    EENTRO =         0.01330539
  eigenvalues    EBANDS =       292.62904298
  atomic energy  EATOM  =      4310.68262569
  Solvation  Ediel_sol  =         0.00000000
  ---------------------------------------------------
  free energy    TOTEN  =       -21.92326654 eV

  energy without entropy =      -21.93657193  energy(sigma->0) =      -21.92770167


--------------------------------------------------------------------------------------------------------




----------------------------------------- Iteration    1(  20)  ---------------------------------------


    POTLOK:  cpu time    0.0060: real time    0.0061
    SETDIJ:  cpu time    0.0070: real time    0.0062
     EDDAV:  cpu time    0.1310: real time    0.1310
       DOS:  cpu time    0.0000: real time    0.0003
    CHARGE:  cpu time    0.0190: real time    0.0197
    MIXING:  cpu time    0.0010: real time    0.0006
    --------------------------------------------
      LOOP:  cpu time    0.1640: real time    0.1680

 eigenvalue-minimisations  :   624
 total energy-change (2. order) :-0.1424269E-03  (-0.1407640E-04)
 number of electron      40.0000524 magnetization      -2.7602780
 augmentation part       24.6190853 magnetization      -2.5826063

 Broyden mixing:
  rms(total) = 0.98404E-02    rms(broyden)= 0.98403E-02
  rms(prec ) = 0.22404E-01
  weight for this iteration     100.00

 eigenvalues of (default mixing * dielectric matrix)
  average eigenvalue GAMMA=   1.3689
  4.2309  2.8509  2.6940  1.1931  1.1931  1.2671  1.2671  1.2305  0.7886  0.7886
  0.4636  0.5489  0.7003  0.6583  0.6583

 Free energy of the ion-electron system (eV)
  ---------------------------------------------------
  alpha Z        PSCENC =       191.61485929
  Ewald energy   TEWEN  =     -3781.16325108
  -Hartree energ DENC   =      -883.94113093
  -exchange      EXHF   =         0.00000000
  -V(xc)+E(xc)   XCENC  =       123.15871754
  PAW double counting   =      4307.71673933    -4582.87824925
  entropy T*S    EENTRO =         0.01330816
  eigenvalues    EBANDS =       292.87297228
  atomic energy  EATOM  =      4310.68262569
  Solvation  Ediel_sol  =         0.00000000
  ---------------------------------------------------
  free energy    TOTEN  =       -21.92340897 eV

  energy without entropy =      -21.93671713  energy(sigma->0) =      -21.92784502


--------------------------------------------------------------------------------------------------------




----------------------------------------- Iteration    1(  21)  ---------------------------------------


    POTLOK:  cpu time    0.0070: real time    0.0066
    SETDIJ:  cpu time    0.0060: real time    0.0063
     EDDAV:  cpu time    0.1260: real time    0.1262
       DOS:  cpu time    0.0010: real time    0.0003
    CHARGE:  cpu time    0.0190: real time    0.0192
    MIXING:  cpu time    0.0000: real time    0.0006
    --------------------------------------------
      LOOP:  cpu time    0.1590: real time    0.1625

 eigenvalue-minimisations  :   592
 total energy-change (2. order) : 0.1322144E-03  (-0.1088382E-04)
 number of electron      40.0000524 magnetization      -2.7541661
 augmentation part       24.6259976 magnetization      -2.5764623

 Broyden mixing:
  rms(total) = 0.55136E-02    rms(broyden)= 0.55136E-02
  rms(prec ) = 0.11946E-01
  weight for this iteration     100.00

 eigenvalues of (default mixing * dielectric matrix)
  average eigenvalue GAMMA=   1.3401
  3.9302  2.7748  2.6464  1.1860  1.1860  1.5327  1.5327  1.1082  0.8517  0.8517
  0.7466  0.7466  0.4639  0.5478  0.7102  0.6266

 Free energy of the ion-electron system (eV)
  ---------------------------------------------------
  alpha Z        PSCENC =       191.61485929
  Ewald energy   TEWEN  =     -3781.16325108
  -Hartree energ DENC   =      -883.80041855
  -exchange      EXHF   =         0.00000000
  -V(xc)+E(xc)   XCENC  =       123.15108791
  PAW double counting   =      4304.88884384    -4579.95835578
  entropy T*S    EENTRO =         0.01331114
  eigenvalues    EBANDS =       292.64802078
  atomic energy  EATOM  =      4310.68262569
  Solvation  Ediel_sol  =         0.00000000
  ---------------------------------------------------
  free energy    TOTEN  =       -21.92327675 eV

  energy without entropy =      -21.93658789  energy(sigma->0) =      -21.92771380


--------------------------------------------------------------------------------------------------------




----------------------------------------- Iteration    1(  22)  ---------------------------------------


    POTLOK:  cpu time    0.0060: real time    0.0062
    SETDIJ:  cpu time    0.0060: real time    0.0062
     EDDAV:  cpu time    0.1240: real time    0.1238
       DOS:  cpu time    0.0000: real time    0.0002
    CHARGE:  cpu time    0.0190: real time    0.0192
    MIXING:  cpu time    0.0010: real time    0.0007
    --------------------------------------------
      LOOP:  cpu time    0.1570: real time    0.1596

 eigenvalue-minimisations  :   592
 total energy-change (2. order) : 0.4616919E-04  (-0.1041396E-04)
 number of electron      40.0000524 magnetization      -2.7544412
 augmentation part       24.6326909 magnetization      -2.5755467

 Broyden mixing:
  rms(total) = 0.55784E-03    rms(broyden)= 0.55756E-03
  rms(prec ) = 0.12521E-02
  weight for this iteration     100.00

 eigenvalues of (default mixing * dielectric matrix)
  average eigenvalue GAMMA=   1.3330
  3.9058  2.8363  2.5479  2.0403  1.1875  1.1875  1.3457  1.1104  0.9380  0.9380
  0.7864  0.7864  0.7715  0.4638  0.5477  0.6338  0.6338

 Free energy of the ion-electron system (eV)
  ---------------------------------------------------
  alpha Z        PSCENC =       191.61485929
  Ewald energy   TEWEN  =     -3781.16325108
  -Hartree energ DENC   =      -883.65048616
  -exchange      EXHF   =         0.00000000
  -V(xc)+E(xc)   XCENC  =       123.14141671
  PAW double counting   =      4304.72291378    -4579.71570841
  entropy T*S    EENTRO =         0.01334095
  eigenvalues    EBANDS =       292.43105864
  atomic energy  EATOM  =      4310.68262569
  Solvation  Ediel_sol  =         0.00000000
  ---------------------------------------------------
  free energy    TOTEN  =       -21.92323058 eV

  energy without entropy =      -21.93657153  energy(sigma->0) =      -21.92767756


--------------------------------------------------------------------------------------------------------




----------------------------------------- Iteration    1(  23)  ---------------------------------------


    POTLOK:  cpu time    0.0060: real time    0.0062
    SETDIJ:  cpu time    0.0060: real time    0.0062
     EDDAV:  cpu time    0.1260: real time    0.1265
       DOS:  cpu time    0.0010: real time    0.0003
    --------------------------------------------
      LOOP:  cpu time    0.1400: real time    0.1425

 eigenvalue-minimisations  :   592
 total energy-change (2. order) : 0.1903563E-06  (-0.2717585E-06)
 number of electron      40.0000524 magnetization      -2.7544412
 augmentation part       24.6326909 magnetization      -2.5755467

 Free energy of the ion-electron system (eV)
  ---------------------------------------------------
  alpha Z        PSCENC =       191.61485929
  Ewald energy   TEWEN  =     -3781.16325108
  -Hartree energ DENC   =      -883.63638868
  -exchange      EXHF   =         0.00000000
  -V(xc)+E(xc)   XCENC  =       123.14072666
  PAW double counting   =      4304.82906724    -4579.81771890
  entropy T*S    EENTRO =         0.01334037
  eigenvalues    EBANDS =       292.41350901
  atomic energy  EATOM  =      4310.68262569
  Solvation  Ediel_sol  =         0.00000000
  ---------------------------------------------------
  free energy    TOTEN  =       -21.92323039 eV

  energy without entropy =      -21.93657076  energy(sigma->0) =      -21.92767718


--------------------------------------------------------------------------------------------------------




 average (electrostatic) potential at core
  the test charge radii are     0.9791
  (the norm of the test charge is              1.0000)
       1 -81.7321       2 -81.7321       3 -81.7321       4 -81.7321
 
 
 
 E-fermi :   9.6955     XC(G=0): -13.3839     alpha+bet :-16.8239


 spin component 1

 k-point     1 :       0.1250    0.1250    0.1250
  band No.  band energies     occupation 
      1       1.1153      1.00000
      2       5.5090      1.00000
      3       5.5090      1.00000
      4       5.5090      1.00000
      5       6.1959      1.00000
      6       6.1959      1.00000
      7       6.1959      1.00000
      8       7.7904      1.00000
      9       8.0855      1.00000
     10       8.0855      1.00000
     11       9.0107      1.00001
     12       9.0107      1.00001
     13       9.0297      1.00001
     14       9.0297      1.00001
     15       9.0297      1.00001
     16       9.5332      0.99297
     17       9.5332      0.99297
     18       9.5332      0.99297
     19      10.0011     -0.02639
     20      10.0011     -0.02639
     21      10.0011     -0.02639
     22      12.4813     -0.00000
     23      12.4813     -0.00000
     24      12.4813     -0.00000
     25      20.7922      0.00000
     26      20.7922      0.00000
     27      20.7922      0.00000
     28      22.0669      0.00000
     29      22.0669      0.00000
     30      22.0669      0.00000
     31      25.6852      0.00000
     32      25.6852      0.00000

 k-point     2 :       0.3750    0.1250    0.1250
  band No.  band energies     occupation 
      1       2.6396      1.00000
      2       4.8519      1.00000
      3       6.1955      1.00000
      4       6.1955      1.00000
      5       6.6355      1.00000
      6       6.6355      1.00000
      7       6.6551      1.00000
      8       7.3294      1.00000
      9       7.6860      1.00000
     10       7.6860      1.00000
     11       8.0763      1.00000
     12       8.2059      1.00000
     13       8.3873      1.00000
     14       8.8792      1.00000
     15       8.9675      1.00000
     16       9.0547      1.00003
     17       9.0547      1.00003
     18       9.3359      1.01449
     19       9.7533      0.26648
     20       9.9236     -0.03423
     21       9.9236     -0.03423
     22       9.9306     -0.03505
     23      14.8101     -0.00000
     24      14.8101     -0.00000
     25      18.0824      0.00000
     26      18.0824      0.00000
     27      21.7854      0.00000
     28      21.7854      0.00000
     29      23.8638      0.00000
     30      24.0394      0.00000
     31      24.0394      0.00000
     32      26.9659      0.00000

 k-point     3 :       0.3750    0.3750    0.1250
  band No.  band energies     occupation 
      1       3.9362      1.00000
      2       5.6661      1.00000
      3       5.6661      1.00000
      4       6.2847      1.00000
      5       6.8404      1.00000
      6       7.0016      1.00000
      7       7.0016      1.00000
      8       7.3222      1.00000
      9       7.5044      1.00000
     10       7.5044      1.00000
     11       7.6174      1.00000
     12       7.9574      1.00000
     13       8.3059      1.00000
     14       8.6396      1.00000
     15       8.6469      1.00000
     16       8.6469      1.00000
     17       8.9880      1.00000
     18       9.5386      0.98599
     19       9.5386      0.98599
     20       9.6231      0.78536
     21       9.9239     -0.03428
     22      11.3726     -0.00000
     23      11.3726     -0.00000
     24      13.5837     -0.00000
     25      17.1016      0.00000
     26      19.8889      0.00000
     27      19.8889      0.00000
     28      22.8747      0.00000
     29      22.9874      0.00000
     30      25.4452      0.00000
     31      25.4452      0.00000
     32      28.3084      0.00000

 k-point     4 :       0.3750    0.3750    0.3750
  band No.  band energies     occupation 
      1       4.6396      1.00000
      2       5.4886      1.00000
      3       5.4886      1.00000
      4       5.4886      1.00000
      5       7.4894      1.00000
      6       7.4894      1.00000
      7       7.4894      1.00000
      8       7.9666      1.00000
      9       7.9666      1.00000
     10       8.0189      1.00000
     11       8.1212      1.00000
     12       8.1212      1.00000
     13       8.1212      1.00000
     14       8.1396      1.00000
     15       8.1396      1.00000
     16       8.1396      1.00000
     17       9.6406      0.72306
     18       9.6406      0.72306
     19       9.8906     -0.02235
     20       9.8906     -0.02235
     21       9.8906     -0.02235
     22      11.3174     -0.00000
     23      11.3174     -0.00000
     24      11.3174     -0.00000
     25      16.4909      0.00000
     26      16.4909      0.00000
     27      16.4909      0.00000
     28      18.8803      0.00000
     29      29.3138      0.00000
     30      29.3138      0.00000
     31      29.3138      0.00000
     32      31.7228      0.00000

 spin component 2

 k-point     1 :       0.1250    0.1250    0.1250
  band No.  band energies     occupation 
      1       1.1274      1.00000
      2       5.1063      1.00000
      3       5.1063      1.00000
      4       5.1063      1.00000
      5       5.5544      1.00000
      6       5.5544      1.00000
      7       5.5544      1.00000
      8       7.0291      1.00000
      9       7.2997      1.00000
     10       7.2997      1.00000
     11       8.3226      1.00000
     12       8.3226      1.00000
     13       8.3474      1.00000
     14       8.3474      1.00000
     15       8.3474      1.00000
     16       8.7965      1.00000
     17       8.7965      1.00000
     18       8.7965      1.00000
     19       9.1474      1.00037
     20       9.1474      1.00037
     21       9.1474      1.00037
     22      12.2174     -0.00000
     23      12.2174     -0.00000
     24      12.2174     -0.00000
     25      20.5666      0.00000
     26      20.5666      0.00000
     27      20.5666      0.00000
     28      21.9421      0.00000
     29      21.9421      0.00000
     30      21.9421      0.00000
     31      25.6318      0.00000
     32      25.6318      0.00000

 k-point     2 :       0.3750    0.1250    0.1250
  band No.  band energies     occupation 
      1       2.6365      1.00000
      2       4.6901      1.00000
      3       5.7403      1.00000
      4       5.7403      1.00000
      5       5.9869      1.00000
      6       6.0320      1.00000
      7       6.0320      1.00000
      8       6.6102      1.00000
      9       7.0533      1.00000
     10       7.0533      1.00000
     11       7.4816      1.00000
     12       7.4838      1.00000
     13       7.6109      1.00000
     14       8.1598      1.00000
     15       8.1970      1.00000
     16       8.3768      1.00000
     17       8.3768      1.00000
     18       8.6139      1.00000
     19       8.9794      1.00000
     20       9.0490      1.00002
     21       9.0490      1.00002
     22       9.2706      1.00523
     23      14.5225     -0.00000
     24      14.5225     -0.00000
     25      17.8619      0.00000
     26      17.8619      0.00000
     27      21.6002      0.00000
     28      21.6002      0.00000
     29      23.7203      0.00000
     30      23.9119      0.00000
     31      23.9119      0.00000
     32      26.8385      0.00000

 k-point     3 :       0.3750    0.3750    0.1250
  band No.  band energies     occupation 
      1       3.8693      1.00000
      2       5.3586      1.00000
      3       5.3586      1.00000
      4       5.7515      1.00000
      5       6.3805      1.00000
      6       6.4435      1.00000
      7       6.4435      1.00000
      8       6.6712      1.00000
      9       6.8516      1.00000
     10       6.8516      1.00000
     11       6.9823      1.00000
     12       7.2723      1.00000
     13       7.5869      1.00000
     14       7.9509      1.00000
     15       7.9509      1.00000
     16       7.9563      1.00000
     17       8.2285      1.00000
     18       8.7351      1.00000
     19       8.7351      1.00000
     20       8.7839      1.00000
     21       9.1766      1.00075
     22      10.8086     -0.00000
     23      10.8086     -0.00000
     24      13.2371     -0.00000
     25      16.8002      0.00000
     26      19.6629      0.00000
     27      19.6629      0.00000
     28      22.6867      0.00000
     29      22.8295      0.00000
     30      25.3259      0.00000
     31      25.3259      0.00000
     32      28.2144      0.00000

 k-point     4 :       0.3750    0.3750    0.3750
  band No.  band energies     occupation 
      1       4.3739      1.00000
      2       5.0253      1.00000
      3       5.0253      1.00000
      4       5.0253      1.00000
      5       6.9253      1.00000
      6       6.9253      1.00000
      7       6.9253      1.00000
      8       7.2684      1.00000
      9       7.2684      1.00000
     10       7.4278      1.00000
     11       7.4278      1.00000
     12       7.4278      1.00000
     13       7.6114      1.00000
     14       7.6114      1.00000
     15       7.6114      1.00000
     16       7.7018      1.00000
     17       8.8441      1.00000
     18       8.8441      1.00000
     19       9.0705      1.00005
     20       9.0705      1.00005
     21       9.0705      1.00005
     22      10.9164     -0.00000
     23      10.9164     -0.00000
     24      10.9164     -0.00000
     25      16.1083      0.00000
     26      16.1083      0.00000
     27      16.1083      0.00000
     28      18.5957      0.00000
     29      29.2748      0.00000
     30      29.2748      0.00000
     31      29.2748      0.00000
     32      31.6169      0.00000


--------------------------------------------------------------------------------------------------------


 soft charge-density along one line, spin component           1
         0         1         2         3         4         5         6         7         8         9
 total charge-density along one line
 
 soft charge-density along one line, spin component           2
         0         1         2         3         4         5         6         7         8         9
 total charge-density along one line
 
 pseudopotential strength for first ion, spin component:           1
  0.255   0.000   0.000   0.000   0.000  -2.687   0.000  -0.000
  0.000   0.255   0.000  -0.000  -0.000   0.000  -2.687  -0.000
  0.000   0.000   0.232   0.000  -0.000  -0.000  -0.000  -2.677
  0.000  -0.000   0.000   0.255  -0.000  -0.000   0.000  -0.000
  0.000  -0.000  -0.000  -0.000   0.232  -0.000   0.000   0.000
 -2.687   0.000  -0.000  -0.000  -0.000   2.573  -0.000   0.000
  0.000  -2.687  -0.000   0.000   0.000  -0.000   2.573   0.000
 -0.000  -0.000  -2.677  -0.000   0.000   0.000   0.000   2.569
 -0.000   0.000  -0.000  -2.687   0.000   0.000  -0.000   0.000
 -0.000   0.000   0.000   0.000  -2.677   0.000  -0.000  -0.000
  0.000  -0.000   0.000   0.000  -0.000   0.000  -0.000  -0.000
 -0.000   0.000   0.000  -0.000   0.000   0.000  -0.000   0.000
  0.000  -0.000  -0.000  -0.000  -0.000  -0.000   0.000   0.000
 -0.000   0.000  -0.000   0.000  -0.000  -0.000  -0.000   0.000
  0.000  -0.000  -0.000  -0.000   0.000   0.000  -0.000   0.000
 -0.000   0.000   0.000   0.000  -0.000   0.000  -0.000  -0.000
  0.000  -0.000   0.000  -0.000   0.000  -0.000   0.000  -0.000
 -0.000   0.000   0.000   0.000  -0.000   0.000  -0.000  -0.000
 pseudopotential strength for first ion, spin component:           2
 -0.415  -0.000   0.000   0.000  -0.000  -2.370   0.000  -0.000
 -0.000  -0.415   0.000  -0.000  -0.000   0.000  -2.370  -0.000
  0.000   0.000  -0.315   0.000  -0.000  -0.000  -0.000  -2.416
  0.000  -0.000   0.000  -0.415  -0.000  -0.000   0.000  -0.000
 -0.000  -0.000  -0.000  -0.000  -0.315   0.000   0.000   0.000
 -2.370   0.000  -0.000  -0.000   0.000   2.423  -0.000   0.000
  0.000  -2.370  -0.000   0.000   0.000  -0.000   2.423   0.000
 -0.000  -0.000  -2.416  -0.000   0.000   0.000   0.000   2.444
 -0.000   0.000  -0.000  -2.370   0.000   0.000  -0.000   0.000
  0.000   0.000   0.000   0.000  -2.416  -0.000  -0.000  -0.000
  0.000  -0.000   0.000   0.000  -0.000   0.000  -0.000  -0.000
 -0.000   0.000  -0.000  -0.000   0.000   0.000  -0.000   0.000
  0.000  -0.000  -0.000   0.000   0.000  -0.000   0.000   0.000
  0.000   0.000  -0.000   0.000  -0.000   0.000  -0.000   0.000
  0.000   0.000  -0.000  -0.000   0.000   0.000   0.000   0.000
 -0.000   0.000  -0.000  -0.000  -0.000   0.000  -0.000   0.000
 -0.000  -0.000   0.000  -0.000   0.000   0.000   0.000  -0.000
 -0.000  -0.000   0.000   0.000  -0.000   0.000   0.000   0.000
 total augmentation occupancy for first ion, spin component:           1
  1.760   0.000  -0.000  -0.000  -0.000   0.101   0.000  -0.000   0.000  -0.000  -0.000  -0.000   0.000   0.000  -0.000   0.000
  0.000   1.760  -0.000   0.000  -0.000  -0.000   0.101  -0.000  -0.000   0.000  -0.000   0.000   0.000  -0.000   0.000   0.000
  0.000  -0.000   1.826  -0.000  -0.000  -0.000   0.000   0.017   0.000  -0.000   0.000  -0.000  -0.000   0.000   0.000   0.000
 -0.000  -0.000   0.000   1.760   0.000   0.000   0.000  -0.000   0.101  -0.000  -0.000  -0.000  -0.000   0.000   0.000   0.000
 -0.000  -0.000  -0.000  -0.000   1.826  -0.000   0.000   0.000  -0.000   0.017   0.000  -0.000  -0.000  -0.000  -0.000  -0.000
  0.101  -0.000   0.000  -0.000  -0.000   0.118  -0.000   0.000  -0.000  -0.000   0.000   0.000  -0.000  -0.000   0.000  -0.000
  0.000   0.101   0.000   0.000   0.000  -0.000   0.118  -0.000  -0.000  -0.000   0.000   0.000  -0.000  -0.000   0.000   0.000
 -0.000  -0.000   0.017  -0.000  -0.000   0.000  -0.000   0.119   0.000  -0.000   0.000   0.000   0.000  -0.000   0.000  -0.000
  0.000  -0.000   0.000   0.101  -0.000  -0.000  -0.000   0.000   0.118  -0.000   0.000   0.000   0.000   0.000  -0.000   0.000
 -0.000   0.000  -0.000  -0.000   0.017  -0.000  -0.000   0.000  -0.000   0.119   0.000  -0.000   0.000   0.000   0.000   0.000
 -0.000  -0.000   0.000  -0.000   0.000   0.000   0.000   0.000   0.000   0.000   1.311  -0.330  -0.000  -0.000  -0.000   0.000
 -0.000  -0.000  -0.000  -0.000  -0.000   0.000   0.000   0.000   0.000   0.000  -0.330   0.113   0.000   0.000   0.000   0.000
  0.000   0.000  -0.000  -0.000  -0.000  -0.000  -0.000   0.000  -0.000   0.000   0.000   0.000   0.224  -0.000  -0.000  -0.017
  0.000  -0.000  -0.000   0.000   0.000  -0.000  -0.000   0.000   0.000  -0.000   0.000  -0.000   0.000   0.224   0.000   0.000
 -0.000   0.000   0.000   0.000   0.000   0.000  -0.000   0.000  -0.000   0.000   0.000  -0.000  -0.000  -0.000   0.224   0.000
  0.000   0.000   0.000  -0.000   0.000  -0.000  -0.000   0.000  -0.000   0.000   0.000   0.000  -0.017   0.000   0.000   0.002
  0.000   0.000   0.000   0.000   0.000  -0.000  -0.000  -0.000   0.000   0.000  -0.000  -0.000  -0.000  -0.017  -0.000  -0.000
  0.000   0.000  -0.000   0.000   0.000   0.000   0.000   0.000   0.000  -0.000   0.000   0.000   0.000   0.000  -0.017  -0.000
 total augmentation occupancy for first ion, spin component:           2
 -0.126   0.000  -0.000  -0.000   0.000   0.098   0.000  -0.000   0.000   0.000   0.000  -0.000  -0.000   0.000  -0.000   0.000
  0.000  -0.126   0.000   0.000  -0.000  -0.000   0.098  -0.000  -0.000   0.000   0.000  -0.000  -0.000   0.000   0.000   0.000
 -0.000  -0.000  -0.062  -0.000   0.000  -0.000   0.000   0.064  -0.000   0.000  -0.000  -0.000   0.000  -0.000  -0.000   0.000
 -0.000   0.000  -0.000  -0.126   0.000  -0.000  -0.000  -0.000   0.098  -0.000  -0.000   0.000  -0.000  -0.000   0.000  -0.000
  0.000   0.000  -0.000   0.000  -0.062   0.000   0.000  -0.000  -0.000   0.064  -0.000  -0.000  -0.000   0.000   0.000   0.000
  0.098  -0.000   0.000  -0.000  -0.000  -0.015  -0.000  -0.000   0.000   0.000  -0.000   0.000   0.000  -0.000   0.000  -0.000
  0.000   0.098  -0.000   0.000   0.000  -0.000  -0.015   0.000  -0.000  -0.000   0.000  -0.000   0.000  -0.000   0.000  -0.000
 -0.000  -0.000   0.064  -0.000   0.000   0.000   0.000  -0.008  -0.000   0.000  -0.000   0.000   0.000   0.000   0.000   0.000
 -0.000   0.000  -0.000   0.098  -0.000   0.000   0.000  -0.000  -0.015  -0.000  -0.000   0.000  -0.000  -0.000   0.000  -0.000
  0.000   0.000  -0.000  -0.000   0.064   0.000  -0.000   0.000   0.000  -0.008   0.000  -0.000   0.000  -0.000   0.000   0.000
  0.000  -0.000  -0.000   0.000   0.000  -0.000   0.000   0.000  -0.000   0.000  -0.012  -0.043   0.000   0.000   0.000   0.000
 -0.000   0.000  -0.000  -0.000  -0.000  -0.000  -0.000  -0.000   0.000   0.000  -0.043   0.019  -0.000   0.000  -0.000  -0.000
 -0.000  -0.000   0.000   0.000   0.000   0.000   0.000  -0.000  -0.000   0.000   0.000   0.000   0.009   0.000   0.000  -0.001
  0.000   0.000   0.000  -0.000   0.000   0.000  -0.000  -0.000  -0.000  -0.000   0.000   0.000  -0.000   0.009   0.000   0.000
 -0.000  -0.000  -0.000   0.000   0.000   0.000   0.000   0.000   0.000   0.000   0.000  -0.000  -0.000  -0.000   0.009   0.000
  0.000   0.000   0.000  -0.000  -0.000  -0.000  -0.000   0.000   0.000   0.000   0.000   0.000  -0.001   0.000   0.000   0.000
  0.000   0.000  -0.000  -0.000   0.000   0.000   0.000   0.000   0.000   0.000   0.000   0.000   0.000  -0.001   0.000   0.000
 -0.000   0.000  -0.000  -0.000   0.000  -0.000   0.000   0.000  -0.000   0.000  -0.000  -0.000   0.000   0.000  -0.001  -0.000


------------------------ aborting loop because EDIFF is reached ----------------------------------------


    CHARGE:  cpu time    0.0200: real time    0.0216
    FORLOC:  cpu time    0.0000: real time    0.0001
    FORNL :  cpu time    0.0140: real time    0.0140
    STRESS:  cpu time    0.0380: real time    0.0379
    FORCOR:  cpu time    0.0050: real time    0.0052
    FORHAR:  cpu time    0.0010: real time    0.0006
    MIXING:  cpu time    0.0010: real time    0.0007
    OFIELD:  cpu time    0.0000: real time    0.0000

  FORCE on cell =-STRESS in cart. coord.  units (eV):
  Direction    XX          YY          ZZ          XY          YZ          ZX
  --------------------------------------------------------------------------------------
  Alpha Z   191.61486   191.61486   191.61486
  Ewald   -1260.38830 -1260.38830 -1260.38830    -0.00000     0.00000    -0.00000
  Hartree   294.53816   294.53816   294.53816    -0.00000    -0.00000    -0.00000
  E(xc)    -220.49620  -220.49620  -220.49620    -0.00000     0.00000    -0.00000
  Local       8.26259     8.26259     8.26259     0.00000     0.00000     0.00000
  n-local   -26.79379   -32.32561   -28.91523     5.84544     3.86866     4.16094
  augment   703.97819   703.97819   703.97819    -0.00000    -0.00000    -0.00000
  Kinetic   319.91285   311.29323   307.89854     1.93295     0.92219     0.65569
  Fock        0.00000     0.00000     0.00000     0.00000     0.00000     0.00000
  -------------------------------------------------------------------------------------
  Total       1.19929     1.19929     1.19929    -0.00000    -0.00000    -0.00000
  in kB      45.12058    45.12058    45.12058    -0.00000    -0.00000    -0.00000
  external pressure =       45.12 kB  Pullay stress =        0.00 kB


 VOLUME and BASIS-vectors are now :
 -----------------------------------------------------------------------------
  energy-cutoff  :      550.00
  volume of cell :       42.59
      direct lattice vectors                 reciprocal lattice vectors
     3.492102000  0.000000000  0.000000000     0.286360479  0.000000000  0.000000000
     0.000000000  3.492102000  0.000000000     0.000000000  0.286360479  0.000000000
     0.000000000  0.000000000  3.492102000     0.000000000  0.000000000  0.286360479

  length of vectors
     3.492102000  3.492102000  3.492102000     0.286360479  0.286360479  0.286360479


 FORCES acting on ions
    electron-ion (+dipol)            ewald-force                    non-local-force                 convergence-correction
 -----------------------------------------------------------------------------------------------
   0.348E-14 -.241E-13 -.475E-13   -.842E-14 -.148E-13 -.323E-14   -.210E-23 -.461E-24 -.219E-24   -.375E-13 0.354E-13 -.351E-13
   0.392E-14 0.748E-12 0.708E-12   -.856E-14 0.997E-14 0.441E-14   0.225E-24 0.135E-23 0.192E-24   -.400E-13 0.322E-13 0.174E-13
   0.773E-12 -.333E-13 -.825E-12   0.719E-14 -.116E-13 0.450E-14   0.270E-24 0.204E-23 -.195E-24   0.917E-14 0.207E-13 0.305E-13
   0.775E-12 0.728E-12 0.704E-12   0.705E-14 0.132E-13 -.780E-14   0.276E-23 -.354E-23 -.299E-23   0.309E-14 0.188E-13 -.281E-13
 -----------------------------------------------------------------------------------------------
   0.156E-11 0.142E-11 0.540E-12   -.274E-14 -.328E-14 -.211E-14   0.115E-23 -.611E-24 -.321E-23   -.652E-13 0.107E-12 -.154E-13
 
 
 POSITION                                       TOTAL-FORCE (eV/Angst)
 -----------------------------------------------------------------------------------
      0.00000      0.00000      0.00000        -0.000000     -0.000000     -0.000000
      0.00000      1.74605      1.74605        -0.000000      0.000000      0.000000
      1.74605      0.00000      1.74605         0.000000      0.000000      0.000000
      1.74605      1.74605      0.00000         0.000000     -0.000000     -0.000000
 -----------------------------------------------------------------------------------
    total drift:                                0.000000      0.000000      0.000000


--------------------------------------------------------------------------------------------------------



  FREE ENERGIE OF THE ION-ELECTRON SYSTEM (eV)
  ---------------------------------------------------
  free  energy   TOTEN  =       -21.92323039 eV

  energy  without entropy=      -21.93657076  energy(sigma->0) =      -21.92767718
 


--------------------------------------------------------------------------------------------------------


    POTLOK:  cpu time    0.0150: real time    0.0153


--------------------------------------------------------------------------------------------------------


     LOOP+:  cpu time    3.8154: real time    3.9005
    4ORBIT:  cpu time    0.0000: real time    0.0000

 total amount of memory used by VASP on root node    33598. kBytes
========================================================================

   base      :      30000. kBytes
   nonl-proj :        819. kBytes
   fftplans  :        234. kBytes
   grid      :       2073. kBytes
   one-center:        124. kBytes
   wavefun   :        348. kBytes
 
  
  
 General timing and accounting informations for this job:
 ========================================================
  
                  Total CPU time used (sec):        5.072
                            User time (sec):        3.831
                          System time (sec):        1.241
                         Elapsed time (sec):        5.391
  
                   Maximum memory used (kb):       40760.
                   Average memory used (kb):           0.
  
                          Minor page faults:       192581
                          Major page faults:           15
                 Voluntary context switches:          941
