# ['Ni']

18 atoms
1 atom types

    0.0000     2.2768 xlo xhi
    0.0000     3.9436 ylo yhi
    0.0000    33.4568 zlo zhi

    0.0000     0.0000    -0.0004 xy xz yz

Atoms

1 1     0.0000     0.0000     0.0000
2 1     1.1384     0.6573     1.8587
3 1     0.0000     1.3145     3.7174
4 1     1.1384     1.9718     0.0000
5 1     0.0000     2.6291     1.8587
6 1     1.1384     3.2863     3.7174
7 1     0.0000     0.0000     5.5761
8 1     1.1384     0.6573     7.4348
9 1     0.0000     1.3145     9.2936
10 1     1.1384     1.9718     5.5761
11 1     0.0000     2.6291     7.4348
12 1     1.1384     3.2863     9.2936
13 1     0.0000     0.0000    11.1522
14 1     1.1384     0.6573    13.0110
15 1     0.0000     1.3145    14.8697
16 1     1.1384     1.9718    11.1522
17 1     0.0000     2.6291    13.0110
18 1     1.1384     3.2863    14.8697
