    2    2    1    1
  0.9639684E+01  0.3009788E-09  0.3009788E-09  0.3009788E-09  0.5000000E-15
  1.000000000000000E-004
  CAR 
 automatically generated by pyflamestk   
      8     84     16
 
  0.0000000E+00  0.0000000E+00  0.0000000E+00  0.4551661E-03
    1      -13.754961   1.000000
    2        3.355049   1.000000
    3        3.355049   1.000000
    4        3.355057   1.000000
    5        7.779068   0.000000
    6       18.978698   0.000000
    7       18.978702   0.000000
    8       18.978703   0.000000
    9       22.814745   0.000000
   10       24.549552   0.000000
   11       24.549553   0.000000
   12       26.999897   0.000000
   13       26.999899   0.000000
   14       26.999906   0.000000
   15       40.953184   0.000000
   16       40.953193   0.000000
 
  0.7692308E-01  0.4617923E-17 -0.2376413E-17  0.3641329E-02
    1      -13.695397   1.000000
    2        2.951430   1.000000
    3        3.317266   1.000000
    4        3.317273   1.000000
    5        8.176799   0.000000
    6       18.136835   0.000000
    7       19.117928   0.000000
    8       19.117932   0.000000
    9       23.905670   0.000000
   10       24.016632   0.000000
   11       24.016632   0.000000
   12       26.987605   0.000000
   13       27.779914   0.000000
   14       27.779920   0.000000
   15       39.802139   0.000000
   16       40.908731   0.000000
 
  0.1538462E+00  0.2877406E-18  0.1067099E-16  0.3641329E-02
    1      -13.525525   1.000000
    2        2.038606   1.000000
    3        3.211891   1.000000
    4        3.211898   1.000000
    5        9.048400   0.000000
    6       16.846080   0.000000
    7       19.455761   0.000000
    8       19.455765   0.000000
    9       23.292587   0.000000
   10       23.292588   0.000000
   11       25.141703   0.000000
   12       27.785598   0.000000
   13       29.271115   0.000000
   14       29.271120   0.000000
   15       38.340308   0.000000
   16       40.682951   0.000000
 
  0.2307692E+00  0.3187920E-17  0.5620766E-18  0.3641329E-02
    1      -13.272647   1.000000
    2        1.005515   1.000000
    3        3.069278   1.000000
    4        3.069284   1.000000
    5        9.959384   0.000000
    6       15.891521   0.000000
    7       19.728164   0.000000
    8       19.728169   0.000000
    9       23.078807   0.000000
   10       23.078809   0.000000
   11       24.955953   0.000000
   12       30.129087   0.000000
   13       30.871682   0.000000
   14       30.871688   0.000000
   15       37.086940   0.000000
   16       39.945523   0.000000
 
  0.3076923E+00  0.3384367E-16  0.1979595E-16  0.3641329E-02
    1      -12.984070   1.000000
    2        0.055053   1.000000
    3        2.924545   1.000000
    4        2.924551   1.000000
    5       10.628863   0.000000
    6       15.448931   0.000000
    7       19.692932   0.000000
    8       19.692937   0.000000
    9       23.611043   0.000000
   10       23.611046   0.000000
   11       24.447934   0.000000
   12       31.905794   0.000000
   13       32.300801   0.000000
   14       32.300807   0.000000
   15       37.255947   0.000000
   16       38.413492   0.000000
 
  0.3846154E+00  0.1034664E-16 -0.4231932E-17  0.3641329E-02
    1      -12.725931   1.000000
    2       -0.675983   1.000000
    3        2.808673   1.000000
    4        2.808680   1.000000
    5       10.952824   0.000000
    6       15.445123   0.000000
    7       19.500710   0.000000
    8       19.500715   0.000000
    9       24.027948   0.000000
   10       24.565513   0.000000
   11       24.565516   0.000000
   12       31.838650   0.000000
   13       33.305296   0.000000
   14       33.305303   0.000000
   15       36.635708   0.000000
   16       36.635713   0.000000
 
  0.4615385E+00  0.6375840E-17  0.1124153E-17  0.3641329E-02
    1      -12.571177   1.000000
    2       -1.074094   1.000000
    3        2.744340   1.000000
    4        2.744346   1.000000
    5       11.046529   0.000000
    6       15.580238   0.000000
    7       19.363730   0.000000
    8       19.363735   0.000000
    9       23.806917   0.000000
   10       25.342406   0.000000
   11       25.342409   0.000000
   12       31.400281   0.000000
   13       33.689160   0.000000
   14       33.689166   0.000000
   15       35.533661   0.000000
   16       35.533667   0.000000
 
  0.7692308E-01  0.7692308E-01  0.2186067E-17  0.2730997E-02
    1      -13.675871   1.000000
    2        2.901562   1.000000
    3        3.266927   1.000000
    4        3.266933   1.000000
    5        8.304696   0.000000
    6       17.897713   0.000000
    7       19.165413   0.000000
    8       19.165414   0.000000
    9       23.160361   0.000000
   10       24.286728   0.000000
   11       24.728127   0.000000
   12       27.290292   0.000000
   13       27.290295   0.000000
   14       28.205106   0.000000
   15       39.800106   0.000000
   16       40.696585   0.000000
 
  0.1538462E+00  0.7692308E-01  0.5620766E-18  0.1092399E-01
    1      -13.543691   1.000000
    2        2.221241   1.000000
    3        3.152453   1.000000
    4        3.180197   1.000000
    5        9.007368   0.000000
    6       16.868225   0.000000
    7       19.430421   0.000000
    8       19.432909   0.000000
    9       22.210525   0.000000
   10       24.471937   0.000000
   11       25.658809   0.000000
   12       27.722173   0.000000
   13       28.294229   0.000000
   14       29.388130   0.000000
   15       38.651173   0.000000
   16       40.320186   0.000000
 
  0.2307692E+00  0.7692308E-01  0.5918162E-17  0.1092399E-01
    1      -13.319632   1.000000
    2        1.286174   1.000000
    3        3.005472   1.000000
    4        3.044221   1.000000
    5        9.906464   0.000000
    6       15.914100   0.000000
    7       19.608814   0.000000
    8       19.718921   0.000000
    9       21.801563   0.000000
   10       24.185587   0.000000
   11       25.847013   0.000000
   12       29.648331   0.000000
   13       29.955751   0.000000
   14       30.785715   0.000000
   15       37.287693   0.000000
   16       39.453208   0.000000
 
  0.3076923E+00  0.7692308E-01  0.2515204E-16  0.1092399E-01
    1      -13.043659   1.000000
    2        0.354591   1.000000
    3        2.861272   1.000000
    4        2.871316   1.000000
    5       10.683145   0.000000
    6       15.374579   0.000000
    7       19.348735   0.000000
    8       19.798697   0.000000
    9       22.305003   0.000000
   10       24.429443   0.000000
   11       25.433001   0.000000
   12       31.728304   0.000000
   13       31.731005   0.000000
   14       32.007765   0.000000
   15       36.849317   0.000000
   16       37.809093   0.000000
 
  0.3846154E+00  0.7692308E-01  0.1124153E-17  0.1092399E-01
    1      -12.774946   1.000000
    2       -0.418098   1.000000
    3        2.703710   1.000000
    4        2.750807   1.000000
    5       11.138377   0.000000
    6       15.305375   0.000000
    7       18.965083   0.000000
    8       19.678317   0.000000
    9       23.282622   0.000000
   10       25.056943   0.000000
   11       25.091016   0.000000
   12       32.215121   0.000000
   13       32.668877   0.000000
   14       33.366274   0.000000
   15       35.800509   0.000000
   16       38.530852   0.000000
 
  0.4615385E+00  0.7692308E-01  0.3423581E-16  0.1092399E-01
    1      -12.584253   1.000000
    2       -0.910779   1.000000
    3        2.575265   1.000000
    4        2.695528   1.000000
    5       11.304222   0.000000
    6       15.475050   0.000000
    7       18.714976   0.000000
    8       19.532577   0.000000
    9       24.175699   0.000000
   10       24.929618   0.000000
   11       25.632378   0.000000
   12       31.939796   0.000000
   13       32.999890   0.000000
   14       33.971091   0.000000
   15       34.959857   0.000000
   16       37.155892   0.000000
 
 -0.4615385E+00  0.7692308E-01 -0.6471437E-17  0.1092399E-01
    1      -12.531503   1.000000
    2       -1.039411   1.000000
    3        2.514185   1.000000
    4        2.705667   1.000000
    5       11.334324   0.000000
    6       15.553157   0.000000
    7       18.650866   0.000000
    8       19.487652   0.000000
    9       24.532941   0.000000
   10       25.140807   0.000000
   11       25.416293   0.000000
   12       31.953314   0.000000
   13       33.245934   0.000000
   14       33.376926   0.000000
   15       35.647051   0.000000
   16       36.209666   0.000000
 
 -0.3846154E+00  0.7692308E-01  0.9588018E-17  0.1092399E-01
    1      -12.634911   1.000000
    2       -0.781134   1.000000
    3        2.530711   1.000000
    4        2.780327   1.000000
    5       11.278730   0.000000
    6       15.432127   0.000000
    7       18.765337   0.000000
    8       19.594576   0.000000
    9       24.398501   0.000000
   10       24.697415   0.000000
   11       25.117849   0.000000
   12       32.116811   0.000000
   13       33.027032   0.000000
   14       33.975958   0.000000
   15       34.882493   0.000000
   16       37.720840   0.000000
 
 -0.3076923E+00  0.7692308E-01  0.1649013E-16  0.1092399E-01
    1      -12.859451   1.000000
    2       -0.182770   1.000000
    3        2.623182   1.000000
    4        2.904153   1.000000
    5       11.032844   0.000000
    6       15.318751   0.000000
    7       19.016849   0.000000
    8       19.839832   0.000000
    9       23.136875   0.000000
   10       24.457416   0.000000
   11       25.185313   0.000000
   12       32.192822   0.000000
   13       32.619111   0.000000
   14       32.814995   0.000000
   15       36.261648   0.000000
   16       38.460730   0.000000
 
 -0.2307692E+00  0.7692308E-01 -0.1760988E-16  0.1092399E-01
    1      -13.138143   1.000000
    2        0.654306   1.000000
    3        2.778637   1.000000
    4        3.053722   1.000000
    5       10.453870   0.000000
    6       15.549682   0.000000
    7       19.283250   0.000000
    8       20.056137   0.000000
    9       22.200969   0.000000
   10       23.925139   0.000000
   11       25.601554   0.000000
   12       30.613300   0.000000
   13       31.709177   0.000000
   14       31.734663   0.000000
   15       36.380997   0.000000
   16       38.963745   0.000000
 
 -0.1538462E+00  0.7692308E-01  0.9315307E-17  0.1092399E-01
    1      -13.402472   1.000000
    2        1.594193   1.000000
    3        2.969685   1.000000
    4        3.193218   1.000000
    5        9.597832   0.000000
    6       16.255423   0.000000
    7       19.375986   0.000000
    8       19.824608   0.000000
    9       22.197063   0.000000
   10       23.756176   0.000000
   11       25.875468   0.000000
   12       28.704598   0.000000
   13       29.536687   0.000000
   14       30.466827   0.000000
   15       37.480459   0.000000
   16       40.009612   0.000000
 
 -0.7692308E-01  0.7692308E-01  0.9940745E-18  0.5461994E-02
    1      -13.599357   1.000000
    2        2.450861   1.000000
    3        3.167742   1.000000
    4        3.290513   1.000000
    5        8.719803   0.000000
    6       17.285773   0.000000
    7       19.256254   0.000000
    8       19.366963   0.000000
    9       22.970500   0.000000
   10       24.021212   0.000000
   11       25.082260   0.000000
   12       27.700346   0.000000
   13       27.778046   0.000000
   14       29.050088   0.000000
   15       38.899308   0.000000
   16       40.501247   0.000000
 
  0.1538462E+00  0.1538462E+00  0.2134198E-16  0.2730997E-02
    1      -13.454085   1.000000
    2        1.960116   1.000000
    3        3.029859   1.000000
    4        3.029864   1.000000
    5        9.464777   0.000000
    6       16.221457   0.000000
    7       19.661270   0.000000
    8       19.661270   0.000000
    9       21.006499   0.000000
   10       25.258722   0.000000
   11       27.135641   0.000000
   12       28.170543   0.000000
   13       28.170545   0.000000
   14       29.750891   0.000000
   15       38.637727   0.000000
   16       39.936271   0.000000
 
  0.2307692E+00  0.1538462E+00  0.1282027E-16  0.1092399E-01
    1      -13.270984   1.000000
    2        1.316841   1.000000
    3        2.871354   1.000000
    4        2.877766   1.000000
    5       10.223110   0.000000
    6       15.441893   0.000000
    7       19.524876   0.000000
    8       19.964581   0.000000
    9       20.571596   0.000000
   10       25.331640   0.000000
   11       27.702818   0.000000
   12       29.354424   0.000000
   13       29.800571   0.000000
   14       30.602291   0.000000
   15       37.617294   0.000000
   16       39.187213   0.000000
 
  0.3076923E+00  0.1538462E+00  0.2887973E-16  0.1092399E-01
    1      -13.026565   1.000000
    2        0.564488   1.000000
    3        2.647990   1.000000
    4        2.732853   1.000000
    5       11.037821   0.000000
    6       14.929674   0.000000
    7       18.689439   0.000000
    8       20.133875   0.000000
    9       21.229534   0.000000
   10       25.459354   0.000000
   11       27.424461   0.000000
   12       31.134297   0.000000
   13       31.206026   0.000000
   14       32.322341   0.000000
   15       36.871191   0.000000
   16       37.663882   0.000000
 
  0.3846154E+00  0.1538462E+00  0.3895626E-16  0.1092399E-01
    1      -12.770834   1.000000
    2       -0.118332   1.000000
    3        2.388244   1.000000
    4        2.624535   1.000000
    5       11.646528   0.000000
    6       14.867356   0.000000
    7       18.008426   0.000000
    8       20.093768   0.000000
    9       22.041321   0.000000
   10       25.902337   0.000000
   11       27.133532   0.000000
   12       31.553258   0.000000
   13       33.012549   0.000000
   14       33.334698   0.000000
   15       35.636132   0.000000
   16       38.341923   0.000000
 
  0.4615385E+00  0.1538462E+00  0.4431235E-16  0.1092399E-01
    1      -12.566594   1.000000
    2       -0.606157   1.000000
    3        2.151092   1.000000
    4        2.575049   1.000000
    5       11.936817   0.000000
    6       15.153884   0.000000
    7       17.582003   0.000000
    8       19.956984   0.000000
    9       22.804064   0.000000
   10       26.267013   0.000000
   11       26.914081   0.000000
   12       31.755298   0.000000
   13       33.306544   0.000000
   14       33.556088   0.000000
   15       35.139611   0.000000
   16       39.316218   0.000000
 
 -0.4615385E+00  0.1538462E+00  0.2501183E-16  0.1092399E-01
    1      -12.473316   1.000000
    2       -0.808804   1.000000
    3        1.989759   1.000000
    4        2.592113   1.000000
    5       12.036144   0.000000
    6       15.400747   0.000000
    7       17.412514   0.000000
    8       19.864846   0.000000
    9       23.488184   0.000000
   10       25.889555   0.000000
   11       26.746156   0.000000
   12       32.361093   0.000000
   13       32.726074   0.000000
   14       33.198227   0.000000
   15       36.873282   0.000000
   16       37.208473   0.000000
 
 -0.3846154E+00  0.1538462E+00  0.2719350E-16  0.1092399E-01
    1      -12.521318   1.000000
    2       -0.688558   1.000000
    3        1.939979   1.000000
    4        2.674659   1.000000
    5       12.029970   0.000000
    6       15.356778   0.000000
    7       17.490025   0.000000
    8       19.906923   0.000000
    9       24.093993   0.000000
   10       24.671303   0.000000
   11       26.699518   0.000000
   12       32.570210   0.000000
   13       32.638988   0.000000
   14       34.037832   0.000000
   15       35.223647   0.000000
   16       38.769078   0.000000
 
 -0.3076923E+00  0.1538462E+00  0.7927246E-17  0.1092399E-01
    1      -12.694612   1.000000
    2       -0.277655   1.000000
    3        2.020909   1.000000
    4        2.806045   1.000000
    5       11.829860   0.000000
    6       15.151793   0.000000
    7       17.828967   0.000000
    8       20.130027   0.000000
    9       23.166066   0.000000
   10       24.429730   0.000000
   11       26.832239   0.000000
   12       32.183656   0.000000
   13       32.646212   0.000000
   14       33.702915   0.000000
   15       35.486417   0.000000
   16       40.167304   0.000000
 
 -0.2307692E+00  0.1538462E+00 -0.1844027E-16  0.1092399E-01
    1      -12.940390   1.000000
    2        0.328681   1.000000
    3        2.242128   1.000000
    4        2.959246   1.000000
    5       11.278042   0.000000
    6       15.173221   0.000000
    7       18.370432   0.000000
    8       20.543281   0.000000
    9       21.789849   0.000000
   10       24.340042   0.000000
   11       27.045563   0.000000
   12       30.639595   0.000000
   13       32.317384   0.000000
   14       33.693731   0.000000
   15       35.132227   0.000000
   16       39.250663   0.000000
 
 -0.1538462E+00  0.1538462E+00  0.2327030E-16  0.5461994E-02
    1      -13.194697   1.000000
    2        0.994226   1.000000
    3        2.585673   1.000000
    4        3.099974   1.000000
    5       10.439913   0.000000
    6       15.589225   0.000000
    7       18.960611   0.000000
    8       20.530575   0.000000
    9       21.350984   0.000000
   10       24.022465   0.000000
   11       26.900214   0.000000
   12       29.224136   0.000000
   13       31.556905   0.000000
   14       31.600148   0.000000
   15       36.015557   0.000000
   16       39.707063   0.000000
 
  0.2307692E+00  0.2307692E+00  0.2887973E-16  0.2730997E-02
    1      -13.134769   1.000000
    2        0.999557   1.000000
    3        2.722011   1.000000
    4        2.722015   1.000000
    5       10.783834   0.000000
    6       14.756486   0.000000
    7       18.954037   0.000000
    8       20.315992   0.000000
    9       20.315993   0.000000
   10       26.122544   0.000000
   11       29.629957   0.000000
   12       29.629959   0.000000
   13       30.485230   0.000000
   14       30.554127   0.000000
   15       38.141533   0.000000
   16       38.832656   0.000000
 
  0.3076923E+00  0.2307692E+00  0.6834023E-16  0.1092399E-01
    1      -12.935455   1.000000
    2        0.505720   1.000000
    3        2.507906   1.000000
    4        2.573104   1.000000
    5       11.493311   0.000000
    6       14.235042   0.000000
    7       18.010568   0.000000
    8       20.581560   0.000000
    9       20.812219   0.000000
   10       26.493909   0.000000
   11       29.728247   0.000000
   12       30.600612   0.000000
   13       30.928734   0.000000
   14       33.006942   0.000000
   15       37.334472   0.000000
   16       37.808385   0.000000
 
  0.3846154E+00  0.2307692E+00  0.4431235E-16  0.1092399E-01
    1      -12.713230   1.000000
    2        0.030228   1.000000
    3        2.168627   1.000000
    4        2.464366   1.000000
    5       12.179368   0.000000
    6       14.124023   0.000000
    7       17.233460   0.000000
    8       20.640004   0.000000
    9       21.356683   0.000000
   10       26.887691   0.000000
   11       29.558785   0.000000
   12       30.583625   0.000000
   13       32.557190   0.000000
   14       34.535981   0.000000
   15       36.094936   0.000000
   16       38.150303   0.000000
 
  0.4615385E+00  0.2307692E+00  0.4966843E-16  0.1092399E-01
    1      -12.519939   1.000000
    2       -0.312004   1.000000
    3        1.770460   1.000000
    4        2.415094   1.000000
    5       12.591487   0.000000
    6       14.529774   0.000000
    7       16.684408   0.000000
    8       20.534467   0.000000
    9       21.772484   0.000000
   10       27.211014   0.000000
   11       29.256934   0.000000
   12       30.761632   0.000000
   13       32.868649   0.000000
   14       34.524089   0.000000
   15       35.835574   0.000000
   16       40.887586   0.000000
 
 -0.4615385E+00  0.2307692E+00  0.3036792E-16  0.1092399E-01
    1      -12.407552   1.000000
    2       -0.458081   1.000000
    3        1.424654   1.000000
    4        2.435532   1.000000
    5       12.792579   0.000000
    6       15.069958   0.000000
    7       16.375460   0.000000
    8       20.394378   0.000000
    9       22.142762   0.000000
   10       26.805755   0.000000
   11       28.880075   0.000000
   12       31.332164   0.000000
   13       32.120387   0.000000
   14       34.550033   0.000000
   15       37.578361   0.000000
   16       39.272849   0.000000
 
 -0.3846154E+00  0.2307692E+00  0.3948848E-16  0.1092399E-01
    1      -12.409457   1.000000
    2       -0.398127   1.000000
    3        1.237322   1.000000
    4        2.521302   1.000000
    5       12.891226   0.000000
    6       15.258721   0.000000
    7       16.339198   0.000000
    8       20.325086   0.000000
    9       22.743298   0.000000
   10       25.466455   0.000000
   11       28.647988   0.000000
   12       31.813814   0.000000
   13       32.140508   0.000000
   14       34.976676   0.000000
   15       36.997875   0.000000
   16       39.656867   0.000000
 
 -0.3076923E+00  0.2307692E+00  0.1972365E-16  0.1092399E-01
    1      -12.524726   1.000000
    2       -0.197185   1.000000
    3        1.307528   1.000000
    4        2.656927   1.000000
    5       12.751056   0.000000
    6       15.053612   0.000000
    7       16.710295   0.000000
    8       20.383025   0.000000
    9       23.575309   0.000000
   10       23.857372   0.000000
   11       28.527793   0.000000
   12       31.791766   0.000000
   13       32.424757   0.000000
   14       34.441408   0.000000
   15       36.547070   0.000000
   16       41.604282   0.000000
 
 -0.2307692E+00  0.2307692E+00  0.3066073E-17  0.5461994E-02
    1      -12.718926   1.000000
    2        0.051492   1.000000
    3        1.679149   1.000000
    4        2.815550   1.000000
    5       12.163021   0.000000
    6       14.961116   0.000000
    7       17.434709   0.000000
    8       20.557070   0.000000
    9       22.465357   0.000000
   10       24.230457   0.000000
   11       28.170771   0.000000
   12       31.126783   0.000000
   13       32.536442   0.000000
   14       33.926385   0.000000
   15       36.184531   0.000000
   16       40.371106   0.000000
 
  0.3076923E+00  0.3076923E+00  0.7369631E-16  0.2730997E-02
    1      -12.787563   1.000000
    2        0.216576   1.000000
    3        2.420459   1.000000
    4        2.420464   1.000000
    5       11.984237   0.000000
    6       13.628622   0.000000
    7       17.302535   0.000000
    8       20.973131   0.000000
    9       20.973133   0.000000
   10       27.270807   0.000000
   11       29.999689   0.000000
   12       31.499887   0.000000
   13       31.499888   0.000000
   14       34.414320   0.000000
   15       37.827776   0.000000
   16       37.827777   0.000000
 
  0.3846154E+00  0.3076923E+00 -0.1219156E-16  0.1092399E-01
    1      -12.613521   1.000000
    2       -0.089682   1.000000
    3        2.180061   1.000000
    4        2.308169   1.000000
    5       12.538918   0.000000
    6       13.353396   0.000000
    7       16.690666   0.000000
    8       21.163009   0.000000
    9       21.286039   0.000000
   10       27.837662   0.000000
   11       29.646192   0.000000
   12       31.843464   0.000000
   13       32.557778   0.000000
   14       36.109278   0.000000
   15       36.914249   0.000000
   16       38.134490   0.000000
 
  0.4615385E+00  0.3076923E+00  0.2092010E-16  0.1092399E-01
    1      -12.453318   1.000000
    2       -0.265085   1.000000
    3        1.731126   1.000000
    4        2.256193   1.000000
    5       12.909724   0.000000
    6       13.722073   0.000000
    7       16.219031   0.000000
    8       21.126328   0.000000
    9       21.424425   0.000000
   10       28.317283   0.000000
   11       29.622870   0.000000
   12       31.559605   0.000000
   13       32.481305   0.000000
   14       36.053385   0.000000
   15       36.754167   0.000000
   16       41.187312   0.000000
 
 -0.4615385E+00  0.3076923E+00 -0.7496569E-17  0.1092399E-01
    1      -12.347437   1.000000
    2       -0.237142   1.000000
    3        1.172563   1.000000
    4        2.273788   1.000000
    5       13.121842   0.000000
    6       14.519237   0.000000
    7       15.867536   0.000000
    8       20.953993   0.000000
    9       21.391439   0.000000
   10       28.168913   0.000000
   11       29.932705   0.000000
   12       31.161212   0.000000
   13       31.484898   0.000000
   14       36.190550   0.000000
   15       38.344841   0.000000
   16       41.164188   0.000000
 
 -0.3846154E+00  0.3076923E+00  0.2005986E-16  0.1092399E-01
    1      -12.324303   1.000000
    2       -0.008437   1.000000
    3        0.667081   1.000000
    4        2.359390   1.000000
    5       13.363559   0.000000
    6       15.167265   0.000000
    7       15.588905   0.000000
    8       20.749908   0.000000
    9       21.611255   0.000000
   10       26.805300   0.000000
   11       30.217135   0.000000
   12       30.937630   0.000000
   13       31.529276   0.000000
   14       36.618858   0.000000
   15       38.573432   0.000000
   16       40.255664   0.000000
 
 -0.3076923E+00  0.3076923E+00  0.7694667E-17  0.5461994E-02
    1      -12.389617   1.000000
    2        0.027784   1.000000
    3        0.690531   1.000000
    4        2.496260   1.000000
    5       13.356905   0.000000
    6       15.148469   0.000000
    7       15.884326   0.000000
    8       20.565966   0.000000
    9       22.430131   0.000000
   10       25.159681   0.000000
   11       29.733602   0.000000
   12       31.273676   0.000000
   13       32.009442   0.000000
   14       35.844561   0.000000
   15       37.475026   0.000000
   16       41.405544   0.000000
 
  0.3846154E+00  0.3846154E+00 -0.8463864E-17  0.2730997E-02
    1      -12.493723   1.000000
    2       -0.309607   1.000000
    3        2.189170   1.000000
    4        2.189174   1.000000
    5       12.765247   0.000000
    6       12.868673   0.000000
    7       16.348908   0.000000
    8       21.507418   0.000000
    9       21.507421   0.000000
   10       28.568878   0.000000
   11       28.941850   0.000000
   12       33.102816   0.000000
   13       33.102817   0.000000
   14       37.807248   0.000000
   15       37.807248   0.000000
   16       38.680700   0.000000
 
  0.4615385E+00  0.3846154E+00  0.1206122E-15  0.1092399E-01
    1      -12.382372   1.000000
    2       -0.434443   1.000000
    3        1.953402   1.000000
    4        2.130933   1.000000
    5       12.759863   0.000000
    6       13.116742   0.000000
    7       16.121392   0.000000
    8       21.589449   0.000000
    9       21.592178   0.000000
   10       28.696920   0.000000
   11       29.184472   0.000000
   12       32.856229   0.000000
   13       33.077602   0.000000
   14       37.735304   0.000000
   15       37.933680   0.000000
   16       39.886476   0.000000
 
 -0.4615385E+00  0.3846154E+00  0.4312469E-16  0.1092399E-01
    1      -12.307179   1.000000
    2       -0.368835   1.000000
    3        1.458962   1.000000
    4        2.142857   1.000000
    5       12.916897   0.000000
    6       13.775528   0.000000
    7       15.915263   0.000000
    8       21.365530   0.000000
    9       21.435909   0.000000
   10       29.044749   0.000000
   11       29.710602   0.000000
   12       31.131304   0.000000
   13       32.452510   0.000000
   14       38.209965   0.000000
   15       38.975205   0.000000
   16       41.841851   0.000000
 
 -0.3846154E+00  0.3846154E+00  0.3763560E-16  0.5461994E-02
    1      -12.286608   1.000000
    2       -0.108369   1.000000
    3        0.866392   1.000000
    4        2.224724   1.000000
    5       13.216291   0.000000
    6       14.582635   0.000000
    7       15.667922   0.000000
    8       21.133246   0.000000
    9       21.183406   0.000000
   10       28.574789   0.000000
   11       29.808524   0.000000
   12       30.875248   0.000000
   13       31.593137   0.000000
   14       38.345748   0.000000
   15       39.489556   0.000000
   16       40.157201   0.000000
 
  0.4615385E+00  0.4615385E+00  0.5775946E-16  0.2730997E-02
    1      -12.325674   1.000000
    2       -0.569076   1.000000
    3        2.065115   1.000000
    4        2.065119   1.000000
    5       12.486932   0.000000
    6       12.978722   0.000000
    7       16.127010   0.000000
    8       21.812182   0.000000
    9       21.812185   0.000000
   10       28.165484   0.000000
   11       29.613804   0.000000
   12       33.595251   0.000000
   13       33.595253   0.000000
   14       37.390852   0.000000
   15       39.375040   0.000000
   16       39.375041   0.000000
 
 -0.4615385E+00  0.4615385E+00  0.6132147E-17  0.5461994E-02
    1      -12.298507   1.000000
    2       -0.544377   1.000000
    3        1.871874   1.000000
    4        2.069785   1.000000
    5       12.593885   0.000000
    6       13.179394   0.000000
    7       16.067513   0.000000
    8       21.687487   0.000000
    9       21.749294   0.000000
   10       28.313006   0.000000
   11       29.930232   0.000000
   12       32.449307   0.000000
   13       33.301485   0.000000
   14       38.259433   0.000000
   15       39.593353   0.000000
   16       40.197290   0.000000
 
  0.2307692E+00  0.1538462E+00  0.7692308E-01  0.1092399E-01
    1      -13.385345   1.000000
    2        1.628623   1.000000
    3        2.906799   1.000000
    4        3.112077   1.000000
    5        9.725629   0.000000
    6       16.056633   0.000000
    7       19.407581   0.000000
    8       19.892702   0.000000
    9       21.356581   0.000000
   10       24.522069   0.000000
   11       26.740659   0.000000
   12       28.499416   0.000000
   13       29.379397   0.000000
   14       30.418869   0.000000
   15       37.593034   0.000000
   16       39.892580   0.000000
 
  0.3076923E+00  0.1538462E+00  0.7692308E-01  0.2184797E-01
    1      -13.150716   1.000000
    2        0.860286   1.000000
    3        2.637716   1.000000
    4        2.991666   1.000000
    5       10.589845   0.000000