# ['Ni']

28 atoms
1 atom types

    0.0000     2.5320 xlo xhi
    0.0000     4.3855 ylo yhi
    0.0000    28.9427 zlo zhi

    0.0000     0.0000     0.0000 xy xz yz

Atoms

1 1     0.0000     0.0000     0.0000
2 1     1.2660     2.1927     0.0000
3 1     1.2660     0.7309     2.0673
4 1     0.0000     2.9237     2.0673
5 1     0.0000     1.4618     4.1347
6 1     1.2660     3.6546     4.1347
7 1     0.0000     0.0000     6.2020
8 1     1.2660     2.1927     6.2020
9 1     1.2660     0.7309     8.2693
10 1     0.0000     2.9237     8.2693
11 1     0.0000     1.4618    10.3367
12 1     1.2660     3.6546    10.3367
13 1     0.0000     0.0000    12.4040
14 1     1.2660     2.1927    12.4040
15 1     0.0000     1.4618    14.4714
16 1     1.2660     3.6546    14.4714
17 1     0.0000     0.0000    16.5387
18 1     1.2660     2.1927    16.5387
19 1     1.2660     0.7309    18.6060
20 1     0.0000     2.9237    18.6060
21 1     0.0000     1.4618    20.6734
22 1     1.2660     3.6546    20.6734
23 1     0.0000     0.0000    22.7407
24 1     1.2660     2.1927    22.7407
25 1     1.2660     0.7309    24.8080
26 1     0.0000     2.9237    24.8080
27 1     0.0000     1.4618    26.8754
28 1     1.2660     3.6546    26.8754
