# ['Mg', 'O']

40 atoms
2 atom types

    0.0000     4.0692 xlo xhi
    0.0000     4.0692 ylo yhi
    0.0000    40.6921 zlo zhi

    0.0000     0.0000     0.0000 xy xz yz

Atoms

1 1     1.0000     2.0346     2.0346     0.0000
2 1     1.0000     2.0346     0.0000     2.0346
3 1     1.0000     0.0000     0.0000     0.0000
4 1     1.0000     0.0000     2.0346     2.0346
5 1     1.0000     2.0346     2.0346     4.0692
6 1     1.0000     2.0346     0.0000     6.1038
7 1     1.0000     0.0000     0.0000     4.0692
8 1     1.0000     0.0000     2.0346     6.1038
9 1     1.0000     2.0346     2.0346     8.1384
10 1     1.0000     2.0346     0.0000    10.1730
11 1     1.0000     0.0000     0.0000     8.1384
12 1     1.0000     0.0000     2.0346    10.1730
13 1     1.0000     2.0346     2.0346    12.2076
14 1     1.0000     2.0346     0.0000    14.2422
15 1     1.0000     0.0000     0.0000    12.2076
16 1     1.0000     0.0000     2.0346    14.2422
17 1     1.0000     2.0346     2.0346    16.2769
18 1     1.0000     2.0346     0.0000    18.3115
19 1     1.0000     0.0000     0.0000    16.2769
20 1     1.0000     0.0000     2.0346    18.3115
21 2     1.0000     0.0000     2.0346     0.0000
22 2     1.0000     2.0346     0.0000     0.0000
23 2     1.0000     2.0346     2.0346     2.0346
24 2     1.0000     0.0000     0.0000     2.0346
25 2     1.0000     0.0000     2.0346     4.0692
26 2     1.0000     2.0346     0.0000     4.0692
27 2     1.0000     2.0346     2.0346     6.1038
28 2     1.0000     0.0000     0.0000     6.1038
29 2     1.0000     0.0000     2.0346     8.1384
30 2     1.0000     2.0346     0.0000     8.1384
31 2     1.0000     2.0346     2.0346    10.1730
32 2     1.0000     0.0000     0.0000    10.1730
33 2     1.0000     0.0000     2.0346    12.2076
34 2     1.0000     2.0346     0.0000    12.2076
35 2     1.0000     2.0346     2.0346    14.2422
36 2     1.0000     0.0000     0.0000    14.2422
37 2     1.0000     0.0000     2.0346    16.2769
38 2     1.0000     2.0346     0.0000    16.2769
39 2     1.0000     2.0346     2.0346    18.3115
40 2     1.0000     0.0000     0.0000    18.3115
