LAMMPS (11 Aug 2017)
Reading data file ...
  triclinic box = (0 0 0) to (2.3596 4.0869 34.6731) with tilt (0 0 -0.0004)
  1 by 1 by 1 MPI processor grid
  reading atoms ...
  18 atoms
18 atoms in group Ni
Neighbor list info ...
  update every 1 steps, delay 0 steps, check yes
  max neighbors/atom: 2000, page size: 100000
  master list distance cutoff = 5.64464
  ghost atom cutoff = 5.64464
  binsize = 2.82232, bins = 1 2 13
  1 neighbor lists, perpetual/occasional/extra = 1 0 0
  (1) pair eam/alloy, perpetual
      attributes: half, newton on
      pair build: half/bin/newton/tri
      stencil: half/bin/3d/newton/tri
      bin: standard
Setting up cg style minimization ...
  Unit style    : metal
  Current step  : 0
Per MPI rank memory allocation (min/avg/max) = 4.217 | 4.217 | 4.217 Mbytes
Step PotEng Lx Ly Lz Xy Xz Yz Press Pxx Pyy Pzz Pxy Pxz Pyz c_eatoms 
       0   -96.127106       2.3596       4.0869      34.6731            0            0      -0.0004   -6928.3824   -8048.8024   -8037.0915   -4699.2534 2.5269062e-12 -6.5167582e-12    -2.270597   -96.127106 
       1   -96.130301       2.3596       4.0869      34.6731            0            0      -0.0004   -6086.8773   -7539.0638   -7527.3893   -3194.1787 -6.6497532e-13 -3.8568569e-12   -2.2541486   -96.130301 
       2   -96.131119       2.3596       4.0869      34.6731            0            0      -0.0004   -5382.9516   -7104.0379   -7092.4476   -1952.3694            0 -5.4527977e-12   -2.1979236   -96.131119 
       3   -96.131282       2.3596       4.0869      34.6731            0            0      -0.0004   -5166.5198   -6970.2478   -6958.7416   -1570.5699 -2.6599013e-12 -8.9106693e-12   -2.1348915   -96.131282 
       4   -96.131309       2.3596       4.0869      34.6731            0            0      -0.0004   -5079.8313   -6915.8868   -6904.4589    -1419.148 7.3147286e-12 9.3096545e-13   -2.0743647   -96.131309 
       5     -96.1314       2.3596       4.0869      34.6731            0            0      -0.0004   -4442.2994   -6522.5779   -6511.6238   -292.69634 -6.9157434e-12 -3.4578717e-12   -1.7101665     -96.1314 
       6   -96.131444       2.3596       4.0869      34.6731            0            0      -0.0004   -4250.7242   -6404.3973   -6393.7059     45.93058 -1.1969556e-12 -5.7187878e-12   -1.5052285   -96.131444 
       7   -96.131448       2.3596       4.0869      34.6731            0            0      -0.0004   -4255.2106   -6407.1636   -6396.4925    38.024215 4.3888371e-12 -8.5116841e-12   -1.4888229   -96.131448 
       8   -96.131449       2.3596       4.0869      34.6731            0            0      -0.0004   -4256.7551   -6408.2645   -6397.6014    35.600691 -5.3198026e-13 -1.8619309e-12   -1.4818404   -96.131449 
       9   -96.131449       2.3596       4.0869      34.6731            0            0      -0.0004   -4260.8517   -6410.8023   -6400.1457     28.39309 4.7878223e-12 -3.1918816e-12   -1.4764556   -96.131449 
      10   -96.131449       2.3596       4.0869      34.6731            0            0      -0.0004   -4263.5499   -6412.4561   -6401.8107    23.617103 -1.994926e-12 -1.5959408e-12   -1.4674247   -96.131449 
      11   -96.131449       2.3596       4.0869      34.6731            0            0      -0.0004   -4270.2217   -6416.5557    -6405.978    11.868494 -5.4527977e-12 2.6599013e-13   -1.4129292   -96.131449 
      12   -96.131449       2.3596       4.0869      34.6731            0            0      -0.0004   -4276.7276   -6420.5066   -6410.0486   0.37225767 -2.5269062e-12 3.7238618e-12   -1.3173325   -96.131449 
      13   -96.131449       2.3596       4.0869      34.6731            0            0      -0.0004   -4277.4178   -6420.9025   -6410.4916  -0.85935144 1.7289358e-12 -1.0639605e-12   -1.2800401   -96.131449 
      14   -96.131449       2.3596       4.0869      34.6731            0            0      -0.0004   -4277.1931   -6420.7509   -6410.3676  -0.46075764 -5.3198026e-13 -7.7137137e-12   -1.2582449   -96.131449 
      15   -96.131449       2.3596       4.0869      34.6731            0            0      -0.0004   -4277.1268   -6420.6805   -6410.3558  -0.34428194 -7.7137137e-12 -2.1146215e-11   -1.2120017   -96.131449 
      16   -96.131449       2.3596       4.0869      34.6731            0            0      -0.0004   -4277.1315   -6420.6574    -6410.383  -0.35418162 -1.3299506e-13 6.3837631e-12   -1.1722675   -96.131449 
      17   -96.131449       2.3596       4.0869      34.6731            0            0      -0.0004   -4277.0966   -6420.6007    -6410.398  -0.29102493 1.0905595e-11 -1.1836561e-11   -1.1154881   -96.131449 
      18   -96.131449       2.3596       4.0869      34.6731            0            0      -0.0004   -4277.1413   -6420.5796   -6410.4749  -0.36953013 1.0639605e-12 -1.1969556e-12   -1.0378463   -96.131449 
      19   -96.131449       2.3596       4.0869      34.6731            0            0      -0.0004   -4277.0963   -6420.4253   -6410.5733  -0.29029791 5.8517828e-12 8.5116841e-12  -0.83746531   -96.131449 
      20   -96.131449       2.3596       4.0869      34.6731            0            0      -0.0004   -4276.5997   -6419.8115   -6410.5753   0.58771295 -1.3033516e-11 2.2077181e-11  -0.34912922   -96.131449 
      21   -96.131449       2.3596       4.0869      34.6731            0            0      -0.0004   -4276.4636   -6419.6374   -6410.5802   0.82691089 1.2900521e-11 7.1817335e-12  -0.20717252   -96.131449 
      22   -96.131449       2.3596       4.0869      34.6731            0            0      -0.0004   -4276.4654   -6419.6094   -6410.6095   0.82285149 3.8568569e-12 1.4629457e-12  -0.16160326   -96.131449 
      23   -96.131449       2.3596       4.0869      34.6731            0            0      -0.0004   -4276.4951   -6419.6025   -6410.6536   0.77081164 7.9797039e-12 -1.1969556e-11  -0.12102912   -96.131449 
      24   -96.131449       2.3596       4.0869      34.6731            0            0      -0.0004   -4276.6578   -6419.6773    -6410.779   0.48287431 -1.3166511e-11 -1.3698492e-11 -0.080606459   -96.131449 
      25   -96.131449       2.3596       4.0869      34.6731            0            0      -0.0004   -4276.8399   -6419.7702   -6410.9114   0.16200981 1.3964482e-11 1.3432502e-11 -0.049161431   -96.131449 
      26   -96.131449       2.3596       4.0869      34.6731            0            0      -0.0004   -4276.8834   -6419.7888   -6410.9469  0.085359175 -9.3096545e-13 -1.3166511e-11 -0.035808885   -96.131449 
      27   -96.131449       2.3596       4.0869      34.6731            0            0      -0.0004    -4276.913   -6419.7993   -6410.9728   0.03300363 -7.5807187e-12 1.4629457e-11 -0.023581912   -96.131449 
      28   -96.131449       2.3596       4.0869      34.6731            0            0      -0.0004   -4276.9277   -6419.8021   -6410.9881  0.007018043 7.9797039e-13 -5.4527977e-12 -0.013743205   -96.131449 
      29   -96.131449       2.3596       4.0869      34.6731            0            0      -0.0004   -4276.9283   -6419.8005   -6410.9904  0.005934628 1.2501536e-11 -1.2102551e-11   -0.0107028   -96.131449 
      30   -96.131449       2.3596       4.0869      34.6731            0            0      -0.0004    -4276.926    -6419.796    -6410.992 0.0099184449 5.3198026e-12 1.4363467e-11 -0.0059317556   -96.131449 
      31   -96.131449       2.3596       4.0869      34.6731            0            0      -0.0004   -4276.9303   -6419.7967   -6410.9965  0.002505358 9.8416348e-12 -3.8568569e-12 -0.0029233561   -96.131449 
      32   -96.131449       2.3596       4.0869      34.6731            0            0      -0.0004   -4276.9337   -6419.7979   -6410.9995 -0.0035330368 4.9208174e-12 -3.2583791e-11 -0.0014629907   -96.131449 
      33   -96.131449       2.3596       4.0869      34.6731            0            0      -0.0004   -4276.9343   -6419.7976   -6411.0006 -0.0046346791 -1.2368541e-11 -7.8467088e-12 -0.00039136381   -96.131449 
      34   -96.131449       2.3596       4.0869      34.6731            0            0      -0.0004    -4276.934   -6419.7973   -6411.0007 -0.0041492084 1.1437576e-11 2.4471092e-11 -3.909706e-05   -96.131449 
      35   -96.131449       2.3596       4.0869      34.6731            0            0      -0.0004   -4276.9338   -6419.7971   -6411.0006 -0.0038137395 2.5269062e-12 -1.0639605e-11 3.2393072e-05   -96.131449 
Loop time of 0.060854 on 1 procs for 35 steps with 18 atoms

4.8% CPU use with 1 MPI tasks x no OpenMP threads

Minimization stats:
  Stopping criterion = energy tolerance
  Energy initial, next-to-last, final = 
        -96.1271063858     -96.1314491507     -96.1314491507
  Force two-norm initial, final = 0.324759 1.02764e-07
  Force max component initial, final = 0.120344 5.00499e-08
  Final line search alpha, max atom move = 1 5.00499e-08
  Iterations, force evaluations = 35 70

MPI task timing breakdown:
Section |  min time  |  avg time  |  max time  |%varavg| %total
---------------------------------------------------------------
Pair    | 0.0022936  | 0.0022936  | 0.0022936  |   0.0 |  3.77
Neigh   | 0          | 0          | 0          |   0.0 |  0.00
Comm    | 0.00018597 | 0.00018597 | 0.00018597 |   0.0 |  0.31
Output  | 0.036697   | 0.036697   | 0.036697   |   0.0 | 60.30
Modify  | 0          | 0          | 0          |   0.0 |  0.00
Other   |            | 0.02168    |            |       | 35.62

Nlocal:    18 ave 18 max 18 min
Histogram: 1 0 0 0 0 0 0 0 0 0
Nghost:    490 ave 490 max 490 min
Histogram: 1 0 0 0 0 0 0 0 0 0
Neighs:    618 ave 618 max 618 min
Histogram: 1 0 0 0 0 0 0 0 0 0

Total # of neighbors = 618
Ave neighs/atom = 34.3333
Neighbor list builds = 0
Dangerous builds = 0
pypospack:output_section:begin
tot_energy = -96.131449150651
num_atoms = 18
a11 = 2.3596
a22 = 4.0869
a33 = 34.6731
a12 = 0
a13 = 0
a23 = -0.0004
tot_press = -4276.93383261988
pxx = -6419.79708842157
pyy = -6411.0005956986
pzz = -0.00381373947064084
pxy = 2.52690622838668e-12
pxz = -1.06396051721545e-11
pyz = 3.23930719936577e-05
pypospack:output_section:done
pypospack:lammps_sim:done
Total wall time: 0:00:00
