LAMMPS (11 Aug 2017)
Reading data file ...
  triclinic box = (0 0 0) to (3.4851 2.4947 2.4947) with tilt (0 0 0)
  1 by 1 by 1 MPI processor grid
  reading atoms ...
  2 atoms
2 atoms in group Ni
Neighbor list info ...
  update every 1 steps, delay 0 steps, check yes
  max neighbors/atom: 2000, page size: 100000
  master list distance cutoff = 11
  ghost atom cutoff = 11
  binsize = 5.5, bins = 1 1 1
  1 neighbor lists, perpetual/occasional/extra = 1 0 0
  (1) pair eam/alloy, perpetual
      attributes: half, newton on
      pair build: half/bin/newton/tri
      stencil: half/bin/3d/newton/tri
      bin: standard
Setting up cg style minimization ...
  Unit style    : metal
  Current step  : 0
WARNING: Energy due to 3 extra global DOFs will be included in minimizer energies
Per MPI rank memory allocation (min/avg/max) = 4.313 | 4.313 | 4.313 Mbytes
Step PotEng Xhi Xlo Yhi Ylo Zhi Xy Xz Yz Press Pxx Pyy Pzz Pxy Pxz Pyz c_eatoms 
       0   -9.0702419       3.4851            0       2.4947            0       2.4947            0            0            0    11508.804    12659.587    10933.413    10933.413 -0.0013264715 -0.0013264716 0.00051986686   -9.0702419 
      10   -9.0708054    3.4986358 -0.013535846    2.4935336 0.0011663586    2.4935336            0            0            0    477.07873    825.44371    302.89624    302.89624 -1.4788714e-08 -1.4836358e-08 2.8972922e-06   -9.0708054 
      20   -9.0708148    3.5029736 -0.017873599    2.4921575 0.0025424662    2.4921575            0            0            0 -7.3134399e-05 0.0054468956 -0.0028331496 -0.0028331493 -6.3056733e-10 -5.7628734e-10 6.5055184e-10   -9.0708148 
      28   -9.0708148    3.5029737 -0.017873664    2.4921575 0.0025424892    2.4921575            0            0            0 1.8933228e-10 9.7187715e-11 2.338043e-10 2.3700482e-10 -6.9445382e-12 -3.1363229e-11 -3.1860973e-11   -9.0708148 
Loop time of 0.00313902 on 1 procs for 28 steps with 2 atoms

99.7% CPU use with 1 MPI tasks x no OpenMP threads

Minimization stats:
  Stopping criterion = energy tolerance
  Energy initial, next-to-last, final = 
        -9.07024187781     -9.07081479445     -9.07081479445
  Force two-norm initial, final = 0.27053 4.78313e-15
  Force max component initial, final = 0.17138 3.23478e-15
  Final line search alpha, max atom move = 1 3.23478e-15
  Iterations, force evaluations = 28 48

MPI task timing breakdown:
Section |  min time  |  avg time  |  max time  |%varavg| %total
---------------------------------------------------------------
Pair    | 0.0018773  | 0.0018773  | 0.0018773  |   0.0 | 59.81
Neigh   | 0          | 0          | 0          |   0.0 |  0.00
Comm    | 0.00031304 | 0.00031304 | 0.00031304 |   0.0 |  9.97
Output  | 2.5749e-05 | 2.5749e-05 | 2.5749e-05 |   0.0 |  0.82
Modify  | 0          | 0          | 0          |   0.0 |  0.00
Other   |            | 0.0009229  |            |       | 29.40

Nlocal:    2 ave 2 max 2 min
Histogram: 1 0 0 0 0 0 0 0 0 0
Nghost:    1365 ave 1365 max 1365 min
Histogram: 1 0 0 0 0 0 0 0 0 0
Neighs:    530 ave 530 max 530 min
Histogram: 1 0 0 0 0 0 0 0 0 0

Total # of neighbors = 530
Ave neighs/atom = 265
Neighbor list builds = 0
Dangerous builds = 0
pypospack:output_section:begin
tot_energy = -9.07081479444898
num_atoms = 2
a11 = 3.52084732857334
a22 = 2.48961502155675
a33 = 2.48961502155675
a12 = 0
a13 = 0
a23 = 0
tot_press = 1.8933227757069e-10
pxx = 9.7187714911333e-11
pyy = 2.33804302783388e-10
pzz = 2.3700481501735e-10
pxy = -6.94453818425677e-12
pxz = -3.13632289094105e-11
pyz = -3.18609730496318e-11
pypospack:output_section:done
pypospack:lammps_sim:done
Total wall time: 0:00:00
