LAMMPS (10 Feb 2015)
Reading data file ...
  triclinic box = (0 0 0) to (4.2565 4.2565 4.2565) with tilt (0 0 0)
  1 by 1 by 1 MPI processor grid
  reading atoms ...
  8 atoms
4 atoms in group Mg
4 atoms in group O
Setting atom values ...
  4 settings made for charge
Setting atom values ...
  4 settings made for charge
PPPM initialization ...
  G vector (1/distance) = 0.352997
  grid = 8 8 8
  stencil order = 5
  estimated absolute RMS force accuracy = 4.02799e-05
  estimated relative force accuracy = 2.79728e-06
  using double precision FFTs
  3d grid and FFT values/proc = 3375 512
Neighbor list info ...
  1 neighbor list requests
  update every 1 steps, delay 0 steps, check yes
  master list distance cutoff = 11
Setting up minimization ...
Memory usage per processor = 4.06549 Mbytes
Step PotEng Lx Ly Lz Xy Xz Yz Press Pxx Pyy Pzz Pxy Pxz Pyz eatoms 
       0   -114.09861       4.2565       4.2565       4.2565            0            0            0    83013.551    83013.551    83013.551    83013.551 1.023811e-10 -6.100653e-11 -2.0427431e-10   -114.09861 
      10   -114.17745     4.299065     4.299065     4.299065            0            0            0    27173.213    27173.213    27173.213    27173.213 -1.7620305e-11 8.177727e-11 3.0587737e-11   -114.17745 
      19   -114.18814    4.3219883    4.3219883    4.3219883            0            0            0 -0.014642896 -0.014642896 -0.014642896 -0.014642896 -4.2788838e-11 1.5607732e-10 -4.5124802e-11   -114.18814 
Loop time of 0.00843906 on 1 procs for 19 steps with 8 atoms

Minimization stats:
  Stopping criterion = linesearch alpha is zero
  Energy initial, next-to-last, final = 
        -114.098610965     -114.188144107     -114.188144107
  Force two-norm initial, final = 11.9872 7.95763e-05
  Force max component initial, final = 11.9872 1.65313e-05
  Final line search alpha, max atom move = 0.5 8.26564e-06
  Iterations, force evaluations = 19 24

Pair  time (%) = 0.00231457 (27.4268)
Kspce time (%) = 0.00132847 (15.7419)
Neigh time (%) = 0 (0)
Comm  time (%) = 0.000255108 (3.02294)
Outpt time (%) = 1.19209e-05 (0.141259)
Other time (%) = 0.004529 (53.6671)

Nlocal:    8 ave 8 max 8 min
Histogram: 1 0 0 0 0 0 0 0 0 0
Nghost:    2189 ave 2189 max 2189 min
Histogram: 1 0 0 0 0 0 0 0 0 0
Neighs:    2344 ave 2344 max 2344 min
Histogram: 1 0 0 0 0 0 0 0 0 0

Total # of neighbors = 2344
Ave neighs/atom = 293
Neighbor list builds = 0
Dangerous builds = 0
pypospack:output_section:begin
tot_energy = -114.188144106894
num_atoms = 8
xx = 4.32198834005221
yy = 4.32198834005221
zz = 4.32198834005221
xy = 0
xz = 0
yz = 0
tot_press = -0.0146428956780545
pxx = -0.0146428956419126
pyy = -0.0146428958165915
pzz = -0.0146428955756593
pxy = -4.27888380608005e-11
pxz = 1.56077321107314e-10
pyz = -4.51248020389503e-11
pypospack:output_section:done
pypospack:lammps_sim:done
PPPM initialization ...
  G vector (1/distance) = 0.35233
  grid = 8 8 8
  stencil order = 5
  estimated absolute RMS force accuracy = 4.15437e-05
  estimated relative force accuracy = 2.88505e-06
  using double precision FFTs
  3d grid and FFT values/proc = 3375 512
Setting up run ...
Memory usage per processor = 3.06549 Mbytes
Step Temp PotEng KinEng TotEng Press Lx Ly Lz Press Pxx Pyy Pzz Pxy Pxz Pyz Volume 
       0         1900   -114.18815    1.7191599   -112.46899    22743.085    4.3219883    4.3219883    4.3219883    22743.085    10582.604    38139.669    19506.983   -7761.7758    101.76196   -3383.5331    80.732941 
     100    574.30013    -112.7769   0.51963883   -112.25726    48821.353      4.35338      4.35338      4.35338    48821.353    6965.5555    59950.411    79548.094    13059.159   -223.89548    12757.421    82.504901 
     200     1198.059   -112.90087    1.0840289   -111.81684   -19249.636    4.4079103    4.4079103    4.4079103   -19249.636   -53629.315   -28036.614    23917.022    19791.469    3759.5499   -10400.106    85.644256 
     300    2262.5857     -113.416    2.0472351   -111.36877   -39216.816    4.4223998    4.4223998    4.4223998   -39216.816   -49827.828   -22756.814   -45065.807   -1970.1564    1378.4132   -1635.8271    86.491613 
     400    1274.2317   -112.19657    1.1529516   -111.04362    17321.924    4.3841457    4.3841457    4.3841457    17321.924   -10715.677    40420.864    22260.585    17478.383   -9625.3225   -15059.208    84.266494 
     500    1602.0919   -112.27152    1.4496064   -110.82191     21389.89    4.3707181    4.3707181    4.3707181     21389.89    6696.1026    23582.671    33890.896   -1291.9033    24968.703    3836.0986    83.494603 
     600    1886.4425   -112.48976    1.7068928   -110.78287    7563.5133    4.4177618    4.4177618    4.4177618    7563.5133   -49083.345    53102.218    18671.667   -26.087263    7921.7347    8631.1924    86.219775 
     700    1989.6328    -112.4701    1.8002616   -110.66984   -33072.478    4.4630073    4.4630073    4.4630073   -33072.478    -49196.25    -19093.44   -30927.745    23956.663    6606.2876   -10145.104    88.896116 
     800    2431.5972   -112.77111    2.2001602   -110.57095   -50121.566    4.4560403    4.4560403    4.4560403   -50121.566   -57743.779    -13084.33   -79536.591    3732.2676    -7993.623   -3807.9206     88.48045 
     900    2144.7125   -112.48829     1.940581   -110.54771    9931.8433    4.4029815    4.4029815    4.4029815    9931.8433     44631.86     6664.138   -21500.468   -6638.6473   -22705.704   -24440.747    85.357282 
    1000    1735.3539   -112.15246    1.5701847   -110.58227    61656.043    4.3733997    4.3733997    4.3733997    61656.043    58714.985    45782.705    80470.439    14063.784    4756.7035   -25300.113    83.648378 
    1100    2229.1824   -112.73249    2.0170111   -110.71548   -56.275089    4.4137568    4.4137568    4.4137568   -56.275089   -24801.577   -32150.883    56783.635    9551.6291   -22599.737    1032.3269    85.985494 
    1200    1928.7511   -112.41716    1.7451745   -110.67198   -47821.332    4.4589791    4.4589791    4.4589791   -47821.332    21405.067   -105844.38   -59024.688   -772.33805   -9786.4691   -17807.366    88.655627 
    1300    2006.9264   -112.43355    1.8159092   -110.61764    -25132.63    4.4335666    4.4335666    4.4335666    -25132.63     25080.55   -74526.438   -25952.001    5557.9299    41194.112   -8607.4728    87.148456 
    1400    1970.5895   -112.37186    1.7830308   -110.58883    32322.242    4.3709182    4.3709182    4.3709182    32322.242    13489.379    11324.665    72152.683    10957.983    9283.5523   -11246.548    83.506069 
    1500    1305.3535    -111.8524    1.1811112   -110.67129    22240.499    4.3686986    4.3686986    4.3686986    22240.499     76310.89    35195.004   -44784.395   -7405.9376    -32348.18   -12949.688    83.378916 
    1600    2503.4723   -112.98258    2.2651944   -110.71738   -24980.603    4.4112606    4.4112606    4.4112606   -24980.603   -61287.862    2343.9882   -15997.936   -198.60736   -7838.7307    8299.9874     85.83969 
    1700    1815.6401   -112.33418    1.6428293   -110.69135   -52705.364    4.4472634    4.4472634    4.4472634   -52705.364   -54882.214   -35785.308   -67448.571    752.63146   -13152.582   -34122.638    87.958652 
    1800    1391.6985   -111.90147     1.259238   -110.64223   -59895.232    4.4336202    4.4336202    4.4336202   -59895.232   -25232.658   -69988.811   -84464.226    1881.1515   -32292.014   -45031.345    87.151619 
    1900    1798.6449   -112.21822    1.6274517   -110.59077    61814.257    4.3778897    4.3778897    4.3778897    61814.257    15083.313    94911.362    75448.096    19936.884    16418.632     26366.82    83.906275 
    2000     1816.166   -112.29831    1.6433051     -110.655    21308.896    4.3752631    4.3752631    4.3752631    21308.896    75842.406    5183.5724   -17099.292    17304.618   -1174.7496   -40984.458    83.755342 
    2100    1824.6572   -112.34565    1.6509881   -110.69466   -14917.096    4.4217059    4.4217059    4.4217059   -14917.096   -11933.738     20366.54   -53184.089   -9611.4982   -29458.074    11515.274    86.450906 
    2200    2101.7742   -112.54072    1.9017295   -110.63899   -44475.553    4.4355431    4.4355431    4.4355431   -44475.553   -47443.211   -55213.633   -30769.815    29876.455    888.03179    18112.536    87.265065 
    2300    1096.9183   -111.62947   0.99251473   -110.63695    6981.0051    4.3967668    4.3967668    4.3967668    6981.0051    38495.817   -30900.844    13348.042     24380.43    8632.7024   -31358.441    84.996354 
    2400    2815.2269   -113.15603    2.5472764   -110.60875    9383.5974      4.36898      4.36898      4.36898    9383.5974    8157.0477    18117.612    1876.1321   -18556.428   -16246.547    8287.9397    83.395029 
    2500    1449.1481   -112.00529    1.3112197   -110.69407   -17364.261    4.4028258    4.4028258    4.4028258   -17364.261    29451.208   -86470.305     4926.313    2826.2721     7031.465   -21571.391    85.348226 
    2600    1282.6409   -111.82219    1.1605604   -110.66163   -26851.244    4.4222067    4.4222067    4.4222067   -26851.244    27762.457   -55255.956   -53060.231    5098.8091   -11455.923    -23839.49    86.480283 
    2700    1691.5266   -112.14671    1.5305288   -110.61618    34087.228    4.3936441    4.3936441    4.3936441    34087.228    5850.0616    144300.41   -47888.785   -8041.8422   -12293.301    25941.929    84.815379 
    2800    2410.6893   -112.81684    2.1812424    -110.6356   -11544.381    4.3853201    4.3853201    4.3853201   -11544.381    20655.844   -39623.105   -15665.882    5501.2334     580.5804   -52244.072    84.334232 
    2900    2275.8309   -112.71439    2.0592197   -110.65517   -23866.961    4.4050029    4.4050029    4.4050029   -23866.961   -34646.599    2245.2267    -39199.51    14570.958   -8825.3475    -23120.97    85.474899 
    3000    2142.1508   -112.58475     1.938263   -110.64649    4222.1493    4.4186054    4.4186054    4.4186054    4222.1493   -36913.477    87982.339   -38402.415   -11464.662    6309.2065    1657.2897    86.269177 
    3100    1905.0257   -112.37441    1.7237073    -110.6507   -21368.346    4.4363226    4.4363226    4.4363226   -21368.346   -14879.713   -23734.152   -25491.172   -15762.663    1607.2027   -22015.254    87.311077 
    3200    1646.7528   -112.08416    1.4900166   -110.59414    4764.1821    4.4383436    4.4383436    4.4383436    4764.1821    23222.455   -4995.3433   -3934.5651    12693.153   -17398.456   -10102.229    87.430459 
    3300    1758.3494   -112.15201    1.5909914   -110.56102    4315.9201     4.416265     4.416265     4.416265    4315.9201   -24739.807    42556.586   -4869.0187   -1518.8106   -3077.2397   -19001.162    86.132167 
    3400    2044.6818   -112.45811    1.8500711   -110.60804   -39811.199    4.4016963    4.4016963    4.4016963   -39811.199   -50944.858   -12473.645   -56015.093    4279.8896   -37038.646   -37178.134    85.282556 
    3500    2471.6123   -112.88202    2.2363667   -110.64566   -13473.593     4.408552     4.408552     4.408552   -13473.593   -24533.337    4984.0043   -20871.446   -7125.0213   -7709.2308   -11660.275    85.681666 
    3600    1909.0658   -112.38982    1.7273628   -110.66245   -727.68367      4.41695      4.41695      4.41695   -727.68367    34417.998   -27813.573   -8787.4767   -41609.936    1134.6599   -2666.9312    86.172255 
    3700    1625.8098   -112.11491    1.4710669   -110.64384   -7518.9765    4.4102862    4.4102862    4.4102862   -7518.9765    29892.125   -26692.286   -25756.769    -9249.529   -26115.686   -27229.103    85.782821 
    3800    2328.2874   -112.73147    2.1066833   -110.62478    13098.608    4.3947971    4.3947971    4.3947971    13098.608   -14773.193     36602.89    17466.127    4923.3901     16398.09    21528.518     84.88217 
    3900    1484.7328   -111.99236    1.3434174   -110.64894   -31849.148    4.3937114    4.3937114    4.3937114   -31849.148   -47226.744    -2020.772   -46299.928   -29025.851   -15113.522    -6305.422    84.819279 
    4000    1213.0188   -111.77131    1.0975649   -110.67375    15046.246    4.3732589    4.3732589    4.3732589    15046.246   -14769.456    28468.784    31439.411   -1876.7037   -40944.877   -22029.528    83.640297 
    4100     2605.648   -113.04836    2.3576451   -110.69071     27095.53     4.378203     4.378203     4.378203     27095.53    38884.706   -4584.2999    46986.183    6379.5609    10433.737    1342.5634     83.92429 
    4200    2089.3109   -112.58088    1.8904524   -110.69043   -43117.123    4.4092032    4.4092032    4.4092032   -43117.123   -34474.804   -45186.626   -49689.939   -31911.807   -19874.755   -9663.4085    85.719642 
    4300    1992.6695    -112.4675    1.8030092   -110.66449    5854.3823    4.3939535    4.3939535    4.3939535    5854.3823   -5555.3592    25201.234   -2082.7277    12292.542   -23684.207   -17033.825    84.833301 
    4400    2193.9972   -112.63683    1.9851748   -110.65166    31229.215    4.3769387    4.3769387    4.3769387    31229.215    43640.658   -11610.356    61657.344   -30095.923    15568.637    15477.209    83.851608 
    4500    1471.4838   -112.02267    1.3314295   -110.69125    10671.237    4.3925162    4.3925162    4.3925162    10671.237   -34625.221     58556.42    8082.5126   -21185.607   -19343.554   -3262.7776    84.750081 
    4600    1991.5398   -112.47632    1.8019871   -110.67433   -1112.5146     4.398541     4.398541     4.398541   -1112.5146    14793.542   -17755.166   -375.92014    7938.4222   -8963.1033   -14384.481    85.099287 
    4700    1109.8634   -111.67964    1.0042277   -110.67541    41288.525    4.3897845    4.3897845    4.3897845    41288.525    63297.963    8496.6119        52071   -32863.901    16265.635    11223.446    84.592059 
    4800    2731.7641   -113.13176    2.4717576      -110.66   -2306.3329    4.4026813    4.4026813    4.4026813   -2306.3329   -752.94116    28434.053   -34600.111    7878.3535   -19646.396    5261.2238    85.339825 
    4900    2208.4699   -112.65953      1.99827   -110.66126   -28236.496    4.4115195    4.4115195    4.4115195   -28236.496   -29584.575   -32918.459   -22206.454   -35323.032    7257.6538   -929.90167    85.854808 
    5000    1294.7002     -111.826    1.1714719   -110.65453    19628.135    4.3960252    4.3960252    4.3960252    19628.135    33063.394   -11864.909    37685.919   -18312.978    25637.545    6457.0503    84.953354 
    5100    2814.5035   -113.18282    2.5466219    -110.6362    1904.8392    4.3963065    4.3963065    4.3963065    1904.8392    3627.5425    38206.585   -36119.609    14265.491    2068.3469    7304.3464     84.96966 
    5200    1152.6312   -111.70425    1.0429249   -110.66133   -5371.3001    4.4038439    4.4038439    4.4038439   -5371.3001   -23072.111   -934.23641    7892.4473   -71608.214    14720.276   -8221.4461     85.40745 
    5300    1720.5958   -112.22537    1.5568313   -110.66854   -15072.976    4.3892415    4.3892415    4.3892415   -15072.976   -44576.854    7208.0932   -7850.1666   -32894.877    15332.218   -3479.9718    84.560674 
    5400    1827.9911     -112.342    1.6540048     -110.688    24237.636    4.3872012    4.3872012    4.3872012    24237.636    2050.3983    72383.149   -1720.6402    24757.689   -14019.412    2266.3544    84.442805 
    5500    1490.8903   -112.04572    1.3489889   -110.69673   -18073.333    4.3988894    4.3988894    4.3988894   -18073.333   -49066.932   -31422.915    26269.847   -51069.696    17727.366     7595.748    85.119515 
    5600    2605.3511   -113.00692    2.3573764   -110.64954   -11335.535    4.3992944    4.3992944    4.3992944   -11335.535   -34745.336    17390.379   -16651.647    10164.871    16363.784    6928.7089    85.143026 
    5700    2066.4234   -112.51623    1.8697433   -110.64649   -87.734023    4.3921164    4.3921164    4.3921164   -87.734023   -18758.365     29878.02   -11382.857    4736.7805   -7588.6968   -1413.4235     84.72694 
    5800     1268.867   -111.81939    1.1480976    -110.6713   -32498.245    4.3858827    4.3858827    4.3858827   -32498.245   -77959.269    8947.6669   -28483.133   -24109.668    41786.904     5894.533    84.366698 
    5900    1817.7332   -112.32118    1.6447232   -110.67646     1470.688    4.3735397    4.3735397    4.3735397     1470.688    17826.779    8448.2253   -21862.941    6512.6053    30974.376    -1689.434    83.656408 
    6000    2173.0456   -112.65497    1.9662173   -110.68875    8910.0855    4.3738096    4.3738096    4.3738096    8910.0855    3963.2972    23426.651   -659.69197   -12157.837    -12226.54   -5533.3441      83.6719 
    6100    1122.8535   -111.73594    1.0159814   -110.71995   -15486.322    4.3967434    4.3967434    4.3967434   -15486.322   -57044.292    18525.299   -7939.9732   -24485.218    49710.105    15059.116    84.994999 
    6200    2116.4392   -112.58256    1.9149987   -110.66756   -25488.623    4.4042207    4.4042207    4.4042207   -25488.623    -10874.54   -32471.572   -33119.757    10172.197    754.39868    17012.725    85.429376 
    6300    1816.5484   -112.29119    1.6436512   -110.64754   -22017.401    4.3939828    4.3939828    4.3939828   -22017.401    26494.902    -68856.65   -23690.454   -11744.463   -16111.226    31632.049       84.835 
    6400    2329.9434   -112.75788    2.1081818    -110.6497   -8892.6737    4.3832133    4.3832133    4.3832133   -8892.6737   -29563.625   -18791.461    21677.065   -18615.104    36937.214   -14097.584    84.212746 
    6500    1910.8513    -112.4004    1.7289784   -110.67143    7488.1038    4.3829967    4.3829967    4.3829967    7488.1038    23371.598   -21898.857    20991.571    9337.0265   -6889.9071    21894.082    84.200257 
    6600    1203.7456   -111.80549    1.0891743   -110.71632    19274.331    4.4001443    4.4001443    4.4001443    19274.331     79717.23   -46320.994    24426.756   -8851.4667   -7619.0728    13197.392    85.192381 
    6700    2188.3867   -112.65114    1.9800982   -110.67105   -7012.1557    4.4093714    4.4093714    4.4093714   -7012.1557    -13974.95    -22293.59    15232.072   -12182.847     18571.23   -4076.6819    85.729453 
    6800    1376.0178   -111.89949    1.2450498   -110.65444    7180.6015    4.4023137    4.4023137    4.4023137    7180.6015    60013.381    -53355.96    14884.383     12275.05    231.19983    8238.7988     85.31845 
    6900    2025.0855   -112.48796    1.8323399   -110.65562   -36966.591    4.4109765    4.4109765    4.4109765   -36966.591   -15564.894   -76420.055   -18914.824    455.38928   -24479.346   -10192.339    85.823108 
    7000    2675.8962   -113.03696    2.4212071   -110.61575   -28032.849    4.4079885    4.4079885    4.4079885   -28032.849   -25119.525   -44533.327   -14445.695    11362.293   -21392.602     22044.95    85.648816 
    7100    1969.8848   -112.40463    1.7823932   -110.62224   -3214.2949    4.4000023    4.4000023    4.4000023   -3214.2949    -11362.65   -23180.173    24899.938    2783.9377   -4978.8804    11241.957    85.184133 
    7200    2195.0834   -112.62418    1.9861576   -110.63802      21126.6    4.4030976    4.4030976    4.4030976      21126.6    34577.432    18884.326    9918.0418   -24507.642   -9747.3526   -6092.7926    85.364034 
    7300    1717.5143   -112.19738     1.554043   -110.64333   -14603.177     4.418523     4.418523     4.418523   -14603.177   -18261.063     -60363.5    34815.032   -2676.2183    11090.144    12417.186    86.264352 
    7400    1971.3796   -112.40412    1.7837457   -110.62037   -24483.506    4.4255998    4.4255998    4.4255998   -24483.506   -23399.892   -100493.34     50442.71   -2279.6322   -1826.7354   -17345.859    86.679502 
    7500    1715.4451   -112.17129    1.5521708   -110.61912    3844.5262    4.4070501    4.4070501    4.4070501    3844.5262   -16824.856   -81436.063     109794.5   -31470.795    14657.063    3746.6745    85.594128 
    7600    1861.1792   -112.30138    1.6840341   -110.61735    34445.369     4.379843     4.379843     4.379843    34445.369    75425.694   -39125.468    67035.881    15121.516     36427.54    905.20341    84.018637 
    7700    1684.2877   -112.18503    1.5239789   -110.66105    27455.448    4.3887297    4.3887297    4.3887297    27455.448     88559.54   -45780.456    39587.262      363.339    16456.695   -19468.552    84.531094 
    7800    1794.3248    -112.2688    1.6235428   -110.64526   -3846.7067    4.4134268    4.4134268    4.4134268   -3846.7067   -2171.1365   -81245.378    71876.394   -20790.224    8963.9355    5450.6299     85.96621 
    7900    1681.7956   -112.14156     1.521724   -110.61984   -39896.672    4.4268766    4.4268766    4.4268766   -39896.672   -36799.441   -103722.42    20831.848    433.15409   -6157.4796    -6853.008    86.754545 
    8000     1779.199   -112.21035    1.6098566   -110.60049   -44461.565    4.4175142    4.4175142    4.4175142   -44461.565    -27868.54    -75848.37   -29667.785   -29686.793   -11691.381   -15178.807    86.205279 
    8100    2372.7509   -112.73353    2.1469149   -110.58661    51718.057    4.3737876    4.3737876    4.3737876    51718.057    68547.597    17711.533    68895.042    1309.0253   -370.96789    -2318.745    83.670636 
    8200    1752.1762   -112.22787    1.5854058   -110.64247    47596.193    4.3693461    4.3693461    4.3693461    47596.193    119497.08   -3059.2073    26350.702    29868.121    4978.0853   -7288.8956    83.415994 
    8300    2382.8174   -112.82214    2.1560232   -110.66611    16622.179    4.4087717    4.4087717    4.4087717    16622.179    18764.107    34594.504   -3492.0755    15239.979    14162.703    5728.9494    85.694478 
    8400    2172.5801   -112.61175    1.9657961   -110.64596    4515.6275    4.4162318    4.4162318    4.4162318    4515.6275    3370.4049   -18220.138    28396.616     8440.545   -823.62311   -24892.026    86.130228 
    8500     1464.749    -111.9615    1.3253357   -110.63616    22481.184    4.3986228    4.3986228    4.3986228    22481.184    26759.024    7243.9535    33440.575    12247.914    12868.731   -17826.421    85.104037 
    8600    2601.6682   -112.97662    2.3540441   -110.62257   -21245.475    4.4027505    4.4027505    4.4027505   -21245.475   -32654.293   -57698.207    26616.074   -1795.3336    4209.8149   -11998.675    85.343846 
    8700    967.77941    -111.5178   0.87566715   -110.64213   -27420.372    4.4050768    4.4050768    4.4050768   -27420.372    2572.9501   -80492.229   -4341.8373   -5243.5041    4353.9827   -22730.882    85.479203 
    8800    1733.3986   -112.20345    1.5684155   -110.63504   -6607.6043    4.3924845    4.3924845    4.3924845   -6607.6043   -21830.139   -8495.0277    10502.354   -6877.9979   -6149.9212    22349.338    84.748244 
    8900    2164.4772   -112.61369    1.9584645   -110.65522    9855.0102    4.3805568    4.3805568    4.3805568    9855.0102    -38573.37    16333.953    51804.447     -2774.88    4680.7358    -22224.54    84.059719 
    9000    1914.7243   -112.41808    1.7324828    -110.6856   -10425.464    4.3740398    4.3740398    4.3740398   -10425.464    4969.9099   -28392.751     -7853.55   -12157.915    3334.2552    3173.3762    83.685109 
    9100    1470.1679   -112.04269    1.3302388   -110.71245   -831.47747    4.3819453    4.3819453    4.3819453   -831.47747   -28029.457    29903.262   -4368.2367    3814.7836    1446.4077    35645.548    84.139679 
    9200    2156.3642   -112.64357    1.9511236   -110.69245   -11874.363    4.3993124    4.3993124    4.3993124   -11874.363   -18780.707   -874.77013   -15967.612    8704.2185    13848.146   -26320.949     85.14407 
    9300    1689.8526   -112.20288    1.5290141   -110.67387   -18025.201    4.3915199    4.3915199    4.3915199   -18025.201    86120.526    -77599.16   -62596.969   -4897.0023    2664.7232   -10894.068    84.692424 
    9400    1979.3596   -112.44479    1.7909662   -110.65382    16754.183    4.3716159    4.3716159    4.3716159    16754.183    46902.563   -38620.661    41980.647    7425.7382    18892.098    26167.303    83.546064 
    9500    2668.7684   -113.07581    2.4147577   -110.66105    9979.6471    4.3854765    4.3854765    4.3854765    9979.6471    25675.266   -13568.389    17832.064    3839.9752    21199.983   -11615.498    84.343255 
    9600    1169.5248   -111.74759    1.0582106   -110.68938    14111.541    4.3993745    4.3993745    4.3993745    14111.541    78370.163     -48581.7    12546.161   -3983.2205   -10192.334    22602.051    85.147677 
    9700    2111.8372   -112.57916    1.9108346   -110.66833   -2694.1907    4.4059846    4.4059846    4.4059846   -2694.1907    4581.1943   -70939.656    58275.889   -9404.3746   -667.75802   -17151.382    85.532059 
    9800    2127.9987    -112.5708    1.9254579   -110.64534    3287.4868    4.3996111    4.3996111    4.3996111    3287.4868   -25138.246   -36675.868    71676.574   -1569.8326   -3502.9678    26631.272    85.161417 
    9900    897.53511   -111.45583   0.81210863   -110.64372    31720.457    4.3805978    4.3805978    4.3805978    31720.457    48877.305   -47437.385    93721.452    12145.412   -24924.351    9305.5129    84.062085 
   10000    1614.9278   -112.10973    1.4612206   -110.64851    33094.538    4.3810829    4.3810829    4.3810829    33094.538    71153.601   -21682.239    49812.253    4602.7656   -13688.859   -33660.307    84.090013 
   10100    1827.8317   -112.31272    1.6538605   -110.65886   -1919.2711     4.391774     4.391774     4.391774   -1919.2711   -17524.021   -13714.211    25480.419   -11540.627   -4437.1212     22705.85    84.707128 
   10200    1842.5935   -112.33918    1.6672173   -110.67197   -57451.891    4.4030163    4.4030163    4.4030163   -57451.891    11030.535   -106208.58   -77177.632    5104.6029   -15993.686   -12517.036    85.359308 
   10300    2196.0077   -112.63682    1.9869939   -110.64982   -20340.107     4.393958     4.393958     4.393958   -20340.107   -41014.081   -5331.4716   -14674.769   -14501.282    -2124.021   -30456.583    84.833561 
   10400    2246.0712   -112.67169    2.0322924   -110.63939     10458.45    4.3967233    4.3967233    4.3967233     10458.45    15000.623    63075.962   -46701.236   -28718.923    4991.2449    8535.2394    84.993834 
   10500    1994.8358   -112.44574    1.8049694   -110.64077    9218.0637    4.4107702    4.4107702    4.4107702    9218.0637    46740.223    22314.965   -41400.997   -18557.834    16743.622   -12492.538    85.811069 
   10600    1455.0632   -111.94458    1.3165718   -110.62801   -22428.104    4.4228509    4.4228509    4.4228509   -22428.104   -28950.719   -47960.617    9627.0228   -24046.738    4812.7469    1105.4153    86.518082 
   10700     1295.202   -111.78786     1.171926   -110.61593   -26802.151     4.409952     4.409952     4.409952   -26802.151   -7541.4554   -71133.326   -1731.6703    8093.6223   -10283.255    49395.756    85.763321 
   10800    3071.9165   -113.35561    2.7795346   -110.57608   -27403.888    4.3899138    4.3899138    4.3899138   -27403.888    -37514.63   -25481.684    -19215.35    18477.576   -13840.968   -22199.538    84.599533 
   10900    1279.7289   -111.79056    1.1579256   -110.63264   -8736.2851    4.3990454    4.3990454    4.3990454   -8736.2851   -1020.1873    -53800.53    28611.862    -7059.485   -799.22937    52735.026    85.128568 
   11000    1801.8019   -112.26104    1.6303082   -110.63074    9503.9283     4.409397     4.409397     4.409397    9503.9283   -33121.465    46226.413    15406.836    9193.0126    4413.2502      21436.6    85.730946 
   11100    2191.8642   -112.60983    1.9832448   -110.62659    21801.434    4.3999932    4.3999932    4.3999932    21801.434    20722.522     31253.46    13428.319    3394.5246    15051.773    20976.914    85.183605 
   11200     1386.284   -111.89714    1.2543389    -110.6428     49027.27     4.396606     4.396606     4.396606     49027.27    38897.034    114843.72   -6658.9426   -27574.585   -4617.0791    43605.032    84.987026 
   11300    2540.3097   -112.91385    2.2985256   -110.61532   -22803.151    4.4158486    4.4158486    4.4158486   -22803.151   -32844.442   -20007.306   -15557.706    9463.2603   -15637.859   -27304.263    86.107805 
   11400    1106.0956   -111.60835    1.0008185   -110.60753   -29926.225    4.4125844    4.4125844    4.4125844   -29926.225    41615.864   -127103.18   -4291.3569   -22492.852    10342.272     35642.95    85.916994 
   11500    2222.0966   -112.59017    2.0105997   -110.57957    7675.7949    4.3874304    4.3874304    4.3874304    7675.7949     11059.46   -49087.175    61055.099   -28558.896    18073.276    10059.726    84.456039 
   11600    2683.2958   -113.03448    2.4279024   -110.60658   -15623.713    4.3912268    4.3912268    4.3912268   -15623.713   -17010.492   -36568.469    6707.8206    10878.125    7021.4826    36379.112    84.675469 
   11700    796.56672   -111.37463    0.7207503   -110.65388   -16261.752    4.3988159    4.3988159    4.3988159   -16261.752    34845.243   -37819.177   -45811.324    -16923.56    1948.0033    61734.779    85.115244 
   11800    1699.9141   -112.20615     1.538118   -110.66803    11764.809    4.3829039    4.3829039    4.3829039    11764.809   -3890.0129    4056.7643    35127.676   -14746.258    5189.3981   -8227.7876    84.194911 
   11900    2174.9357   -112.64798    1.9679275   -110.68005    4801.9543    4.3817676    4.3817676    4.3817676    4801.9543   -26332.931   -29043.223    69782.017    12106.038   -8049.4686    6931.0369    84.129443 
   12000     1333.234    -111.9173    1.2063382   -110.71097   -19628.408    4.3863668    4.3863668    4.3863668   -19628.408   -14453.023   -84495.238    40063.038   -41082.017     3128.177    40827.196    84.394637 
   12100    1166.1769   -111.77043    1.0551814   -110.71525   -4746.7541     4.388158     4.388158     4.388158   -4746.7541   -31618.428   -12266.093    29644.258    13181.522   -11789.161   -25007.146    84.498066 
   12200    2044.8417   -112.54802    1.8502157    -110.6978   -22938.093    4.3937762    4.3937762    4.3937762   -22938.093   -44658.583   -24757.073    601.37699    15895.807   -19972.656   -10319.555    84.823033 
   12300    2226.1223   -112.70303    2.0142423   -110.68878    3675.3776    4.3775298    4.3775298    4.3775298    3675.3776   -30119.984    -24037.07    65183.186   -35516.292    3767.2204    20532.648    83.885587 
   12400    1860.6109   -112.38355    1.6835199   -110.70003    7294.2264     4.362433     4.362433     4.362433    7294.2264   -11038.571   -17740.233    50661.483    13999.767   -13370.218   -16789.761    83.020687 
   12500    1530.3582   -112.12285    1.3847002   -110.73815   -23421.209    4.3767049    4.3767049    4.3767049   -23421.209   -55735.641   -27904.712    13376.726    5177.3762    -3107.919   -15809.145     83.83817 
   12600    2137.5058   -112.65694    1.9340602   -110.72288   -11100.256    4.3916302    4.3916302    4.3916302   -11100.256   -51585.066   -40902.164    59186.462   -36317.001   -10943.873    8418.1034    84.698807 
   12700    2315.7226   -112.79625    2.0953145   -110.70093   -25761.748    4.3909503    4.3909503    4.3909503   -25761.748    6158.0497   -62227.143    -21216.15     13296.62   -11408.093   -16469.061    84.659474 
   12800    1258.2656   -111.84225    1.1385052   -110.70375    1245.6957    4.3821013    4.3821013    4.3821013    1245.6957    32459.172   -51606.235     22884.15    6463.2685   -14307.577    -5551.968    84.148666 
   12900    1783.4967   -112.31208    1.6137453   -110.69833    13179.552    4.3807479    4.3807479    4.3807479    13179.552   -23670.758   -16413.672    79623.086   -13514.205   -22052.405    6434.7768    84.070723 
   13000    2297.3398   -112.76923    2.0786813   -110.69055    4025.9693    4.3896133    4.3896133    4.3896133    4025.9693    20518.362   -10329.285    1888.8307    6063.2655    10630.741   -16129.005    84.582161 
   13100    1972.9562   -112.46759    1.7851722   -110.68242    8100.4707     4.398334     4.398334     4.398334    8100.4707     31135.95   -51311.564    44477.026   -8202.6422    1230.6299    12638.329    85.087276 
   13200    1510.1283   -112.03989    1.3663959    -110.6735   -21879.576    4.4090145    4.4090145    4.4090145   -21879.576   -67474.318    27539.604   -25704.014   -6597.8526    29933.069   -4202.3105    85.708633 
   13300    2409.0419   -112.82997    2.1797517   -110.65022   -18433.409    4.4024958    4.4024958    4.4024958   -18433.409   -80366.008    32964.876   -7899.0932    5912.2339    7853.3913   -11377.582    85.329039 
   13400    2328.3057   -112.75131       2.1067   -110.64461    7786.4748    4.3792341    4.3792341    4.3792341    7786.4748    1678.3186   -10735.137    32416.243   -10420.791    3711.1507    19712.823    83.983598 
   13500    1162.2685   -111.74319    1.0516449   -110.69155   -8357.4896    4.3792909    4.3792909    4.3792909   -8357.4896   -59247.204     68276.32   -34101.585   -10378.475    28265.089    7571.1016    83.986869 
   13600    2180.8239   -112.67227    1.9732553   -110.69902   -22649.367    4.4009549    4.4009549    4.4009549   -22649.367   -28923.198   -7949.8424    -31075.06    5712.4932   -34004.557     2147.756    85.239475 
   13700    2014.7007   -112.49855    1.8229435   -110.67561    11372.059    4.4001358    4.4001358    4.4001358    11372.059    17530.248    -8943.216    25529.146    4482.6838    27845.611    4487.3069    85.191885 
   13800    1475.4894    -112.0134    1.3350538   -110.67835    11818.047    4.3857253    4.3857253    4.3857253    11818.047   -33723.723    48257.527    20920.335    4301.3713    25597.865    1597.4447    84.357612 
   13900    1625.1304   -112.16664    1.4704521   -110.69619     18039.67    4.3859474    4.3859474    4.3859474     18039.67    38822.975    6848.9308    8447.1055    11570.965   -30574.349   -13528.748    84.370429 
   14000    2508.4079   -112.94928    2.2696602   -110.67962    22835.256    4.3963755    4.3963755    4.3963755    22835.256    24563.664   -30393.083    74335.186    4460.9081    22171.643    1382.1743     84.97366 
   14100    1604.2841    -112.1389      1.45159   -110.68731   -17655.703    4.4119352    4.4119352    4.4119352   -17655.703   -28089.424    5523.2427   -30400.927   -19539.389   -183.30301   -15722.845    85.879078 
   14200    937.29515   -111.51517   0.84808435   -110.66708   -12234.572    4.4111992    4.4111992    4.4111992   -12234.572     20309.04   -6678.8041   -50333.952    469.72332   -20834.076     -10726.8    85.836105 
   14300    2562.3841    -112.9541    2.3184989    -110.6356   -14718.925    4.3884474    4.3884474    4.3884474   -14718.925   -26467.233   -45603.807    27914.266     10383.66    21078.933    24544.282    84.514786 
   14400    1856.7683   -112.33464     1.680043    -110.6546    52250.933    4.3748202    4.3748202    4.3748202    52250.933     36876.86    44909.581    74966.358   -18386.848   -1298.2694   -19852.534    83.729908 
   14500    1532.6073   -112.09097    1.3867353   -110.70424    28437.042    4.3886703    4.3886703    4.3886703    28437.042     1099.016    22322.547    61889.563    26763.901   -12562.712   -13859.254    84.527666 
   14600    2110.0836   -112.59076     1.909248   -110.68151    2304.7542    4.4138607    4.4138607    4.4138607    2304.7542    18790.942   -32994.017    21117.338    510.94237    19791.648    13481.056    85.991571 
   14700    2007.6799   -112.45692    1.8165909   -110.64032   -5095.7526    4.4194083    4.4194083    4.4194083   -5095.7526    13336.076   -57715.822    29092.488   -18405.933   -10361.222   -7570.2793    86.316212 
   14800    1268.9795   -111.78741    1.1481993   -110.63921     2332.488    4.3953807    4.3953807    4.3953807     2332.488   -12086.042   -6796.4139     25879.92    16459.875    -8550.845    6238.3114     84.91599 
   14900    1564.1709   -112.07311    1.4152947   -110.65781     8638.584    4.3731327    4.3731327    4.3731327     8638.584    31069.964    8833.3465   -13987.558   -402.50144     32606.24    2049.0641    83.633054 
   15000     2253.794   -112.73149    2.0392802   -110.69221    8965.1441    4.3702557    4.3702557    4.3702557    8965.1441       -22883    -21988.09    71766.523     17364.32   -14492.187    9095.8678    83.468103 
   15100    2439.2746   -112.92132    2.2071069   -110.71421   -12468.306    4.3804353    4.3804353    4.3804353   -12468.306   -20812.666   -15182.379   -1409.8737    9671.9537    10346.458    718.63108    84.052725 
   15200    1438.7456   -112.03506    1.3018072   -110.73325   -10451.082    4.3907494    4.3907494    4.3907494   -10451.082    21989.722   -33796.187    -19546.78   -8847.5642    25591.924    8444.9034    84.647852 
   15300    1388.7416   -111.97537    1.2565626   -110.71881   -107.72372    4.4030881    4.4030881    4.4030881   -107.72372   -24947.836   -62173.314    86797.979    20374.985   -25243.827   -25259.074     85.36348 
   15400    2506.8482   -112.94815     2.268249    -110.6799   -37841.572    4.4026033    4.4026033    4.4026033   -37841.572   -55197.447    -74960.13    16632.861    17386.758   -24712.475    18133.341    85.335291 
   15500    1730.4575   -112.23755    1.5657543    -110.6718   -1997.6483    4.3833878    4.3833878    4.3833878   -1997.6483     58359.18   -57780.114   -6572.0105    -19435.59    17092.408    48570.649    84.222802 
   15600    1701.8229   -112.21336    1.5398451   -110.67352    6651.3819    4.3750707    4.3750707    4.3750707    6651.3819    61052.841   -45359.264    4260.5693    17028.264    6899.2774    -40408.44    83.744296 
   15700    1673.5483   -112.21501    1.5142616   -110.70075    9922.1079    4.3877004    4.3877004    4.3877004    9922.1079    26917.815   -48208.749    51057.257     21599.98    -33821.17    2924.0135    84.471636 
   15800    1978.4113   -112.47806    1.7901082   -110.68795    25039.325    4.3943146    4.3943146    4.3943146    25039.325    78736.631    -7290.822    3672.1646    -610.8117   -3967.6076    26079.301     84.85422 
   15900    1262.0442   -111.83367    1.1419241   -110.69175    9362.4509     4.397504     4.397504     4.397504    9362.4509    13262.629    14195.061    629.66339    8156.1222    9247.3894   -26511.795    85.039117 
   16000    1857.2362   -112.35645    1.6804663   -110.67599   -10551.515    4.3977406    4.3977406    4.3977406   -10551.515    -14258.84   -47153.065    29757.359     1241.694   -27079.465     13281.45    85.052839 
   16100    2599.7987   -113.00934    2.3523525   -110.65699    18101.474    4.3715355    4.3715355    4.3715355    18101.474    50499.514   -4662.7329    8467.6391   -18953.372    4838.1086   -3189.5085    83.541454 
   16200    1752.3522   -112.26986    1.5855651   -110.68429    9714.1472    4.3655131    4.3655131    4.3655131    9714.1472     9669.774    29739.868     -10267.2    12672.334    23061.413   -13251.487    83.196657 
   16300     2512.686   -112.96202    2.2735311   -110.68849   -4731.3811    4.3866403    4.3866403    4.3866403   -4731.3811    5293.0736   -25736.946    6249.7295   -2806.1795   -6662.6843    9988.2779    84.410425 
   16400    2165.3338   -112.64469    1.9592395   -110.68545   -22326.479    4.4056334    4.4056334    4.4056334   -22326.479   -3733.4316   -42009.381   -21236.623   -4026.0136    35215.031   -19880.852    85.511608 
   16500    2200.8278   -112.64424    1.9913552   -110.65289   -59198.026    4.4226106    4.4226106    4.4226106   -59198.026   -74345.938   -47333.245   -55914.895    34649.758    41140.501    552.34359    86.503982 
   16600    2357.1982   -112.73261    2.1328425   -110.59977   -31428.986    4.4273708    4.4273708    4.4273708   -31428.986   -62218.699   -57712.577    25644.317    7610.8697   -10334.472    15621.363    86.783606 
   16700    1006.0336   -111.50213   0.91028031   -110.59185   -8285.2886    4.4156021    4.4156021    4.4156021   -8285.2886   -60902.483    2893.6803    33152.937    10528.203    34680.837   -32791.938    86.093387 
   16800    1974.5515   -112.37851    1.7866157   -110.59189    20599.889    4.3802981    4.3802981    4.3802981    20599.889   -26458.315    28793.134    59464.849    6622.3162    4610.7972   -3366.0694    84.044832 
   16900    2469.7861   -112.85405    2.2347144   -110.61934    12850.916    4.3713678    4.3713678    4.3713678    12850.916    6218.7738    19783.257    12550.717   -19990.504   -5464.8487   -19844.981    83.531842 
   17000    1021.4597   -111.61405    0.9242382   -110.68981   -50410.032    4.3940932    4.3940932    4.3940932   -50410.032   -74179.412   -9120.9408   -67929.744     15402.94    82299.261   -15814.365    84.841394 
   17100    2046.2909   -112.51562     1.851527   -110.66409    4849.2559    4.3897336    4.3897336    4.3897336    4849.2559    2233.5054   -262.44389    12576.706    20047.597    8481.8217    759.72319    84.589117 
   17200    2170.7628   -112.62049    1.9641518   -110.65634    7809.3796    4.3848993    4.3848993    4.3848993    7809.3796   -1625.1014    1640.9259    23412.314    -24240.59    18643.217   -9823.5732     84.30996 
   17300    1390.8567   -111.93066    1.2584764   -110.67218   -32457.159    4.3902381    4.3902381    4.3902381   -32457.159   -69301.789   -8211.7723   -19857.916    17134.563    35226.335   -10972.017    84.618286 
   17400    2074.0345   -112.52624      1.87663   -110.64961    42280.638    4.3823516    4.3823516    4.3823516    42280.638     13540.42    77309.181    35992.314    11528.498   -15746.614    17612.816    84.163084 
   17500    1697.3694   -112.20912    1.5358155   -110.67331    21166.058    4.3959644    4.3959644    4.3959644    21166.058    -21462.17    68137.588    16822.757    4748.7358    42024.698   -7407.5565    84.949825 
   17600    2232.6028   -112.64925    2.0201059   -110.62915   -9229.6429    4.4151929    4.4151929    4.4151929   -9229.6429   -15548.057    13011.367   -25152.238    31801.132   -15606.576   -22796.211    86.069452 
   17700    2003.6148   -112.42984    1.8129128   -110.61693   -17538.299    4.4025446    4.4025446    4.4025446   -17538.299   -36402.649     17082.28    -33294.53     7344.967    44991.379   -5959.0227    85.331878 
   17800     1268.997   -111.77863    1.1482151   -110.63041   -4330.6053    4.3799949    4.3799949    4.3799949   -4330.6053   -8817.1585   -45423.871    41249.213    7238.9898    38279.379    9828.1902    84.027379 
   17900    2329.8397   -112.74264     2.108088   -110.63455   -355.09341    4.3690684    4.3690684    4.3690684   -355.09341    4299.2153   -42835.809    37471.314    25488.297   -20835.761   -6070.1884     83.40009 
   18000    1296.5736   -111.85418    1.1731671   -110.68101   -15963.133    4.3795457    4.3795457    4.3795457   -15963.133   -53251.792    17537.672   -12175.279   -7303.8609     77027.69    9336.7539    84.001528 
   18100    1514.6941   -112.04839    1.3705271   -110.67787    2942.1854    4.3963407    4.3963407    4.3963407    2942.1854   -36752.102    23551.311    22027.347    2578.4693   -19792.787    10320.204    84.971643 
   18200     1800.745    -112.2987    1.6293519   -110.66934   -15427.439    4.3868431    4.3868431    4.3868431   -15427.439   -17946.323   -14933.043   -13402.951    10958.339    24681.604   -14129.017    84.422128 
   18300    1584.8238    -112.1044    1.4339819   -110.67042    17656.645    4.3737172    4.3737172    4.3737172    17656.645    24008.529    60591.789   -31630.383   -4925.7664    68326.028    6398.5442    83.666596 
   18400    2600.1485   -113.00879     2.352669   -110.65612    23493.126    4.3810826    4.3810826    4.3810826    23493.126     11940.61    34878.034    23660.734     16370.44   -39442.368   -10621.371    84.089995 
   18500    1219.9152   -111.78433    1.1038049   -110.68053    10333.222    4.3846532    4.3846532    4.3846532    10333.222    45819.462    49260.477   -64080.272    3387.5742     82305.79    158.12136    84.295762 
   18600    2774.5367   -113.17181    2.5104591   -110.66135   -1837.3379    4.3910416    4.3910416    4.3910416   -1837.3379     14432.16    12096.062   -32040.236   -21992.827     -11319.3   -679.12512    84.664755 
   18700    2369.5679   -112.80661    2.1440348   -110.66258    17412.556    4.3815036    4.3815036    4.3815036    17412.556    19850.731    60999.703   -28612.767    4914.0554    22863.711    -12426.34     84.11424 
   18800    2137.6858   -112.61334    1.9342231   -110.67912   -7945.3707    4.3836607    4.3836607    4.3836607   -7945.3707   -40177.159    60121.752   -43780.704    9472.7505    48951.508    9367.2125    84.238536 
   18900    2485.0022   -112.91639    2.2484822    -110.6679   -13572.507    4.3967192    4.3967192    4.3967192   -13572.507   -42850.821   -10869.483    13002.784    4579.6808   -30685.728    1150.2814    84.993593 
   19000    1819.1963   -112.30907    1.6460471   -110.66303    -11435.24    4.4024592    4.4024592    4.4024592    -11435.24   -21486.955   -11649.488   -1169.2768    4063.6381    40194.529    6376.2028    85.326909 
   19100     1832.693   -112.30995    1.6582591   -110.65169   -4103.0277    4.3869263    4.3869263    4.3869263   -4103.0277   -30193.293    5210.0434    12674.167    44631.296    14822.665   -19174.144    84.426931 
   19200    1461.2687   -111.97922    1.3221866   -110.65703    16788.284    4.3609384    4.3609384    4.3609384    16788.284   -22905.588    35840.061     37430.38    937.11297    -27405.17   -777.69286    82.935384 
   19300    2143.0257   -112.61921    1.9390547   -110.68015    1754.3798     4.370941     4.370941     4.370941    1754.3798   -23676.748    15233.199    13706.688   -30225.382     10478.76    284.09019    83.507375 
   19400    1340.2391   -111.89545    1.2126765   -110.68277   -39241.747    4.4012968    4.4012968    4.4012968   -39241.747   -66402.124   -46148.822   -5174.2958    73011.534   -3024.6107   -11953.744    85.259342 
   19500    1922.5745   -112.40505    1.7395858   -110.66546   -35338.889    4.3976511    4.3976511    4.3976511   -35338.889   -57110.451   -46877.754   -2028.4622   -17797.371    -21543.02   -7532.9921    85.047647 
   19600    2013.1229   -112.47987    1.8215159   -110.65835    2528.8307    4.3852589    4.3852589    4.3852589    2528.8307   -23412.011   -2353.9194    33352.422   -6600.0119     17800.46   -4015.4839    84.330702 
   19700     1552.604    -112.0797    1.4048288   -110.67487   -12058.845    4.3809973    4.3809973    4.3809973   -12058.845   -53320.799   -25701.864    42846.128    90012.209    5229.6296    11674.711    84.085086 
   19800    2465.6085   -112.90377    2.2309344   -110.67284    145.31658    4.3688291    4.3688291    4.3688291    145.31658    -11310.42    16814.611   -5068.2409   -33180.223   -35382.454   -21775.146    83.386388 
   19900    2100.9429   -112.59688    1.9009773    -110.6959   -9521.2633    4.3738799    4.3738799    4.3738799   -9521.2633   -61563.374   -13108.464    46108.048    36131.132   -25665.638    4787.5844    83.675932 
   20000    2393.4707   -112.86769    2.1656626   -110.70203   -31066.832    4.3905569    4.3905569    4.3905569   -31066.832   -59422.085   -30167.068   -3611.3433    48934.297    19363.665   -6371.5088    84.636722 
   20100     1849.251   -112.36335    1.6732412   -110.69011    25377.819    4.3798333    4.3798333    4.3798333    25377.819    4093.4269    45845.574    26194.456   -18907.569    14904.694   -13444.228    84.018077 
   20200    1656.0266    -112.1971    1.4984077   -110.69869    3170.8234    4.3845479    4.3845479    4.3845479    3170.8234   -7923.1815   -32359.473    49795.125    42927.542   -14009.303    3053.2171    84.289689 
   20300      2115.84   -112.58805    1.9144565   -110.67359   -21778.948    4.3958883    4.3958883    4.3958883   -21778.948   -20325.571   -27528.796   -17482.477    3444.9877    11565.753    28074.249    84.945416 
   20400    1507.8737    -112.0376    1.3643559   -110.67325    25167.035    4.3689762    4.3689762    4.3689762    25167.035    20348.952    43383.608    11768.545    14449.201    10058.099   -8311.2423    83.394811 
   20500    1806.2113   -112.31819    1.6342979   -110.68389    8170.0714    4.3691462    4.3691462    4.3691462    8170.0714     36765.11   -31721.413    19466.518    32816.921   -24767.803    1805.4916     83.40455 
   20600    1940.0554   -112.44356    1.7554029   -110.68815   -21760.988    4.3832035    4.3832035    4.3832035   -21760.988   -16547.659   -20222.378   -28512.927   -18270.613    26796.617     32126.44    84.212178 
   20700    1793.2507   -112.31524    1.6225709   -110.69266    7280.2299    4.3863673    4.3863673    4.3863673    7280.2299    31459.508   -6950.7147   -2668.1036    20750.368     23331.55   -8299.3804    84.394661 
   20800    2295.6839   -112.75609    2.0771831   -110.67891    14832.303    4.3974933    4.3974933    4.3974933    14832.303    61292.892   -27581.476    10785.493    12644.351   -19532.134    9849.8914    85.038494 
   20900    2322.6063   -112.76483     2.101543   -110.66329   -36258.901    4.3968245    4.3968245    4.3968245   -36258.901   -37329.046   -42371.909   -29075.749   -14539.055    18639.894    14879.371    84.999698 
   21000    1819.0545   -112.31042    1.6459187    -110.6645    29581.165    4.3793269    4.3793269    4.3793269    29581.165    51371.395   -23747.422    61119.521    20353.797   -1494.0731   -40850.349    83.988941 
   21100    2333.6079    -112.7844    2.1114974    -110.6729    10516.889    4.3889123    4.3889123    4.3889123    10516.889    20970.751    25788.205    -15208.29   -10130.153    7614.4716    24768.271    84.541646 
   21200    1565.1118   -112.08973     1.416146   -110.67359   -7795.6848     4.403783     4.403783     4.403783   -7795.6848    -46117.82    55661.662   -32930.896   -3468.5186    27900.043    2806.4605    85.403908 
   21300      1456.52   -111.96678    1.3178899   -110.64889    11210.039     4.397325     4.397325     4.397325    11210.039     2837.222    6151.5703    24641.326    9876.9544   -525.54792   -47403.899    85.028732 
   21400    2051.7136   -112.49692    1.8564336   -110.64048    13305.219     4.383093     4.383093     4.383093    13305.219    26133.776    24686.012   -10904.131   -23091.964   -5284.6647    38170.426    84.205808 
   21500    1411.6662   -111.94694    1.2773053   -110.66964    22500.931     4.366411     4.366411     4.366411    22500.931    13309.205    47966.476    6227.1121   -9329.7298    27325.975   -2917.7924    83.248003 
   21600    1543.4185   -112.10651    1.3965175      -110.71    13141.201     4.373486     4.373486     4.373486    13141.201    13210.272    14971.151    11242.181    3532.1647    12322.167   -29726.944    83.653325 
   21700    2336.4165   -112.81084    2.1140387    -110.6968    11827.859    4.3950757    4.3950757    4.3950757    11827.859    -15310.46      47912.1    2881.9362   -22043.721   -19644.564    27134.994    84.898317 
   21800    1871.2655   -112.37074    1.6931603   -110.67758   -11285.527    4.4045026    4.4045026    4.4045026   -11285.527   -31899.068    36037.502   -37995.016     1286.399     31633.08   -31869.476    85.445776 
   21900    1552.1098   -112.06559    1.4043815   -110.66121   -24404.073    4.3981654    4.3981654    4.3981654   -24404.073   -48719.393    25181.696   -49674.521    6380.2712   -32355.179   -20108.858    85.077491 
   22000    2367.1866   -112.77809    2.1418802   -110.63621   -8142.6742    4.3753665    4.3753665    4.3753665   -8142.6742    -619.7328   -5369.9182   -18438.371    5778.7525   -13431.011    19928.318    83.761284 
   22100    1451.9434   -111.97923    1.3137489   -110.66548   -5370.4453    4.3678133    4.3678133    4.3678133   -5370.4453    36828.985   -24485.556   -28454.765   -4328.3286    34102.094   -69981.465    83.328238 
   22200    1976.0608   -112.48559    1.7879813   -110.69761   -19103.075    4.3657735    4.3657735    4.3657735   -19103.075    -47444.14    35993.403   -45858.487      2553.84   -28915.847   -15691.906    83.211546 
   22300    2353.7751   -112.83412    2.1297451   -110.70437    10587.671    4.3681151    4.3681151    4.3681151    10587.671   -34868.232    57747.459    8883.7862    6233.2454   -17841.986    16496.432    83.345512 
   22400    947.85903   -111.58983   0.85764277   -110.73219   -49984.104     4.385098     4.385098     4.385098   -49984.104   -5903.7481   -65343.298   -78705.266   -10644.063    19653.558   -49474.512     84.32142 
   22500    2161.1731   -112.65649    1.9554749   -110.70101   -20663.809    4.3749334    4.3749334    4.3749334   -20663.809   -41259.251    17797.692   -38529.869     6042.279   -2913.3616   -22663.242    83.736413 
   22600    2212.9317   -112.69986    2.0023071   -110.69755    11994.903    4.3673927    4.3673927    4.3673927    11994.903   -13121.838    82063.154   -32956.606   -4516.6759    2846.9251    9449.7103    83.304167 
   22700    1039.0512   -111.66566    0.9401554    -110.7255   -29381.494    4.3689682    4.3689682    4.3689682   -29381.494    7281.6391    10269.529   -105695.65   -10789.542    18360.164   -42431.313    83.394356 
   22800    1656.1961   -112.21428     1.498561   -110.71572    25613.707    4.3758045    4.3758045    4.3758045    25613.707   -30549.512    95261.304    12129.329    7701.2704   -1645.8767    10415.799    83.786438 
   22900    2037.7514   -112.53623    1.8438003   -110.69243   -4473.6915    4.3897957    4.3897957    4.3897957   -4473.6915   -40567.749    12188.666    14958.009    -1533.031   -23284.654   -4204.7402    84.592706 
   23000    1573.7202   -112.09974    1.4239351   -110.67581    9632.3729    4.3947464    4.3947464    4.3947464    9632.3729    17560.524    68774.706   -57438.111    3918.0117    22338.228   -29814.443    84.879233 
   23100    2525.1746   -112.93707     2.284831   -110.65224   -13133.418    4.3974895    4.3974895    4.3974895   -13133.418   -48690.494    33766.432   -24476.191    5073.5149   -19116.259    27126.382    85.038273 
   23200    2161.1108   -112.60581    1.9554185   -110.65039    8824.7982    4.3791387    4.3791387    4.3791387    8824.7982   -26424.835    41165.266    11733.964    6929.7282   -25911.611    -19821.66     83.97811 
   23300    2148.4939   -112.60183    1.9440024   -110.65783    42505.525    4.3608688    4.3608688    4.3608688    42505.525    46936.338    38396.267    42183.969    5483.0303    11515.648   -26299.732    82.931411 
   23400    1717.4095   -112.26334    1.5539482   -110.70939     6750.995    4.3768943    4.3768943    4.3768943     6750.995   -32617.827    47921.539    4949.2725   -2152.6659   -44204.243    15116.812    83.849056 
   23500    2106.8187   -112.59597    1.9062938   -110.68968    1396.9605    4.4007125    4.4007125    4.4007125    1396.9605   -28846.415   -30681.989    63719.286    2823.6042   -10007.716    -3951.248    85.225386 
   23600    2203.9417   -112.66548    1.9941728   -110.67131   -28290.798    4.4033848    4.4033848    4.4033848   -28290.798   -9022.0376       -40427   -35423.356   -4839.4808   -953.68939   -12459.055    85.380742 
   23700    1193.3213   -111.74616    1.0797422   -110.66642   -543.49999    4.3838178    4.3838178    4.3838178   -543.49999   -24391.556    41709.168   -18948.112   -5339.3275   -25047.111    16533.885    84.247589 
   23800    2616.2009   -113.02188    2.3671936   -110.65469    16452.601     4.356835     4.356835     4.356835    16452.601    35751.023   -14023.058    27629.837    15531.823    19244.924    39104.134    82.701492 
   23900    1842.4038   -112.36739    1.6670457   -110.70035    43284.108    4.3575227    4.3575227    4.3575227    43284.108    41102.656    7560.4749    81189.194   -8115.3573   -43428.894     -9754.18    82.740661 
   24000    1778.7528   -112.33708    1.6094529   -110.72763   -26341.459    4.3914059    4.3914059    4.3914059   -26341.459    1082.9603   -28825.914   -51281.423   -9197.8659   -26426.627    1346.4647    84.685831 
   24100    1970.6246   -112.47559    1.7830625   -110.69253   -14503.807    4.4009846    4.4009846    4.4009846   -14503.807    1702.5289   -75542.431    30328.483    16235.594    25416.456    49032.676    85.241201 
   24200    1943.0831   -112.43175    1.7581424   -110.67361    2275.7355    4.3787896    4.3787896    4.3787896    2275.7355   -5562.5708    2270.6402    10119.137   -3486.4064   -32790.175   -10438.401    83.958031 
   24300    1193.3791   -111.76111    1.0797945   -110.68132        19752    4.3678007    4.3678007    4.3678007        19752    15045.719     6183.625    38026.657   -12761.302   -40748.778   -13508.017    83.327518 
   24400    2339.4432   -112.80703    2.1167773   -110.69025   -9952.8418    4.3702212    4.3702212    4.3702212   -9952.8418    565.81058   -35384.395    4960.0592    506.77738    38718.638    45145.881    83.466128 
   24500    1264.0105   -111.85491    1.1437032    -110.7112    9616.3588    4.3791342    4.3791342    4.3791342    9616.3588   -12370.995    38441.911    2778.1598   -5396.3974   -17287.668   -12615.861     83.97785 
   24600    1884.7723   -112.41208    1.7053816    -110.7067     -21088.2      4.39654      4.39654      4.39654     -21088.2    -40255.18   -17156.497   -5852.9232   -14852.686   -29341.881   -27999.684      84.9832 
   24700     2956.238   -113.33266    2.6748663   -110.65779   -22453.634    4.3972434    4.3972434    4.3972434   -22453.634   -54800.849   -774.32048   -11785.732    8032.3046    19482.947    14071.844    85.023994 
   24800    1578.9475   -112.08537    1.4286649    -110.6567    1369.4786    4.3761633    4.3761633    4.3761633    1369.4786   -70056.269    84745.383   -10580.679   -14126.248   -41040.121   -11238.694    83.807051 
   24900     2040.225    -112.5121    1.8460385   -110.66606    13163.417    4.3769761    4.3769761    4.3769761    13163.417   -14195.112    18425.784    35259.578    1873.8418   -12676.531   -2557.3464    83.853758 
   25000    2369.9348   -112.81788    2.1443668   -110.67352   -9735.0269    4.3763491    4.3763491    4.3763491   -9735.0269   -8799.0963   -18092.535    -2313.449    17976.769   -776.88999    26998.962    83.817729 
   25100    1524.8578   -112.07186    1.3797234   -110.69214    35929.959    4.3627399    4.3627399    4.3627399    35929.959    -36909.53    46697.015    98002.392   -7632.0797   -35726.023    -12221.58    83.038208 
   25200    1923.8229   -112.44726    1.7407153   -110.70655   -23243.881    4.3748331    4.3748331    4.3748331   -23243.881   -15633.503   -30591.372   -23506.769    1306.8397   -8765.7608   -1758.1518     83.73065 
   25300    1556.4485    -112.1156    1.4083073   -110.70729   -4208.8244    4.3747883    4.3747883    4.3747883   -4208.8244     28141.17    -71096.85    30329.206    12115.166    2602.0599    22254.466     83.72808 
   25400    1689.3683   -112.23571     1.528576   -110.70714   -3663.3645    4.3739436    4.3739436    4.3739436   -3663.3645   -4405.8811   -46919.796    40335.583   -20468.295   -40167.776     9357.003    83.679591 
   25500    2037.1721   -112.54068    1.8432761   -110.69741   -12647.742    4.3779133    4.3779133    4.3779133   -12647.742    -39878.53   -4261.4376    6196.7403   -9299.7791    14859.656    5088.3823    83.907631 
   25600    1761.0176   -112.28693    1.5934057   -110.69352    23513.246    4.3655282    4.3655282    4.3655282    23513.246    40659.941      17771.6    12108.198    22987.698    21919.254    29328.124    83.197523 
   25700    1538.4044   -112.10556    1.3919806   -110.71358   -20295.823    4.3849554    4.3849554    4.3849554   -20295.823   -43132.635   -37297.086    19542.254   -17689.737   -36230.871   -12399.606    84.313197 
   25800    2300.5637   -112.76326    2.0815984   -110.68166    -24048.39    4.3971606    4.3971606    4.3971606    -24048.39   -47653.546    861.86109   -25353.484   -12537.536   -166.21932     6964.065    85.019192 
   25900    2127.3795   -112.58082    1.9248977   -110.65592     37920.68    4.3849385    4.3849385    4.3849385     37920.68    34698.624    66205.209    12858.208   -1174.3106    1548.9671    12981.856    84.312218 
   26000    1094.6519   -111.65587     0.990464   -110.66541    26564.795    4.4010164    4.4010164    4.4010164    26564.795     19334.15    44675.018    15685.218    -25460.48   -15355.455   -12469.862    85.243047 
   26100    2629.6764   -112.99379    2.3793864    -110.6144   -25844.837    4.4187761    4.4187761    4.4187761   -25844.837   -15379.968   -29141.559   -33012.983    7639.9268    19444.912    185.53532    86.279174 
   26200    1492.8431   -111.98814    1.3507558   -110.63739   -20630.808    4.3908397    4.3908397    4.3908397   -20630.808   -22930.986   -33908.111   -5053.3287   -26923.331   -22342.394     5078.393    84.653079 
   26300    1364.9342   -111.87309    1.2350212   -110.63807     26624.48     4.349512     4.349512     4.349512     26624.48    37205.169   -48656.761    91325.033   -6460.4279   -9433.0201    -4304.781    82.285174 
   26400    1884.7237   -112.37519    1.7053376   -110.66985    14182.357    4.3513079    4.3513079    4.3513079    14182.357   -9191.1306     17233.03    34505.171    8238.0282    4529.5609     9082.433    82.387145 
   26500    1419.3391   -111.99659    1.2842479   -110.71234     -6196.13    4.3708874    4.3708874    4.3708874     -6196.13   -46773.771    1594.9176    26590.464   -14382.507   -15683.353   -3058.7823    83.504305 
   26600    2252.6108   -112.74889    2.0382096   -110.71068    -9804.539    4.3870714    4.3870714    4.3870714    -9804.539   -23598.967   -58083.435    52268.785   -9568.1943    4364.3378    3853.7578    84.435312 
   26700    2688.5451   -113.12034    2.4326521   -110.68769     3005.071    4.3823988    4.3823988    4.3823988     3005.071   -22326.324       -10883    42224.537    18792.847   -29422.738    6941.5315    84.165804 
   26800    1233.5261   -111.81566    1.1161203   -110.69954    9281.0287    4.3622053    4.3622053    4.3622053    9281.0287   -47032.133    47658.814    27216.406   -10195.457   -24522.984     10325.56    83.007686 
   26900    2081.4464   -112.59228    1.8833364   -110.70895   -7308.3004    4.3688777    4.3688777    4.3688777   -7308.3004   -14405.702   -7089.1556   -430.04329   -15970.346    19783.853   -13254.318    83.389173 
   27000    2478.2784   -112.94098    2.2423984   -110.69859   -13777.619    4.3836789    4.3836789    4.3836789   -13777.619    -11092.67   -30848.348    608.16047    28049.071   -18441.088   -7059.2839    84.239585 
   27100    1845.9458    -112.3654    1.6702505   -110.69515   -7482.1335    4.3814264    4.3814264    4.3814264   -7482.1335   -55154.063     37187.54   -4479.8781    -18246.15   -17807.671    4508.8887    84.109795 
   27200    1822.5418   -112.33912    1.6490741   -110.69005   -14781.132    4.3798427    4.3798427    4.3798427   -14781.132   -53664.556    374.95874    8946.2002   -5889.8702    6585.5753   -16948.573    84.018621 
   27300    1950.3987   -112.46124    1.7647617   -110.69648   -28737.396     4.374082     4.374082     4.374082   -28737.396   -46577.106   -64302.952    24667.872    62794.014   -523.69085    1460.7449     83.68753 
   27400    2199.0524   -112.68288    1.9897488   -110.69313    27194.199    4.3615509    4.3615509    4.3615509    27194.199   -13110.528    55734.287    38958.838   -41663.412   -3722.4276    13359.459    82.970332 
   27500    1676.6663   -112.23651    1.5170829   -110.71943   -19372.512    4.3799647    4.3799647    4.3799647   -19372.512   -43984.249   -19112.211    4978.9232   -12759.764    15597.573   -7293.8057    84.025641 
   27600    1773.7111   -112.31344     1.604891   -110.70855   -33309.633    4.3906187    4.3906187    4.3906187   -33309.633   -45519.888   -62597.523    8188.5115    67911.776    -7708.881   -1277.1883    84.640296 
   27700    3198.1652   -113.57305    2.8937671   -110.67928   -9408.0722    4.3731123    4.3731123    4.3731123   -9408.0722   -17340.841    13544.324     -24427.7   -16806.655   -2452.1838   -12005.973    83.631884 
   27800    1919.0767   -112.44529    1.7364209   -110.70887    1872.9728    4.3629201    4.3629201    4.3629201    1872.9728   -38457.723    30796.725    13279.916    9847.2946    21339.538    6359.2789    83.048499 
   27900    1260.7991   -111.87434    1.1407975   -110.73354   -23410.346    4.3638029    4.3638029    4.3638029   -23410.346   -80273.745   -4552.3709    14595.077    50962.004   -6487.9717   -741.81549    83.098918 
   28000     2452.111   -112.94061    2.2187215   -110.72189    1835.7572     4.374093     4.374093     4.374093    1835.7572   -30263.188    87364.876   -51594.416   -21684.521   -43914.271    2015.1334    83.688163 
   28100    1834.4573    -112.3636    1.6598556   -110.70375   -23218.581    4.3948965    4.3948965    4.3948965   -23218.581   -75076.776   -2598.4913     8019.524    47140.418    18905.075   -8242.1855    84.887932 
   28200    1217.2613   -111.78752    1.1014036   -110.68612   -33357.432    4.3908345    4.3908345    4.3908345   -33357.432   -88798.351    15165.379   -26439.323    36281.839    -12590.53   -5427.6826    84.652774 
   28300    1716.6558   -112.23438    1.5532663   -110.68112   -19003.689     4.366685     4.366685     4.366685   -19003.689   -92144.544    57872.272   -22738.795   -30208.742   -48326.863    84.082203    83.263677 
   28400      2426.69   -112.86773    2.1957201   -110.67201    11177.799    4.3563623    4.3563623    4.3563623    11177.799   -39823.791     15581.26    57775.927    19624.169    11665.418    4205.0479    82.674575 
   28500    1730.0722   -112.27889    1.5654057   -110.71348   -22880.631    4.3695958    4.3695958    4.3695958   -22880.631   -50507.566   -10050.266   -8084.0609    20457.971   -23051.507   -10638.549    83.430297 
   28600    1235.7366    -111.8529    1.1181204   -110.73478   -29631.432    4.3825838    4.3825838    4.3825838   -29631.432   -72526.091    6098.5426   -22466.748   -14413.656   -11223.086   -15570.074    84.176465 
   28700     2828.363   -113.26183    2.5591623   -110.70267    292.83147    4.3776337    4.3776337    4.3776337    292.83147   -34269.932    43192.469   -8044.0426    5395.0393     35443.58    12744.954    83.891559 
   28800    2382.8911     -112.853    2.1560899   -110.69691    13153.858    4.3673186    4.3673186    4.3673186    13153.858    21512.531    27658.133   -9709.0893   -12553.994   -44750.085   -16468.695    83.299928 
   28900    1477.5552   -112.04555     1.336923   -110.70863    5196.7287    4.3665458    4.3665458    4.3665458    5196.7287   -35930.137    73505.953    -21985.63   -13121.657    10306.851   -18540.711    83.255715 
   29000    1694.1015   -112.23674    1.5328586   -110.70388   -12727.626      4.37621      4.37621      4.37621   -12727.626   -94544.666    35810.077    20551.709   -330.27804    30447.241    15333.033    83.809735 
   29100    1875.0622   -112.39153    1.6965957   -110.69494    -17033.01    4.3777582    4.3777582    4.3777582    -17033.01   -65901.046    12374.529    2427.4865    3120.5351   -16978.625   -17360.993    83.898713 
   29200    1507.3003   -112.06588     1.363837   -110.70204   -16770.454    4.3640945    4.3640945    4.3640945   -16770.454   -56862.518    33735.116    -27183.96   -3196.0272     24375.89   -51488.463    83.115582 
   29300    1607.8811   -112.17162    1.4548446   -110.71678   -1675.3368    4.3543784    4.3543784    4.3543784   -1675.3368   -47507.525    28572.726    13908.788    1405.1246    27734.241    14760.192    82.561676 
   29400    1946.5055   -112.49056    1.7612391   -110.72932    4833.1387    4.3608002    4.3608002    4.3608002    4833.1387   -699.36717   -770.11179    15968.895   -5117.2505    -24164.33    6823.4116    82.927497 
   29500    1317.6645   -111.92947    1.1922505   -110.73722   -20484.358    4.3782059    4.3782059    4.3782059   -20484.358    8008.7016    376.28822   -69838.063    9009.0376    15915.363   -68952.382    83.924458 
   29600    2424.5243   -112.90001    2.1937605   -110.70625   -13858.261    4.3821182    4.3821182    4.3821182   -13858.261   -28915.531     10055.66   -22714.912   -4720.3723     34924.22    5275.6272    84.149639 
   29700    2587.4683   -113.02528    2.3411957   -110.68408     11296.49    4.3725036    4.3725036    4.3725036     11296.49    24911.339    14392.439   -5414.3064   -8505.2203   -4165.8759   -20626.643    83.596967 
   29800    1223.9294   -111.80691    1.1074371   -110.69947    2678.1474    4.3690332    4.3690332    4.3690332    2678.1474    60883.117    -7758.747   -45089.928    7258.4299    23925.821   -62663.904    83.398074 
   29900    1797.1804   -112.32105    1.6261266   -110.69492   -1719.2961    4.3710475    4.3710475    4.3710475   -1719.2961    5511.4675   -45.884863   -10623.471    1283.2886    10719.595    21218.077    83.513479 
   30000    1950.4118   -112.45753    1.7647736   -110.69276    17004.647    4.3752225    4.3752225    4.3752225    17004.647    55492.935    7920.6084   -12399.601    -2546.092   -28717.935    -7211.786    83.753009 
   30100    1916.7291   -112.42776    1.7342968   -110.69346   -17287.193    4.3827227    4.3827227    4.3827227   -17287.193   -34775.522    35823.173   -52909.232   -12160.402    57002.421   -20842.855     84.18447 
   30200    2063.8202   -112.55678    1.8673879   -110.68939    -2647.941    4.3696044    4.3696044    4.3696044    -2647.941   -45014.254    49754.423   -12683.992    323.20948    28548.138    3221.6327     83.43079 
   30300    2435.8849   -112.88331    2.2040399   -110.67927    27239.065    4.3549354    4.3549354    4.3549354    27239.065    43812.119    12560.567    25344.509     10239.28   -41556.007    2083.4116    82.593363 
   30400    1538.5032    -112.1081    1.3920701   -110.71603   -9234.4425    4.3641612    4.3641612    4.3641612   -9234.4425   -43514.169    34572.496   -18761.654    11836.739    68033.668   -7202.8489    83.119392 
   30500    2574.1518   -113.03273    2.3291466   -110.70358    4957.5197    4.3798789    4.3798789    4.3798789    4957.5197    -21747.53     28301.17    8318.9196   -9068.1499    18435.569    7081.1482    84.020703 
   30600    2258.9703   -112.73168    2.0439638   -110.68772   -23017.685    4.3937605    4.3937605    4.3937605   -23017.685   -51297.541   -2371.7982   -15383.716   -6588.2254    4643.5966    6347.8099    84.822122 
   30700    1238.7471   -111.79375    1.1208444   -110.67291   -34605.143    4.3853823    4.3853823    4.3853823   -34605.143   -59637.466    25556.152   -69734.115    16724.584    71350.484   -26599.506    84.337819 
   30800    2393.1404   -112.80062    2.1653637   -110.63525    7450.5014    4.3676288    4.3676288    4.3676288    7450.5014    20148.834   -3990.4013    6193.0717    2244.6915   -24871.422   -4891.2613    83.317681 
   30900    1147.6931   -111.70195    1.0384568   -110.66349   -26728.242    4.3758738    4.3758738    4.3758738   -26728.242   -58776.713   -484.31816   -20923.696    5653.0222    46301.063    9761.2977     83.79042 
   31000    1907.4416   -112.39106    1.7258933   -110.66517   -30892.222     4.374782     4.374782     4.374782   -30892.222    -14346.39   -43480.483   -34849.795    7266.6705    16201.301   -21491.989    83.727719 
   31100    2058.1842   -112.53146    1.8622883   -110.66917   -22192.448    4.3689808    4.3689808    4.3689808   -22192.448     28137.45   -63036.827   -31677.968   -13688.322   -12452.997    9124.5527    83.395073 
   31200    917.09338   -111.52953   0.82980536   -110.69972   -14736.517    4.3724166    4.3724166    4.3724166   -14736.517   -41589.468   -15376.386    12756.303    15597.678    45284.987    22255.056     83.59198 
   31300    2331.0956   -112.80059    2.1092243   -110.69136   -2184.9294    4.3731516    4.3731516    4.3731516   -2184.9294   -24967.333    1563.5618    16848.983    11277.235    4651.6082   -2855.2288    83.634138 
   31400    2430.9648   -112.89141     2.199588   -110.69182    29302.759    4.3620606    4.3620606    4.3620606    29302.759   -13601.195    31174.727    70334.746   -17330.287   -294.66802    7547.1166    82.999426 
   31500    1170.4417   -111.77918    1.0590402   -110.72014    268.23677    4.3700543    4.3700543    4.3700543    268.23677    -41525.82    19005.065    23325.465    14912.369    38983.594    13354.778    83.456565 
   31600    2854.1785   -113.25856    2.5825207   -110.67604   -11997.824    4.3773328    4.3773328    4.3773328   -11997.824   -30504.195   -28666.593    23177.317    17352.791   -17772.892   -8990.9014    83.874261 
   31700    2219.6938   -112.67831    2.0084256   -110.66988    37060.771    4.3681285    4.3681285    4.3681285    37060.771    680.29526    35820.976    74681.043   -24237.567    34783.901   -6446.2104     83.34628 
   31800    1909.2728   -112.40566    1.7275502   -110.67811    243.60903    4.3784099    4.3784099    4.3784099    243.60903    2152.4092   -6134.5414    4712.9593    16601.047    18291.899    9424.3532    83.936191 
   31900    1725.8485   -112.23987     1.561584   -110.67828   -15846.707    4.3702333    4.3702333    4.3702333   -15846.707    26154.726   -44716.047     -28978.8   -833.25064   -10382.795   -11085.602    83.466818 
   32000    1865.9114   -112.36248    1.6883158   -110.67417    34571.158    4.3458988    4.3458988    4.3458988    34571.158    45398.083     49098.58    9216.8112   -29460.873    17151.652   -17432.443     82.08028 
   32100       1400.9    -111.9714    1.2675638   -110.70384   -8265.6347    4.3669236    4.3669236    4.3669236   -8265.6347    18200.089   -17571.977   -25425.016    10863.098    10367.794    40596.715    83.277326 
   32200    1083.3794   -111.67589   0.98026448   -110.69562   -29952.064    4.3833813    4.3833813    4.3833813   -29952.064    35291.022   -76186.646   -48960.567    11763.093   -4037.5123   -8275.5294    84.222426 
   32300    2334.8811   -112.77532    2.1126495   -110.66267    13081.564    4.3672871    4.3672871    4.3672871    13081.564    62665.191    -9735.318   -13685.179   -5308.0073    -5315.475   -19351.345    83.298123 
   32400    1584.6842    -112.1155    1.4338555   -110.68164   -19600.027    4.3670505    4.3670505    4.3670505   -19600.027    38583.246   -76126.529   -21256.797    18143.032    12277.101    56878.511    83.284588 
   32500    1875.8506   -112.38465    1.6973091   -110.68734   -5638.0992    4.3629035    4.3629035    4.3629035   -5638.0992    12758.435   -33025.235    3352.5023    13810.033    12422.921     -2514.91    83.047551 
   32600    2568.7974   -113.00677    2.3243019   -110.68247    29825.028    4.3531328    4.3531328    4.3531328    29825.028    27586.744    19675.194    42213.146   -7171.4061   -44764.917   -22054.858    82.490842 
   32700    1858.0159   -112.39225    1.6811718   -110.71108   -12614.304    4.3715831    4.3715831    4.3715831   -12614.304     5913.349   -66983.374    23227.112    16103.033   -210.25826    42459.104    83.544184 
   32800    2419.5995   -112.87556    2.1893045   -110.68626   -7771.8053    4.3748118    4.3748118    4.3748118   -7771.8053   -27743.322   -23892.268    28320.174    22687.837   -411.32969     17042.12     83.72943 
   32900    2266.6349   -112.72776    2.0508989   -110.67686    16963.339    4.3597009    4.3597009    4.3597009    16963.339   -24873.072    45444.244    30318.846   -1419.8309   -62329.605   -8168.9972    82.864798 
   33000    1818.5509   -112.33099     1.645463   -110.68553    -6264.877     4.370661     4.370661     4.370661    -6264.877     13213.97   -48205.385    16196.784    27066.826    15125.151    45231.141    83.491327 
   33100    1751.5695   -112.25647    1.5848569   -110.67162   -13448.632    4.3775905    4.3775905    4.3775905   -13448.632   -49694.087   -1124.5994     10472.79    12560.743   -27040.408   -7727.0066    83.889071 
   33200     1640.563    -112.1469    1.4844159   -110.66248   -733.11294    4.3719926    4.3719926    4.3719926   -733.11294   -15643.824    5688.8549    7755.6302   -7112.7344   -49302.953   -3011.9166     83.56766 
   33300    1644.5948   -112.15496    1.4880639    -110.6669   -24173.381    4.3737404    4.3737404    4.3737404   -24173.381    18055.358   -89907.801   -667.69888    8518.2261    27991.434    47779.133    83.667929 
   33400    1419.8418   -111.96013    1.2847027   -110.67543   -18749.446    4.3619518    4.3619518    4.3619518   -18749.446   -22090.595   -21301.613   -12856.131    21134.269   -68648.255   -8092.9179    82.993213 
   33500    1830.6716     -112.334    1.6564301   -110.67757    12866.918    4.3578849    4.3578849    4.3578849    12866.918    49691.038   -5499.1826   -5591.1012   -1814.3472   -13201.028    16787.975    82.761294 
   33600    1409.0924   -111.97463    1.2749764   -110.69965   -15081.804    4.3783023    4.3783023    4.3783023   -15081.804    24602.376   -37003.803   -32843.986     1440.191    24373.525    34300.202    83.930002 
   33700    2471.6434   -112.89874    2.2363949   -110.66235    7256.5174    4.3815207    4.3815207    4.3815207    7256.5174   -24380.932    30907.402    15243.083    11389.206   -33598.837   -23893.085    84.115223 
   33800    1854.1116   -112.34116    1.6776392   -110.66352    263.83643    4.3753756    4.3753756    4.3753756    263.83643     8505.406   -845.86633   -6868.0304    129.66453    -735.1517    42218.633    83.761801 
   33900    1560.0447   -112.08509    1.4115612   -110.67353    11810.974    4.3720635    4.3720635    4.3720635    11810.974    15511.528   -16095.644    36017.039   -6558.6436    27963.582   -7230.9258    83.571727 
   34000    2852.1203   -113.23577    2.5806584   -110.65511   -2015.2011    4.3715818    4.3715818    4.3715818   -2015.2011   -13224.147    12893.569   -5715.0256    1370.2922     14843.88    2152.3807    83.544108 
   34100    1289.3582    -111.8476    1.1666384   -110.68096    -31971.97    4.3782948    4.3782948    4.3782948    -31971.97    9575.6886   -64176.759    -41314.84    -4404.639   -11663.151    38465.469    83.929572 
   34200    1741.2578   -112.23952    1.5755267   -110.66399   -24661.127    4.3840195    4.3840195    4.3840195   -24661.127    1395.9506   -30609.193    -44770.14     -11941.6    21192.392   -17744.592    84.259222 
   34300    1652.3098   -112.15204    1.4950447   -110.65699    2608.5593    4.3843989    4.3843989    4.3843989    2608.5593    9273.1488   -4434.9904    2987.5193    29591.027    5705.7922    20857.269      84.2811 
   34400    1261.1174   -111.80199    1.1410855    -110.6609    18283.536    4.3822301    4.3822301    4.3822301    18283.536    27062.161   -3032.8463    30821.294    -6428.489    8087.2692    9067.4606    84.156088 
   34500    2819.7202   -113.19851    2.5513421   -110.64717    19230.897    4.3759427    4.3759427    4.3759427    19230.897    15675.189    1861.9396    40155.563   -6247.7426    11198.057   -9685.4855    83.794378 
   34600    1729.3909   -112.24515    1.5647893   -110.68036    8923.3005    4.3662762    4.3662762    4.3662762    8923.3005    -2330.247    1412.0044    27688.144    23183.099   -12740.941     24063.43    83.240295 
   34700    1981.7536   -112.48337    1.7931323   -110.69024   -5768.9444    4.3736365    4.3736365    4.3736365   -5768.9444   -43531.447   -22191.685    48416.299   -14277.277   -9516.6491    9699.0709    83.661965 
   34800    2690.3731   -113.10392    2.4343061   -110.66961   -802.25718      4.37707      4.37707      4.37707   -802.25718   -17955.592   -9911.4539    25460.274    933.68326   -5784.2928   -31294.641    83.859153 
   34900    1215.0899   -111.78954    1.0994389   -110.69011   -9220.2507    4.3739381    4.3739381    4.3739381   -9220.2507     459.7619    -52889.41    24768.896    15877.728    10774.523    17188.979    83.679275 
   35000    2482.8511   -112.91497    2.2465359   -110.66843    16051.398    4.3661999    4.3661999    4.3661999    16051.398   -14600.882   -18209.595    80964.671    2256.3172   -5912.8346    10986.075    83.235931 
[...]
   91200    1031.9012   -111.62753   0.93368586   -110.69384   -53143.161    4.3968047    4.3968047    4.3968047   -53143.161    -52577.88    12994.411   -119846.01   -9798.7799    64905.139   -36240.817    84.998552 
   91300    3189.8931   -113.50191    2.8862823   -110.61563   -21990.109     4.402224     4.402224     4.402224   -21990.109   -21795.154   -14199.475   -29975.698    4461.1875   -27544.213    10188.885    85.313234 
   91400    1188.7783    -111.6918    1.0756316   -110.61616   -45652.743    4.4184385    4.4184385    4.4184385   -45652.743   -56719.421    4008.8285   -84247.637   -19170.125    68985.131   -5342.8883    86.259402 
   91500    2641.2628    -112.9575    2.3898701   -110.56763   -25790.217    4.3935782    4.3935782    4.3935782   -25790.217    9189.3593   -64871.113   -21688.899   -16396.903   -20612.213   -42552.824    84.811565 
   91600    1292.3397   -111.73338    1.1693361   -110.56405    56771.645    4.3565395    4.3565395    4.3565395    56771.645    12544.394    90327.561     67442.98    1344.8941    96182.939    9137.9818    82.684667 
   91700    2090.6067   -112.52223    1.8916249   -110.63061    3684.2983    4.3868557    4.3868557    4.3868557    3684.2983    53516.155   -14258.367   -28204.892     12940.79   -515.73233   -7493.4609     84.42286 
   91800     1679.843   -112.13961    1.5199572   -110.61966   -4939.9321    4.4001748    4.4001748    4.4001748   -4939.9321   -22106.075    45460.269   -38173.991    2209.8592    33784.612    -14420.82    85.194153 
   91900    1938.2323   -112.35811    1.7537533   -110.60436    28570.107    4.3901298    4.3901298    4.3901298    28570.107    39588.938    12970.844    33150.541   -17174.809    36655.847    7564.1643    84.612023 
   92000     2037.225   -112.44444     1.843324   -110.60111   -46460.595    4.4151928    4.4151928    4.4151928   -46460.595    -53987.22   -16528.331   -68866.234   -1881.1395    11070.529    23406.239    86.069449 
   92100    1434.0421   -111.87739    1.2975514   -110.57984    -26853.96    4.4092319    4.4092319    4.4092319    -26853.96   -74177.256    33187.983   -39572.607    6518.0226    68460.345   -2839.4293    85.721314 
   92200    2900.0768   -113.17408    2.6240504   -110.55002    -3683.468    4.3868943    4.3868943    4.3868943    -3683.468    33473.318    -38281.16   -6242.5616   -5923.0147   -22970.374   -3135.0373    84.425084 
   92300    600.78496   -111.16585   0.54360286   -110.62225   -9353.0809    4.3794427    4.3794427    4.3794427   -9353.0809     14890.54    31276.012   -74225.795   -6937.6758    85035.743    19650.061      83.9956 
   92400     2513.845   -112.90804    2.2745798   -110.63346    9531.2668    4.3717381    4.3717381    4.3717381    9531.2668    46949.496   -32788.678    14432.982    15606.889   -7195.6545   -1396.2761    83.553068 
   92500    1544.5628   -112.07566    1.3975528   -110.67811   -27929.663    4.3829317    4.3829317    4.3829317   -27929.663   -69709.341    27506.658   -41586.306   -16886.923    26275.018    1542.3868    84.196511 
   92600    1327.3125   -111.88542    1.2009802   -110.68444   -30615.445    4.3755398    4.3755398    4.3755398   -30615.445   -41507.287    15816.431   -66155.481   -7022.7411    54628.189    14929.478    83.771232 
   92700    2870.7306   -113.25619    2.5974974   -110.65869    37288.733    4.3662313    4.3662313    4.3662313    37288.733    92114.656   -17528.858    37280.403    5715.2628    -15588.94    3819.2825    83.237728 
   92800    1008.5702   -111.61794   0.91257551   -110.70536   -25059.431    4.3822123    4.3822123    4.3822123   -25059.431   -52380.789    59578.365   -82375.869   -2958.3026    92294.226    2283.4125     84.15506 
   92900    2313.1795   -112.74982    2.0930135   -110.65681    3853.5509    4.3870761    4.3870761    4.3870761    3853.5509    28033.588    5049.9681   -21522.903     8466.603   -30198.116   -7129.2835    84.435581 
   93000    1704.9619    -112.1855    1.5426854   -110.64282   -32336.887    4.4031708    4.4031708    4.4031708   -32336.887   -40100.512    4937.2073   -61847.357   -7299.6593    71514.291    6337.2955    85.368293 
   93100    1537.0781   -112.01149    1.3907805    -110.6207       -18650    4.3949331    4.3949331    4.3949331       -18650    50612.217   -18686.643   -87875.573    4035.1254     22979.34   -2764.3842    84.890053 
   93200    2735.8659   -113.06736     2.475469   -110.59189    20689.432    4.3642741    4.3642741    4.3642741    20689.432    36233.493    -11930.65    37765.452    15139.997    412.59129   -2085.6594     83.12584 
   93300    1116.4365   -111.67204    1.0101752   -110.66186   -10347.884    4.3627891    4.3627891    4.3627891   -10347.884   -31340.554    26714.997   -26418.095   -1094.1714    94103.508    11649.092    83.041019 
   93400    2510.3776   -112.92987    2.2714424   -110.65843    12187.037    4.3775439    4.3775439    4.3775439    12187.037     30112.01    -46456.05     52905.15   -1202.6033   -33543.686    21621.078    83.886393 
   93500    1245.7851   -111.81316    1.1272125   -110.68595   -27207.501    4.4089386    4.4089386    4.4089386   -27207.501   -75747.251    48485.097   -54360.348   -1825.4342    92058.588    6068.3179     85.70421 
   93600    2912.7975   -113.22986    2.6355604    -110.5943   -47343.514    4.4173036    4.4173036    4.4173036   -47343.514   -57115.825   -65828.292   -19086.424    14648.744   -29849.458   -11005.415     86.19295 
   93700    1037.6899   -111.51556   0.93892366   -110.57663    9956.4052      4.38333      4.38333      4.38333    9956.4052   -2792.2404    88744.666    -56083.21   -14609.704    78662.278    7642.2743    84.219469 
   93800     2058.095   -112.42918    1.8622076   -110.56698    24556.608    4.3627668    4.3627668    4.3627668    24556.608    53977.612    54160.368   -34468.158   -6330.2267    3208.4163   -16511.781    83.039745 
   93900    2045.1963   -112.46651    1.8505366   -110.61598   -13046.219    4.3752414    4.3752414    4.3752414   -13046.219    5293.1942   -5872.6637   -38559.188   -6876.5067    35914.283   -4909.6457    83.754097 
   94000    1343.1879   -111.88149    1.2153446   -110.66615   -19338.163    4.3873621    4.3873621    4.3873621   -19338.163    7540.8164    5281.9148   -70837.219    2470.8543    77093.264    15004.204    84.452096 
   94100    2515.6443   -112.91851    2.2762078    -110.6423    587.47041    4.3882348    4.3882348    4.3882348    587.47041     40291.64   -28305.598   -10223.631    6458.5015   -25499.857     2463.204      84.5025 
   94200    1610.9059   -112.11271    1.4575815   -110.65513    10792.085    4.3743472    4.3743472    4.3743472    10792.085   -47157.627    51117.013    28416.871   -8364.2855    92042.864   -13508.099    83.702756 
   94300    2462.0473   -112.87954    2.2277122   -110.65183    24158.737    4.3659903    4.3659903    4.3659903    24158.737    5323.6371   -10865.449    78018.021    -577.8625    2470.8537    4946.0059    83.223944 
   94400    1258.6809    -111.8244    1.1388809   -110.68552   -16432.847    4.3777685    4.3777685    4.3777685   -16432.847   -37109.666   -34211.982    22023.107    17002.472     10321.08   -2177.6763    83.899307 
   94500    1272.9931   -111.84774    1.1518309   -110.69591   -29163.719    4.3770296    4.3770296    4.3770296   -29163.719   -28050.206    -1206.429   -58234.523   -155.16096    62762.303   -16415.083    83.856832 
   94600    2609.2953   -113.03037    2.3609452   -110.66942    22869.782    4.3644384    4.3644384    4.3644384    22869.782    28887.066    31708.381    8013.8994   -7555.6229   -43873.724    4073.6064    83.135228 
   94700    1564.7175   -112.10412    1.4157893   -110.68833     9541.673    4.3777977    4.3777977    4.3777977     9541.673    19295.408    44712.695   -35383.084    29802.156    53595.407   -8085.3272    83.900988 
   94800    2063.1592   -112.52466    1.8667898   -110.65787   -27867.625    4.3986204    4.3986204    4.3986204   -27867.625    39143.379   -71350.855     -51395.4   -39094.833    8862.1476    368.25243    85.103899 
   94900    1762.4955   -112.22909     1.594743   -110.63434   -28293.304    4.3971089    4.3971089    4.3971089   -28293.304    -46065.21   -35489.796   -3324.9078    -17808.35    -18529.91    7034.4779    85.016193 
   95000    1888.0972   -112.32859      1.70839    -110.6202   -17214.051    4.3869079    4.3869079    4.3869079   -17214.051   -18703.851   -8108.4877   -24829.815    18912.812    18578.089   -1672.2126    84.425871 
   95100    1399.2692   -111.91266    1.2660882   -110.64657   -15191.837    4.3702189    4.3702189    4.3702189   -15191.837   -44159.245   -54674.484    53258.218   -101878.29    8494.3614   -16140.548    83.465996 
   95200    3112.0225   -113.46491    2.8158234   -110.64909    34837.974    4.3421441    4.3421441    4.3421441    34837.974    56712.481    22672.954    25128.486    21750.456   -13025.084     11611.63    81.867722 
   95300    1518.6554   -112.09624    1.3741113   -110.72213   -9912.3792    4.3572141    4.3572141    4.3572141   -9912.3792   -19488.815   -58420.027    48171.704     -68371.1   -12743.374   -17985.593    82.723082 
   95400    1348.2306   -111.93878    1.2199074   -110.71887   -22686.858    4.3767499    4.3767499    4.3767499   -22686.858   -28467.924    -59943.08    20350.429   -48495.057    29464.644   -7684.8238    83.840757 
   95500    2451.3747   -112.89744    2.2180554   -110.67938   -16061.483     4.391068     4.391068     4.391068   -16061.483   -98.490249    -49253.98    1168.0225    30730.423   -480.30926   -2015.8121     84.66628 
   95600    1294.5311   -111.83255    1.1713189   -110.66123   -22258.954     4.397395     4.397395     4.397395   -22258.954   -51887.583   -86615.741    71726.464   -86780.371   -18984.561    8440.8339    85.032794 
   95700    2211.5545    -112.6226     2.001061   -110.62154    11763.915    4.3743303    4.3743303    4.3743303    11763.915    503.47253    24409.262    10379.009    19303.871     2227.879   -11267.584    83.701782 
   95800    1678.0946   -112.15097    1.5183753    -110.6326   -14760.409    4.3595783    4.3595783    4.3595783   -14760.409   -78624.647   -7563.0323    41906.452   -55927.645    15500.823    5856.5044    82.857807 
   95900    1445.8619   -111.98194    1.3082462    -110.6737   -7298.1021     4.369456     4.369456     4.369456   -7298.1021   -62766.525   -6967.1692    47839.388   -19771.612   -28729.435   -3166.0437    83.422288 
   96000    2428.2216   -112.85789    2.1971059   -110.66079   -31740.339    4.3885367    4.3885367    4.3885367   -31740.339   -14283.257   -34887.072   -46050.687    11014.926   -1036.0526   -38872.424    84.519945 
   96100    1771.7675    -112.2573    1.6031324   -110.65417   -15771.644    4.3871512    4.3871512    4.3871512   -15771.644   -41534.545   -41485.201    35704.814   -66463.615    5089.6071    3330.9899    84.439919 
   96200    2007.8999   -112.44977      1.81679   -110.63298    10303.572     4.379805     4.379805     4.379805    10303.572    1651.6387   -5784.2591    35043.337    24037.767    -61233.55    153.89382     84.01645 
   96300    1577.9322   -112.07855    1.4277462   -110.65081   -17644.218    4.3844117    4.3844117    4.3844117   -17644.218    23776.399   -71349.103   -5359.9518   -27562.089    11531.328   -41683.899    84.281837 
   96400    2134.0056     -112.572    1.9308931   -110.64111   -29382.074    4.3847768    4.3847768    4.3847768   -29382.074   -45341.243   -26482.361   -16322.619   -24379.312   -13817.261    24853.908    84.302895 
   96500    2010.6862   -112.46332    1.8193111   -110.64401   -2010.3666    4.3764786    4.3764786    4.3764786   -2010.3666    -23993.82    49509.127   -31546.407    10778.098   -52788.337   -10022.852    83.825167 
   96600    2560.0312   -112.96085      2.31637   -110.64448   -421.41635    4.3689511    4.3689511    4.3689511   -421.41635    17473.518   -26422.278    7684.5111   -35157.549    34471.199   -31572.857    83.393376 
   96700    1531.8248   -112.05989    1.3860273   -110.67386    6017.7931    4.3628616    4.3628616    4.3628616    6017.7931    3726.2029    20631.651   -6304.4751   -21200.312   -54780.107    27429.991    83.045154 
   96800    2009.8284    -112.5123     1.818535   -110.69376    9112.9098    4.3683076    4.3683076    4.3683076    9112.9098   -4284.5387    35921.443   -4298.1748    15028.943   -34241.852   -1923.7166     83.35653 
   96900    2152.6701   -112.63585    1.9477812   -110.68807   -3041.2798    4.3752786    4.3752786    4.3752786   -3041.2798   -20675.639   -12952.638    24504.438   -22883.813     19419.07   -22528.203    83.756232 
   97000    1226.4783   -111.80388    1.1097433   -110.69414   -23719.482    4.3662417    4.3662417    4.3662417   -23719.482   -54682.306    19179.812   -35655.953   -31687.601   -81024.049     2304.921     83.23832 
   97100    2505.5403   -112.94842    2.2670655   -110.68136    10019.061    4.3624325    4.3624325    4.3624325    10019.061    38373.217    18576.574   -26892.608    17836.899    17919.117    5899.1038    83.020657 
   97200    1682.8127   -112.21282    1.5226443   -110.69018    -30149.12    4.3793751    4.3793751    4.3793751    -30149.12   -53258.975   -3744.0806   -33444.305   -14473.073     -45043.2   -7876.5819    83.991714 
   97300    1356.6248   -111.91477    1.2275026   -110.68727   -27071.271    4.3782754    4.3782754    4.3782754   -27071.271   -70635.943    24412.431   -34990.301   -36738.357   -70542.241   -3958.6794    83.928457 
   97400    2713.5725   -113.09911    2.4552975   -110.64381   -11765.599    4.3829905    4.3829905    4.3829905   -11765.599    8644.0945   -36173.104   -7767.7885    14230.156    24337.548    591.78461      84.1999 
   97500    564.95306   -111.16283    0.5111814   -110.65165   -20829.402    4.3940724    4.3940724    4.3940724   -20829.402   -3502.9245   -810.11455   -58175.168    560.89468   -109481.86   -13946.138    84.840186 
   97600    2718.5249   -113.06757    2.4597784   -110.60779    19611.602    4.3816028    4.3816028    4.3816028    19611.602     15873.84    33034.952    9926.0125    1254.0206    20893.389    19635.687    84.119951 
   97700    1450.7657   -111.94496    1.3126833   -110.63227   -6748.1286    4.3746646    4.3746646    4.3746646   -6748.1286   -6921.0364    22578.284   -35901.633   -6131.1897   -71535.223   -23332.237    83.720978 
   97800    1776.6237   -112.25513    1.6075264    -110.6476   -7387.8395    4.3742899    4.3742899    4.3742899   -7387.8395    1824.5216   -15934.288   -8053.7519   -1736.3012   -22642.562   -23820.266    83.699468 
   97900    2162.2678   -112.60935    1.9564653   -110.65289   -16249.004    4.3727112    4.3727112    4.3727112   -16249.004   -9004.5959    -13765.39   -25977.026   -5119.6998   -7172.5223    33098.783    83.608877 
   98000    1420.1787    -111.9608    1.2850076   -110.67579   -14.206964    4.3749691    4.3749691    4.3749691   -14.206964   -36038.216    69621.631   -33626.035    9474.7842   -66231.156   -8234.8745    83.738458 
   98100    2878.7646   -113.26075    2.6047667   -110.65599    2259.2223    4.3716301    4.3716301    4.3716301    2259.2223    26254.437   -25713.171    6236.4004   -26311.081    27796.678    -44770.89    83.546876 
   98200    1255.3434   -111.81878     1.135861   -110.68291   -17865.746    4.3681222    4.3681222    4.3681222   -17865.746   -27050.027    57856.571   -84403.782   -166.35862   -81690.112    49503.281    83.345919 
   98300    1702.5726   -112.23402    1.5405234   -110.69349   -13276.828    4.3739288    4.3739288    4.3739288   -13276.828   -21261.278    63405.537   -81974.744     532.7948   -28460.183    4643.2276    83.678738 
   98400    2790.1174   -113.19532    2.5245569   -110.67076    5312.0205    4.3664921    4.3664921    4.3664921    5312.0205    10406.424    4730.9271    798.70984   -8582.0455    18688.438     -11500.3    83.252642 
   98500    912.65902   -111.51868   0.82579306   -110.69289    -22359.63    4.3690822    4.3690822    4.3690822    -22359.63    607.21989    17469.429   -85155.541    5258.2563   -87423.638    49615.288    83.400883 
   98600     2407.038   -112.85306    2.1779386   -110.67512    4091.7349     4.370713     4.370713     4.370713    4091.7349   -5553.2351    32412.843   -14584.403    -17754.67    28300.922    4469.6239    83.494309 
   98700    1918.0393   -112.41332    1.7354823   -110.67784    30968.951    4.3665967    4.3665967    4.3665967    30968.951    70588.238    58574.275    -36255.66    286.98352   -31024.205   -7106.1772    83.258626 
   98800    1451.7747   -111.99946    1.3135963   -110.68586   -501.98098    4.3775997    4.3775997    4.3775997   -501.98098    61712.099    8343.0326   -71561.075    2906.1925   -37330.417    28723.486    83.889601 
   98900    2814.7645      -113.19    2.5468581   -110.64314   -4809.9642    4.3842431    4.3842431    4.3842431   -4809.9642   -9767.1507   -2885.5898   -1777.1522   -7101.8745    15657.938   -11741.215    84.272115 
   99000    1556.0782   -112.05902    1.4079722   -110.65105    14709.774    4.3734981    4.3734981    4.3734981    14709.774    38619.319    56417.777   -50907.775     1176.448   -54818.302      16091.5    83.654021 
   99100     1776.338   -112.26707    1.6072679    -110.6598    5401.2073     4.369462     4.369462     4.369462    5401.2073    70703.596   -40410.672   -14089.302   -709.30495   -1696.7727     51744.59    83.422637 
   99200    2160.7613   -112.61431    1.9551023   -110.65921   -146.42727    4.3627956    4.3627956    4.3627956   -146.42727    -31357.42    26530.207    4387.9312    5152.5963    7693.5179   -11429.198    83.041388 
   99300    1551.3486   -112.07834    1.4036928   -110.67465    21229.696    4.3556893    4.3556893    4.3556893    21229.696    14032.502    69466.492   -19809.904   -11031.414   -29151.947    30382.167    82.636265 
   99400    2034.1302   -112.51562    1.8405238    -110.6751   -12311.488    4.3740947    4.3740947    4.3740947   -12311.488    8566.4449   -40570.444   -4930.4631    14370.396    7675.9648    22988.457    83.688264 
   99500    1397.4214    -111.9382    1.2644163   -110.67378     -43377.9    4.3814671    4.3814671    4.3814671     -43377.9    -100211.6    5727.9373   -35650.035    10513.782    33246.077   -10215.347    84.112134 
   99600    2414.5381   -112.83615    2.1847248   -110.65143    6854.2622     4.365956     4.365956     4.365956    6854.2622    5820.2448     38630.42   -23887.878    6806.6386   -9114.1157    23301.964    83.221986 
   99700    1960.9288   -112.43906    1.7742896   -110.66477   -11516.449    4.3685059    4.3685059    4.3685059   -11516.449   -60143.677    10214.676    15379.654    -1270.237    3367.1075    5522.3029    83.367885 
   99800    1114.6221   -111.68483    1.0085335    -110.6763    2523.7802    4.3749606    4.3749606    4.3749606    2523.7802   -68498.957    83402.474   -7332.1769    -4610.339    24132.509   -9070.2797    83.737972 
   99900    2855.7476   -113.22129    2.5839404   -110.63735    1741.9546    4.3805119    4.3805119    4.3805119    1741.9546    4537.7859    21200.612   -20512.534    3217.0018   -20455.862   -8901.2614    84.057138 
  100000     1117.663   -111.67106     1.011285   -110.65977   -8309.3833    4.3806756    4.3806756    4.3806756   -8309.3833   -106555.77    89117.356   -7489.7378   -1319.6391    6674.7231    4655.1013    84.066561 
Loop time of 22.0385 on 1 procs for 100000 steps with 8 atoms

Pair  time (%) = 6.6865 (30.3401)
Kspce time (%) = 5.36644 (24.3504)
Neigh time (%) = 0.248623 (1.12813)
Comm  time (%) = 0.995853 (4.51871)
Outpt time (%) = 0.0258965 (0.117506)
Other time (%) = 8.71514 (39.5452)

Nlocal:    8 ave 8 max 8 min
Histogram: 1 0 0 0 0 0 0 0 0 0
Nghost:    1870 ave 1870 max 1870 min
Histogram: 1 0 0 0 0 0 0 0 0 0
Neighs:    2088 ave 2088 max 2088 min
Histogram: 1 0 0 0 0 0 0 0 0 0

Total # of neighbors = 2088
Ave neighs/atom = 261
Neighbor list builds = 3114
Dangerous builds = 0
seeds:8512408
