LAMMPS (10 Feb 2015)
Reading data file ...
  triclinic box = (0 0 0) to (4.2565 4.2565 4.2565) with tilt (0 0 0)
  1 by 1 by 1 MPI processor grid
  reading atoms ...
  8 atoms
4 atoms in group Mg
4 atoms in group O
Setting atom values ...
  4 settings made for charge
Setting atom values ...
  4 settings made for charge
PPPM initialization ...
  G vector (1/distance) = 0.353245
  grid = 8 8 8
  stencil order = 5
  estimated absolute RMS force accuracy = 4.15075e-05
  estimated relative force accuracy = 2.88254e-06
  using double precision FFTs
  3d grid and FFT values/proc = 3375 512
Neighbor list info ...
  1 neighbor list requests
  update every 1 steps, delay 0 steps, check yes
  master list distance cutoff = 11
Setting up minimization ...
Memory usage per processor = 4.06549 Mbytes
Step PotEng Lx Ly Lz Xy Xz Yz Press Pxx Pyy Pzz Pxy Pxz Pyz eatoms 
       0    -118.2398       4.2565       4.2565       4.2565            0            0            0    92099.563    92099.563    92099.563    92099.563 -2.6648665e-10 1.3518399e-10 2.2028947e-10    -118.2398 
      10   -118.33067     4.299065     4.299065     4.299065            0            0            0    34673.493    34673.493    34673.493    34673.493 -1.1760899e-11 -1.3745134e-10 -5.0678772e-11   -118.33067 
      18   -118.34767    4.3277342    4.3277342    4.3277342            0            0            0    -4.391814    -4.391814    -4.391814    -4.391814 -1.1240186e-10 -1.6034703e-10 -8.891662e-11   -118.34767 
Loop time of 0.0148461 on 1 procs for 18 steps with 8 atoms

Minimization stats:
  Stopping criterion = linesearch alpha is zero
  Energy initial, next-to-last, final = 
        -118.239795936     -118.347671294     -118.347671294
  Force two-norm initial, final = 13.2992 0.00175014
  Force max component initial, final = 13.2992 0.000655584
  Final line search alpha, max atom move = 0.00390625 2.56088e-06
  Iterations, force evaluations = 18 35

Pair  time (%) = 0.00401831 (27.0664)
Kspce time (%) = 0.00277257 (18.6754)
Neigh time (%) = 0 (0)
Comm  time (%) = 0.000498056 (3.3548)
Outpt time (%) = 2.28882e-05 (0.15417)
Other time (%) = 0.00753427 (50.7492)

Nlocal:    8 ave 8 max 8 min
Histogram: 1 0 0 0 0 0 0 0 0 0
Nghost:    2189 ave 2189 max 2189 min
Histogram: 1 0 0 0 0 0 0 0 0 0
Neighs:    2344 ave 2344 max 2344 min
Histogram: 1 0 0 0 0 0 0 0 0 0

Total # of neighbors = 2344
Ave neighs/atom = 293
Neighbor list builds = 0
Dangerous builds = 0
pypospack:output_section:begin
tot_energy = -118.347671293792
num_atoms = 8
xx = 4.32773421076983
yy = 4.32773421076983
zz = 4.32773421076983
xy = 0
xz = 0
yz = 0
tot_press = -4.39181402043263
pxx = -4.39181402021402
pyy = -4.39181402042068
pzz = -4.39181402066319
pxy = -1.12401857084108e-10
pxz = -1.60347032595802e-10
pyz = -8.89166196817966e-11
pypospack:output_section:done
pypospack:lammps_sim:done
PPPM initialization ...
  G vector (1/distance) = 0.352508
  grid = 8 8 8
  stencil order = 5
  estimated absolute RMS force accuracy = 4.29555e-05
  estimated relative force accuracy = 2.9831e-06
  using double precision FFTs
  3d grid and FFT values/proc = 3375 512
Setting up run ...
Memory usage per processor = 3.06549 Mbytes
Step Temp PotEng KinEng TotEng Press Lx Ly Lz Press Pxx Pyy Pzz Pxy Pxz Pyz Volume 
       0         1500   -118.34768    1.3572315   -116.99045    17878.707    4.3277342    4.3277342    4.3277342    17878.707    19405.197    12704.224      21526.7   -5249.7442   -3850.3517   -5069.9117    81.055361 
     100    641.65491   -117.39826   0.58058285   -116.81768    23880.031    4.3563555    4.3563555    4.3563555    23880.031    23183.985   -4827.6528    53283.761   -429.69977    1630.6778    963.27058    82.674191 
     200    1106.4391    -117.4494    1.0011293   -116.44827   -33991.147    4.3929105    4.3929105    4.3929105   -33991.147   -28857.039   -59341.548   -13774.856    6052.5223    21439.243    26492.935    84.772904 
     300    1686.8083   -117.63338    1.5262596   -116.10712   -94.244605    4.3879579    4.3879579    4.3879579   -94.244605    7615.1589     5759.338   -13657.231     6325.993    2821.5701   -1754.4494    84.486506 
     400    1593.4226   -117.29551    1.4417623   -115.85375    18551.583    4.3726072    4.3726072    4.3726072    18551.583    20864.946   -15361.886    50151.688   -6231.9671   -6854.5826   -7933.0437    83.602913 
     500    1224.3962   -116.80724    1.1078594   -115.69938    3027.5426    4.3839036    4.3839036    4.3839036    3027.5426     26337.44   -6227.0674   -11027.745   -11038.407    4248.5862    38555.067    84.252538 
     600    1911.1291    -117.3326    1.7292298   -115.60337   -13713.854    4.4033424    4.4033424    4.4033424   -13713.854   -3889.4107   -11221.253   -26030.897   -1916.6482    -10869.23   -3912.9837    85.378273 
     700    1351.6324   -116.78618    1.2229854   -115.56319    15237.212    4.3986095    4.3986095    4.3986095    15237.212   -7430.5261   -1021.7468    54163.909   -5207.0861    4138.7669   -178.18346    85.103268 
     800    1053.7616   -116.51645    0.9534656   -115.56298   -11095.092    4.3912577    4.3912577    4.3912577   -11095.092   -15139.936    19583.863   -37729.205   -4935.4611    18300.787    38050.206    84.677257 
     900     1493.428   -116.92016    1.3512851   -115.56888    9164.1988    4.3935411    4.3935411    4.3935411    9164.1988    32176.979    34378.466   -39062.848    -7644.816   -12191.699    -4243.566    84.809419 
    1000    1465.5664   -116.90141    1.3260753   -115.57533    26636.725     4.387459     4.387459     4.387459    26636.725    35029.856   -17478.832    62359.151   -4418.3057    7197.1468   -3857.3673    84.457692 
    1100    1078.5614   -116.56886   0.97590503   -115.59296    2830.1003    4.3934542    4.3934542    4.3934542    2830.1003    3560.1742    31623.873   -26693.746   -9047.9835   -3828.6136    33736.806    84.804386 
    1200    1804.8094   -117.21187    1.6330295   -115.57884   -28560.646    4.4072284    4.4072284    4.4072284   -28560.646   -37701.321   -22098.802   -25881.815    3960.8991   -80.213483   -5792.2715    85.604516 
    1300    1588.7982   -117.00906     1.437578   -115.57149     29771.91    4.3871387    4.3871387    4.3871387     29771.91   -6831.9862    23569.607    72578.109   -13793.101      -1781.6    6759.3521    84.439195 
    1400    1578.9932   -117.02591    1.4287062   -115.59721   -1822.3478    4.3973041    4.3973041    4.3973041   -1822.3478    25559.377   -29472.961   -1553.4593   -5144.3028   -4805.5582    34863.107    85.027518 
    1500    1882.0633   -117.28671    1.7029304   -115.58378   -28648.229    4.4207917    4.4207917    4.4207917   -28648.229   -58851.317   -50858.253    23764.885   -2078.0117   -2588.2611    12006.584    86.397299 
    1600    1725.7897   -117.12152    1.5615308   -115.55999      6639.98    4.4022045    4.4022045    4.4022045      6639.98    -26146.47   -3381.5053    49447.915    10636.009    216.58396    7297.2661    85.312103 
    1700    1276.6058    -116.7243    1.1550998    -115.5692   -5352.7143     4.391395     4.391395     4.391395   -5352.7143    17312.714   -37434.122    4063.2658    13701.625    2664.9205    15425.353    84.685201 
    1800    1697.7299   -117.12306    1.5361417   -115.58692   -18625.604    4.3972197    4.3972197    4.3972197   -18625.604    -3891.744   -21062.385   -30922.683   -3490.8528    -921.8982    10260.662    85.022624 
    1900     1506.834   -116.95042    1.3634151     -115.587     360.7883     4.401075     4.401075     4.401075     360.7883      12284.2   -12048.891    847.05579    9277.4408   -20840.315   -3421.3216    85.246451 
    2000    1232.6927   -116.70452    1.1153663   -115.58915   -20836.137    4.3982971    4.3982971    4.3982971   -20836.137     9707.316   -21521.054   -50694.672     1757.038    1664.4039   -10813.808    85.085134 
    2100    930.88615   -116.43188   0.84228535   -115.58959   -11058.495    4.3901619    4.3901619    4.3901619   -11058.495   -105.79934   -16310.535   -16759.152    -19896.34    8221.8577    8539.8679    84.613882 
    2200    1648.3873   -117.07836    1.4914955   -115.58686    10305.116     4.384488     4.384488     4.384488    10305.116   -36072.273   -18451.983    85439.604    2092.6425   -5810.2942    13020.047    84.286237 
    2300    1715.1205   -117.15962     1.551877   -115.60775   -17087.305    4.4048534    4.4048534    4.4048534   -17087.305   -55796.001   -3451.1337    7985.2186   -2291.3846    13576.939     23958.62    85.466197 
    2400    1121.2108   -116.61213    1.0144951   -115.59763   -35071.479    4.4076993    4.4076993    4.4076993   -35071.479   -64633.889   -49071.835    8491.2875   -12902.104   -13027.618     9975.706    85.631959 
    2500    2136.4326   -117.49959    1.9330891    -115.5665   -10622.307    4.3717009    4.3717009    4.3717009   -10622.307   -34086.207    619.08035    1600.2073    4651.7591   -20809.458   -7693.4213    83.550937 
    2600    1890.7214   -117.29218    1.7107645   -115.58141    48199.271    4.3730585    4.3730585    4.3730585    48199.271    36311.045    35477.457    72809.311    1232.4657   -5119.9871    3177.5933    83.628801 
    2700    1859.6727   -117.28396    1.6826709   -115.60129   -34715.894    4.4047966    4.4047966    4.4047966   -34715.894   -29441.848   -64980.294   -9725.5393    4603.0557    2014.4245    21519.913     85.46289 
    2800    1543.0315   -116.97096    1.3961673   -115.57479   -5982.8642    4.4012904    4.4012904    4.4012904   -5982.8642   -1026.5034   -44698.706    27776.616   -3651.2894   -7816.1982    4430.8536     85.25897 
    2900     2138.761   -117.49371    1.9351959   -115.55852    1640.1996    4.3891832    4.3891832    4.3891832    1640.1996    2014.9629    6177.9058   -3272.2698    -606.7094    16258.186    5798.5192    84.557302 
    3000     1450.051   -116.88233    1.3120366   -115.57029   -8591.7015    4.3905294    4.3905294    4.3905294   -8591.7015    13499.088   -18572.018   -20702.174    -5682.377    1632.0151    7688.8947     84.63513 
    3100    1312.4633   -116.76859    1.1875444   -115.58105   -7558.5085    4.3873395    4.3873395    4.3873395   -7558.5085    19999.684   -18052.307   -24622.902   -17081.573   -15303.825   -18057.739    84.450794 
    3200    1618.9532   -117.05822    1.4648629   -115.59336    10185.759    4.3940751    4.3940751    4.3940751    10185.759    19170.078   -3414.2421    14801.442    2511.7249    1205.4414    2200.4695    84.840342 
    3300    1910.7982   -117.31304    1.7289304   -115.58411   -15854.547    4.3926243    4.3926243    4.3926243   -15854.547    34195.296   -35268.623   -46490.313    2556.6306    13214.945    6991.7779    84.756335 
    3400    1031.1804   -116.53518   0.93303368   -115.60214   -5060.6906    4.3837975    4.3837975    4.3837975   -5060.6906   -13115.034    -19486.45    17419.413    -18737.53   -19274.704   -20354.462    84.246422 
    3500    1274.5726   -116.76677      1.15326   -115.61351   -13690.053     4.387666     4.387666     4.387666   -13690.053   -20002.139   -30757.149    9689.1291   -9823.8416   -9278.1844    -2487.768    84.469646 
    3600    2136.2228   -117.53065    1.9328993   -115.59775   -19398.777    4.3904943    4.3904943    4.3904943   -19398.777   -14944.026   -30966.517    -12285.79    9193.2077    -5191.239    5046.1077    84.633103 
    3700    957.52398   -116.46638   0.86638782       -115.6    13158.788    4.3977768    4.3977768    4.3977768    13158.788    16442.071   -24421.379    47455.673   -15288.016   -19599.302   -19818.491    85.054939 
    3800    1579.4795   -117.02248    1.4291462   -115.59333   -29966.896    4.3941113    4.3941113    4.3941113   -29966.896   -22520.099   -37617.558   -29763.031   -16487.066   -24215.268    116.98034     84.84244 
    3900    1833.7028   -117.24562    1.6591728   -115.58645    15204.993    4.3819611    4.3819611    4.3819611    15204.993    65395.504   -17170.432   -2610.0941   -3134.5549   -659.72628    3281.4076    84.140591 
    4000    1656.8165   -117.10201    1.4991224   -115.60289    5135.4988     4.390374     4.390374     4.390374    5135.4988    34428.441   -53487.776    34465.832   -11499.991    6086.2114   -12768.594    84.626143 
    4100    1546.4057   -117.00089    1.3992204   -115.60167   -9299.7645    4.3937246    4.3937246    4.3937246   -9299.7645    23611.298   -40232.341    -11278.25   -13771.017   -18182.525   -11346.135    84.820043 
    4200    1359.0619   -116.81969    1.2297078   -115.58998    40672.123    4.3922066    4.3922066    4.3922066    40672.123    29790.208    36554.931     55671.23    6566.3479    4415.0641    9891.7677     84.73216 
    4300    2018.1395   -117.40524    1.8260551   -115.57919   -21205.394    4.3999631    4.3999631    4.3999631   -21205.394   -6636.3742   -21800.133   -35179.674   -7907.6013    21965.845   -15894.282    85.181857 
    4400    1128.8964   -116.59504    1.0214492   -115.57359   -22789.437    4.4050979    4.4050979    4.4050979   -22789.437   -15256.088   -5997.5613   -47114.662   -14521.352   -18100.693    2129.6366    85.480427 
    4500    1890.3119   -117.27136    1.7103939   -115.56097   -36621.561    4.4001864    4.4001864    4.4001864   -36621.561   -34937.965   -1354.7298   -73571.988    -3440.257   -14989.986    2792.9646    85.194825 
    4600    1796.3902   -117.19655    1.6254116   -115.57114   -16763.844    4.3945547    4.3945547    4.3945547   -16763.844   -13659.745   -16100.504   -20531.282    11239.507    14247.075   -12748.195     84.86813 
    4700    1156.3232   -116.62984    1.0462656   -115.58358    10395.246    4.3925451    4.3925451    4.3925451    10395.246    8875.8853   -12695.123    35004.975   -1954.4407    -11717.14     805.3481    84.751753 
    4800    1389.5631   -116.85507    1.2573059   -115.59776    5787.5881    4.3982908    4.3982908    4.3982908    5787.5881    64371.426    9743.0275   -56751.689   -14192.701   -15116.742    1770.6292    85.084765 
    4900    1654.1798   -117.08917    1.4967367   -115.59244    25591.994    4.3973928    4.3973928    4.3973928    25591.994    49471.026    26412.347    892.60828   -4283.1534    14902.945     1902.283    85.032661 
    5000    1332.8089    -116.7932    1.2059535   -115.58725    15529.434    4.3954977    4.3954977    4.3954977    15529.434    55327.419   -29924.414    21185.296   -14792.605   -6777.9987    5068.3003    84.922773 
    5100    1636.4532   -117.06737    1.4806973   -115.58667   -38422.818    4.4037884    4.4037884    4.4037884   -38422.818   -49482.454   -25680.556   -40105.444   -14625.653   -28296.376    6942.3782     85.40422 
    5200    1754.3482   -117.15809    1.5873711   -115.57072   -6019.9593    4.3928616    4.3928616    4.3928616   -6019.9593   -2005.3813   -23955.914    7901.4179   -2450.7105   -3085.9325    11135.744    84.770075 
    5300    1542.4532   -116.98001    1.3956441   -115.58437   -8353.6867     4.381133     4.381133     4.381133   -8353.6867    6962.1159   -16930.851   -15092.325   -8235.3559    7152.9583    13210.207    84.092896 
    5400    886.48233   -116.41669   0.80210785   -115.61458    13107.023    4.3841872    4.3841872    4.3841872    13107.023    48627.409   -967.18174   -8339.1586   -6328.3573   -22931.447    4894.8003    84.268891 
    5500    1851.6172   -117.28395    1.6753821   -115.60857   -13711.665    4.3963586    4.3963586    4.3963586   -13711.665    43202.766   -47770.558   -36567.201    8505.2442   -3841.6198    1339.2063    84.972685 
    5600    1041.7056   -116.54227    0.9425571   -115.59971   -4744.7789    4.4121128    4.4121128    4.4121128   -4744.7789    44063.787   -40034.217   -18263.906   -5821.3004     10039.08    13010.697     85.88945 
    5700    1347.3537   -116.78979     1.219114   -115.57067   -20193.393    4.4028542    4.4028542    4.4028542   -20193.393   -10540.988    -10812.47   -39226.721   -21870.994   -12715.466    11811.166    85.349877 
    5800    1924.6021   -117.29628    1.7414204   -115.55486    16409.378    4.3824598    4.3824598    4.3824598    16409.378    4102.6678   -6282.4066    51407.874    3297.3547    -27089.28   -5018.7528    84.169323 
    5900    1814.4326   -117.22389    1.6417368   -115.58215   -14689.906     4.387682     4.387682     4.387682   -14689.906   -37378.409    -34736.49    28045.182    2377.9703    23240.827   -8570.8511    84.470571 
    6000    1424.8708   -116.89608     1.289253   -115.60682   -35863.366    4.3942095    4.3942095    4.3942095   -35863.366   -62062.533   -33644.449   -11883.115   -18756.715    6395.9303    5723.1636    84.848131 
    6100    1400.4425   -116.87099    1.2671498   -115.60384    14752.491    4.3901513    4.3901513    4.3901513    14752.491   -19810.524   -8720.1561    72788.152    4821.7015   -8954.4489   -3759.5152    84.613266 
    6200     2048.057   -117.44975     1.853125   -115.59663   -15092.658    4.3978639    4.3978639    4.3978639   -15092.658   -20363.851   -20769.409   -4144.7148    2067.2344    4125.4842    -10033.26    85.059994 
    6300    1314.0545   -116.78954    1.1889841   -115.60056    14420.435    4.3900312    4.3900312    4.3900312    14420.435   -13070.604   -52665.097    108997.01   -12468.187    9919.0038    -6472.292    84.606325 
    6400    1221.9923   -116.71712    1.1056843   -115.61143   -16753.108    4.3907807    4.3907807    4.3907807   -16753.108   -23128.353    -27401.08    270.10752    1965.1917   -698.35765   -5269.4722    84.649663 
    6500    1481.4409   -116.95123    1.3404389   -115.61079   -14016.291     4.405932     4.405932     4.405932   -14016.291    8028.2577    -68791.27    18714.139    8294.9206   -2687.2233    1312.2494    85.528998 
    6600    2135.1863   -117.51387    1.9319615   -115.58191   -29406.777    4.4110742    4.4110742    4.4110742   -29406.777   -59953.038   -38206.952    9939.6595   -12285.848   -5525.2744    2596.1233    85.828807 
    6700    1389.8243   -116.83615    1.2575423    -115.5786    -6045.579    4.3910773    4.3910773    4.3910773    -6045.579   -9272.8248    7882.5763   -16746.489    5364.4397   -4302.2451   -12066.447    84.666822 
    6800    1401.9439   -116.83989    1.2685083   -115.57138    30170.786    4.3749189    4.3749189    4.3749189    30170.786    47795.027    9347.6789    33369.652    19299.724   -52.520878   -21324.573    83.735579 
    6900     2052.391   -117.44896    1.8570465   -115.59192   -11612.037    4.4029261    4.4029261    4.4029261   -11612.037   -51256.387   -23334.125      39754.4   -10698.356   -4925.1128   -1298.5823    85.354061 
    7000    1670.9235   -117.08737    1.5118867   -115.57548   -26681.585    4.4167459    4.4167459    4.4167459   -26681.585    10365.515   -67275.664   -23134.606    -8790.144   -985.85569    10114.754    86.160306 
    7100    1129.0347   -116.58511    1.0215743   -115.56353    36340.733    4.3859083    4.3859083    4.3859083    36340.733    29685.359    16480.125    62856.717    22807.527   -18612.689   -12241.623    84.368173 
    7200    1433.6242    -116.8691    1.2971733   -115.57193   -1379.2782    4.3760564    4.3760564    4.3760564   -1379.2782   -31259.431   -21276.689    48398.285    -7471.587    1651.1087   -8462.3906    83.800908 
    7300    1522.5064   -116.98467    1.3775958   -115.60707   -28051.009    4.3984597    4.3984597    4.3984597   -28051.009   -46969.843    -80541.97    43358.785   -16504.981   -2341.2085     4157.367    85.094568 
    7400    1653.1327   -117.09035    1.4957892   -115.59456   -32777.059    4.4216258    4.4216258    4.4216258   -32777.059   -16641.809   -59633.071   -22056.296    6627.4638    13066.877   -11945.594    86.446209 
    7500    1199.7396     -116.658    1.0855496   -115.57245   -28388.718    4.4111431    4.4111431    4.4111431   -28388.718     -20148.6   -30621.625   -34395.928    20454.405   -2978.9834   -9798.1361     85.83283 
    7600    1330.6281   -116.76723    1.2039803   -115.56325    3269.4263    4.3625811    4.3625811    4.3625811    3269.4263    28404.974   -58591.256     39994.56   -7378.2549   -7914.2145    21972.013    83.029141 
    7700    1423.5843   -116.89844     1.288089   -115.61035    49449.846    4.3662738    4.3662738    4.3662738    49449.846     111228.7    -18035.35    55156.188   -4311.4286    9541.6797   -19197.356    83.240156 
    7800    1913.0845   -117.34923    1.7309991   -115.61823    -12412.71    4.4126498    4.4126498    4.4126498    -12412.71    43480.636   -28294.808   -52423.958    1812.4672    3973.5766    2327.8435    85.920812 
    7900    1660.3095   -117.08713    1.5022829   -115.58484   -42495.912    4.4212996    4.4212996    4.4212996   -42495.912   -30103.304   -67210.524   -30173.909     -5429.25    6666.4754    14919.978    86.427079 
    8000     1867.164   -117.24926    1.6894492   -115.55981   -21055.945    4.3882314    4.3882314    4.3882314   -21055.945   -27310.005   -57593.686    21735.856   -23627.115    4836.9647   -14820.645    84.502305 
    8100    1912.5237   -117.29584    1.7304917   -115.56535    36266.699    4.3596905    4.3596905    4.3596905    36266.699     86903.13    20925.609    971.35785     8567.457   -7866.3963     71.16911    82.864208 
    8200    1553.5945   -117.01713     1.405725    -115.6114    28481.089    4.3768877    4.3768877    4.3768877    28481.089    96914.312   -33827.823    22356.776    -9619.085   -6556.6441    17662.751    83.848674 
    8300    834.10374    -116.3838    0.7547146   -115.62909   -7594.8871    4.4087033    4.4087033    4.4087033   -7594.8871    29101.605   -96459.209    44572.943   -26295.214   -4242.7207    3371.2638    85.690489 
    8400    1294.8531   -116.77287    1.1716103   -115.60126   -29704.415    4.4032949    4.4032949    4.4032949   -29704.415   -3685.8647   -66686.466   -18740.913    -13405.76   -1441.2052   -9014.2464    85.375513 
    8500    2154.0216   -117.51797     1.949004   -115.56896    10248.223      4.36326      4.36326      4.36326    10248.223     39808.51   -11198.093    2134.2529    8765.9204   -648.02932   -9533.2283    83.067907 
    8600    1329.0628   -116.80754    1.2025639   -115.60498    14397.757    4.3673825    4.3673825    4.3673825    14397.757    14892.985   -19343.915    47644.202   -30849.718    -6365.302   -5928.1347    83.303586 
    8700    1220.2376   -116.72063    1.1040966   -115.61654   -6572.5514    4.4011293    4.4011293    4.4011293   -6572.5514    21941.652   -27859.628   -13799.678   -7394.5961    2498.8853   -3565.2779    85.249606 
    8800    1364.9849   -116.82658     1.235067   -115.59151     2983.911    4.4122924    4.4122924    4.4122924     2983.911    68260.233   -30255.427   -29053.073    10527.615    7921.1626    8559.1851    85.899939 
    8900    1548.9281   -116.96634    1.4015027   -115.56483    13744.747    4.3842808    4.3842808    4.3842808    13744.747    50113.129   -4138.5031   -4740.3856   -15100.425    4938.0416    14503.168    84.274286 
    9000     1399.799   -116.83988    1.2665676   -115.57331    19564.534    4.3746342    4.3746342    4.3746342    19564.534    54541.054   -20626.976    24779.525     3215.459    10023.066   -12093.248    83.719232 
    9100    1512.5847   -116.95558    1.3686185   -115.58696    8263.7498    4.3962695    4.3962695    4.3962695    8263.7498   -412.90845   -26450.178    51654.336    10739.474     9698.582    9952.2062    84.967519 
    9200    912.38521   -116.40857   0.82554531   -115.58303    23881.896    4.4005931    4.4005931    4.4005931    23881.896    29445.346   -20644.939    62845.282   -19364.238    14788.627    3938.3087     85.21845 
    9300    1325.8841   -116.77613    1.1996878   -115.57644   -8329.5007    4.3996862    4.3996862    4.3996862   -8329.5007   -41388.625     43023.67   -26623.547   -10196.682    3334.3341    4447.4141    85.165778 
    9400    1909.5728   -117.30901    1.7278216   -115.58119    43339.508    4.3624895    4.3624895    4.3624895    43339.508    6702.5803    21778.323    101537.62     7420.161    2373.2909    19820.326    83.023908 
    9500    1340.5063   -116.82236    1.2129182   -115.60944    37330.422    4.3567108    4.3567108    4.3567108    37330.422     22604.64    60175.038     29211.59   -21049.876    8355.0988   -5320.5058    82.694421 
    9600    1172.4171   -116.68472    1.0608276    -115.6239   -36916.392    4.4111894    4.4111894    4.4111894   -36916.392    -54027.38   -25681.296     -31040.5   -23637.118    444.63532    21684.572    85.835535 
    9700    2351.3077   -117.69798    2.1275126   -115.57047   -17853.491    4.4027687    4.4027687    4.4027687   -17853.491   -34319.152   -30882.563    11641.243    7926.1566    -5500.673    8707.6705    85.344908 
    9800    1776.6911   -117.16292    1.6075875   -115.55533     22435.99    4.3685234    4.3685234    4.3685234     22435.99   -7867.3397    6114.6087    69060.701    -9676.145    1300.5167   -8162.9894    83.368884 
    9900    1985.9919   -117.38513    1.7969672   -115.58816   -11401.038    4.3782021    4.3782021    4.3782021   -11401.038   -41994.356   -12505.337    20296.579    -11752.14    7615.5557    3415.1492    83.924242 
   10000    1765.4511   -117.19407    1.5974172   -115.59665     2370.654    4.4023856    4.4023856    4.4023856     2370.654   -21456.722   -35655.624    64224.308    21094.652   -3617.1241   -12251.527    85.322632 
   10100    1396.0699   -116.86097    1.2631934   -115.59778   -16514.435    4.4145456    4.4145456    4.4145456   -16514.435   -45630.674   -3374.3066   -538.32322   -7173.5928    3134.8151    5368.8914    86.031607 
   10200    1449.1145   -116.89715    1.3111892   -115.58597   -23103.842    4.3985819    4.3985819    4.3985819   -23103.842   -40858.744   -4884.6317   -23568.151   -13522.985   -14971.707    5710.3532    85.101664 
   10300    1462.3365   -116.88477    1.3231528   -115.56162    2761.1071    4.3636497    4.3636497    4.3636497    2761.1071    23073.689   -6517.8164   -8272.5514    17910.446   -4285.5347   -6184.0858    83.090167 
   10400    1571.5205   -117.01954    1.4219447   -115.59759    -14138.46    4.3814966    4.3814966    4.3814966    -14138.46   -43190.906   -13456.013     14231.54    6047.6432    -7262.337    11598.703    84.113838 
   10500    1162.2042   -116.63627    1.0515868   -115.58468    -21432.47     4.421558     4.421558     4.421558    -21432.47   -52941.778   -4397.5086   -6958.1231   -14586.016   -7208.2987    1247.7621    86.442232 
   10600    1212.0889    -116.6572    1.0967235   -115.56048   -29316.942    4.4076315    4.4076315    4.4076315   -29316.942   -35387.865    -32194.67    -20368.29    17453.381     9109.251    11437.131    85.628004 
   10700    1279.9731   -116.69922    1.1581465   -115.54107    3138.7504    4.3560208    4.3560208    4.3560208    3138.7504   -15053.732   -9875.8794    34345.863   -10199.799   -5911.0105    2130.6479    82.655133 
   10800    1409.8157   -116.85478    1.2756308   -115.57915    43855.779    4.3539909    4.3539909    4.3539909    43855.779    61058.717    21442.586    49066.034   -25560.688    8667.5718   -9114.9798    82.539637 
   10900    1259.8986   -116.75741    1.1399828   -115.61743   -11976.578    4.4081099    4.4081099    4.4081099   -11976.578   -4441.2063   -35977.757    4489.2298    17369.201   -2216.4647    13029.771    85.655891 
   11000    1673.2225   -117.10482    1.5139669   -115.59086   -31169.269    4.4044878    4.4044878    4.4044878   -31169.269   -19285.071   -45102.339   -29120.397    13642.814    9427.5749    5538.5787     85.44492 
   11100    1325.4004   -116.76444    1.1992501   -115.56519    50877.421    4.3604995    4.3604995    4.3604995    50877.421    102448.94    14435.599     35747.72   -16256.888   -6697.4344   -2800.8511    82.910342 
   11200     1470.205   -116.92841    1.3302724   -115.59814    10897.255    4.3685045    4.3685045    4.3685045    10897.255    19595.575    -2607.199    15703.389   -1055.0254   -16436.761    25676.141    83.367802 
   11300    1848.6151   -117.27617    1.6726658   -115.60351   -2536.6654    4.3911251    4.3911251    4.3911251   -2536.6654    42020.489   -44421.579   -5208.9058    7123.8469    10745.847    3412.0333    84.669582 
   11400    1769.0024   -117.19858    1.6006306   -115.59795    -20268.05    4.4092054    4.4092054    4.4092054    -20268.05   -10839.441   -45634.456   -4330.2533     -15612.5    -3634.886   -1143.2614    85.719769 
   11500    1795.2004   -117.19561     1.624335   -115.57127    -29430.28    4.4000109    4.4000109    4.4000109    -29430.28   -17461.143   -38421.176   -32408.521   -8928.2191    8515.5719    40371.565    85.184633 
   11600    1990.1709    -117.3646    1.8007484   -115.56385    23806.365    4.3556293    4.3556293    4.3556293    23806.365    53643.979   -675.31472     18450.43    8337.3951   -1912.9559    8584.3954    82.632851 
   11700    1869.5275   -117.30389    1.6915878    -115.6123    6574.9056    4.3653342    4.3653342    4.3653342    6574.9056    2062.6919   -6911.7825    24573.807   -11676.747   -9603.9042   -14673.561    83.186429 
   11800    1381.2488   -116.86557     1.249783   -115.61579    -25633.33    4.4025462    4.4025462    4.4025462    -25633.33   -45379.022   -37443.915    5922.9471   -9345.5519    16447.203    24866.678    85.331966 
   11900    1792.3033   -117.20365    1.6217137   -115.58194   -11225.771    4.3991331    4.3991331    4.3991331   -11225.771   -14689.802   -28631.802    9644.2934    -1726.915    -8204.696   -1967.8659    85.133663 
   12000     1332.559   -116.78176    1.2057274   -115.57603    273.95793    4.3913624    4.3913624    4.3913624    273.95793    24850.804   -25692.235    1663.3048    7080.0915    236.38226   -15403.941     84.68331 
   12100    1786.6755   -117.19163    1.6166215   -115.57501   -23590.704    4.3796113    4.3796113    4.3796113   -23590.704   -19462.454   -26584.571   -24725.087   -10938.689    1146.6781    30434.313    84.005301 
   12200    1150.0709   -116.63696    1.0406083   -115.59635    34738.774    4.3742978    4.3742978    4.3742978    34738.774    82610.709   -14526.835    36132.448   -6103.3314   -14075.112    3900.1721    83.699921 
   12300    1375.6592   -116.85188    1.2447253   -115.60715    3136.9712    4.4023637    4.4023637    4.4023637    3136.9712   -1427.5775   -4991.9586     15830.45    10081.316    9331.5188   -20197.373    85.321356 
   12400    1695.0089    -117.1199    1.5336797   -115.58622    -9267.645    4.3972212    4.3972212    4.3972212    -9267.645   -11026.218    27410.224   -44186.941   -14200.808   -620.01624     5792.802    85.022706 
   12500    1052.8773   -116.52629   0.95266553   -115.57362    29174.455    4.3743796    4.3743796    4.3743796    29174.455    94776.071    1577.2448   -8829.9502    6479.5681   -9683.2471     6282.662    83.704615 
   12600    1663.7832   -117.10002     1.505426   -115.59459   -24797.521    4.3850382    4.3850382    4.3850382   -24797.521   -20983.098   -15665.318   -37744.146    13882.999   -6521.4512   -13701.192     84.31797 
   12700    1211.3642   -116.68473    1.0960678   -115.58866    30412.252    4.3918004    4.3918004    4.3918004    30412.252    41318.243    33716.681    16201.833   -17829.866    30491.995    4146.2809    84.708653 
   12800    1573.2473    -117.0083    1.4235072   -115.58479   -22300.698    4.3980845    4.3980845    4.3980845   -22300.698   -10768.873   -14743.394   -41389.827   -3108.9417   -7198.7298    2803.8303    85.072794 
   12900      1443.61   -116.88219    1.3062087   -115.57598   -13592.557    4.3882849    4.3882849    4.3882849   -13592.557   -14367.182   -4882.1246   -21528.364    16131.318   -28943.524   -12764.625    84.505398 
   13000    1678.8596    -117.0902    1.5190674   -115.57114    13782.772     4.370068     4.370068     4.370068    13782.772    4731.4457     32359.07    4257.8012    532.86317    9914.5887   -10022.561    83.457346 
   13100       1398.1   -116.87306    1.2650302   -115.60803   -4865.2783    4.3928921    4.3928921    4.3928921   -4865.2783   -13156.789    8434.4597   -9873.5057    -298.9291    28590.112    8932.8614    84.771839 
   13200    1622.0846   -117.05548    1.4676962   -115.58778   -24519.852    4.4053563    4.4053563    4.4053563   -24519.852    11220.141    -39092.27   -45687.427   -13290.608   -21554.066    6107.7915    85.495473 
   13300    1574.6088   -116.99632    1.4247392   -115.57158   -1982.0455    4.3902719    4.3902719    4.3902719   -1982.0455    -19896.12    44882.406   -30932.422    6024.7423    5557.9783   -1190.1998     84.62024 
   13400    1511.6686   -116.94165    1.3677895   -115.57386     2466.263    4.3825144    4.3825144    4.3825144     2466.263    28655.584    4793.7756    -26050.57    1377.8064    22482.534    11779.022    84.172469 
   13500    1730.6093   -117.14315    1.5658917   -115.57726    23509.057    4.3684042    4.3684042    4.3684042    23509.057    25545.218   -6042.9858    51024.938   -6033.5101   -7479.0271   -5076.9578    83.362061 
   13600    1459.0867   -116.94387    1.3202124   -115.62365   -4142.1125    4.3950602    4.3950602    4.3950602   -4142.1125    9457.0369      24891.9   -46775.274    14493.893    22389.398    2025.1707    84.897416 
   13700     1682.141     -117.105    1.5220365   -115.58296   -45460.966       4.4168       4.4168       4.4168   -45460.966   -51922.162   -25983.753   -58476.983    -390.1899    25550.808    3470.2975    86.163475 
   13800    1399.6509   -116.84078    1.2664336   -115.57435    39643.629    4.3692681    4.3692681    4.3692681    39643.629    75512.782   -22529.587     65947.69   -26135.111   -16269.218    -20126.43    83.411532 
   13900    2015.2959   -117.40099    1.8234821   -115.57751    19876.182     4.352509     4.352509     4.352509    19876.182    31306.043    945.76545    27376.737    3859.0034    86.025267    9220.2401    82.455388 
   14000    1226.8693   -116.73403    1.1100971   -115.62394   -12940.534    4.3939012    4.3939012    4.3939012   -12940.534      1055.81   -29503.787   -10373.624     22073.19    17079.901     -4610.64    84.830271 
   14100    1542.0645   -116.98036    1.3952924   -115.58507   -34170.164    4.4123981    4.4123981    4.4123981   -34170.164   -22078.288    -52142.11   -28290.095   -27793.698   -273.66458   -17437.158    85.906114 
   14200    1522.5469    -116.9405    1.3776324   -115.56287   -6090.7863    4.3954409    4.3954409    4.3954409   -6090.7863   -18347.153   -36438.174    36512.968    11649.362    28136.863   -2695.1647     84.91948 
   14300    1393.4144   -116.83396    1.2607906   -115.57317    10388.856    4.3843258    4.3843258    4.3843258    10388.856    40922.168   -18928.314    9172.7139    18826.794   -5813.0354    778.59109     84.27688 
   14400    1484.5243   -116.93339    1.3432288   -115.59016     -2831.68    4.3795097    4.3795097    4.3795097     -2831.68    -12628.55   -23582.011    27715.522   -33857.434    4122.3357   -3952.4497    83.999459 
   14500    1253.0356   -116.73932     1.133773   -115.60555    6248.7657     4.390251     4.390251     4.390251    6248.7657    3365.4749   -31999.521    47380.344    3160.3112   -4858.0125   -6089.7215     84.61903 
   14600    1604.4064   -117.04461    1.4517006   -115.59291     -54675.2    4.4141632    4.4141632    4.4141632     -54675.2   -83779.928    -47605.97   -32639.703    19428.943   -2167.2308    12164.375    86.009248 
   14700    1419.5112   -116.86019    1.2844036   -115.57579   -7713.9854    4.3850146    4.3850146    4.3850146   -7713.9854    10925.324   -27231.374    -6835.906   -24597.811    16452.291   -9838.4439    84.316607 
   14800    1566.4336   -116.97955     1.417342   -115.56221    39816.187    4.3647598    4.3647598    4.3647598    39816.187    16628.213    52958.149    49862.197   -3139.6433   -12153.507   -4164.7236      83.1536 
   14900    1525.4989     -116.972    1.3803034    -115.5917   -8768.3442    4.3918674    4.3918674    4.3918674   -8768.3442   -8109.2859     21682.64   -39878.386    38302.695    8954.6336    8341.3369    84.712533 
   15000    1747.7849   -117.17288    1.5814325   -115.59145   -23371.411    4.4047411    4.4047411    4.4047411   -23371.411   -38788.876    14880.518   -46205.873   -25046.817    7593.8994   -6889.7512     85.45966 
   15100    1631.7299   -117.07171    1.4764235   -115.59529   -21771.656    4.4081362    4.4081362    4.4081362   -21771.656   -27120.114    21263.449   -59458.305   -14312.591   -13020.218    2684.4879    85.657424 
   15200    1460.6227   -116.90558    1.3216021   -115.58398    5202.0709    4.3902994    4.3902994    4.3902994    5202.0709   -19925.837     84673.39    -49141.34    15999.397    2036.6462   -2203.6625    84.621829 
   15300     1364.084   -116.81916    1.2342518   -115.58491    19962.665    4.3904912    4.3904912    4.3904912    19962.665    8975.9386    62784.031   -11871.976   -19095.097    18679.041    7100.6839    84.632922 
   15400    1624.5501    -117.0496    1.4699271   -115.57968   -29418.763    4.4161004    4.4161004    4.4161004   -29418.763   -56849.686    31771.875   -63178.477   -9599.6161   -18093.957   -871.80195    86.122537 
   15500    1216.0001    -116.6594    1.1002624   -115.55914   -35646.107    4.4099907    4.4099907    4.4099907   -35646.107   -67103.741    17586.661   -57421.243    -4251.803    6206.5074    8734.9421    85.765581 
   15600    1434.4947   -116.85026     1.297961    -115.5523   -8476.8812    4.3783371    4.3783371    4.3783371   -8476.8812    7019.4427    4055.6507   -36505.737   -451.30326    12490.559    8422.2132    83.932001 
   15700    1678.7389    -117.0994    1.5189583   -115.58044    25338.877    4.3741559    4.3741559    4.3741559    25338.877    54595.149    22998.796   -1577.3131   -5576.1647   -25758.106   -100.16391    83.691773 
   15800    1661.5947    -117.1073    1.5034458   -115.60386   -11561.634     4.399276     4.399276     4.399276   -11561.634    20914.891   -9635.1756   -45964.618    21977.852    -254.6417    12258.389    85.141959 
   15900    1072.2578   -116.56228    0.9702014   -115.59208   -19979.539    4.4138708    4.4138708    4.4138708   -19979.539     15536.82   -20911.193   -54564.243   -1713.1831    26168.934    17258.728    85.992156 
   16000    2064.5092   -117.43883    1.8680113   -115.57082   -19106.247    4.3942808    4.3942808    4.3942808   -19106.247   -17156.563   -2796.4879   -37365.689    11807.285   -11891.453    5051.9133    84.852259 
   16100    1725.1151   -117.12845    1.5609204   -115.56753     30624.03    4.3634093    4.3634093    4.3634093     30624.03    78906.465    29707.566    -16741.94    15155.677    16898.839    1808.2308    83.076438 
   16200    1345.8408   -116.82806    1.2177451   -115.61031    13125.921    4.3761937    4.3761937    4.3761937    13125.921    5789.1033    38657.556   -5068.8968    109.20516    20830.569    17820.968    83.808798 
   16300    1476.3521   -116.93802    1.3358344   -115.60218   -29156.441    4.4070607    4.4070607    4.4070607   -29156.441    8401.9249   -75935.463   -19935.784    21192.909   -16461.753   -2434.2481    85.594745 
   16400    1665.3649   -117.08732    1.5068572   -115.58046   -31667.697    4.3949565    4.3949565    4.3949565   -31667.697   -29326.259   -8685.9496   -56990.881   -3896.9133    18411.894    -5351.742    84.891407 
   16500    1762.9839   -117.16692    1.5951849   -115.57174    22749.222    4.3723044    4.3723044    4.3723044    22749.222    17198.995    58202.289   -7153.6198   -6984.2639    5546.5378    17691.216    83.585543 
   16600    1403.3561   -116.86602    1.2697861   -115.59623    15737.317    4.3895558    4.3895558    4.3895558    15737.317    8130.9935    29947.549    9133.4078    7069.8844    5770.5704   -8516.1959    84.578837 
   16700    991.46999   -116.49467   0.89710288   -115.59757   -25257.214    4.4137422    4.4137422    4.4137422   -25257.214   -12084.668    6940.2895   -70627.264   -235.48426    26371.345   -7697.5488    85.984642 
   16800    1959.3381   -117.35423    1.7728503   -115.58138   -19121.345    4.3885145    4.3885145    4.3885145   -19121.345   -9652.2232   -1300.8124   -46410.998    7922.7913    29644.793    11997.783    84.518664 
   16900     1840.226   -117.22824    1.6650751   -115.56317    45081.508    4.3549587    4.3549587    4.3549587    45081.508    56749.567    44995.392    33499.565   -2951.2503   -12871.078   -26263.013    82.594691 
   17000    1277.8396   -116.77995    1.1562161   -115.62373    7636.7499    4.3782918    4.3782918    4.3782918    7636.7499   -1986.7451     12189.52    12707.475   -4399.8676    7051.0884    366.37585    83.929395 
   17100    1150.6949   -116.65704     1.041173   -115.61586   -41607.193    4.4075907    4.4075907    4.4075907   -41607.193   -47212.216   -36494.433   -41114.931    3516.7743    22604.119    22869.218    85.625631 
   17200    1523.6597   -116.97317    1.3786393   -115.59453    13375.055    4.3857554    4.3857554    4.3857554    13375.055   -6483.1518   -7112.0245     53720.34    436.01339   -14576.405    8422.0546    84.359348 
   17300    1705.5809    -117.1216    1.5432454   -115.57835    32110.572    4.3654234    4.3654234    4.3654234    32110.572    43775.696   -5870.6838    58426.705   -9258.4802    -17689.89   -4025.7416    83.191532 
   17400    1097.8711   -116.60228   0.99337687    -115.6089   -1535.3621    4.3903098    4.3903098    4.3903098   -1535.3621    9920.4812   -29234.004    14707.436    8349.8743    6574.6409    9742.0892    84.622429 
   17500    1514.5406   -116.95396    1.3703881   -115.58357   -3402.2056     4.406432     4.406432     4.406432   -3402.2056    8790.8826   -42813.588    23816.089    6100.6292   -13038.288    22439.811    85.558115 
   17600    2006.7427   -117.37859    1.8157429   -115.56284    8609.8438    4.3963994    4.3963994    4.3963994    8609.8438     36410.47   -34996.076    24415.137    2781.8684   -20865.406    653.33159    84.975048 
   17700    1552.6514   -116.98137    1.4048716    -115.5765    -22437.69    4.3972111    4.3972111    4.3972111    -22437.69   -19897.154   -51405.303    3989.3854    1252.7154   -4117.7789    18919.435    85.022123 
   17800    1313.7905   -116.76623    1.1887452   -115.57748   -6301.9587    4.3939391    4.3939391    4.3939391   -6301.9587    28146.992   -19929.096   -27123.772    -14080.52    2089.1533    11722.224    84.832469 
   17900    1833.0824   -117.23172    1.6586115   -115.57311    6080.6871    4.3891464    4.3891464    4.3891464    6080.6871     21708.08   -826.65496   -2639.3639    270.47853    -12158.28    -15279.85    84.555178 
   18000    1442.0135   -116.89098    1.3047641   -115.58622   -20282.154    4.4000074    4.4000074    4.4000074   -20282.154   -65625.116    18043.664    -13265.01   -8564.0643    180.67624   -119.60575     85.18443 
   18100    624.70722   -116.14807   0.56524822   -115.58282    4063.1132    4.3952463    4.3952463    4.3952463    4063.1132   -19404.807    40944.978   -9350.8316   -16490.882    12642.646   -4008.1714    84.908202 
   18200    1169.4208   -116.62309    1.0581165   -115.56497    25831.027    4.3828253    4.3828253    4.3828253    25831.027    10663.534    54957.133    11872.414    1602.3892   -9755.8489   -26064.508    84.190382 
   18300    1638.9795   -117.04775    1.4829831   -115.56477    7918.8434    4.3896797    4.3896797    4.3896797    7918.8434   -15209.969    39761.153   -794.65417   -8897.3447    1421.0514   -4573.3697    84.586002 
   18400    729.41365   -116.24205    0.6599888   -115.58206   -9900.8882    4.3986349    4.3986349    4.3986349   -9900.8882   -10842.779    4787.0007   -23646.886   -19810.516    6730.3857     -5885.28    85.104741 
   18500    1269.5944   -116.72861    1.1487557   -115.57986   -3563.2005    4.3878957    4.3878957    4.3878957   -3563.2005   -12617.395    6430.0988   -4502.3054    4279.4803   -2161.8395   -21128.839    84.482914 
   18600    2064.4796   -117.43983    1.8679845   -115.57184    20728.982    4.3722188    4.3722188    4.3722188    20728.982    2638.2653    50953.519    8595.1619   -7258.2541   -12074.442   -13474.609    83.580633 
   18700     1296.078   -116.77854    1.1727186   -115.60582    17684.498    4.3742129    4.3742129    4.3742129    17684.498    14744.576    30119.913    8189.0051   -10250.472   -3338.3189   -3159.4607    83.695046 
   18800    1125.8689   -116.63872    1.0187098   -115.62001   -22927.604    4.3869811    4.3869811    4.3869811   -22927.604    5159.6584   -51816.536   -22125.936   -7057.7001    6566.9028   -2102.3274    84.430096 
   18900    1667.6353   -117.11324    1.5089114   -115.60433     9184.852    4.3806739    4.3806739    4.3806739     9184.852    37618.547   -11352.535    1288.5443    9860.7275   -20660.731    6912.0467    84.066462 
   19000    1748.6308   -117.17439    1.5821979   -115.59219    14216.752    4.3878173    4.3878173    4.3878173    14216.752   -27708.041    40293.402    30064.896   -19329.277   -6744.0913    4391.4422    84.478389 
   19100    1284.8803   -116.74909    1.1625867    -115.5865   -15745.908    4.3993674    4.3993674    4.3993674   -15745.908    -9093.814   -28781.354   -9362.5566   -19182.138    18645.536   -6416.6668    85.147263 
   19200    1104.2677   -116.58069   0.99916459   -115.58153   -2653.5943    4.3773561    4.3773561    4.3773561   -2653.5943    13847.058   -36038.784    14230.943   -3663.3889   -17810.692    8792.0125    83.875597 
   19300    1625.6747   -117.06357    1.4709446   -115.59262    20867.138    4.3582653    4.3582653    4.3582653    20867.138    -1753.302    73104.885   -8750.1686    248.02636   -39889.157    4187.9573     82.78297 
   19400    2128.0012   -117.54142    1.9254602   -115.61596   -3322.5302    4.3779374    4.3779374    4.3779374   -3322.5302   -11219.533    12380.368   -11128.426    2836.4987    6227.0726   -993.37754    83.909016 
   19500    1331.8525   -116.82402    1.2050881   -115.61893   -8554.8699      4.39292      4.39292      4.39292   -8554.8699    12180.128   -12632.537     -25212.2   -9140.1432   -7456.0024    7836.8807    84.773457 
   19600    1063.9988   -116.56362   0.96272844   -115.60089   -4648.6073    4.3950548    4.3950548    4.3950548   -4648.6073   -16024.518    60830.466    -58751.77    5249.4358   -24820.046   -7090.2905    84.897107 
   19700    2187.2731   -117.55673    1.9790907   -115.57764   -1516.0635    4.3856558    4.3856558    4.3856558   -1516.0635   -10589.963    34862.215   -28820.443   -8992.4013    10154.827   -12333.876    84.353603 
   19800      1674.71   -117.10612    1.5153128   -115.59081    18747.708     4.372412     4.372412     4.372412    18747.708   -539.07868     79085.02   -22302.816      12733.2    -15234.77    26898.752    83.591717 
   19900    1366.9876   -116.84842    1.2368791   -115.61154    1729.5836    4.3730361    4.3730361    4.3730361    1729.5836    54289.891    10695.742   -59796.883    4240.1112   -31315.136    -13184.92    83.627517 
   20000    1387.9251   -116.87458    1.2558238   -115.61876   -2464.9432    4.3889502    4.3889502    4.3889502   -2464.9432     15609.48    7956.7204    -30961.03   -6187.5809    8239.5672   -27729.717     84.54384 
   20100    1988.4553   -117.40116    1.7991961   -115.60197   -10510.576    4.3956338    4.3956338    4.3956338   -10510.576   -28076.955    41384.851   -44839.623   -52.165291    11724.269    13039.021    84.930662 
   20200    1786.1813   -117.21969    1.6161744   -115.60351     19125.04    4.3686837    4.3686837    4.3686837     19125.04    52300.362    9442.7732   -4368.0152   -8815.4833   -9213.5682    5795.3032    83.378065 
   20300     1453.404   -116.93028    1.3150705   -115.61521    46.584246     4.360163     4.360163     4.360163    46.584246    6951.2908    16978.785   -23790.323    16896.018   -13049.079    -23661.56    82.891154 
   20400    1263.1892   -116.77468    1.1429601   -115.63172   -15329.273     4.392592     4.392592     4.392592   -15329.273   -29494.645    6661.6743    -23154.85   -2078.9916    20969.464   -2506.8656    84.754466 
   20500    1595.7246   -117.03598    1.4438452   -115.59213   -8320.1691    4.3978185    4.3978185    4.3978185   -8320.1691   -22769.782   -4947.7807    2757.0548   -20159.469    22742.531    9753.0648     85.05736 
   20600    1955.6721    -117.3441    1.7695332   -115.57457   -6321.1669    4.3737034    4.3737034    4.3737034   -6321.1669    7574.8739   -22840.456   -3697.9187    3928.3312   -2989.7333   -25825.052    83.665803 
   20700    1132.2176   -116.62215    1.0244542    -115.5977    15619.399    4.3721703    4.3721703    4.3721703    15619.399    25981.916    15187.796    5688.4845    11245.149     10005.06    2294.4868     83.57785 
   20800    1362.8387   -116.83793    1.2331251   -115.60481    -1001.894    4.3815292    4.3815292    4.3815292    -1001.894   -17300.833    15068.285   -773.13347    4493.8346   -2784.3272    29029.343    84.115711 
   20900    2062.0573   -117.47357    1.8657928   -115.60778   -23211.196    4.3914611    4.3914611    4.3914611   -23211.196   -6839.4708    -31536.65   -31257.467   -12671.989   -18442.356   -9800.3332    84.689023 
   21000    1273.6576    -116.7624    1.1524322   -115.60996    6130.8545    4.3879128    4.3879128    4.3879128    6130.8545    30633.148   -15971.095    3730.5108    4018.2986    22804.359   -17954.288    84.483904 
   21100    1380.1145   -116.84517    1.2487566   -115.59641    8363.1376    4.3685852    4.3685852    4.3685852    8363.1376    25194.999    29915.166   -30020.752    10098.378    25630.933    15759.473    83.372424 
   21200    1364.1563   -116.84329    1.2343173   -115.60897    9104.7999    4.3903278    4.3903278    4.3903278    9104.7999    18245.344    7461.7695    1607.2864   -11960.067   -2288.5973    584.05924    84.623473 
   21300    1672.3886   -117.09457    1.5132124   -115.58135   -31471.428      4.40636      4.40636      4.40636   -31471.428    -12964.39   -40777.705   -40672.188    -155.2432    18577.792   -4504.1926    85.553925 
   21400    897.66288   -116.40166   0.81222424   -115.58944     39501.58    4.3625636    4.3625636    4.3625636     39501.58     2028.287    31240.026    85236.428    6663.1238     39205.47   -3193.7791     83.02814 
   21500    1026.9837   -116.53832   0.92923639   -115.60908    40760.215    4.3538596    4.3538596    4.3538596    40760.215    34205.801    35230.237    52844.606   -21475.275     5651.993    17262.393    82.532168 
   21600    1719.2786    -117.1882    1.5556394   -115.63256   -9881.6747    4.3945035    4.3945035    4.3945035   -9881.6747   -3579.4239   -34319.557    8253.9565    8581.3589    -18007.24    14965.521    84.865161 
   21700    1203.8379   -116.68873    1.0892578   -115.59947    23527.227    4.4019547    4.4019547    4.4019547    23527.227    54242.656    9231.9025    7107.1221    2967.8317    21397.941    6947.4437    85.297582 
   21800    1204.8959   -116.66974    1.0902151   -115.57952    11012.486    4.3929564    4.3929564    4.3929564    11012.486    16579.165    32017.448   -15559.154   -21471.506    7757.9711   -298.31701    84.775564 
   21900    1714.0182   -117.11425    1.5508796   -115.56337   -21808.258    4.3885367    4.3885367    4.3885367   -21808.258    5195.2769   -7509.5592   -63110.493   -7202.2226   -26900.163    2706.4443    84.519942 
   22000    1981.0766   -117.35813    1.7925198   -115.56561    13466.723    4.3583727    4.3583727    4.3583727    13466.723    1271.8788    40142.774   -1014.4848   -5253.2636    10598.299   -1596.3429    82.789087 
   22100    1258.6805   -116.75522    1.1388806   -115.61634    15783.126     4.370065     4.370065     4.370065    15783.126    52412.307   -19022.998    13960.068   -11502.147    9160.3353    7626.4866    83.457178 
   22200    1036.6717   -116.55169   0.93800236   -115.61369   -30894.506    4.4113379    4.4113379    4.4113379   -30894.506    7576.7869   -50757.037   -49503.268   -14052.341   -20556.084    2666.1428    85.844204 
   22300    1955.4541   -117.33502     1.769336   -115.56568   -20082.999    4.3996295    4.3996295    4.3996295   -20082.999   -15015.479    4981.7699   -50215.287   -4769.7354    -10793.76    4497.0213    85.162483 
   22400    1523.4341   -116.93244    1.3784352     -115.554    11196.885    4.3710001    4.3710001    4.3710001    11196.885    34245.075   -8720.1894    8065.7687   -8503.4212    10359.088    16809.141    83.510762 
   22500    1369.6824   -116.82259    1.2393174   -115.58327   -673.46881    4.3692873    4.3692873    4.3692873   -673.46881    29360.997   -20124.967   -11256.436   -21952.703   -5756.6573    7012.2803    83.412626 
   22600    1520.2169   -116.99067    1.3755242   -115.61514   -2508.0194    4.3850298    4.3850298    4.3850298   -2508.0194   -4360.6905    21063.254   -24226.622    5993.7425   -21999.971   -2333.0644    84.317485 
   22700    1640.9426   -117.09139    1.4847593   -115.60663    17849.113    4.3874518    4.3874518    4.3874518    17849.113    20998.003    18157.514    14391.821    7951.8285   -4413.5189   -9397.5472    84.457276 
   22800    1272.7428   -116.74501    1.1516044    -115.5934    37352.353    4.3851757    4.3851757    4.3851757    37352.353      50776.6    65248.512   -3968.0531   -197.58257    7823.8731    9858.4484    84.325904 
   22900    1194.3672   -116.66816    1.0806886   -115.58747   -2653.1424    4.3973799    4.3973799    4.3973799   -2653.1424   -19422.023    28756.717   -17294.121   -3213.1274    -22927.21   -5703.1223    85.031914 
   23000    1688.9638   -117.09767      1.52821   -115.56946    16432.939    4.3860182    4.3860182    4.3860182    16432.939    6592.9085    40953.564    1752.3442    19658.784    3790.4765   -3572.2226    84.374516 
   23100    1439.6759    -116.8791     1.302649   -115.57645    3551.3073    4.3850041    4.3850041    4.3850041    3551.3073    4432.5285    31055.307   -24833.913   -11412.466    5075.9991    1274.7628    84.316002 
   23200    843.23031   -116.34888   0.76297251   -115.58591   -21250.036    4.3968609    4.3968609    4.3968609   -21250.036   -29954.619   -10927.967   -22867.522   -21386.072   -18390.355   -12200.489    85.001812 
   23300     1516.801   -116.94738    1.3724334   -115.57494    25984.966    4.3767392    4.3767392    4.3767392    25984.966    27749.625    57667.671   -7462.3974    14398.302    1379.8341   -26266.817    83.840141 
   23400    1761.4811   -117.18043    1.5938252   -115.58661    37593.696    4.3618585    4.3618585    4.3618585    37593.696    23220.489    77874.471    11686.129    -2697.056    9447.2799   -20673.257    82.987892 
   23500    1328.8148    -116.8235    1.2023396   -115.62116   -11921.743    4.3833764    4.3833764    4.3833764   -11921.743   -60694.435    43332.008   -18402.801   -1185.8839   -9733.5056   -1493.8164    84.222144 
   23600     1180.922   -116.67987     1.068523   -115.61135   -13593.008     4.392189     4.392189     4.392189   -13593.008   -12848.078    -5089.396    -22841.55   -31165.735   -9263.0785   -26604.571    84.731145 
   23700    1853.7577   -117.27189     1.677319   -115.59457    6345.5314     4.383279     4.383279     4.383279    6345.5314    6313.1049   -5151.9038    17875.393    4484.6969    6890.3336   -17051.269    84.216533 
   23800    1853.3792   -117.26935    1.6769765   -115.59237   -22655.995    4.3874184    4.3874184    4.3874184   -22655.995   -60206.961    2271.5209   -10032.546    10370.805   -6415.5597   -6162.6448    84.455346 
   23900    1523.2349   -116.97581    1.3782549   -115.59756   -16588.494    4.3754642    4.3754642    4.3754642   -16588.494   -48265.767   -1845.5499    345.83639   -25142.313   -9950.3575   -13494.365    83.766895 
   24000    1373.4497    -116.8489    1.2427261   -115.60618    29915.439    4.3721358    4.3721358    4.3721358    29915.439     23121.91     31348.49    35275.918   -3113.1616     10583.31   -1959.2383    83.575872 
   24100    1484.9886   -116.95103    1.3436489   -115.60738    -5960.193     4.401797     4.401797     4.401797    -5960.193   -1140.7665    11063.291   -27803.103     3086.671    7199.6532    26056.261    85.288412 
   24200    1573.3029   -117.02279    1.4235575   -115.59923   -4004.3761    4.3824235    4.3824235    4.3824235   -4004.3761   -33563.561    42055.716   -20505.283   -12165.078    6574.0676    3059.8391    84.167228 
   24300    1248.3979     -116.711    1.1295767   -115.58142    35055.514    4.3456038    4.3456038    4.3456038    35055.514    40774.504    58676.138    5715.8999   -13497.237    11992.063   -21025.768    82.063568 
   24400    1157.4332   -116.67684    1.0472699   -115.62957   -2392.4248    4.3740587    4.3740587    4.3740587   -2392.4248     51724.58   -24855.449   -34046.405   -5941.6429    335.81159    12512.684    83.686197 
   24500    1412.4375   -116.87628    1.2780031   -115.59827   -5691.5182    4.3984958    4.3984958    4.3984958   -5691.5182   -8798.6908    3102.5834   -11378.447    16438.319    2600.9991    14426.915    85.096668 
   24600    1482.0333   -116.93761    1.3409748   -115.59664     2708.499    4.3858641    4.3858641    4.3858641     2708.499   -19838.146    66049.825   -38086.182   -8849.3792   -2481.5023   -17657.251    84.365624 
   24700    1130.6348    -116.6218    1.0230221   -115.59878    18341.888    4.3772335    4.3772335    4.3772335    18341.888    1673.8539    96290.158   -42938.348   -4690.9771   -1151.4134    -15597.42     83.86855 
   24800    859.26621   -116.39396   0.77748212   -115.61648   -5272.9381    4.3815908    4.3815908    4.3815908   -5272.9381    -28896.42    38465.613   -25388.007    25616.772    12544.702    9982.0574    84.119262 
   24900    1329.6913   -116.81539    1.2031326   -115.61226    2294.9955    4.3817473    4.3817473    4.3817473    2294.9955   -16643.608    10795.517    12733.078    15476.499     16715.39   -8324.3764    84.128276 
   25000    2425.2047   -117.79329    2.1943761   -115.59891   -17581.405    4.3865041    4.3865041    4.3865041   -17581.405   -9383.8368    -7907.043   -35453.335   -6124.4954   -5431.2243   -10351.785    84.402558 
   25100    1503.0013   -116.96932    1.3599472   -115.60937   -14684.903    4.3783372    4.3783372    4.3783372   -14684.903   -35318.956   -4793.7374   -3942.0171    27115.175   -1566.0736    13435.708    83.932007 
   25200    892.93495   -116.42169   0.80794631   -115.61374    26317.362    4.3669171    4.3669171    4.3669171    26317.362   -982.08251    74447.562     5486.607    26694.505    22106.485    5656.3616    83.276958 
   25300    2109.6558   -117.50553    1.9088609   -115.59667   -755.15991     4.384009     4.384009     4.384009   -755.15991    11861.426    973.90514   -15100.811   -14898.633   -1675.0263   -20413.838    84.258614 
   25400    2081.5299   -117.47074     1.883412   -115.58733   -7688.4673    4.3834711    4.3834711    4.3834711   -7688.4673   -17728.592    7151.6098    -12488.42    19455.332    3028.5286    6390.1193    84.227601 
   25500    1303.8943   -116.77643    1.1797909   -115.59664    5226.9799    4.3767192    4.3767192    4.3767192    5226.9799   -5013.8033   -8319.3504    29014.093    27902.877    15413.361    14239.789    83.838993 
   25600     1886.785   -117.30067    1.7072027   -115.59347   -15160.896    4.3835622    4.3835622    4.3835622   -15160.896    33600.596   -42384.691   -36698.591   -6472.4254   -14665.996   -13316.011    84.232852 
   25700    1884.8059   -117.29725     1.705412   -115.59184    2770.9705     4.375595     4.375595     4.375595    2770.9705    33254.929   -29384.006    4441.9892    6516.5878   -3315.0206    -20744.68    83.774403 
   25800    1353.2379   -116.82841    1.2244381   -115.60397    775.09125    4.3812643    4.3812643    4.3812643    775.09125    15212.541   -21133.715     8246.448    35758.924     10431.96    19410.799    84.100457 
   25900    1528.5878   -116.97419    1.3830984    -115.5911   -23076.368    4.3924055    4.3924055    4.3924055   -23076.368    15410.487   -26747.568   -57892.022   -5092.3018    10097.206    8735.3708     84.74367 
   26000    1691.7887   -117.10909     1.530766   -115.57832    7068.1079    4.3802081    4.3802081    4.3802081    7068.1079    55370.532   -32396.034   -1770.1741    3996.5518   -12018.827   -26436.007    84.039647 
   26100    1333.2836   -116.79117     1.206383   -115.58478   -3080.9836     4.372119     4.372119     4.372119   -3080.9836   -2061.2997   -15905.402    8723.7505    39129.589    11983.923    17815.726     83.57491 
   26200    1402.1045    -116.8612    1.2686536   -115.59254   -10333.039    4.3670381    4.3670381    4.3670381   -10333.039    23435.376    -27331.49   -27103.004    13017.368    8350.1221    9908.5257    83.283878 
   26300    1953.0514   -117.36512    1.7671619   -115.59796   -14464.815    4.3741063    4.3741063    4.3741063   -14464.815    22147.866     -17281.6   -48260.711    1673.5384   -18826.226   -27538.796    83.688927 
   26400     1365.825   -116.83589    1.2358271   -115.60007   -19293.908    4.3917225    4.3917225    4.3917225   -19293.908   -4439.3982     -25507.7   -27934.626    5444.7127   -3959.8905    11470.992    84.704144 
   26500    1410.1097   -116.86337    1.2758969   -115.58747   -12243.105     4.389968     4.389968     4.389968   -12243.105    -6920.885   -18385.521   -11422.911    25840.193   -2735.7651    18695.911    84.602671 
   26600    2262.3196   -117.61931    2.0469943   -115.57232   -23628.302     4.385195     4.385195     4.385195   -23628.302   -11695.066   -35369.675   -23820.166    1532.3513    4097.4258   -27542.418    84.327014 
   26700    1510.2782   -116.95283    1.3665314    -115.5863   -1344.0355    4.3776269    4.3776269    4.3776269   -1344.0355   -17642.812   -3200.6525    16811.358   -3544.2761   -22192.617   -4151.4243    83.891165 
   26800    1421.3443   -116.88761    1.2860622   -115.60154   -4018.3565    4.3828747    4.3828747    4.3828747   -4018.3565   -24647.883   -24569.939    37162.753    34616.223    12134.495    27832.647     84.19323 
   26900    2037.1998   -117.42715    1.8433012   -115.58385   -34486.773    4.3994633    4.3994633    4.3994633   -34486.773   -61448.768   -13573.271   -28438.279    5056.5543   -16308.822   -6543.9291    85.152832 
   27000    1716.7103   -117.12978    1.5533156   -115.57646   -16714.871    4.3800666    4.3800666    4.3800666   -16714.871   -38091.661   -8755.0169   -3297.9349    75.060398   -37662.881   -727.31412    84.031504 
   27100    1349.2351   -116.79497    1.2208163   -115.57415    3846.9773    4.3615468    4.3615468    4.3615468    3846.9773   -24525.307    5694.2707    30371.968    22665.182    9042.5699    13749.151    82.970101 
   27200    1394.4157   -116.86151    1.2616966   -115.59981   -20222.546    4.3818661    4.3818661    4.3818661   -20222.546   -58099.423   -1711.8655   -856.34837    16180.841   -11306.452   -1611.0115    84.135119 
   27300    1606.6421   -117.04102    1.4537235    -115.5873   -2339.1308    4.3832057    4.3832057    4.3832057   -2339.1308   -21851.646    44665.562   -29831.309    569.33062    -22054.05   -7468.2602    84.212308 
   27400    1219.6927   -116.69205    1.1036035   -115.58845    17326.683    4.3741702    4.3741702    4.3741702    17326.683    15238.901     38291.11   -1549.9616    466.94175    2346.3622    33736.963    83.692593 
   27500    1486.1556     -116.944    1.3447048   -115.59929    -16121.79    4.3773985    4.3773985    4.3773985    -16121.79   -1140.6178   -29841.525   -17383.226    19475.685   -9030.4042    23681.693    83.878035 
   27600    1764.3644   -117.19228     1.596434   -115.59585    21108.124    4.3684384    4.3684384    4.3684384    21108.124    15148.155    63471.608   -15295.392    1035.2472   -19464.926   -19832.735    83.364021 
   27700    1659.0227   -117.11389    1.5011186   -115.61277   -23115.339    4.3786767    4.3786767    4.3786767   -23115.339    2329.5754   -43813.469   -27862.123    8004.0305    1978.5254    25708.014    83.951536 
   27800    1212.6388   -116.70223    1.0972211   -115.60501    -28367.16    4.3854479    4.3854479    4.3854479    -28367.16   -6044.6257   -71001.971   -8054.8834    39682.079   -1521.7278    32145.769    84.341608 
   27900     1822.958   -117.23726    1.6494507   -115.58781    29199.145    4.3728165    4.3728165    4.3728165    29199.145    8937.8942    77551.194    1108.3471   -20495.737    6092.1255   -11325.504    83.614916 
   28000     1663.702   -117.10667    1.5053525   -115.60132    728.12435    4.3742068    4.3742068    4.3742068    728.12435    17538.429    5416.2589   -20770.315    -2311.793   -921.84268    2180.0073    83.694698 
   28100    1149.2866   -116.64826    1.0398987   -115.60836    26112.187    4.3740556    4.3740556    4.3740556    26112.187    40925.249     30232.68    7178.6321    29949.419   -10962.231    38835.944    83.686017 
   28200     1689.354   -117.12653     1.528563   -115.59797    11797.003    4.3959799    4.3959799    4.3959799    11797.003   -2107.9608    12361.183    25137.786    628.29967    4652.6762    -12445.54    84.950724 
   28300     1537.004   -116.97009    1.3907135   -115.57937   -1450.0567    4.3949558    4.3949558    4.3949558   -1450.0567   -3562.9571    5007.5248   -5794.7379   -6159.2593    -986.1478    3585.3112    84.891367 
   28400    1121.2315   -116.57844    1.0145138   -115.56393    38971.392    4.3706533    4.3706533    4.3706533    38971.392    72540.026    17457.844    26916.307    11659.006    5821.4237    39194.361    83.490888 
   28500    1782.0539   -117.18239    1.6124398   -115.56995    10452.559    4.3771588    4.3771588    4.3771588    10452.559    38596.375   -7404.6017    165.90303     11554.95   -11758.964   -13012.913    83.864256 
   28600    1353.5034    -116.8046    1.2246783   -115.57992    3538.5115    4.3861561    4.3861561    4.3861561    3538.5115   -24971.457    8817.8694    26769.122   -8743.3401   -9582.2461    1348.1341    84.382474 
   28700    1358.5964   -116.81386    1.2292866   -115.58457    17407.034    4.3867689    4.3867689    4.3867689    17407.034    26717.377    21328.167    4175.5565   -1050.2369    6470.7053    24919.435    84.417848 
   28800    1728.8298   -117.14084    1.5642815   -115.57656   -16016.148    4.3948824    4.3948824    4.3948824   -16016.148   -38752.539   -1456.6528   -7839.2521    14929.199   -21193.695   -9146.9176    84.887117 
   28900    1375.8434   -116.82833     1.244892   -115.58344    7871.4301    4.3720231    4.3720231    4.3720231    7871.4301    6566.1678    10741.989    6306.1333   -15800.173   -18659.372   -5418.4477     83.56941 
   29000    1745.7082   -117.16486    1.5795534   -115.58531    24134.626    4.3626346    4.3626346    4.3626346    24134.626    42728.408    38299.538   -8624.0685    2497.6131     17823.89    29257.614    83.032197 
   29100    1481.8206   -116.94324    1.3407824   -115.60246    5733.8922    4.3859484    4.3859484    4.3859484    5733.8922   -3660.5187    16798.374    4063.8209    10704.086   -26005.136    2702.3121    84.370489 
   29200    1661.7431   -117.10029    1.5035801   -115.59671   -8704.9868    4.3759184    4.3759184    4.3759184   -8704.9868   -2587.7304     6226.268   -29753.498   -18341.851   -10330.082     -16938.7    83.792984 
   29300     1175.849   -116.65111    1.0639329   -115.58717    47779.963    4.3706691    4.3706691    4.3706691    47779.963    77876.068    35286.074    30177.747   -976.73297    18024.857    35149.546    83.491795 
   29400    1663.0034   -117.08478    1.5047204   -115.58006   -23557.221    4.3989427    4.3989427    4.3989427   -23557.221   -42624.009    12500.765   -40548.419   -2352.6983   -31634.361    3783.5312    85.122605 
   29500    1410.4918   -116.85208    1.2762426   -115.57584   -9162.1238    4.3788317    4.3788317    4.3788317   -9162.1238   -309.58809    19387.009   -46563.792    549.13204   -22277.415   -9727.7024    83.960453 
   29600    1437.2977   -116.86614    1.3004972   -115.56564    28900.569    4.3571021    4.3571021    4.3571021    28900.569    65000.599   -2811.6836    24512.792    2647.2574    5270.6628    39926.367    82.716704 
   29700    1485.4555   -116.93515    1.3440714   -115.59108   -9311.1979    4.3856158    4.3856158    4.3856158   -9311.1979    -21796.45    34413.775   -40550.919   -5587.7593   -20227.973   -5625.2276    84.351292 
   29800    1409.5375   -116.85725    1.2753791   -115.58187   -15574.778     4.389704     4.389704     4.389704   -15574.778   -24887.889    19025.298   -40861.742    13170.039   -30319.303   -3958.4197    84.587407 
   29900    1573.3445   -116.99344    1.4235952   -115.56985   -681.47016     4.386978     4.386978     4.386978   -681.47016    38008.515   -25389.507   -14663.418   -17686.039    11431.256    28488.089    84.429918 
   30000    1142.6505   -116.60924    1.0338942   -115.57535   -17952.452    4.3930484    4.3930484    4.3930484   -17952.452     -8128.08    18259.152   -63988.428   -3032.6814   -46877.697    3636.9333     84.78089 
   30100    1445.9643   -116.87533    1.3083389   -115.56699     3191.684    4.3690692    4.3690692    4.3690692     3191.684   -18077.464     63247.83   -35595.314    11115.871    -46782.18    170.00229    83.400138 
   30200    1580.3845   -117.00486    1.4299651    -115.5749    18860.028    4.3641338    4.3641338    4.3641338    18860.028    57248.847    8555.3768   -9224.1411   -19209.619    16613.319    13939.959    83.117824 
   30300    1139.2442   -116.62541    1.0308121    -115.5946    -27524.84    4.3967263    4.3967263    4.3967263    -27524.84   -39705.778    29210.638   -72079.379   -621.96838     -55057.2     6586.235    84.994005 
   30400    1664.3289   -117.07137    1.5059198   -115.56545   -6340.3175    4.3932592    4.3932592    4.3932592   -6340.3175   -19271.254    49517.077   -49266.776   -12599.313   -15012.971   -18131.808    84.793096 
   30500    1470.1568   -116.88591    1.3302287   -115.55568    11327.178    4.3704766    4.3704766    4.3704766    11327.178    4339.9739    48982.618   -19341.058     2552.971    2573.5411    11755.268    83.480761 
   30600    704.48762   -116.22784   0.63743521   -115.59041   -1332.3177    4.3770449    4.3770449    4.3770449   -1332.3177     -36621.9    52735.397    -20110.45    5883.9035   -56112.304    4979.8554     83.85771 
   30700     1686.477   -117.11234    1.5259598   -115.58638    12704.281    4.3924699    4.3924699    4.3924699    12704.281   -37423.817    39522.913    36013.748     5627.223    -3407.242   -22211.515    84.747401 
   30800    1233.5567   -116.69738     1.116148   -115.58123    7706.8051    4.4025523    4.4025523    4.4025523    7706.8051   -27347.884    18393.069    32075.229   -1826.9087    -14800.88   -12578.597    85.332325 
   30900    661.99644   -116.16989   0.59898829    -115.5709   -2564.3942    4.4020195    4.4020195    4.4020195   -2564.3942    -11013.29    23619.433   -20299.326   -19.180442   -45920.623    9740.5178    85.301346 
   31000    1719.4863   -117.09727    1.5558273   -115.54144    27702.542    4.3811409    4.3811409    4.3811409    27702.542    6776.3797    47855.524    28475.722    3111.4289    17438.486   -3033.7945    84.093352 
   31100    1371.3021   -116.79533     1.240783   -115.55454    23724.377    4.3649828    4.3649828    4.3649828    23724.377   -1229.3891    60959.818    11442.702   -8427.2393   -39510.464   -18492.245    83.166344 
   31200    957.00291   -116.45487   0.86591635   -115.58896   -218.83992    4.3816965    4.3816965    4.3816965   -218.83992   -5317.6229    34031.411   -29370.308    12524.367   -23936.044    21746.959    84.125349 
   31300    1946.8317   -117.33147    1.7615343   -115.56994   -29797.448    4.3985038    4.3985038    4.3985038   -29797.448   -23846.964   -44458.906   -21086.473   -7042.5399    21516.055     14168.78    85.097127 
   31400    1302.1592   -116.73868     1.178221   -115.56046   -5041.6335    4.3934466    4.3934466    4.3934466   -5041.6335   -1814.4437    16860.185   -30170.642    6992.0575   -50397.735    2553.7043    84.803943 
   31500    1782.3027   -117.15873    1.6126649   -115.54606   -10641.225    4.3810845    4.3810845    4.3810845   -10641.225   -9120.1031    7997.3785   -30800.951    10394.611   -7843.7393    20576.344    84.090101 
   31600    1565.1273   -116.96429    1.4161601   -115.54813    5789.5944    4.3753986    4.3753986    4.3753986    5789.5944    37607.746   -5815.4084   -14423.555    11801.328   -5022.2094     18395.48    83.763123 
   31700    1748.3752   -117.14281    1.5819666   -115.56084   -19468.314     4.389205     4.389205     4.389205   -19468.314   -26877.932     3649.654   -35176.663    13729.172   -47512.756   -5098.6141    84.558561 
   31800    1625.8696   -117.02284     1.471121   -115.55172   -15735.482    4.3992034    4.3992034    4.3992034   -15735.482    13571.598   -11193.598   -49584.445    10250.141     7512.136    35778.423    85.137743 
   31900     1688.963    -117.0756    1.5282092   -115.54739   -33192.204    4.3882317    4.3882317    4.3882317   -33192.204   -28388.342   -21929.481    -49258.79    18856.826   -26797.702    20290.746    84.502322 
   32000    1735.9212   -117.11831     1.570698   -115.54761    932.44961    4.3681825    4.3681825    4.3681825    932.44961   -1447.4657    33035.982   -28791.167   -3707.5959   -39860.431   -13798.238    83.349368 
   32100    2151.0267   -117.51357    1.9462942   -115.56727   -91.530947    4.3653925    4.3653925    4.3653925   -91.530947    14898.779   -8506.6914   -6666.6803    24403.583    6176.9765    30008.578    83.189765 
   32200    1578.0588   -117.02171    1.4278608   -115.59385   -18607.814    4.3901336    4.3901336    4.3901336   -18607.814   -20320.207    -14091.96   -21411.276    8273.3248   -20118.221   -2813.5828    84.612243 
   32300    1798.0701   -117.19971    1.6269316   -115.57278   -27874.473    4.4036804    4.4036804    4.4036804   -27874.473   -24000.049   -21369.309   -38254.063    4731.1495   -37637.113   -2432.4061    85.397939 
   32400    1708.9364   -117.11152    1.5462815   -115.56524   -8582.0736    4.3770408    4.3770408    4.3770408   -8582.0736    32609.568   -27310.259    -31045.53    3914.1558    23037.311    29797.949    83.857477 
   32500    1548.0512   -116.96145    1.4007093   -115.56074    27234.759    4.3465311    4.3465311    4.3465311    27234.759    55651.184    17365.118    8687.9744    4492.3059   -14026.705   -6583.3736    82.116109 
   32600    1631.7246   -117.06895    1.4764187   -115.59254    26620.895    4.3645882    4.3645882    4.3645882    26620.895    50450.805    28382.261    1029.6196    14656.551   -32253.048   -1726.3709    83.143788 
   32700    1267.6139    -116.7357    1.1469637   -115.58873   -16932.176    4.4011096    4.4011096    4.4011096   -16932.176    22191.373   -38548.685   -34439.216   -7245.2373    28344.164    23743.196    85.248464 
   32800    1469.8867   -116.90722    1.3299844   -115.57723   -10175.182    4.3818414    4.3818414    4.3818414   -10175.182    2958.3539   -15791.926   -17691.973    17254.222    2429.8731   -10678.097    84.133698 
   32900     1461.285   -116.88091    1.3222014   -115.55871    59269.824    4.3490913    4.3490913    4.3490913    59269.824    83401.656    63034.692    31373.126     12690.74   -19849.404    1164.7501    82.261304 
   33000    1351.7822    -116.8224    1.2231209   -115.59928    -3736.585     4.368755     4.368755     4.368755    -3736.585    6687.1153    2031.8907   -19928.761    899.50115    10139.385    32537.646    83.382149 
   33100    1270.9228   -116.74232    1.1499577   -115.59237   -7155.6884    4.3890733    4.3890733    4.3890733   -7155.6884     1641.838    5575.1593   -28684.063    14018.891    11499.458   -12164.885    84.550955 
   33200    1713.0626   -117.12431    1.5500151    -115.5743    1819.0944    4.3859939    4.3859939    4.3859939    1819.0944    11329.479   -19069.757    13197.561    12002.772   -16930.837   -15429.676    84.373111 
   33300    1408.7206   -116.84368      1.27464   -115.56904    5565.2503    4.3820433    4.3820433    4.3820433    5565.2503    3532.2446   -1730.0561    14893.562   -5868.5744    11243.145    23420.744    84.145323 
   33400    1458.7173    -116.8912    1.3198781   -115.57133    13283.198     4.365941     4.365941     4.365941    13283.198   -4324.2872    19672.365    24501.516   -8861.8619    14930.051   -7520.3153    83.221124 
   33500    1419.5899    -116.8759    1.2844748   -115.59142    12333.978    4.3696562    4.3696562    4.3696562    12333.978    52746.807   -18034.715    2289.8434    22210.219   -13948.311   -34992.824    83.433756 
   33600     1500.139   -116.94429    1.3573573   -115.58693   -24220.902    4.3866628    4.3866628    4.3866628   -24220.902   -1618.3521   -41935.842   -29108.513    16033.814    9675.9132    27884.088    84.411722 
   33700     1612.483   -117.03184    1.4590085   -115.57283    -7766.277    4.3755635    4.3755635    4.3755635    -7766.277    -16034.51    30113.506   -37377.827    2508.7158    16436.887   -3260.6166    83.772596 
   33800    1414.9276   -116.85462    1.2802563   -115.57437    5753.2212    4.3668642    4.3668642    4.3668642    5753.2212    43334.911   -3225.6783   -22849.569    17967.982   -10587.797    -40202.79     83.27393 
   33900    1493.7624   -116.93422    1.3515876   -115.58264   -1610.6262    4.3678688    4.3678688    4.3678688   -1610.6262    20947.101   -17664.208   -8114.7716   -1454.5965    24878.548    29590.079    83.331416 
   34000    1505.7739   -116.95369    1.3624559   -115.59123    1162.9702    4.3695331    4.3695331    4.3695331    1162.9702   -5379.3685    9192.4672   -324.18816   -6437.7514    27162.089   -8180.6861    83.426705 
   34100    1096.9968   -116.58977   0.99258574   -115.59719   -3530.2514    4.3785036    4.3785036    4.3785036   -3530.2514    -1182.256   -25770.644    16362.146    15450.869   -10.186052   -36517.574    83.941577 
   34200      1474.93   -116.91416    1.3345477   -115.57961   -9665.2412     4.378692     4.378692     4.378692   -9665.2412   -45627.983   -29627.668    46259.928   -4448.8637    4485.3673    17183.871    83.952414 
   34300    951.79695   -116.44513   0.86120588   -115.58392    12690.447    4.3746373    4.3746373    4.3746373    12690.447   -11683.846   -2732.7511    52487.938   -76.837061    13443.453   -14546.553    83.719407 
   34400    1307.2707   -116.76563     1.182846   -115.58278   -2866.0238    4.3809245    4.3809245    4.3809245   -2866.0238    8234.3244   -13801.222   -3031.1738    18095.434    13115.495   -47370.014    84.080894 
   34500    1687.1877   -117.10068    1.5266029   -115.57407   -9241.2151    4.3866195    4.3866195    4.3866195   -9241.2151   -21395.493   -14899.723    8571.5713   -18892.565   -621.00839    6654.1699    84.409223 
   34600    1455.0606   -116.89136    1.3165694   -115.57479   -23230.134     4.381813     4.381813     4.381813   -23230.134   -15925.343   -4586.3893    -49178.67   -3000.0556     20062.64   -2845.3485    84.132058 
   34700    1450.8045    -116.8961    1.3127184   -115.58338   -24528.884    4.3695613    4.3695613    4.3695613   -24528.884   -1084.5912    -28457.99   -44044.071    2595.7036    15322.603   -56567.976    83.428323 
   34800    1764.6398   -117.18445    1.5966831   -115.58777    21397.401    4.3593257    4.3593257    4.3593257    21397.401    3171.5605    444.66891    60575.974   -11935.265    1353.3249    7871.1533    82.843406 
   34900    1997.0158   -117.40699    1.8069419   -115.60005   -10186.251    4.3681279    4.3681279    4.3681279   -10186.251   -23401.716    16488.627   -23645.663   -7924.8057    3103.5832   -12618.809    83.346245 
   35000    1258.7043   -116.74662    1.1389021   -115.60772   -1114.5696    4.3735816    4.3735816    4.3735816   -1114.5696    5570.2927   -6275.8184   -2638.1833    3279.3672    2844.0386   -46618.326    83.658813 
[...]
   91200    1565.4075   -117.01557    1.4164136   -115.59916   -9374.3725    4.3630028    4.3630028    4.3630028   -9374.3725   -22625.524   -14261.486    8763.8928   -24573.535   -6636.4541    8853.6724    83.053222 
   91300    2109.0175   -117.49318    1.9082833   -115.58489    -2840.599    4.3569105    4.3569105    4.3569105    -2840.599   -4522.4629    12699.816    -16699.15    14552.833    3293.0858    -32467.36    82.705788 
   91400    1491.6075   -116.94671    1.3496378   -115.59707    4103.5627    4.3490821    4.3490821    4.3490821    4103.5627    46750.157   -4409.3995   -30030.069     5067.436    1026.3517    56703.843    82.260781 
   91500    1737.6419   -117.17132    1.5722549   -115.59906    6616.5098     4.350151     4.350151     4.350151    6616.5098   -2079.8717    19110.457    2818.9439   -19716.978   -2211.0395    28125.611    82.321447 
   91600    1897.4559   -117.31483     1.716858   -115.59798     9302.314    4.3550999    4.3550999    4.3550999     9302.314   -3624.2497     43846.48   -12315.289    3218.5996   -6769.5289   -18433.143    82.602724 
   91700    651.34253   -116.20579   0.58934841   -115.61644   -5506.0126    4.3583563    4.3583563    4.3583563   -5506.0126    73357.552   -31757.491   -58118.099    6430.0353   -536.69901    59933.326    82.788153 
   91800     1752.637   -117.18311    1.5858228   -115.59729    9919.2981    4.3559338    4.3559338    4.3559338    9919.2981    28642.038    21476.649   -20360.792    10288.544   -2365.4425   -4379.5894    82.650184 
   91900     1988.489   -117.38758    1.7992267   -115.58836    2919.5013    4.3539589    4.3539589    4.3539589    2919.5013   -3040.9094    19544.202   -7744.7888    5435.7692    513.85969    13318.932    82.537815 
   92000    835.32375   -116.36542   0.75581848    -115.6096   -17445.006    4.3492339    4.3492339    4.3492339   -17445.006    43753.823   -51501.847   -44586.992   -2035.7341   -2822.9107    80322.214    82.269396 
   92100    1263.9545   -116.74833    1.1436526   -115.60467     6732.701    4.3484783    4.3484783    4.3484783     6732.701    23641.311    2368.9204   -5812.1281     11390.05   -3770.2688   -33839.241    82.226521 
   92200    1413.5826   -116.87591    1.2790392   -115.59687   -6103.7576    4.3624924    4.3624924    4.3624924   -6103.7576   -4791.0552   -16815.887    3295.6694   -10032.736    4801.9736    -7950.501    83.024076 
   92300    1403.7506   -116.86125     1.270143   -115.59111   -8401.9963      4.35695      4.35695      4.35695   -8401.9963    12421.663   -6532.3556   -31095.296   -5714.7939   -9718.3873    63200.249    82.708039 
   92400    1324.6803   -116.78436    1.1985986   -115.58576    5318.6513    4.3510494    4.3510494    4.3510494    5318.6513    22845.728    5612.5098   -12502.284    13526.833   -1947.4613   -30909.477    82.372464 
   92500     1305.526   -116.77292    1.1812673   -115.59165    -13124.67    4.3581154    4.3581154    4.3581154    -13124.67   -4948.6067   -37331.326    2905.9229   -15833.682    1659.5243   -18798.573    82.774428 
   92600    1692.9598    -117.1171    1.5318256   -115.58528    14259.157     4.353001     4.353001     4.353001    14259.157    12687.368    34478.055   -4387.9525   -19694.214   -3295.2602    35042.803    82.483354 
   92700    1608.2309   -117.04901    1.4551611   -115.59385    -2406.172    4.3557054    4.3557054    4.3557054    -2406.172    18242.492    7239.1105   -32700.118    16450.782   -3933.7954    -35950.23     82.63718 
   92800     1333.226   -116.80398    1.2063309   -115.59765   -5984.0731    4.3576692    4.3576692    4.3576692   -5984.0731   -6930.9607   -11617.386    596.12747   -3645.4517    923.65569   -23996.986    82.749004 
   92900    1889.2834   -117.29541    1.7094633   -115.58594    8366.7279    4.3535947    4.3535947    4.3535947    8366.7279   -23038.648    39210.342    8928.4899   -27968.038    4407.5037    20440.382    82.517108 
   93000    1555.1127   -117.00281    1.4070986   -115.59571    5633.8407    4.3548677    4.3548677    4.3548677    5633.8407    27650.239    20050.098   -30798.815    1040.2917   -11848.433   -45490.913    82.589511 
   93100    1503.9544   -116.95583    1.3608096   -115.59502    13745.993    4.3523437    4.3523437    4.3523437    13745.993    19352.888    20086.534    1798.5566   -4385.0348   -2337.2309   -30697.326    82.445994 
   93200    1825.4007   -117.23656    1.6516609    -115.5849    6256.8985    4.3591192    4.3591192    4.3591192    6256.8985   -20461.636    27181.632      12050.7   -19822.716    4464.8166    12792.382    82.831635 
   93300    992.94109   -116.49498   0.89843397   -115.59654   -25526.125    4.3615243    4.3615243    4.3615243   -25526.125    17814.799   -43909.557   -50483.618   -3017.1499    -11981.67   -64481.538    82.968814 
   93400    1627.5491   -117.05933    1.4726406   -115.58668    1745.7154    4.3507079    4.3507079    4.3507079    1745.7154    26732.933   -2434.1665    -19061.62    3467.5895   -5090.5981   -9960.0377     82.35307 
   93500    1716.0519   -117.13336    1.5527198   -115.58064   -13733.702    4.3601317    4.3601317    4.3601317   -13733.702    -11846.13   -27797.502   -1557.4742    -20083.12    445.54885    2219.4381    82.889366 
   93600    624.63517   -116.16118   0.56518303     -115.596   -21716.927    4.3606396    4.3606396    4.3606396   -21716.927    26573.191   -57324.008   -34399.964    419.06387    1369.4577    -75525.68    82.918339 
   93700    1418.7426    -116.8714    1.2837081   -115.58769   -733.43735    4.3497387    4.3497387    4.3497387   -733.43735    7807.6259    686.39044   -10694.328    7413.5289   -11602.499    14308.732    82.298044 
   93800     1455.073   -116.90563    1.3165806   -115.58905    -12422.04    4.3538368    4.3538368    4.3538368    -12422.04    34316.586   -50703.665    -20879.04   -36.927026    -222.1425    2535.7485    82.530874 
   93900    941.18778   -116.45356   0.85160648   -115.60195   -1541.5167    4.3518811    4.3518811    4.3518811   -1541.5167    61629.416    -47550.34   -18703.626   -6632.2731    898.59579   -78365.708    82.419709 
   94000    1836.0438   -117.25503     1.661291   -115.59373    9887.5023    4.3551743    4.3551743    4.3551743    9887.5023    11255.295   -11299.503    29706.715   -6665.5594   -8151.3952    12049.684    82.606958 
   94100    1514.3552   -116.97336    1.3702204   -115.60314   -7111.0105    4.3567945    4.3567945    4.3567945   -7111.0105    22917.939   -42788.927   -1462.0432    10002.528   -7437.5482   -8817.3146    82.699185 
   94200    876.53328   -116.40382   0.79310573   -115.61071    13417.505    4.3465466    4.3465466    4.3465466    13417.505    82076.717   -42037.944    213.74254   -473.84468   -6661.0389   -52880.722    82.116988 
   94300    1809.3762   -117.24042    1.6371616   -115.60326    10180.705    4.3523445    4.3523445    4.3523445    10180.705    11351.374   -12872.401    32063.143   -27839.894    9259.7922    16503.487    82.446036 
   94400    1806.8443    -117.2356    1.6348707   -115.60073    3211.0907    4.3565877    4.3565877    4.3565877    3211.0907     6620.777   -14308.152    17320.647    -18006.01    10190.475   -20489.874    82.687408 
   94500    1718.2962    -117.1552    1.5547505   -115.60045     11835.57     4.352474     4.352474     4.352474     11835.57    55662.427   -2388.2463    -17767.47    3295.8462   -7702.9733   -50648.835    82.453398 
   94600    1782.0399   -117.20841    1.6124271   -115.59598    11359.646    4.3546014    4.3546014    4.3546014    11359.646     8186.565    24712.197    1180.1757   -19909.945    7111.9562    22492.191    82.574361 
   94700    1645.8884   -117.08362    1.4892344   -115.59439    -4894.508    4.3594826    4.3594826    4.3594826    -4894.508   -16027.418    14365.635   -13021.741    -15911.85    23608.299   -11135.492    82.852356 
   94800    1933.3198   -117.33674    1.7493083   -115.58743   -6962.3895    4.3599888    4.3599888    4.3599888   -6962.3895    15101.736   -1371.7816   -34617.123    10975.505   -4403.6666   -37597.948    82.881218 
   94900    1603.3736   -117.04414    1.4507662   -115.59337   -2880.2712    4.3504012    4.3504012    4.3504012   -2880.2712    7679.7501   -1723.4433    -14597.12       -12721   -14598.174     24173.43    82.335654 
   95000    1185.9673   -116.68145    1.0730882   -115.60836   -2810.1287    4.3429295    4.3429295    4.3429295   -2810.1287   -15206.245    13773.255   -6997.3959   -29742.738    26752.814    9969.7487    81.912153 
   95100     1934.171   -117.35627    1.7500786   -115.60619   -3603.7629    4.3544419    4.3544419    4.3544419   -3603.7629   -1866.9974   -525.80628   -8418.4849   -3386.5032    21996.332   -23075.129    82.565286 
   95200    1587.3522   -117.04304    1.4362697   -115.60677    254.04587    4.3588712    4.3588712    4.3588712    254.04587    15377.165   -14742.629    127.60172    1767.0933   -25333.577     8320.427      82.8175 
   95300    588.18693   -116.14688   0.53220389   -115.61468   -1342.3569    4.3551573    4.3551573    4.3551573   -1342.3569   -2311.0467   -13074.899    11358.875   -21511.926    17528.724    22684.627    82.605988 
   95400    1866.7297   -117.27698    1.6890563   -115.58792   -5297.2413    4.3611131    4.3611131    4.3611131   -5297.2413     -328.737   -19114.487    3551.5005   -1031.2006    23384.665   -8298.2136    82.945348 
   95500    1461.5911   -116.90473    1.3224783   -115.58225   -3033.7089    4.3603792    4.3603792    4.3603792   -3033.7089    15754.244    -37067.83    12212.459    9047.8299     -23160.5   -3308.5803    82.903481 
   95600    831.89337   -116.33586   0.75271461   -115.58315   -7771.5072    4.3620931    4.3620931    4.3620931   -7771.5072    2802.1833   -42342.776    16226.071   -18902.395    9998.9668    29298.178    83.001278 
   95700    1728.8559   -117.14141    1.5643051   -115.57711   -7132.3506    4.3560065    4.3560065    4.3560065   -7132.3506    16023.883   -35459.491   -1961.4439    7717.1794    9735.4012   -24611.211    82.654323 
   95800    1211.5538     -116.688    1.0962393   -115.59176    9965.9871    4.3388514    4.3388514    4.3388514    9965.9871    45719.676   -35858.982    20037.268    6647.7288   -10529.026   -45056.473    81.681616 
   95900    1514.9118   -116.97642     1.370724    -115.6057    2318.2063    4.3488625    4.3488625    4.3488625    2318.2063   -2734.4999   -27443.881        37133   -9046.6681    -7.860213    20317.964    82.248319 
   96000    1506.5512   -116.96174    1.3631592   -115.59858   -20780.782    4.3673817    4.3673817    4.3673817   -20780.782    11956.101   -53126.794   -21171.654   -7434.2761   -4963.3806   -36461.497    83.303539 
   96100    1365.1477   -116.83137    1.2352143   -115.59615    7897.8698    4.3541656    4.3541656    4.3541656    7897.8698    44434.448   -30663.771    9922.9315    4225.4865    3588.9979   -56020.306     82.54957 
   96200    1747.2576   -117.16799    1.5809554   -115.58704    10007.813    4.3509753    4.3509753    4.3509753    10007.813   -13070.427   -10433.619    53527.486   -9096.1482   -1361.1143    20963.618    82.368252 
   96300    1304.3772   -116.77362    1.1802279   -115.59339   -8694.7101    4.3558855    4.3558855    4.3558855   -8694.7101    7395.0188    -31042.95   -2436.1987   -5188.0359   -5452.1523   -43920.384    82.647432 
   96400    1707.9094   -117.13547    1.5453523   -115.59012    16760.263    4.3512802    4.3512802    4.3512802    16760.263    43901.751   -3323.7827    9702.8211    11656.673    7480.8596   -43207.771    82.385571 
   96500     1689.269   -117.12127    1.5284861   -115.59278    9854.4756    4.3595024    4.3595024    4.3595024    9854.4756   -7522.4844    3064.3906    34021.521   -11889.684   -13813.917    27005.331    82.853479 
   96600    1367.2122   -116.83453    1.2370824   -115.59745   -10690.686    4.3612854    4.3612854    4.3612854   -10690.686      -8127.2   -20585.349   -3359.5086   -15050.459   -4032.1062   -28039.757    82.955183 
   96700     2031.973   -117.42488    1.8385719   -115.58631    20868.672    4.3464333    4.3464333    4.3464333    20868.672    28808.011    2952.2819    30845.722    2336.9649    5523.7752   -25036.867     82.11057 
   96800    1309.7789    -116.7889    1.1851155   -115.60378    1798.1186    4.3484022    4.3484022    4.3484022    1798.1186    4878.3875   -2569.3287    3085.2969   -14311.678   -9659.1947    32957.289    82.222208 
   96900    1251.3463   -116.74249    1.1322445   -115.61025   -18679.341    4.3583653    4.3583653    4.3583653   -18679.341   -18439.269   -27929.542    -9669.212   -10761.934   -11773.815    6166.4369    82.788663 
   97000    2450.3059   -117.80524    2.2170883   -115.58815    7494.7037    4.3554952    4.3554952    4.3554952    7494.7037     11580.08    4169.5872    6734.4436    7342.1379   -1926.7415   -3684.2797    82.625219 
   97100    1039.1598   -116.54746   0.94025362   -115.60721    -11596.14     4.360213     4.360213     4.360213    -11596.14    2161.7528   -1381.3205   -35568.851   -6887.9081    5055.5383    39709.007    82.894003 
   97200    1038.5198    -116.5411   0.93967458   -115.60143   -19739.888    4.3561753    4.3561753    4.3561753   -19739.888   -16558.681   -17781.511   -24879.472   -24872.014   -4126.3301    17851.681     82.66393 
   97300    1941.6511   -117.34086    1.7568467   -115.58401    9965.6329    4.3480738    4.3480738    4.3480738    9965.6329    26155.854    12461.724   -8720.6787    1201.3816    931.36351    -33608.49     82.20358 
   97400    1112.0813    -116.6036    1.0062345   -115.59737   -15192.435    4.3570985    4.3570985    4.3570985   -15192.435    5148.0806    1321.6895   -52047.076    4702.0182    7236.5077    2029.1684    82.716496 
   97500    1339.3027   -116.80075    1.2118292   -115.58892   -4883.1602    4.3573348    4.3573348    4.3573348   -4883.1602   -15097.164    6748.9207   -6301.2369   -8885.1986   -6312.8175     34315.11    82.729954 
   97600    1371.7443   -116.83016    1.2411831   -115.58898    -6926.525    4.3531118    4.3531118    4.3531118    -6926.525    20153.512   -23042.797    -17890.29    987.24445   -29.889601   -53750.848    82.489653 
   97700    1250.0276   -116.72789    1.1310513   -115.59684   -8781.1127    4.3467985    4.3467985    4.3467985   -8781.1127     26115.87   -7474.2169   -44984.991   -242.78823    1841.7248   -38005.715    82.131267 
   97800    1731.7895   -117.15929    1.5669595   -115.59233    19389.987    4.3450412    4.3450412    4.3450412    19389.987     3041.022    34223.531    20905.409   -6348.9685     2924.068    26221.404    82.031694 
   97900    875.94368   -116.40234   0.79257225   -115.60977   -17687.564    4.3606338    4.3606338    4.3606338   -17687.564    21517.465   -60464.227   -14115.932   -8093.4099    -3812.093   -68674.344    82.918007 
   98000    1584.6009   -117.03526    1.4337802   -115.60148   -8786.2911    4.3564621    4.3564621    4.3564621   -8786.2911    7146.2429   -28485.632   -5019.4843    4075.6543    2660.4497   -32262.446    82.680259 
   98100    2100.1759   -117.48728    1.9002833   -115.58699    22973.897    4.3444094    4.3444094    4.3444094    22973.897   -1143.5709     23974.28    46090.982    7437.0503    10370.825    15083.803    81.995917 
   98200    727.55404   -116.27301   0.65830618    -115.6147   -21325.819    4.3537332    4.3537332    4.3537332   -21325.819    41340.224   -72228.273   -33089.409   -11951.983    -10311.11   -90540.472    82.524984 
   98300    1648.0618   -117.09371     1.491201   -115.60251   -10798.595    4.3563001    4.3563001    4.3563001   -10798.595    2796.7935   -36476.928    1284.3498     -9989.97   -4652.4937   -5229.1182    82.671034 
   98400    1964.9351   -117.36129    1.7779146   -115.58338   -10799.618    4.3627054    4.3627054    4.3627054   -10799.618   -18315.436   -7159.0665   -6924.3528    5017.8202   -4299.4482    4581.3512    83.036239 
   98500    818.92806    -116.3369   0.74098332   -115.59591   -36672.517    4.3618537    4.3618537    4.3618537   -36672.517    13256.397   -67179.165   -56094.782    5348.4256   -4371.9586   -92150.103    82.987615 
   98600     1706.829   -117.12635    1.5443747   -115.58198    15390.539    4.3404861    4.3404861    4.3404861    15390.539    449.96817    25899.625    19822.024   -11501.878    3299.3424    10908.025    81.773975 
   98700    1746.9268   -117.16894    1.5806561   -115.58829   -1484.9432    4.3484387    4.3484387    4.3484387   -1484.9432     4432.333    12026.488   -20913.651   -3458.3515    891.24865   -22453.172    82.224279 
   98800    956.40674   -116.46907   0.86537692    -115.6037   -21855.372     4.359189     4.359189     4.359189   -21855.372    13970.749   -17231.916    -62304.95    2553.3358   -2246.3888   -82172.108    82.835612 
   98900    1870.9251    -117.2807    1.6928523   -115.58785    835.43325     4.353752     4.353752     4.353752    835.43325   -40612.328    34111.641    9006.9867   -16817.414   -9946.9634    21424.852    82.526049 
   99000    1200.6041   -116.68605    1.0863318   -115.59971   -16925.183     4.353351     4.353351     4.353351   -16925.183   -10447.994   -5590.0508   -34737.505   -3022.9982   -3407.6212   -39240.371    82.503251 
   99100    922.25541   -116.44277   0.83447608   -115.60829    2764.3985    4.3448141    4.3448141    4.3448141    2764.3985    31838.899    30616.515   -54162.219    11323.943    7816.5496   -69804.399    82.018834 
   99200    2068.6261   -117.46757    1.8717364   -115.59583    13784.027    4.3466868    4.3466868    4.3466868    13784.027   -9430.0116    40499.802    10282.291   -2674.3053   -861.19232    31643.929    82.124937 
   99300    1040.1105   -116.55662   0.94111383   -115.61551   -14681.847    4.3584401    4.3584401    4.3584401   -14681.847    -124.8373    2381.7752   -46302.479   -1277.3171   -6059.9666   -28255.889    82.792931 
   99400    947.50293   -116.46696   0.85732056   -115.60964   -21918.042    4.3571753    4.3571753    4.3571753   -21918.042    576.55883    -29773.05   -36557.635    2405.0537   -292.81935   -63483.565    82.720872 
   99500    1978.6686   -117.37639    1.7903409   -115.58605    2305.4192    4.3548798    4.3548798    4.3548798    2305.4192   -21023.348    15715.922    12223.684    3241.8072    14240.381    25117.978    82.590202 
   99600    1142.2187   -116.63478    1.0335035   -115.60127   -4490.4699    4.3536496    4.3536496    4.3536496   -4490.4699    24322.443    -40719.21    2925.3573    1311.0557    -711.5115   -33539.225    82.520229 
   99700    1042.9426   -116.54711   0.94367635   -115.60344    -1316.431    4.3478166    4.3478166    4.3478166    -1316.431     20698.97   -28384.991     3736.728   -659.41209   -6109.2898   -58865.332    82.188991 
   99800    1892.3093   -117.30734    1.7122013   -115.59514     1610.591    4.3540248    4.3540248    4.3540248     1610.591   -35700.953    30557.164    9975.5614   -494.98135     33444.74    22556.627    82.541562 
   99900     1253.312   -116.73515     1.134023   -115.60113   -18050.159    4.3609563    4.3609563    4.3609563   -18050.159   -4068.0314     -35051.9   -15030.547   -608.55527    8587.0109   -45535.032    82.936406 
  100000     1170.287   -116.65916    1.0589003   -115.60026   -1083.0539    4.3485999    4.3485999    4.3485999   -1083.0539    31794.183   -35486.414     443.0694   -6352.1565   -13122.711   -48053.533    82.233423 
Loop time of 22.2629 on 1 procs for 100000 steps with 8 atoms

Pair  time (%) = 6.85369 (30.7852)
Kspce time (%) = 5.46652 (24.5544)
Neigh time (%) = 0.120681 (0.542071)
Comm  time (%) = 1.02937 (4.6237)
Outpt time (%) = 0.0263276 (0.118258)
Other time (%) = 8.76632 (39.3764)

Nlocal:    8 ave 8 max 8 min
Histogram: 1 0 0 0 0 0 0 0 0 0
Nghost:    2098 ave 2098 max 2098 min
Histogram: 1 0 0 0 0 0 0 0 0 0
Neighs:    2097 ave 2097 max 2097 min
Histogram: 1 0 0 0 0 0 0 0 0 0

Total # of neighbors = 2097
Ave neighs/atom = 262.125
Neighbor list builds = 1473
Dangerous builds = 0
seeds:1755070
