       N       E                     dE             d eps       ncg     rms          rms(c)
DAV:   1    -0.224769074071E+03   -0.22477E+03   -0.10738E+04   336   0.782E+02
DAV:   2    -0.311798464410E+03   -0.87029E+02   -0.87029E+02   400   0.204E+02
DAV:   3    -0.312663423110E+03   -0.86496E+00   -0.86496E+00   384   0.226E+01
DAV:   4    -0.312665447489E+03   -0.20244E-02   -0.20244E-02   560   0.936E-01
DAV:   5    -0.312665447764E+03   -0.27572E-06   -0.27573E-06   384   0.104E-02    0.946E+01
DAV:   6    -0.683938393280E+02    0.24427E+03   -0.28681E+02   320   0.113E+02    0.404E+01
DAV:   7    -0.230002962294E+02    0.45394E+02   -0.39805E+02   496   0.765E+01    0.264E+01
DAV:   8    -0.212661831176E+02    0.17341E+01   -0.18467E+02   336   0.469E+01    0.169E+01
DAV:   9    -0.119712714017E+02    0.92949E+01   -0.32487E+01   320   0.185E+01    0.256E+00
DAV:  10    -0.119878656049E+02   -0.16594E-01   -0.23005E+00   416   0.624E+00    0.200E+00
DAV:  11    -0.119230405653E+02    0.64825E-01   -0.74071E-01   352   0.311E+00    0.396E-01
DAV:  12    -0.119195455581E+02    0.34950E-02   -0.30532E-02   400   0.759E-01    0.264E-02
DAV:  13    -0.119195905441E+02   -0.44986E-04   -0.77636E-04   400   0.153E-01    0.452E-02
DAV:  14    -0.119195650067E+02    0.25537E-04   -0.24284E-04   464   0.678E-02    0.970E-03
DAV:  15    -0.119195646861E+02    0.32065E-06   -0.13251E-05   368   0.172E-02    0.314E-03
DAV:  16    -0.119195646286E+02    0.57449E-07   -0.74282E-07   160   0.327E-03
   1 F= -.11919565E+02 E0= -.11919565E+02  d E =-.297602E-17
