   2   2   0   0
  0.9563318E+01  0.3001819E-09  0.3001820E-09  0.3001819E-09  0.5000000E-15
  1.000000000000000E-004
  CAR 
 automatically generated by pyflamestk   
     44.07455383    -16.32232223  301      3.63381224      1.00000000
    -16.322  0.0000E+00  0.0000E+00
    -16.121  0.0000E+00  0.0000E+00
    -15.920  0.0000E+00  0.0000E+00
    -15.718  0.0000E+00  0.0000E+00
    -15.517  0.0000E+00  0.0000E+00
    -15.316  0.0000E+00  0.0000E+00
    -15.114  0.0000E+00  0.0000E+00
    -14.913  0.0000E+00  0.0000E+00
    -14.712  0.0000E+00  0.0000E+00
    -14.510  0.0000E+00  0.0000E+00
    -14.309  0.0000E+00  0.0000E+00
    -14.108  0.0000E+00  0.0000E+00
    -13.906  0.0000E+00  0.0000E+00
    -13.705  0.4509E-04  0.9078E-05
    -13.504  0.3044E+00  0.6130E-01
    -13.302  0.1021E-01  0.6335E-01
    -13.101  0.9262E+00  0.2498E+00
    -12.900  0.6526E+00  0.3812E+00
    -12.699  0.7803E+00  0.5383E+00
    -12.497  0.2446E+01  0.1031E+01
    -12.296  0.2831E+01  0.1601E+01
    -12.095  0.1984E+01  0.2000E+01
    -11.893  0.1410E-05  0.2000E+01
    -11.692  0.0000E+00  0.2000E+01
    -11.491  0.0000E+00  0.2000E+01
    -11.289  0.0000E+00  0.2000E+01
    -11.088  0.0000E+00  0.2000E+01
    -10.887  0.0000E+00  0.2000E+01
    -10.685  0.0000E+00  0.2000E+01
    -10.484  0.0000E+00  0.2000E+01
    -10.283  0.0000E+00  0.2000E+01
    -10.081  0.0000E+00  0.2000E+01
     -9.880  0.0000E+00  0.2000E+01
     -9.679  0.0000E+00  0.2000E+01
     -9.477  0.0000E+00  0.2000E+01
     -9.276  0.0000E+00  0.2000E+01
     -9.075  0.0000E+00  0.2000E+01
     -8.873  0.0000E+00  0.2000E+01
     -8.672  0.0000E+00  0.2000E+01
     -8.471  0.0000E+00  0.2000E+01
     -8.269  0.0000E+00  0.2000E+01
     -8.068  0.0000E+00  0.2000E+01
     -7.867  0.0000E+00  0.2000E+01
     -7.665  0.0000E+00  0.2000E+01
     -7.464  0.0000E+00  0.2000E+01
     -7.263  0.0000E+00  0.2000E+01
     -7.061  0.0000E+00  0.2000E+01
     -6.860  0.0000E+00  0.2000E+01
     -6.659  0.0000E+00  0.2000E+01
     -6.457  0.0000E+00  0.2000E+01
     -6.256  0.0000E+00  0.2000E+01
     -6.055  0.0000E+00  0.2000E+01
     -5.854  0.0000E+00  0.2000E+01
     -5.652  0.0000E+00  0.2000E+01
     -5.451  0.0000E+00  0.2000E+01
     -5.250  0.0000E+00  0.2000E+01
     -5.048  0.0000E+00  0.2000E+01
     -4.847  0.0000E+00  0.2000E+01
     -4.646  0.0000E+00  0.2000E+01
     -4.444  0.0000E+00  0.2000E+01
     -4.243  0.0000E+00  0.2000E+01
     -4.042  0.0000E+00  0.2000E+01
     -3.840  0.0000E+00  0.2000E+01
     -3.639  0.0000E+00  0.2000E+01
     -3.438  0.0000E+00  0.2000E+01
     -3.236  0.0000E+00  0.2000E+01
     -3.035  0.0000E+00  0.2000E+01
     -2.834  0.0000E+00  0.2000E+01
     -2.632  0.0000E+00  0.2000E+01
     -2.431  0.0000E+00  0.2000E+01
     -2.230  0.0000E+00  0.2000E+01
     -2.028  0.0000E+00  0.2000E+01
     -1.827  0.0000E+00  0.2000E+01
     -1.626  0.0000E+00  0.2000E+01
     -1.424  0.0000E+00  0.2000E+01
     -1.223  0.0000E+00  0.2000E+01
     -1.022  0.8341E-07  0.2000E+01
     -0.820  0.6356E+00  0.2128E+01
     -0.619  0.3183E+00  0.2192E+01
     -0.418  0.3836E+00  0.2269E+01
     -0.216  0.2454E+01  0.2763E+01
     -0.015  0.1959E+01  0.3158E+01
      0.186  0.1997E+01  0.3560E+01
      0.387  0.9397E+00  0.3749E+01
      0.589  0.4670E-02  0.3750E+01
      0.790  0.1060E-07  0.3750E+01
      0.991  0.9218E+00  0.3936E+01
      1.193  0.2410E+01  0.4421E+01
      1.394  0.3940E+00  0.4500E+01
      1.595  0.1082E-03  0.4500E+01
      1.797  0.2680E+01  0.5040E+01
      1.998  0.1408E+00  0.5068E+01
      2.199  0.2439E+01  0.5559E+01
      2.401  0.2263E+01  0.6015E+01
      2.602  0.4418E+01  0.6904E+01
      2.803  0.1421E+01  0.7190E+01
      3.005  0.2689E+01  0.7732E+01
      3.206  0.7124E+00  0.7875E+01
      3.407  0.6169E+00  0.7999E+01
      3.609  0.3449E-02  0.8000E+01
      3.810  0.0000E+00  0.8000E+01
      4.011  0.0000E+00  0.8000E+01
      4.213  0.0000E+00  0.8000E+01
      4.414  0.0000E+00  0.8000E+01
      4.615  0.0000E+00  0.8000E+01
      4.817  0.0000E+00  0.8000E+01
      5.018  0.0000E+00  0.8000E+01
      5.219  0.0000E+00  0.8000E+01
      5.421  0.0000E+00  0.8000E+01
      5.622  0.0000E+00  0.8000E+01
      5.823  0.0000E+00  0.8000E+01
      6.025  0.0000E+00  0.8000E+01
      6.226  0.0000E+00  0.8000E+01
      6.427  0.0000E+00  0.8000E+01
      6.628  0.0000E+00  0.8000E+01
      6.830  0.0000E+00  0.8000E+01
      7.031  0.0000E+00  0.8000E+01
      7.232  0.0000E+00  0.8000E+01
      7.434  0.0000E+00  0.8000E+01
      7.635  0.0000E+00  0.8000E+01
      7.836  0.0000E+00  0.8000E+01
      8.038  0.0000E+00  0.8000E+01
      8.239  0.0000E+00  0.8000E+01
      8.440  0.0000E+00  0.8000E+01
      8.642  0.1094E-07  0.8000E+01
      8.843  0.1923E+00  0.8039E+01
      9.044  0.1181E+00  0.8062E+01
      9.246  0.0000E+00  0.8062E+01
      9.447  0.0000E+00  0.8062E+01
      9.648  0.0000E+00  0.8062E+01
      9.850  0.0000E+00  0.8062E+01
     10.051  0.0000E+00  0.8062E+01
     10.252  0.7461E-06  0.8063E+01
     10.454  0.7590E+00  0.8215E+01
     10.655  0.1724E+00  0.8250E+01
     10.856  0.1074E-07  0.8250E+01
     11.058  0.1920E+00  0.8289E+01
     11.259  0.6796E+00  0.8425E+01
     11.460  0.3702E+00  0.8500E+01
     11.662  0.3130E-06  0.8500E+01
     11.863  0.7132E+00  0.8644E+01
     12.064  0.2181E+00  0.8687E+01
     12.266  0.6434E-02  0.8689E+01
     12.467  0.9243E+00  0.8875E+01
     12.668  0.2120E+00  0.8918E+01
     12.870  0.1669E+01  0.9254E+01
     13.071  0.9134E+00  0.9438E+01
     13.272  0.9213E+00  0.9623E+01
     13.473  0.9899E-02  0.9625E+01
     13.675  0.8602E+00  0.9798E+01
     13.876  0.1169E+01  0.1003E+02
     14.077  0.1686E+01  0.1037E+02
     14.279  0.1015E-01  0.1038E+02
     14.480  0.0000E+00  0.1038E+02
     14.681  0.3425E-09  0.1038E+02
     14.883  0.9241E+00  0.1056E+02
     15.084  0.2801E+01  0.1112E+02
     15.285  0.3734E-01  0.1113E+02
     15.487  0.1843E+01  0.1150E+02
     15.688  0.2852E+01  0.1208E+02
     15.889  0.1166E+01  0.1231E+02
     16.091  0.4243E-01  0.1232E+02
     16.292  0.1564E+01  0.1264E+02
     16.493  0.2560E+00  0.1269E+02
     16.695  0.0000E+00  0.1269E+02
     16.896  0.1958E-06  0.1269E+02
     17.097  0.1291E+01  0.1295E+02
     17.299  0.9497E+00  0.1314E+02
     17.500  0.8617E+00  0.1331E+02
     17.701  0.2245E-02  0.1331E+02
     17.903  0.1023E-04  0.1331E+02
     18.104  0.8629E+00  0.1349E+02
     18.305  0.6842E-01  0.1350E+02
     18.507  0.1759E-12  0.1350E+02
     18.708  0.5432E-01  0.1351E+02
     18.909  0.8770E+00  0.1369E+02
     19.111  0.1725E-04  0.1369E+02
     19.312  0.2706E-03  0.1369E+02
     19.513  0.7131E+00  0.1383E+02
     19.714  0.2409E+01  0.1432E+02
     19.916  0.1759E+01  0.1467E+02
     20.117  0.1005E+01  0.1487E+02
     20.318  0.1674E+01  0.1521E+02
     20.520  0.1154E+01  0.1544E+02
     20.721  0.9101E+00  0.1562E+02
     20.922  0.3137E+00  0.1569E+02
     21.124  0.6230E+00  0.1581E+02
     21.325  0.9485E+00  0.1600E+02
     21.526  0.9093E+00  0.1619E+02
     21.728  0.1826E+01  0.1656E+02
     21.929  0.3677E-01  0.1656E+02
     22.130  0.2783E-03  0.1656E+02
     22.332  0.9200E+00  0.1675E+02
     22.533  0.1110E-01  0.1675E+02
     22.734  0.9019E+00  0.1693E+02
     22.936  0.1883E+01  0.1731E+02
     23.137  0.5315E+00  0.1742E+02
     23.338  0.1340E+01  0.1769E+02
     23.540  0.2489E-04  0.1769E+02
     23.741  0.5963E+00  0.1781E+02
     23.942  0.9473E+00  0.1800E+02
     24.144  0.8911E-02  0.1800E+02
     24.345  0.3086E+00  0.1806E+02
     24.546  0.9531E+00  0.1825E+02
     24.748  0.6007E+00  0.1837E+02
     24.949  0.8000E-02  0.1838E+02
     25.150  0.1229E+01  0.1862E+02
     25.352  0.4514E-02  0.1863E+02
     25.553  0.1551E+01  0.1894E+02
     25.754  0.1199E+01  0.1918E+02
     25.955  0.4432E-01  0.1919E+02
     26.157  0.9279E+00  0.1937E+02
     26.358  0.9347E+00  0.1956E+02
     26.559  0.2470E+00  0.1961E+02
     26.761  0.2547E+01  0.2012E+02
     26.962  0.2856E-02  0.2013E+02
     27.163  0.9419E+00  0.2032E+02
     27.365  0.9193E+00  0.2050E+02
     27.566  0.3088E+00  0.2056E+02
     27.767  0.2879E-03  0.2056E+02
     27.969  0.0000E+00  0.2056E+02
     28.170  0.0000E+00  0.2056E+02
     28.371  0.0000E+00  0.2056E+02
     28.573  0.0000E+00  0.2056E+02
     28.774  0.4306E-03  0.2056E+02
     28.975  0.6410E+00  0.2069E+02
     29.177  0.2709E+01  0.2124E+02
     29.378  0.9940E+00  0.2144E+02
     29.579  0.6734E+00  0.2157E+02
     29.781  0.2595E+00  0.2162E+02
     29.982  0.4342E-06  0.2163E+02
     30.183  0.1882E+01  0.2200E+02
     30.385  0.1765E+01  0.2236E+02
     30.586  0.1213E+01  0.2260E+02
     30.787  0.7277E+00  0.2275E+02
     30.989  0.4103E-06  0.2275E+02
     31.190  0.4288E+00  0.2284E+02
     31.391  0.1434E+01  0.2312E+02
     31.593  0.8495E+00  0.2330E+02
     31.794  0.1403E+01  0.2358E+02
     31.995  0.2405E+01  0.2406E+02
     32.197  0.1290E+01  0.2432E+02
     32.398  0.1272E+01  0.2458E+02
     32.599  0.4209E+01  0.2543E+02
     32.800  0.1716E+00  0.2546E+02
     33.002  0.2689E+01  0.2600E+02
     33.203  0.9225E+00  0.2619E+02
     33.404  0.7722E+00  0.2634E+02
     33.606  0.1712E+01  0.2669E+02
     33.807  0.4699E-06  0.2669E+02
     34.008  0.0000E+00  0.2669E+02
     34.210  0.0000E+00  0.2669E+02
     34.411  0.0000E+00  0.2669E+02
     34.612  0.0000E+00  0.2669E+02
     34.814  0.2243E-08  0.2669E+02
     35.015  0.4358E+00  0.2678E+02
     35.216  0.2358E+01  0.2725E+02
     35.418  0.3771E-03  0.2725E+02
     35.619  0.8210E+00  0.2742E+02
     35.820  0.2766E+01  0.2797E+02
     36.022  0.7121E+00  0.2812E+02
     36.223  0.3576E+00  0.2819E+02
     36.424  0.1159E-02  0.2819E+02
     36.626  0.1935E+01  0.2858E+02
     36.827  0.8580E+00  0.2875E+02
     37.028  0.2183E+00  0.2879E+02
     37.230  0.4026E+00  0.2888E+02
     37.431  0.7915E+00  0.2903E+02
     37.632  0.1077E+01  0.2925E+02
     37.834  0.9253E+00  0.2944E+02
     38.035  0.8033E+00  0.2960E+02
     38.236  0.1060E+01  0.2981E+02
     38.438  0.8604E+00  0.2999E+02
     38.639  0.7090E-01  0.3000E+02
     38.840  0.1252E-10  0.3000E+02
     39.041  0.2050E+00  0.3004E+02
     39.243  0.3793E+01  0.3080E+02
     39.444  0.3791E-01  0.3081E+02
     39.645  0.0000E+00  0.3081E+02
     39.847  0.0000E+00  0.3081E+02
     40.048  0.2068E-15  0.3081E+02
     40.249  0.6992E-02  0.3081E+02
     40.451  0.9238E+00  0.3100E+02
     40.652  0.5147E-03  0.3100E+02
     40.853  0.1061E-08  0.3100E+02
     41.055  0.1428E+00  0.3103E+02
     41.256  0.1565E+01  0.3134E+02
     41.457  0.3259E+01  0.3200E+02
     41.659  0.3070E-03  0.3200E+02
     41.860  0.0000E+00  0.3200E+02
     42.061  0.0000E+00  0.3200E+02
     42.263  0.0000E+00  0.3200E+02
     42.464  0.0000E+00  0.3200E+02
     42.665  0.0000E+00  0.3200E+02
     42.867  0.0000E+00  0.3200E+02
     43.068  0.0000E+00  0.3200E+02
     43.269  0.0000E+00  0.3200E+02
     43.471  0.0000E+00  0.3200E+02
     43.672  0.0000E+00  0.3200E+02
     43.873  0.0000E+00  0.3200E+02
     44.075  0.0000E+00  0.3200E+02
