    2    2    1    1
  0.9563318E+01  0.3001819E-09  0.3001820E-09  0.3001819E-09  0.5000000E-15
  1.000000000000000E-004
  CAR 
 automatically generated by pyflamestk   
      8     10     16
 
  0.1250000E+00  0.1250000E+00  0.1250000E+00  0.3125000E-01
    1      -13.577010   1.000000
    2        2.468656   1.000000
    3        3.317547   1.000000
    4        3.317548   1.000000
    5        8.832285   0.000000
    6       17.413465   0.000000
    7       19.429532   0.000000
    8       19.429535   0.000000
    9       23.679152   0.000000
   10       23.679155   0.000000
   11       25.019489   0.000000
   12       27.456028   0.000000
   13       28.887054   0.000000
   14       28.887057   0.000000
   15       39.152680   0.000000
   16       41.058268   0.000000
 
  0.3750000E+00  0.1250000E+00  0.1250000E+00  0.9375000E-01
    1      -12.918341   1.000000
    2        0.296447   1.000000
    3        2.454465   1.000000
    4        3.018842   1.000000
    5       11.249731   0.000000
    6       15.352445   0.000000
    7       18.763339   0.000000
    8       20.430858   0.000000
    9       22.251720   0.000000
   10       24.482647   0.000000
   11       26.601378   0.000000
   12       31.262075   0.000000
   13       32.537109   0.000000
   14       33.411206   0.000000
   15       35.780935   0.000000
   16       39.075727   0.000000
 
 -0.3750000E+00  0.1250000E+00  0.1250000E+00  0.9375000E-01
    1      -12.477562   1.000000
    2       -0.837232   1.000000
    3        2.303150   1.000000
    4        2.677529   1.000000
    5       11.837253   0.000000
    6       15.564159   0.000000
    7       18.052617   0.000000
    8       19.868797   0.000000
    9       23.859024   0.000000
   10       26.109365   0.000000
   11       26.205075   0.000000
   12       32.487101   0.000000
   13       33.085219   0.000000
   14       33.429192   0.000000
   15       36.011205   0.000000
   16       37.721743   0.000000
 
 -0.1250000E+00  0.1250000E+00  0.1250000E+00  0.9375000E-01
    1      -13.210285   1.000000
    2        1.185569   1.000000
    3        2.946630   1.000000
    4        2.949205   1.000000
    5       10.421940   0.000000
    6       15.592818   0.000000
    7       19.557419   0.000000
    8       20.038336   0.000000
    9       21.213436   0.000000
   10       25.058653   0.000000
   11       27.059095   0.000000
   12       30.156576   0.000000
   13       30.442116   0.000000
   14       31.195239   0.000000
   15       37.416823   0.000000
   16       39.180382   0.000000
 
  0.3750000E+00  0.3750000E+00  0.1250000E+00  0.9375000E-01
    1      -12.680496   1.000000
    2        0.109367   1.000000
    3        2.253834   1.000000
    4        2.486320   1.000000
    5       12.352578   0.000000
    6       13.996334   0.000000
    7       17.307064   0.000000
    8       20.937319   0.000000
    9       21.394504   0.000000
   10       27.239320   0.000000
   11       30.345684   0.000000
   12       30.613377   0.000000
   13       32.528194   0.000000
   14       35.020649   0.000000
   15       36.672490   0.000000
   16       38.089007   0.000000
 
 -0.3750000E+00  0.3750000E+00  0.1250000E+00  0.1875000E+00
    1      -12.264576   1.000000
    2       -0.008087   1.000000
    3        0.991959   1.000000
    4        2.075296   1.000000
    5       13.868120   0.000000
    6       14.907342   0.000000
    7       15.699212   0.000000
    8       19.711299   0.000000
    9       23.157530   0.000000
   10       26.610687   0.000000
   11       30.172202   0.000000
   12       31.596442   0.000000
   13       32.865030   0.000000
   14       36.538426   0.000000
   15       39.109754   0.000000
   16       41.329241   0.000000
 
 -0.1250000E+00  0.3750000E+00  0.1250000E+00  0.1875000E+00
    1      -12.523340   1.000000
    2       -0.212345   1.000000
    3        1.735177   1.000000
    4        2.576498   1.000000
    5       12.710887   0.000000
    6       14.906252   0.000000
    7       17.079456   0.000000
    8       20.274758   0.000000
    9       22.844309   0.000000
   10       25.518747   0.000000
   11       29.053918   0.000000
   12       31.844991   0.000000
   13       32.426858   0.000000
   14       35.091226   0.000000
   15       35.735099   0.000000
   16       41.236370   0.000000
 
 -0.3750000E+00 -0.3750000E+00  0.1250000E+00  0.9375000E-01
    1      -12.301283   1.000000
    2       -0.373045   1.000000
    3        1.735088   1.000000
    4        2.191772   1.000000
    5       12.942536   0.000000
    6       13.624241   0.000000
    7       16.150403   0.000000
    8       21.648370   0.000000
    9       21.659624   0.000000
   10       29.124835   0.000000
   11       29.558557   0.000000
   12       32.142135   0.000000
   13       32.857416   0.000000
   14       38.005251   0.000000
   15       38.386898   0.000000
   16       41.317722   0.000000
 
  0.3750000E+00  0.3750000E+00  0.3750000E+00  0.3125000E-01
    1      -12.716735   1.000000
    2       -0.567635   1.000000
    3        2.873895   1.000000
    4        2.873896   1.000000
    5       11.046951   0.000000
    6       15.567711   0.000000
    7       19.664302   0.000000
    8       19.664305   0.000000
    9       24.254300   0.000000
   10       24.594370   0.000000
   11       24.594373   0.000000
   12       32.107783   0.000000
   13       33.428956   0.000000
   14       33.428959   0.000000
   15       37.041722   0.000000
   16       37.041728   0.000000
 
 -0.3750000E+00  0.3750000E+00  0.3750000E+00  0.9375000E-01
    1      -12.348876   1.000000
    2       -0.250403   1.000000
    3        1.098410   1.000000
    4        2.546036   1.000000
    5       13.190698   0.000000
    6       15.366137   0.000000
    7       16.270837   0.000000
    8       20.586957   0.000000
    9       22.669507   0.000000
   10       25.695168   0.000000
   11       29.274187   0.000000
   12       31.815506   0.000000
   13       32.238721   0.000000
   14       35.577362   0.000000
   15       37.461279   0.000000
   16       40.335404   0.000000
