# ['Si']

8 atoms
1 atom types

    0.0000     5.4300 xlo xhi
    0.0000     5.4300 ylo yhi
    0.0000     5.4300 zlo zhi

    0.0000     0.0000     0.0000 xy xz yz

Atoms

1 1     0.0000     0.0000     0.0000
2 1     1.3575     1.3575     1.3575
3 1     0.0000     2.7150     2.7150
4 1     1.3575     4.0725     4.0725
5 1     2.7150     0.0000     2.7150
6 1     4.0725     1.3575     4.0725
7 1     2.7150     2.7150     0.0000
8 1     4.0725     4.0725     1.3575
