LAMMPS (11 Aug 2017)
Reading data file ...
  triclinic box = (0 0 0) to (3.5167 3.5167 3.5167) with tilt (0 -0 0)
  1 by 1 by 1 MPI processor grid
  reading atoms ...
  4 atoms
4 atoms in group Ni
Neighbor list info ...
  update every 1 steps, delay 0 steps, check yes
  max neighbors/atom: 2000, page size: 100000
  master list distance cutoff = 11
  ghost atom cutoff = 11
  binsize = 5.5, bins = 1 1 1
  1 neighbor lists, perpetual/occasional/extra = 1 0 0
  (1) pair eam/alloy, perpetual
      attributes: half, newton on
      pair build: half/bin/newton/tri
      stencil: half/bin/3d/newton/tri
      bin: standard
Setting up cg style minimization ...
  Unit style    : metal
  Current step  : 0
WARNING: Energy due to 3 extra global DOFs will be included in minimizer energies
Per MPI rank memory allocation (min/avg/max) = 4.307 | 4.307 | 4.307 Mbytes
Step PotEng Xhi Xlo Yhi Ylo Zhi Xy Xz Yz Press Pxx Pyy Pzz Pxy Pxz Pyz c_eatoms 
       0   -17.895778       3.5167            0       3.5167            0       3.5167            0           -0            0    1994.4343    1994.4343    1994.4343    1994.4343 1.1346268e-11 1.2508837e-11 1.331208e-11   -17.895778 
      10   -17.895806    3.5173101 -0.00061012297    3.5173101 -0.00061012297    3.5173101            0           -0            0 2.1252611e-09 2.1743735e-09 2.1020013e-09 2.0994085e-09 -4.5146721e-13 -4.1427693e-12 -2.1395871e-12   -17.895806 
      11   -17.895806    3.5173101 -0.00061012297    3.5173101 -0.00061012297    3.5173101            0           -0            0 -4.4828873e-10 -4.2589681e-10 -4.4937091e-10 -4.6959847e-10 1.6188669e-11 4.5760481e-12 8.4519924e-12   -17.895806 
Loop time of 0.00236893 on 1 procs for 11 steps with 4 atoms

100.0% CPU use with 1 MPI tasks x no OpenMP threads

Minimization stats:
  Stopping criterion = energy tolerance
  Energy initial, next-to-last, final = 
        -17.8957783192     -17.8958062091     -17.8958062091
  Force two-norm initial, final = 0.0937742 2.12283e-14
  Force max component initial, final = 0.0541396 1.27563e-14
  Final line search alpha, max atom move = 1 1.27563e-14
  Iterations, force evaluations = 11 22

MPI task timing breakdown:
Section |  min time  |  avg time  |  max time  |%varavg| %total
---------------------------------------------------------------
Pair    | 0.0016029  | 0.0016029  | 0.0016029  |   0.0 | 67.66
Neigh   | 0          | 0          | 0          |   0.0 |  0.00
Comm    | 0.00018501 | 0.00018501 | 0.00018501 |   0.0 |  7.81
Output  | 1.812e-05  | 1.812e-05  | 1.812e-05  |   0.0 |  0.76
Modify  | 0          | 0          | 0          |   0.0 |  0.00
Other   |            | 0.0005629  |            |       | 23.76

Nlocal:    4 ave 4 max 4 min
Histogram: 1 0 0 0 0 0 0 0 0 0
Nghost:    1684 ave 1684 max 1684 min
Histogram: 1 0 0 0 0 0 0 0 0 0
Neighs:    1060 ave 1060 max 1060 min
Histogram: 1 0 0 0 0 0 0 0 0 0

Total # of neighbors = 1060
Ave neighs/atom = 265
Neighbor list builds = 0
Dangerous builds = 0
pypospack:output_section:begin
tot_energy = -17.895806209083
num_atoms = 4
a11 = 3.51792024594242
a22 = 3.51792024594242
a33 = 3.51792024594242
a12 = 0
a13 = -0
a23 = 0
tot_press = -4.48288728563604e-10
pxx = -4.2589680990756e-10
pyy = -4.49370907438632e-10
pzz = -4.69598468344621e-10
pxy = 1.61886694750329e-11
pxz = 4.57604810957726e-12
pyz = 8.45199240358338e-12
pypospack:output_section:done
pypospack:lammps_sim:done
Total wall time: 0:00:00
