   2   2   0   0
  0.9563318E+01  0.3001819E-09  0.3001820E-09  0.3001819E-09  0.5000000E-15
  1.000000000000000E-004
  CAR 
 automatically generated by pyflamestk   
     44.08793380    -16.41985966  301      3.59813534      1.00000000
    -16.420  0.0000E+00  0.0000E+00
    -16.218  0.0000E+00  0.0000E+00
    -16.016  0.0000E+00  0.0000E+00
    -15.815  0.0000E+00  0.0000E+00
    -15.613  0.0000E+00  0.0000E+00
    -15.411  0.0000E+00  0.0000E+00
    -15.210  0.0000E+00  0.0000E+00
    -15.008  0.0000E+00  0.0000E+00
    -14.806  0.0000E+00  0.0000E+00
    -14.605  0.0000E+00  0.0000E+00
    -14.403  0.0000E+00  0.0000E+00
    -14.201  0.0000E+00  0.0000E+00
    -14.000  0.0000E+00  0.0000E+00
    -13.798  0.4386E-04  0.8847E-05
    -13.596  0.3039E+00  0.6131E-01
    -13.394  0.1192E-01  0.6372E-01
    -13.193  0.9230E+00  0.2499E+00
    -12.991  0.7245E+00  0.3960E+00
    -12.789  0.8565E+00  0.5688E+00
    -12.588  0.2638E+01  0.1101E+01
    -12.386  0.3017E+01  0.1709E+01
    -12.184  0.1442E+01  0.2000E+01
    -11.983  0.8144E-07  0.2000E+01
    -11.781  0.0000E+00  0.2000E+01
    -11.579  0.0000E+00  0.2000E+01
    -11.378  0.0000E+00  0.2000E+01
    -11.176  0.0000E+00  0.2000E+01
    -10.974  0.0000E+00  0.2000E+01
    -10.772  0.0000E+00  0.2000E+01
    -10.571  0.0000E+00  0.2000E+01
    -10.369  0.0000E+00  0.2000E+01
    -10.167  0.0000E+00  0.2000E+01
     -9.966  0.0000E+00  0.2000E+01
     -9.764  0.0000E+00  0.2000E+01
     -9.562  0.0000E+00  0.2000E+01
     -9.361  0.0000E+00  0.2000E+01
     -9.159  0.0000E+00  0.2000E+01
     -8.957  0.0000E+00  0.2000E+01
     -8.756  0.0000E+00  0.2000E+01
     -8.554  0.0000E+00  0.2000E+01
     -8.352  0.0000E+00  0.2000E+01
     -8.150  0.0000E+00  0.2000E+01
     -7.949  0.0000E+00  0.2000E+01
     -7.747  0.0000E+00  0.2000E+01
     -7.545  0.0000E+00  0.2000E+01
     -7.344  0.0000E+00  0.2000E+01
     -7.142  0.0000E+00  0.2000E+01
     -6.940  0.0000E+00  0.2000E+01
     -6.739  0.0000E+00  0.2000E+01
     -6.537  0.0000E+00  0.2000E+01
     -6.335  0.0000E+00  0.2000E+01
     -6.134  0.0000E+00  0.2000E+01
     -5.932  0.0000E+00  0.2000E+01
     -5.730  0.0000E+00  0.2000E+01
     -5.528  0.0000E+00  0.2000E+01
     -5.327  0.0000E+00  0.2000E+01
     -5.125  0.0000E+00  0.2000E+01
     -4.923  0.0000E+00  0.2000E+01
     -4.722  0.0000E+00  0.2000E+01
     -4.520  0.0000E+00  0.2000E+01
     -4.318  0.0000E+00  0.2000E+01
     -4.117  0.0000E+00  0.2000E+01
     -3.915  0.0000E+00  0.2000E+01
     -3.713  0.0000E+00  0.2000E+01
     -3.512  0.0000E+00  0.2000E+01
     -3.310  0.0000E+00  0.2000E+01
     -3.108  0.0000E+00  0.2000E+01
     -2.906  0.0000E+00  0.2000E+01
     -2.705  0.0000E+00  0.2000E+01
     -2.503  0.0000E+00  0.2000E+01
     -2.301  0.0000E+00  0.2000E+01
     -2.100  0.0000E+00  0.2000E+01
     -1.898  0.0000E+00  0.2000E+01
     -1.696  0.0000E+00  0.2000E+01
     -1.495  0.0000E+00  0.2000E+01
     -1.293  0.0000E+00  0.2000E+01
     -1.091  0.1481E-12  0.2000E+01
     -0.890  0.5287E-01  0.2011E+01
     -0.688  0.8768E+00  0.2188E+01
     -0.486  0.3025E+00  0.2249E+01
     -0.284  0.1084E+01  0.2467E+01
     -0.083  0.2660E+01  0.3004E+01
      0.119  0.2283E+01  0.3464E+01
      0.321  0.1108E+01  0.3688E+01
      0.522  0.3092E+00  0.3750E+01
      0.724  0.1445E-14  0.3750E+01
      0.926  0.2188E-01  0.3754E+01
      1.127  0.2504E+01  0.4259E+01
      1.329  0.1193E+01  0.4500E+01
      1.531  0.8632E-04  0.4500E+01
      1.732  0.8587E+00  0.4673E+01
      1.934  0.1930E+01  0.5063E+01
      2.136  0.1606E+01  0.5386E+01
      2.338  0.2622E+01  0.5915E+01
      2.539  0.2385E+01  0.6396E+01
      2.741  0.3605E+01  0.7124E+01
      2.943  0.1003E+01  0.7326E+01
      3.144  0.2715E+01  0.7873E+01
      3.346  0.2239E+00  0.7919E+01
      3.548  0.4035E+00  0.8000E+01
      3.749  0.3280E-07  0.8000E+01
      3.951  0.0000E+00  0.8000E+01
      4.153  0.0000E+00  0.8000E+01
      4.354  0.0000E+00  0.8000E+01
      4.556  0.0000E+00  0.8000E+01
      4.758  0.0000E+00  0.8000E+01
      4.960  0.0000E+00  0.8000E+01
      5.161  0.0000E+00  0.8000E+01
      5.363  0.0000E+00  0.8000E+01
      5.565  0.0000E+00  0.8000E+01
      5.766  0.0000E+00  0.8000E+01
      5.968  0.0000E+00  0.8000E+01
      6.170  0.0000E+00  0.8000E+01
      6.371  0.0000E+00  0.8000E+01
      6.573  0.0000E+00  0.8000E+01
      6.775  0.0000E+00  0.8000E+01
      6.976  0.0000E+00  0.8000E+01
      7.178  0.0000E+00  0.8000E+01
      7.380  0.0000E+00  0.8000E+01
      7.582  0.0000E+00  0.8000E+01
      7.783  0.0000E+00  0.8000E+01
      7.985  0.0000E+00  0.8000E+01
      8.187  0.0000E+00  0.8000E+01
      8.388  0.0000E+00  0.8000E+01
      8.590  0.8448E-09  0.8000E+01
      8.792  0.1392E+00  0.8028E+01
      8.993  0.1707E+00  0.8062E+01
      9.195  0.3797E-08  0.8062E+01
      9.397  0.0000E+00  0.8062E+01
      9.598  0.0000E+00  0.8062E+01
      9.800  0.0000E+00  0.8062E+01
     10.002  0.0000E+00  0.8062E+01
     10.204  0.4954E-08  0.8063E+01
     10.405  0.4592E+00  0.8155E+01
     10.607  0.4704E+00  0.8250E+01
     10.809  0.1407E-09  0.8250E+01
     11.010  0.1045E+00  0.8271E+01
     11.212  0.4313E+00  0.8358E+01
     11.414  0.7037E+00  0.8500E+01
     11.615  0.2576E-06  0.8500E+01
     11.817  0.4074E+00  0.8582E+01
     12.019  0.5222E+00  0.8687E+01
     12.220  0.1059E-03  0.8688E+01
     12.422  0.9093E+00  0.8871E+01
     12.624  0.4125E-01  0.8879E+01
     12.826  0.1838E+01  0.9250E+01
     13.027  0.9227E+00  0.9436E+01
     13.229  0.8334E+00  0.9604E+01
     13.431  0.1032E+00  0.9625E+01
     13.632  0.5652E+00  0.9739E+01
     13.834  0.6183E+00  0.9864E+01
     14.036  0.2378E+01  0.1034E+02
     14.237  0.1565E+00  0.1037E+02
     14.439  0.0000E+00  0.1038E+02
     14.641  0.1548E-14  0.1038E+02
     14.843  0.3530E-01  0.1038E+02
     15.044  0.3682E+01  0.1112E+02
     15.246  0.1824E-02  0.1113E+02
     15.448  0.1804E+01  0.1149E+02
     15.649  0.2140E+01  0.1192E+02
     15.851  0.1944E+01  0.1231E+02
     16.053  0.4579E-03  0.1231E+02
     16.254  0.1125E+01  0.1254E+02
     16.456  0.7341E+00  0.1269E+02
     16.658  0.3753E-06  0.1269E+02
     16.859  0.7419E-10  0.1269E+02
     17.061  0.3959E+00  0.1277E+02
     17.263  0.1522E+01  0.1307E+02
     17.465  0.1156E+01  0.1331E+02
     17.666  0.2536E-01  0.1331E+02
     17.868  0.3973E-07  0.1331E+02
     18.070  0.5919E+00  0.1343E+02
     18.271  0.3378E+00  0.1350E+02
     18.473  0.0000E+00  0.1350E+02
     18.675  0.2564E-02  0.1350E+02
     18.876  0.9255E+00  0.1369E+02
     19.078  0.1578E-02  0.1369E+02
     19.280  0.8061E-05  0.1369E+02
     19.481  0.5888E+00  0.1381E+02
     19.683  0.1828E+01  0.1417E+02
     19.885  0.2167E+01  0.1461E+02
     20.087  0.1180E+01  0.1485E+02
     20.288  0.1148E+01  0.1508E+02
     20.490  0.1718E+01  0.1543E+02
     20.692  0.9720E+00  0.1562E+02
     20.893  0.3084E-01  0.1563E+02
     21.095  0.9044E+00  0.1581E+02
     21.297  0.9160E+00  0.1600E+02
     21.498  0.9354E+00  0.1619E+02
     21.700  0.1367E+01  0.1646E+02
     21.902  0.5000E+00  0.1656E+02
     22.103  0.8048E-05  0.1656E+02
     22.305  0.8556E+00  0.1674E+02
     22.507  0.7401E-01  0.1675E+02
     22.709  0.8648E+00  0.1692E+02
     22.910  0.1847E+01  0.1730E+02
     23.112  0.1693E+00  0.1733E+02
     23.314  0.1767E+01  0.1769E+02
     23.515  0.4717E-04  0.1769E+02
     23.717  0.5149E+00  0.1779E+02
     23.919  0.9737E+00  0.1799E+02
     24.120  0.6071E-01  0.1800E+02
     24.322  0.2978E+00  0.1806E+02
     24.524  0.7606E+00  0.1821E+02
     24.725  0.8003E+00  0.1837E+02
     24.927  0.1468E-02  0.1838E+02
     25.129  0.1207E+01  0.1862E+02
     25.331  0.3149E-01  0.1863E+02
     25.532  0.1074E+01  0.1884E+02
     25.734  0.1570E+01  0.1916E+02
     25.936  0.1451E+00  0.1919E+02
     26.137  0.4992E+00  0.1929E+02
     26.339  0.1360E+01  0.1956E+02
     26.541  0.5519E-01  0.1957E+02
     26.742  0.2733E+01  0.2012E+02
     26.944  0.6641E-03  0.2013E+02
     27.146  0.9196E+00  0.2031E+02
     27.347  0.9368E+00  0.2050E+02
     27.549  0.3103E+00  0.2056E+02
     27.751  0.2158E-02  0.2056E+02
     27.953  0.0000E+00  0.2056E+02
     28.154  0.0000E+00  0.2056E+02
     28.356  0.0000E+00  0.2056E+02
     28.558  0.0000E+00  0.2056E+02
     28.759  0.9579E-05  0.2056E+02
     28.961  0.5867E+00  0.2068E+02
     29.163  0.2743E+01  0.2123E+02
     29.364  0.9994E+00  0.2144E+02
     29.566  0.4161E+00  0.2152E+02
     29.768  0.5223E+00  0.2162E+02
     29.969  0.2374E-07  0.2163E+02
     30.171  0.1290E+01  0.2189E+02
     30.373  0.2190E+01  0.2233E+02
     30.575  0.1243E+01  0.2258E+02
     30.776  0.8536E+00  0.2275E+02
     30.978  0.7487E-05  0.2275E+02
     31.180  0.8906E-01  0.2277E+02
     31.381  0.1768E+01  0.2312E+02
     31.583  0.1870E+00  0.2316E+02
     31.785  0.1739E+01  0.2351E+02
     31.986  0.2722E+01  0.2406E+02
     32.188  0.1143E+01  0.2429E+02
     32.390  0.1153E+01  0.2453E+02
     32.591  0.4010E+01  0.2533E+02
     32.793  0.5659E+00  0.2545E+02
     32.995  0.2736E+01  0.2600E+02
     33.197  0.9163E+00  0.2618E+02
     33.398  0.4225E+00  0.2627E+02
     33.600  0.2070E+01  0.2669E+02
     33.802  0.1308E-03  0.2669E+02
     34.003  0.0000E+00  0.2669E+02
     34.205  0.0000E+00  0.2669E+02
     34.407  0.0000E+00  0.2669E+02
     34.608  0.0000E+00  0.2669E+02
     34.810  0.2863E-09  0.2669E+02
     35.012  0.3039E+00  0.2675E+02
     35.213  0.2484E+01  0.2725E+02
     35.415  0.1332E-02  0.2725E+02
     35.617  0.7228E+00  0.2740E+02
     35.819  0.2815E+01  0.2796E+02
     36.020  0.4611E+00  0.2806E+02
     36.222  0.6494E+00  0.2819E+02
     36.424  0.4828E-03  0.2819E+02
     36.625  0.1874E+01  0.2857E+02
     36.827  0.9145E+00  0.2875E+02
     37.029  0.1851E+00  0.2879E+02
     37.230  0.4347E+00  0.2887E+02
     37.432  0.6175E+00  0.2900E+02
     37.634  0.1245E+01  0.2925E+02
     37.835  0.9253E+00  0.2944E+02
     38.037  0.7530E+00  0.2959E+02
     38.239  0.1108E+01  0.2981E+02
     38.441  0.8635E+00  0.2999E+02
     38.642  0.6616E-01  0.3000E+02
     38.844  0.3494E-12  0.3000E+02
     39.046  0.1133E+00  0.3002E+02
     39.247  0.3673E+01  0.3076E+02
     39.449  0.2426E+00  0.3081E+02
     39.651  0.0000E+00  0.3081E+02
     39.852  0.0000E+00  0.3081E+02
     40.054  0.2064E-15  0.3081E+02
     40.256  0.6903E-02  0.3081E+02
     40.457  0.9222E+00  0.3100E+02
     40.659  0.5021E-03  0.3100E+02
     40.861  0.5160E-15  0.3100E+02
     41.063  0.4608E-02  0.3100E+02
     41.264  0.1793E+01  0.3136E+02
     41.466  0.3161E+01  0.3200E+02
     41.668  0.2776E-03  0.3200E+02
     41.869  0.0000E+00  0.3200E+02
     42.071  0.0000E+00  0.3200E+02
     42.273  0.0000E+00  0.3200E+02
     42.474  0.0000E+00  0.3200E+02
     42.676  0.0000E+00  0.3200E+02
     42.878  0.0000E+00  0.3200E+02
     43.079  0.0000E+00  0.3200E+02
     43.281  0.0000E+00  0.3200E+02
     43.483  0.0000E+00  0.3200E+02
     43.685  0.0000E+00  0.3200E+02
     43.886  0.0000E+00  0.3200E+02
     44.088  0.0000E+00  0.3200E+02
