       N       E                     dE             d eps       ncg     rms          rms(c)
DAV:   1    -0.284203186618E+03   -0.28420E+03   -0.95947E+03   480   0.530E+02
DAV:   2    -0.296828855117E+03   -0.12626E+02   -0.12626E+02   400   0.755E+01
DAV:   3    -0.296883530590E+03   -0.54675E-01   -0.54675E-01   448   0.419E+00
DAV:   4    -0.296883669606E+03   -0.13902E-03   -0.13902E-03   512   0.165E-01
DAV:   5    -0.296883669614E+03   -0.76782E-08   -0.76778E-08   448   0.135E-03    0.902E+01
DAV:   6    -0.662576446921E+02    0.23063E+03   -0.25081E+02   320   0.899E+01    0.385E+01
DAV:   7    -0.230934230692E+02    0.43164E+02   -0.40476E+02   480   0.724E+01    0.262E+01
DAV:   8    -0.214821706805E+02    0.16113E+01   -0.19748E+02   320   0.448E+01    0.168E+01
DAV:   9    -0.118535872814E+02    0.96286E+01   -0.33123E+01   320   0.183E+01    0.252E+00
DAV:  10    -0.118619927596E+02   -0.84055E-02   -0.21578E+00   416   0.602E+00    0.174E+00
DAV:  11    -0.118215102554E+02    0.40483E-01   -0.68289E-01   352   0.279E+00    0.585E-01
DAV:  12    -0.118136717714E+02    0.78385E-02   -0.44884E-02   400   0.764E-01    0.889E-02
DAV:  13    -0.118136550953E+02    0.16676E-04   -0.31330E-03   384   0.252E-01    0.569E-02
DAV:  14    -0.118136122042E+02    0.42891E-04   -0.43293E-04   368   0.760E-02    0.844E-03
DAV:  15    -0.118136114206E+02    0.78359E-06   -0.17536E-05   368   0.168E-02    0.270E-03
DAV:  16    -0.118136114974E+02   -0.76760E-07   -0.23527E-07   176   0.332E-03
   1 F= -.11813611E+02 E0= -.11813611E+02  d E =-.236733E-12
