# ['Ni']

28 atoms
1 atom types

    0.0000     2.4850 xlo xhi
    0.0000     4.3041 ylo yhi
    0.0000    28.4059 zlo zhi

    0.0000     0.0000     0.0000 xy xz yz

Atoms

1 1     0.0000     0.0000     0.0000
2 1     1.2425     2.1521     0.0000
3 1     1.2425     0.7174     2.0290
4 1     0.0000     2.8694     2.0290
5 1     0.0000     1.4347     4.0580
6 1     1.2425     3.5868     4.0580
7 1     0.0000     0.0000     6.0870
8 1     1.2425     2.1521     6.0870
9 1     1.2425     0.7174     8.1160
10 1     0.0000     2.8694     8.1160
11 1     0.0000     1.4347    10.1450
12 1     1.2425     3.5868    10.1450
13 1     0.0000     0.0000    12.1739
14 1     1.2425     2.1521    12.1739
15 1     0.0000     1.4347    14.2029
16 1     1.2425     3.5868    14.2029
17 1     0.0000     0.0000    16.2319
18 1     1.2425     2.1521    16.2319
19 1     1.2425     0.7174    18.2609
20 1     0.0000     2.8694    18.2609
21 1     0.0000     1.4347    20.2899
22 1     1.2425     3.5868    20.2899
23 1     0.0000     0.0000    22.3189
24 1     1.2425     2.1521    22.3189
25 1     1.2425     0.7174    24.3479
26 1     0.0000     2.8694    24.3479
27 1     0.0000     1.4347    26.3769
28 1     1.2425     3.5868    26.3769
