LAMMPS (10 Feb 2015)
Reading data file ...
  triclinic box = (0 0 0) to (4.2565 4.2565 4.2565) with tilt (0 0 0)
  1 by 1 by 1 MPI processor grid
  reading atoms ...
  8 atoms
4 atoms in group Mg
4 atoms in group O
Setting atom values ...
  4 settings made for charge
Setting atom values ...
  4 settings made for charge
PPPM initialization ...
  G vector (1/distance) = 0.352908
  grid = 8 8 8
  stencil order = 5
  estimated absolute RMS force accuracy = 3.98663e-05
  estimated relative force accuracy = 2.76856e-06
  using double precision FFTs
  3d grid and FFT values/proc = 3375 512
Neighbor list info ...
  1 neighbor list requests
  update every 1 steps, delay 0 steps, check yes
  master list distance cutoff = 11
Setting up minimization ...
Memory usage per processor = 4.06549 Mbytes
Step PotEng Lx Ly Lz Xy Xz Yz Press Pxx Pyy Pzz Pxy Pxz Pyz eatoms 
       0   -110.76064       4.2565       4.2565       4.2565            0            0            0    174504.14    174504.14    174504.14    174504.14 9.3704156e-11 -1.8744789e-10 -4.5445427e-11   -110.76064 
      10   -110.96575     4.299065     4.299065     4.299065            0            0            0    110293.78    110293.78    110293.78    110293.78 1.4024136e-10 -8.8674493e-11 1.1163093e-10   -110.96575 
      20   -111.08678      4.34163      4.34163      4.34163            0            0            0    53874.038    53874.038    53874.038    53874.038 -1.7149362e-10 -3.6153785e-12 -2.8025662e-10   -111.08678 
      30   -111.12967     4.384195     4.384195     4.384195            0            0            0    4480.0037    4480.0037    4480.0037    4480.0037 2.9824961e-11 1.1991676e-10 2.4884808e-10   -111.12967 
      35   -111.13002    4.3883439    4.3883439    4.3883439            0            0            0  -0.29149971   -0.2914997  -0.29149971  -0.29149971 -2.2034763e-11 5.2889443e-11 3.1711826e-11   -111.13002 
Loop time of 0.0164859 on 1 procs for 35 steps with 8 atoms

Minimization stats:
  Stopping criterion = linesearch alpha is zero
  Energy initial, next-to-last, final = 
        -110.760644492     -111.130018171     -111.130018171
  Force two-norm initial, final = 25.1985 4.50194e-05
  Force max component initial, final = 25.1985 4.47407e-05
  Final line search alpha, max atom move = 0.5 2.23704e-05
  Iterations, force evaluations = 35 47

Pair  time (%) = 0.00419116 (25.4227)
Kspce time (%) = 0.00267673 (16.2364)
Neigh time (%) = 0 (0)
Comm  time (%) = 0.000520706 (3.15849)
Outpt time (%) = 6.29425e-05 (0.381795)
Other time (%) = 0.0090344 (54.8006)

Nlocal:    8 ave 8 max 8 min
Histogram: 1 0 0 0 0 0 0 0 0 0
Nghost:    2189 ave 2189 max 2189 min
Histogram: 1 0 0 0 0 0 0 0 0 0
Neighs:    2344 ave 2344 max 2344 min
Histogram: 1 0 0 0 0 0 0 0 0 0

Total # of neighbors = 2344
Ave neighs/atom = 293
Neighbor list builds = 0
Dangerous builds = 0
pypospack:output_section:begin
tot_energy = -111.130018170686
num_atoms = 8
xx = 4.38834393192064
yy = 4.38834393192064
zz = 4.38834393192064
xy = 0
xz = 0
yz = 0
tot_press = -0.291499705167032
pxx = -0.291499704907524
pyy = -0.291499705134451
pzz = -0.291499705459123
pxy = -2.20347627600699e-11
pxz = 5.28894429779567e-11
pyz = 3.17118260401048e-11
pypospack:output_section:done
pypospack:lammps_sim:done
PPPM initialization ...
  G vector (1/distance) = 0.351569
  grid = 8 8 8
  stencil order = 5
  estimated absolute RMS force accuracy = 4.24255e-05
  estimated relative force accuracy = 2.94629e-06
  using double precision FFTs
  3d grid and FFT values/proc = 3375 512
Setting up run ...
Memory usage per processor = 3.06549 Mbytes
Step Temp PotEng KinEng TotEng Press Lx Ly Lz Press Pxx Pyy Pzz Pxy Pxz Pyz Volume 
       0          300   -111.12999    0.2714463   -110.85854    3434.6687    4.3883439    4.3883439    4.3883439    3434.6687    3100.5145    3057.7091    4145.7826   -2425.8596   -2997.5321    3212.2721    84.508807 
     100    178.23036   -110.98039   0.16126658   -110.81912   -12786.248    4.4057963    4.4057963    4.4057963   -12786.248   -13737.095   -10319.635   -14302.012   -600.35158    2125.2881   -1788.1905    85.521095 
     200    270.83697    -110.9923   0.24505898   -110.74724    1410.1045     4.391736     4.391736     4.391736    1410.1045    2281.4959    2416.0091   -467.19169   -658.14594    1687.5561   -852.72858    84.704931 
     300    376.16106   -111.02336   0.34035844     -110.683   -15073.325    4.4109924    4.4109924    4.4109924   -15073.325   -11821.204   -21389.949   -12008.822   -1947.9847   -2489.3438    2321.2128    85.824032 
     400    199.67696   -110.81431   0.18067191   -110.63364    1017.8877    4.3969748    4.3969748    4.3969748    1017.8877    5865.7559   -1457.3562   -1354.7366   -1134.1008    5484.0988   -2611.5275    85.008416 
     500    334.94006   -110.90234   0.30306081   -110.59928   -8440.3129    4.4075951    4.4075951    4.4075951   -8440.3129   -3403.8289   -10809.984   -11107.126   -1995.5542    1659.6912    2010.6342    85.625884 
     600    381.21282   -110.92814   0.34492937   -110.58321   -3212.1856    4.4072922    4.4072922    4.4072922   -3212.1856     3229.609   -11126.552   -1739.6138    131.28584    1287.0564    -1099.441    85.608235 
     700     245.7402   -110.80324    0.2223509   -110.58089    1063.1555    4.4005789    4.4005789    4.4005789    1063.1555    5081.1989    3904.2194   -5795.9519   -208.39326    6362.0084   -2158.3079    85.217627 
     800     395.4169    -110.9388   0.35778152   -110.58102   -8499.9374    4.4106698    4.4106698    4.4106698   -8499.9374   -3320.9066   -12314.992   -9863.9137   -1164.9371    2287.1246    2220.3663    85.805207 
     900    337.96162   -110.88847   0.30579478   -110.58268    5865.4807    4.4014193    4.4014193    4.4014193    5865.4807    7776.3989    5730.2457    4089.7976    1140.9972    2730.8574   -1983.6077    85.266457 
    1000    253.45399   -110.81328    0.2293305   -110.58395   -4557.0983    4.4066183    4.4066183    4.4066183   -4557.0983   -3989.2931    1888.4546   -11570.456    2940.7482    6547.3291   -3057.3972    85.568968 
    1100    300.86524   -110.85676   0.27222919   -110.58453    1260.8353    4.4062795    4.4062795    4.4062795    1260.8353   -956.86118    5049.9198    -310.5526    2671.3151    1952.5284   -1259.2567    85.549232 
    1200      225.179    -110.7875   0.20374669   -110.58375    3507.8011    4.4052549    4.4052549    4.4052549    3507.8011   -10.439635    12124.779   -1590.9358    2343.9541    2845.2748   -2154.7852    85.489568 
    1300    207.37688   -110.77161   0.18763896   -110.58397    650.67022    4.4031399    4.4031399    4.4031399    650.67022   -3238.0116     8979.964   -3789.9417    3448.6946     5436.182   -3492.0362    85.366498 
    1400     242.7654   -110.80459   0.21965924   -110.58493    3698.9942    4.4088558    4.4088558    4.4088558    3698.9942   -4709.3309     13823.89    1982.4239    4051.8984    1285.2263   -4018.7638    85.699378 
    1500    267.91535   -110.82593   0.24241544   -110.58352    8922.4012    4.4002014    4.4002014    4.4002014    8922.4012    3907.6505    17986.282    4873.2707    4855.8766    4458.9539   -3718.7654      85.1957 
    1600    226.22207   -110.79016   0.20469048   -110.58547   -284.31168    4.4081729    4.4081729    4.4081729   -284.31168   -7812.9468    9492.5688    -2532.557    2925.9299    5228.9953   -2097.6942    85.659561 
    1700    235.28112   -110.79708   0.21288731   -110.58419    11218.749    4.4039174    4.4039174    4.4039174    11218.749    6259.4478     13757.21     13639.59    4341.0177    2255.1546    -6313.959    85.411726 
    1800    263.88214   -110.82222   0.23876611   -110.58345    5546.4509    4.4028714    4.4028714    4.4028714    5546.4509    7263.5516    4579.3314    4796.4697    6193.0163    5876.6292   -5244.7651    85.350878 
    1900    147.22961   -110.71827   0.13321644   -110.58506    5510.1191    4.4063987    4.4063987    4.4063987    5510.1191    4620.7386    1223.9617    10685.657     5519.854    6862.1855   -3334.7806    85.556176 
    2000    186.55819   -110.75255   0.16880177   -110.58374    10797.071    4.4045081    4.4045081    4.4045081    10797.071    18423.907    338.99561    13628.309    4935.2926    3337.4607    -5343.579      85.4461 
    2100    206.46273   -110.77082   0.18681182   -110.58401    9091.4485    4.4022602    4.4022602    4.4022602    9091.4485    14485.537    5985.6473    6803.1613    4794.1837    6346.0938   -2805.6162    85.315338 
    2200    119.07679   -110.69302   0.10774318   -110.58528    9022.2381    4.4065719    4.4065719    4.4065719    9022.2381    14760.735     1068.441    11237.539    6889.0084    8093.3098   -5096.6186    85.566264 
    2300    245.63749   -110.80587   0.22225797   -110.58361    9740.0248    4.4037879    4.4037879    4.4037879    9740.0248    16292.044    6022.5302    6905.5007    4683.2954      2832.26    -4410.789    85.404193 
    2400    229.07991   -110.79152   0.20727631   -110.58424    6403.1233    4.4036806    4.4036806    4.4036806    6403.1233    8867.0042    6902.7361    3439.6296    5316.2514     6345.954   -1054.2899    85.397947 
    2500    147.61707   -110.71858   0.13356703   -110.58501    9360.3909    4.4058542    4.4058542    4.4058542    9360.3909    10324.635    9612.4824    8144.0551    7726.3988    5564.6463   -6514.4586    85.524466 
    2600    281.48122   -110.83816   0.25469012   -110.58347    7219.4476    4.4031011    4.4031011    4.4031011    7219.4476     3477.075    14351.138      3830.13    4352.3572    1353.1117    -4252.016    85.364238 
    2700    170.32182   -110.73898   0.15411076   -110.58487    5204.6835    4.4060803    4.4060803    4.4060803    5204.6835    1771.9379    9390.3304    4451.7822    6676.6488    7184.0093   -2643.5178    85.537629 
    2800    141.11462     -110.712   0.12768347   -110.58432    10315.102    4.4037837    4.4037837    4.4037837    10315.102    2812.9668    18481.814    9650.5262    4761.3863    2662.1289   -5301.5223    85.403949 
    2900    286.12258   -110.84175   0.25888973   -110.58286    925.50335    4.4059285    4.4059285    4.4059285    925.50335   -4948.8001    8017.3481     -292.038    2598.0228     951.0494   -3536.3954    85.528791 
    3000    165.54294   -110.73403   0.14978673   -110.58424     6679.209      4.40316      4.40316      4.40316     6679.209    2.3916067    11187.093    8848.1419    7956.6513    6139.1019     -3922.31    85.367667 
    3100    245.58685   -110.80639   0.22221215   -110.58418    4514.0721    4.4051384    4.4051384    4.4051384    4514.0721   -2725.6024     12413.74    3854.0789    2749.7856    579.15222   -2418.3339    85.482786 
    3200    362.33481   -110.91161   0.32784815   -110.58376   -268.15512    4.4043636    4.4043636    4.4043636   -268.15512   -3604.9266    477.55205    2322.9092    610.37978    2455.0667   -2039.4691    85.437687 
    3300    191.97215   -110.75951   0.17370043   -110.58581    2942.8301    4.4049213    4.4049213    4.4049213    2942.8301   -1299.3606    2587.2153    7540.6356    6203.5781    4905.7329   -1208.6898    85.470149 
    3400    374.89004   -110.92267   0.33920839   -110.58346   -1616.3382    4.4033191    4.4033191    4.4033191   -1616.3382    1290.1501   -6454.2471    315.08247    191.44728     442.7699   -1636.6537    85.376918 
    3500     329.3016   -110.88131     0.297959   -110.58335   -4147.0393    4.4060977    4.4060977    4.4060977   -4147.0393   -1549.7562   -11288.196    396.83418    1278.2486    2920.4742     1718.049    85.538643 
    3600    197.45994   -110.76296   0.17866591    -110.5843    1619.3014    4.4031311    4.4031311    4.4031311    1619.3014    4135.6015   -7638.1675    8360.4702    5106.4222    2768.6565     1984.762    85.365982 
    3700    408.36246   -110.95116   0.36949493   -110.58166   -4375.4852    4.4045166    4.4045166    4.4045166   -4375.4852   -1589.9482   -6911.6038   -4624.9036   -3904.7132   -1766.8785   -1545.3824    85.446593 
    3800    294.39216   -110.84977   0.26637221   -110.58339   -2717.4613    4.4044203    4.4044203    4.4044203   -2717.4613   -1754.8484   -9728.0696     3330.534    2313.3508    1696.1681    2922.8376    85.440989 
    3900    300.13347   -110.85579   0.27156707   -110.58422   -4461.8494    4.4026939    4.4026939    4.4026939   -4461.8494   -5255.0314   -7314.6733   -815.84357    3056.1047    1752.5533    2199.5171    85.340559 
    4000    476.31775   -111.01405   0.43098231   -110.58307   -9729.6185     4.406498     4.406498     4.406498   -9729.6185   -9102.1352   -9380.2065   -10706.514   -5914.0087   -4090.8258    1518.5339    85.561963 
    4100    300.75276   -110.85629   0.27212742   -110.58416   -1517.5774    4.4011626    4.4011626    4.4011626   -1517.5774   -2429.2286   -3938.7608    1815.2573     5040.823    27.529762    2484.3345    85.251544 
    4200    378.59087   -110.92613   0.34255697   -110.58357   -10290.124    4.4056335    4.4056335    4.4056335   -10290.124   -13026.753   -8424.5264   -9419.0927    970.42039    -178.2223    849.86337    85.511612 
    4300    428.79421   -110.97094   0.38798201   -110.58296   -4022.2465    4.4036882    4.4036882    4.4036882   -4022.2465   -1442.9209   -3544.6215   -7079.1971    -2380.577    -4050.025    2788.3785    85.398392 
    4400    253.25421   -110.81409   0.22914974   -110.58494   -1181.4226    4.4018688    4.4018688    4.4018688   -1181.4226   -2269.9934   -1855.8066    581.53232    4520.0722    1196.8609    661.87416    85.292587 
    4500    365.28596   -110.91472   0.33051841    -110.5842   -7980.5626    4.4041203    4.4041203    4.4041203   -7980.5626   -5397.5771   -7921.5867   -10622.524   -406.79614   -1738.9614    1218.1399    85.423529 
    4600    354.61717   -110.90471   0.32086506   -110.58384   -2346.8957    4.4044654    4.4044654    4.4044654   -2346.8957    3155.2453   -4432.0392   -5763.8933    1533.1695   -2435.7742   -112.41491    85.443615 
    4700    253.42116   -110.81404   0.22930079   -110.58474    2261.1269    4.3993578    4.3993578    4.3993578    2261.1269   -2129.9163    8899.6284    13.668553     3162.202    2912.7636    155.76339    85.146709 
    4800    369.43445   -110.91891   0.33427206   -110.58464   -4763.4719    4.4056834    4.4056834    4.4056834   -4763.4719   -3181.7187   -1657.1025   -9451.5944    72.448094   -689.09526    2592.8277    85.514517 
    4900    314.40379   -110.86888   0.28447916    -110.5844    5134.4599    4.4021415    4.4021415    4.4021415    5134.4599    3828.5347    11916.653   -341.80805    3182.5478   -224.42399    -2851.616    85.308439 
    5000    280.27372   -110.83958   0.25359755   -110.58598    150.75106    4.4010971    4.4010971    4.4010971    150.75106   -2170.5563    5346.9771   -2724.1676    5246.8571      3886.52    301.14807    85.247738 
    5100    312.34252   -110.86906   0.28261407   -110.58645   -782.26853    4.4035103    4.4035103    4.4035103   -782.26853    3203.8668   -2951.2497   -2599.4226    2855.5174    2069.4435    300.87831    85.388039 
    5200       255.17   -110.81641   0.23088317   -110.58553    4905.9069    4.4028069    4.4028069    4.4028069    4905.9069    2036.2985     10098.33     2583.092    1285.1885    892.15641    -1845.965     85.34713 
    5300    272.57629   -110.83243   0.24663276    -110.5858    572.94824    4.4006242    4.4006242    4.4006242    572.94824   -1603.9042   -1696.9241    5019.6731    3654.7373     3726.633   -276.48279    85.220258 
    5400    233.48357   -110.79753   0.21126084   -110.58627    3107.8757    4.4041912    4.4041912    4.4041912    3107.8757    332.34599    5714.4304    3276.8506    949.13778    2663.7873   -230.29265    85.427657 
    5500    285.90646   -110.84388   0.25869418   -110.58519    3628.7082    4.4013256    4.4013256    4.4013256    3628.7082   -2918.0057      5809.46    7994.6704    1031.8308    1163.7825   -327.41207    85.261013 
    5600    287.24663   -110.84598   0.25990679   -110.58607   -2211.9217     4.402571     4.402571     4.402571   -2211.9217   -6472.4512   -7282.3024    7118.9886   -258.35996    4514.6122    1348.4442    85.333413 
    5700    213.09028    -110.7791   0.19280856   -110.58629    8422.0662    4.4024029    4.4024029    4.4024029    8422.0662   -692.74331     18135.25    7823.6923   -1652.7792    1890.7767     3574.287    85.323637 
    5800     382.2033   -110.93075   0.34582558   -110.58493   -1019.6789    4.4021572    4.4021572    4.4021572   -1019.6789   -6042.2379   -2067.4213    5050.6225     2011.064    977.87015    827.21832    85.309353 
    5900    204.53876   -110.77182   0.18507097   -110.58675    3177.8743     4.402864     4.402864     4.402864    3177.8743   -8029.6059    10236.438    7326.7912   -863.76765    5079.2148    2157.9834    85.350447 
    6000    268.34693   -110.82878   0.24280594   -110.58598    5404.0728    4.4007982    4.4007982    4.4007982    5404.0728   -1629.5204    15281.387    2560.3518   -1837.3501    341.46544    3659.5117    85.230368 
    6100     332.2654   -110.88623   0.30064072   -110.58559   -4637.4083     4.404734     4.404734     4.404734   -4637.4083   -9224.0844   -7137.6344     2449.494   -558.44594    470.67194   -58.817974    85.459246 
    6200    178.60945   -110.74793   0.16160958   -110.58632    3037.3183    4.4017606    4.4017606    4.4017606    3037.3183   -8197.2983    14091.676    3217.5767    1456.1854     4430.567    248.14783    85.286299 
    6300    341.99276   -110.89353   0.30944223   -110.58408    31.817324    4.4022101    4.4022101    4.4022101    31.817324   -2274.8712    5654.0393   -3283.7162   -329.31349    484.45783    425.56332    85.312427 
    6400    345.21327   -110.89687   0.31235622   -110.58451   -2325.9979    4.4030866    4.4030866    4.4030866   -2325.9979   -10464.914    5502.0333   -2015.1127   -1276.3514   -315.77468   -1534.5326    85.363394 
    6500    256.76336   -110.81845   0.23232488   -110.58612   -475.04596    4.4025304    4.4025304    4.4025304   -475.04596    -11306.61     13823.79   -3942.3175     1388.041    3428.8135    880.82151    85.331047 
    6600    433.21366   -110.97605   0.39198082   -110.58407   -2661.6252     4.402035     4.402035     4.402035   -2661.6252   -3353.1562    5584.0938   -10215.813     1106.979     106.5689    382.18079    85.302248 
    6700    293.66382   -110.85079    0.2657132   -110.58507    -445.9932    4.4037528    4.4037528    4.4037528    -445.9932   -10677.287    13762.694    -4423.387    148.01318   -1091.1529   -3321.3949    85.402151 
    6800    304.83668   -110.86106   0.27582264   -110.58524   -2987.5661    4.4013063    4.4013063    4.4013063   -2987.5661   -8240.5194    7163.5836   -7885.7627    1014.4761    3939.8278    1179.1709    85.259892 
    6900    323.41491   -110.87719   0.29263261   -110.58456    729.13204    4.4030879    4.4030879    4.4030879    729.13204   -2772.7447     13353.31   -8393.1693   -149.20135   -2424.5843    2264.8074    85.363471 
    7000     289.2937   -110.84746   0.26175902    -110.5857   -2995.1903    4.4019269    4.4019269    4.4019269   -2995.1903   -11430.754     5513.139   -3067.9559    1184.4358   -1018.8658   -343.20144    85.295963 
    7100    271.17362   -110.83158   0.24536359   -110.58621   -5608.0821    4.4033712    4.4033712    4.4033712   -5608.0821   -10431.932    510.23875    -6902.553    2655.1111    4086.5822    1654.2411    85.379949 
    7200    344.96692   -110.89692   0.31213332   -110.58479    307.48028    4.4017875    4.4017875    4.4017875    307.48028   -7652.0384     13008.55   -4434.0705   -3120.8883   -4833.8857    2269.4045    85.287858 
    7300    319.33338   -110.87454   0.28893956    -110.5856   -4020.8387    4.4022772    4.4022772    4.4022772   -4020.8387   -12516.447    2029.6664   -1575.7355    819.70132    1213.6686    2080.6916    85.316325 
    7400    300.18008   -110.85779   0.27160925   -110.58618   -1428.0574    4.4027393    4.4027393    4.4027393   -1428.0574   -9501.6267    9454.5019   -4237.0474    1725.3951    2680.0504   -52.798558    85.343198 
    7500    399.66712   -110.94612   0.36162721    -110.5845   -2844.6535    4.4031365    4.4031365    4.4031365   -2844.6535   -7711.3921    2176.2437   -2998.8121   -4191.8981   -4039.1084    881.75723    85.366296 
    7600    250.32784   -110.81242   0.22650189   -110.58592   -1258.1381    4.4006446    4.4006446    4.4006446   -1258.1381   -11178.587    2240.4738    5163.6984    4659.6877    3154.6416   -1747.6857    85.221445 
    7700    270.11849   -110.82973   0.24440889   -110.58533   -2817.5835     4.403672     4.403672     4.403672   -2817.5835   -11844.423     4539.267   -1147.5941    989.89181    1200.3743    1768.0176     85.39745 
    7800    322.41471   -110.87556   0.29172761   -110.58383   -3053.0998    4.4030279    4.4030279    4.4030279   -3053.0998   -8117.3124   -3346.4586    2304.4717   -2456.9115   -805.15894    2185.8401    85.359983 
    7900    190.13532   -110.75749   0.17203844   -110.58545    931.47552    4.3995353    4.3995353    4.3995353    931.47552   -11991.653    5341.9725    9444.1076    5392.6806    4009.3036   -2312.9258    85.157013 
    8000    312.62306   -110.86785   0.28286792   -110.58498   -5790.8162    4.4055005    4.4055005    4.4055005   -5790.8162   -7821.9702   -6795.0265   -2755.4518    900.63626    1608.4218     2052.127    85.503871 
    8100    331.03361   -110.88421   0.29952617   -110.58468   -754.94893    4.4008094    4.4008094    4.4008094   -754.94893   -3997.1096   -4072.8261     5805.089    880.27223    1040.1664    3638.1169    85.231019 
    8200    241.42291   -110.80505   0.21844452   -110.58661    -132.0455    4.4008223    4.4008223    4.4008223    -132.0455   -12165.169    4774.3358    6994.6968     4346.341    4222.9723   -629.30382    85.231766 
    8300    396.37716   -110.94377   0.35865038   -110.58512    -6976.401    4.4056073    4.4056073    4.4056073    -6976.401   -5590.4598   -10027.356   -5311.3868   -483.98089     3355.721    1198.7182    85.510089 
    8400    274.01935   -110.83298   0.24793847   -110.58505    3372.7602    4.4002324    4.4002324    4.4002324    3372.7602   -2718.2229    5413.8791    7422.6243      1572.82    831.79796    4281.1846    85.197496 
    8500    305.68646   -110.86287   0.27659153   -110.58627   -6639.0636    4.4021704    4.4021704    4.4021704   -6639.0636   -11826.883   -5530.8925   -2559.4148    4053.7277    4470.4922    1054.6847    85.310118 
    8600    256.66069   -110.81896   0.23223199   -110.58672    -2572.913    4.4053066    4.4053066    4.4053066    -2572.913     2891.665   -6781.1852   -3829.2189   -1842.4347    1931.4012    5201.5373     85.49258 
    8700    284.83935   -110.84315   0.25772863   -110.58542    2555.9389    4.3984387    4.3984387    4.3984387    2555.9389    1496.3204    2559.7898    3611.7064   -327.72902    190.79935    1853.0985    85.093349 
    8800    296.33612   -110.85386   0.26813115   -110.58573   -6868.6933    4.4053329    4.4053329    4.4053329   -6868.6933   -4802.1142   -8015.2532   -7788.7126    3611.9949    3638.4085   -996.06422    85.494111 
    8900    247.50334   -110.80968   0.22394623   -110.58574    3198.4579    4.4023125    4.4023125    4.4023125    3198.4579    8246.0805    2237.9899   -888.69671   -1254.1655    81.823671    5516.7871    85.318378 
    9000    369.56269   -110.91861   0.33438808   -110.58422   -1154.4733    4.4002971    4.4002971    4.4002971   -1154.4733    2252.4204   -3132.7208   -2583.1195   -672.88368    323.75947   -1243.7492    85.201255 
    9100     312.1617   -110.86814   0.28245047   -110.58569    -4716.654    4.4052018    4.4052018    4.4052018    -4716.654     97.68102   -5580.5078   -8667.1352    1411.2812    1762.9322   -2404.4887    85.486476 
    9200    222.67693   -110.78746   0.20148276   -110.58598    6992.0781    4.4005622    4.4005622    4.4005622    6992.0781    10499.467    4674.6293    5802.1377    615.81499   -1147.4966    3246.7123    85.216655 
    9300    430.98089   -110.97424   0.38996056   -110.58428   -4539.2439    4.4017142    4.4017142    4.4017142   -4539.2439    1560.9882   -9351.5758   -5827.1441    2406.4391   -1078.7826    1057.1206      85.2836 
    9400    174.89009   -110.74504   0.15824423    -110.5868     2351.035    4.4045267    4.4045267    4.4045267     2351.035    825.85844    4749.6288    1477.6178    2534.4742    708.35696    544.81371    85.447181 
    9500    272.76565   -110.83216   0.24680409   -110.58536    2272.4624    4.3995272    4.3995272    4.3995272    2272.4624    3827.0973    -3714.939    6705.2289   -41.260185   -443.16395    1198.9077    85.156542 
    9600    370.47496   -110.91974   0.33521353   -110.58452   -2497.8104    4.4025234    4.4025234    4.4025234   -2497.8104    -1150.038   -3994.7229   -2348.6703     2020.469   -1585.5819    893.30589    85.330641 
    9700    173.91869   -110.74354   0.15736529   -110.58617    2810.4505    4.4053721    4.4053721    4.4053721    2810.4505   -774.59181    4004.2613     5201.682    5598.7196    1082.8742    2385.1058     85.49639 
    9800    363.12202   -110.91261   0.32856043   -110.58405    2989.2978    4.3979688    4.3979688    4.3979688    2989.2978    2507.4871   -29.964579     6490.371   -1184.2535   -634.22913      3505.42    85.066084 
    9900    358.93477   -110.90942   0.32477172   -110.58465   -548.35344    4.4050337    4.4050337    4.4050337   -548.35344   -6351.6633    9980.5372   -5273.9343    1271.3578   -1067.5671    44.523642    85.476692 
   10000    245.46159   -110.80803    0.2220988   -110.58593    2446.0061    4.4029197    4.4029197    4.4029197    2446.0061   -4338.6086     4058.606    7618.0209    5298.3263    1920.5276      1948.64    85.353688 
   10100    396.17136   -110.94259   0.35846417   -110.58412   -240.73329    4.3990016    4.3990016    4.3990016   -240.73329   -2488.0867    6134.2396   -4368.3528    -1900.292   -537.59525     6162.972    85.126023 
   10200     315.6585   -110.87027   0.28561445   -110.58466    76.355257    4.4055058    4.4055058    4.4055058    76.355257   -8347.4026    8073.9386    502.52976    3365.8068    35.245407    479.12407    85.504176 
   10300    276.43279   -110.83542    0.2501222   -110.58529    962.85178    4.4014565    4.4014565    4.4014565    962.85178   -127.21948   -4441.3447    7457.1195    685.20141    2556.3275   -968.50941    85.268622 
   10400     346.7139   -110.89835   0.31371402   -110.58464    1463.4624    4.4001638    4.4001638    4.4001638    1463.4624   -5018.2384    13110.451   -3701.8258   -2619.4348    1594.9967     2545.498    85.193512 
   10500    335.16052   -110.88793   0.30326028   -110.58467   -2949.9809    4.4059561    4.4059561    4.4059561   -2949.9809    -5229.176   -5483.1771    1862.4103    3727.4739    1696.2076    436.08415    85.530397 
   10600     290.3112   -110.84723   0.26267967   -110.58455   -213.35223    4.3998515    4.3998515    4.3998515   -213.35223    -1176.515   -2514.7235    3051.1818   -1654.8577    2008.1755     12.46072    85.175376 
   10700    393.66857    -110.9399    0.3561996   -110.58371   -2091.6146    4.4019519    4.4019519    4.4019519   -2091.6146   -3885.6327    5848.6699   -8237.8811   -459.80194    2288.3754   -638.91418    85.297415 
   10800    312.58146   -110.86748   0.28283027   -110.58465    1245.5864    4.4043256    4.4043256    4.4043256    1245.5864   -1258.0665   -5808.7315    10803.557    2054.4445    1093.9249   -129.92971    85.435476 
   10900     330.3485   -110.88364   0.29890626   -110.58473    65.997934     4.399463     4.399463     4.399463    65.997934   -661.80037    2405.5538   -1545.7596    308.52423    2283.1966    1728.1312    85.152815 
   11000    342.21037   -110.89439   0.30963914   -110.58475    269.80903    4.4030935    4.4030935    4.4030935    269.80903   -2322.5443    3625.3283    -493.3569    968.26201    1140.2693    2267.4408    85.363795 
   11100    264.50496   -110.82432   0.23932965   -110.58499    1736.8597     4.402835     4.402835     4.402835    1736.8597    2567.7468   -4782.9897    7425.8221    1473.0967    336.46515   -2170.1507    85.348766 
   11200      292.256   -110.84903   0.26443937   -110.58459   -850.96572    4.3998568    4.3998568    4.3998568   -850.96572    -4565.254    1667.2403    345.11657    3879.5445    2902.9192    1282.8818    85.175681 
   11300    292.54269   -110.84946   0.26469877   -110.58476    794.49055    4.4040915    4.4040915    4.4040915    794.49055    3391.1685   -3053.2017    2045.5049   -1112.2451   -1068.2638    6111.7937    85.421856 
   11400    231.21452   -110.79464   0.20920776   -110.58544    4535.1154    4.4014765    4.4014765    4.4014765    4535.1154    5818.9555   -792.28821     8578.679    5108.1581   -976.58945   -1792.5443    85.269785 
   11500    326.72355    -110.8804   0.29562633   -110.58478    493.66899    4.3989907    4.3989907    4.3989907    493.66899   -4358.8098    5185.4322     654.3846    5108.5033    1969.6043     1409.717    85.125394 
   11600    244.35956   -110.80636   0.22110167   -110.58526    2214.3533    4.4055484    4.4055484    4.4055484    2214.3533    6255.2394   -496.15263    883.97321   -2423.9046   -1965.1648    3740.4331    85.506659 
   11700    318.48445   -110.87239   0.28817142   -110.58422    518.57113     4.399861     4.399861     4.399861    518.57113   -213.32561   -478.63291    2247.6719    7063.3779   -1394.0261    1287.8605    85.175926 
   11800    292.34328     -110.849   0.26451834   -110.58448    1211.8673    4.4006739    4.4006739    4.4006739    1211.8673   -4034.0177    3176.0373    4493.5822    1753.5039    1772.3082    4201.8733    85.223144 
   11900    268.38432   -110.82763   0.24283977   -110.58479    489.23582    4.4050365    4.4050365    4.4050365    489.23582    1563.9655   -3042.4822    2946.2242    326.27329   -2236.9033   -205.69201    85.476852 
   12000    302.07571   -110.85813   0.27332445    -110.5848    727.88062    4.3990945    4.3990945    4.3990945    727.88062     493.9361   -1827.0597    3516.7655    6804.4027    1877.3188    735.14049    85.131422 
   12100    277.96405   -110.83684   0.25150771   -110.58533    301.39924    4.4016519    4.4016519    4.4016519    301.39924   -4383.4163    1051.3101    4236.3039    -3478.735    3275.2615    3607.4243     85.27998 
   12200    275.35052   -110.83432   0.24914294   -110.58518   -4069.2571    4.4049154    4.4049154    4.4049154   -4069.2571    1788.2807   -9089.9638   -4906.0883   -299.47986   -2251.5807    854.41246    85.469803 
   12300    341.66488   -110.89408   0.30914556   -110.58493   -2787.0374    4.3981887    4.3981887    4.3981887   -2787.0374   -5699.5606    -4869.765    2208.2135    5136.9573    4889.7092    -2232.454    85.078841 
   12400    288.86629   -110.84693   0.26137229   -110.58556   -320.31053    4.4036409    4.4036409    4.4036409   -320.31053   -746.46974    3309.5364   -3523.9983   -4533.3399    3300.3117    1366.8781    85.395641 
   12500    361.99588   -110.91194   0.32754148    -110.5844   -5120.2018    4.4036609    4.4036609    4.4036609   -5120.2018    901.34191   -9042.3371   -7219.6101    223.74673   -1720.5447    3931.9464    85.396803 
   12600    328.79552   -110.88175    0.2975011   -110.58425    254.12237    4.3988243    4.3988243    4.3988243    254.12237    -1379.202   -671.48951    2813.0587    5106.8644    5310.2563   -1167.6784    85.115732 
   12700     320.0652    -110.8739   0.28960172   -110.58429   -2728.4669    4.4049723    4.4049723    4.4049723   -2728.4669   -268.07779    2312.5652   -10229.888   -3051.2919    950.62564    687.16681    85.473116 
   12800    299.22148    -110.8554   0.27074188   -110.58466   -2650.0514    4.4008999    4.4008999    4.4008999   -2650.0514    8459.5593   -11157.164   -5252.5498    2810.2861   -232.84195    1398.3459    85.236274 
   12900    299.59851   -110.85609   0.27108303     -110.585   -188.21419    4.4004674    4.4004674    4.4004674   -188.21419   -1128.8948   -1893.8747     2458.127    4809.6705    2217.3188     422.1068    85.211147 
   13000    280.23351   -110.83881   0.25356117   -110.58525   -565.03639    4.4056298    4.4056298    4.4056298   -565.03639    10847.057   -675.79985   -11866.366   -2002.6292   -2312.3095    2934.3235    85.511398 
   13100    277.42635   -110.83744   0.25102119   -110.58642    391.41988    4.3982661    4.3982661    4.3982661    391.41988    4198.3222   -8110.4015     5086.339    6771.4725   -2268.6626   -372.14434    85.083333 
   13200    286.71791    -110.8459   0.25942839   -110.58647   -234.01383    4.4033158    4.4033158    4.4033158   -234.01383   -1223.2578    3073.1546   -2551.9383    1586.1186   -1514.8407   -142.56383    85.376729 
   13300     347.6387   -110.89929    0.3145508   -110.58474   -4265.7517    4.4059275    4.4059275    4.4059275   -4265.7517    3289.2917   -4598.1194   -11488.427    418.54741   -1820.3286    4397.5972    85.528733 
   13400     272.6077    -110.8313   0.24666118   -110.58464    1757.7737    4.3967319    4.3967319    4.3967319    1757.7737    3377.3219   -3461.8921    5357.8913    7542.9225   -2337.2051    1943.1148    84.994328 
   13500    325.10469   -110.87849   0.29416156   -110.58433   -2083.5806    4.4056409    4.4056409    4.4056409   -2083.5806   -8323.5454     4613.481   -2540.6774   -142.30508   -674.68435   -1738.2708    85.512046 
   13600    324.16346   -110.87748   0.29330992   -110.58417   -2855.1414    4.4038429    4.4038429    4.4038429   -2855.1414    2881.2991    -8665.703   -2781.0204    397.68784     196.9594     4545.874    85.407388 
   13700    215.33143   -110.78037    0.1948364   -110.58553    2165.0898    4.3979269    4.3979269    4.3979269    2165.0898   -572.80652     -498.847     7566.923    2165.9596   -1459.4129    2622.1339    85.063648 
   13800    311.14698   -110.86606   0.28153233   -110.58453   -4000.4272    4.4068467    4.4068467    4.4068467   -4000.4272   -6537.6431   -3540.2581   -1923.3806    1241.1414    287.90823   -820.91199    85.582278 
   13900    274.59647    -110.8337   0.24846065   -110.58524   -3012.2128    4.4026187    4.4026187    4.4026187   -3012.2128    5512.5652   -13803.744   -745.45907   -1681.3829    2336.1829    4694.5071    85.336186 
   14000    186.65394   -110.75572   0.16888841   -110.58683    4823.9474    4.3983699    4.3983699    4.3983699    4823.9474    7824.7019    3637.7958    3009.3446   -315.78981    967.72905   -1900.1486    85.089361 
   14100     358.4736   -110.90898   0.32435444   -110.58462   -5666.4768    4.4093519    4.4093519    4.4093519   -5666.4768   -1076.3752   -11014.425   -4908.6302    3578.1169      3730.13    1560.9524    85.728314 
   14200     216.2336   -110.78104    0.1956527   -110.58539    4353.5335    4.3983436    4.3983436    4.3983436    4353.5335    17828.516   -4179.8386   -588.07699   -1573.8515     1008.439    5288.0156    85.087835 
   14300     239.3488   -110.80304   0.21656783   -110.58647   -1394.8827    4.4030758    4.4030758    4.4030758   -1394.8827    4701.7815   -3314.2775    -5572.152    3348.4726    1397.9913   -6199.7072     85.36277 
   14400    319.74348   -110.87374   0.28931062   -110.58443   -2151.1316    4.4067729    4.4067729    4.4067729   -2151.1316    13292.271   -15132.895   -4612.7708    311.67976     4456.741    1850.7669    85.577975 
   14500    213.37845   -110.77868   0.19306931   -110.58561    3022.9505    4.3989644    4.3989644    4.3989644    3022.9505    15457.025   -3191.6479    -3196.526    513.32888    -931.0428    2104.1655    85.123866 
   14600    244.93499   -110.80767   0.22162232   -110.58605   -2975.7588    4.4057715    4.4057715    4.4057715   -2975.7588    8142.7228   -10364.322   -6705.6771    6835.1807    761.08754   -6452.8761    85.519648 
   14700     321.3371    -110.8742   0.29075256   -110.58344   -1875.4491     4.405225     4.405225     4.405225   -1875.4491    9636.3722   -9951.2885   -5311.4312    407.82444    1888.9419    2655.0342    85.487829 
   14800    255.85851   -110.81622   0.23150616   -110.58471    581.64285    4.3990467    4.3990467    4.3990467    581.64285    6594.2083     1553.154   -6402.4338    2257.9997   -61.115848   -2915.7102    85.128642 
   14900    291.55183   -110.84911   0.26380223   -110.58531   -6291.2806      4.40831      4.40831      4.40831   -6291.2806    3200.7039   -10369.423   -11705.123      4163.16   -1346.9024   -4632.3628    85.667554 
   15000     376.1047   -110.92377   0.34030744   -110.58346   -482.04532    4.4010801    4.4010801    4.4010801   -482.04532    2995.5134    2837.1109   -7278.7602     844.0584   -820.71869    4102.2118     85.24675 
   15100    307.84571    -110.8637   0.27854527   -110.58515   -2163.2706    4.4019095    4.4019095    4.4019095   -2163.2706    2562.0552   -492.26414   -8559.6029    267.80803    2.4693469    -4423.487    85.294951 
   15200    310.44857   -110.86564   0.28090039   -110.58474   -6179.5023    4.4076596    4.4076596    4.4076596   -6179.5023    1405.5461   -9226.1479   -10717.905    2387.0231   -2453.6762   -2582.3962    85.629646 
   15300    395.29504   -110.94052   0.35767126   -110.58285   -1018.7804    4.3989064    4.3989064    4.3989064   -1018.7804    872.11515    1608.0304   -5536.4866   -1448.8923   -2135.6339     4362.583    85.120502 
   15400    266.39383   -110.82638   0.24103874   -110.58534   -4631.8135    4.4059264    4.4059264    4.4059264   -4631.8135    7018.6336   -10504.543   -10409.531    301.53892   -3090.2762   -3866.8119     85.52867 
   15500    329.49241    -110.8828   0.29813165   -110.58467   -4961.5597     4.403306     4.403306     4.403306   -4961.5597   -1331.2508   -5134.7655   -8418.6627    3544.3107   -1149.4398    94.583817     85.37616 
   15600    338.41731   -110.89001    0.3062071    -110.5838    1523.1036    4.3995385    4.3995385    4.3995385    1523.1036    11131.437    6.4069072   -6568.5332   -3436.2746    209.07217    3239.5387    85.157199 
   15700    288.36775   -110.84623    0.2609212   -110.58531    -5477.114    4.4060894    4.4060894    4.4060894    -5477.114    5772.2136   -10659.934   -11543.622   -284.70576   -3222.9157   -2383.7672    85.538163 
   15800    318.69223    -110.8737   0.28835942   -110.58534   -2960.9702    4.4005722    4.4005722    4.4005722   -2960.9702   -3765.8331    507.80338   -5624.8808    1930.2345   -594.91658    2810.0922    85.217236 
   15900     326.3095   -110.87965   0.29525169    -110.5844    1858.6287    4.4007426    4.4007426    4.4007426    1858.6287    12264.839    -4667.666   -2021.2875   -745.22514    2658.3029     2384.148    85.227138 
   16000    312.56378   -110.86833   0.28281427   -110.58551    -5463.776     4.404633     4.404633     4.404633    -5463.776    1320.8152   -10047.681   -7664.4625    2177.1948   -1456.5615   -2780.1166     85.45337 
   16100    279.52514   -110.83892   0.25292022     -110.586   -1184.4751    4.4004794    4.4004794    4.4004794   -1184.4751   -1172.6497   -1736.7345   -644.04102    2445.7401   -383.25114    1960.2193    85.211844 
   16200    319.76846   -110.87409   0.28933323   -110.58476    1929.1647    4.4016179    4.4016179    4.4016179    1929.1647    7883.8286   -9612.1513     7515.817    7.2613518    3399.8292    2090.5737    85.278004 
   16300    313.64047   -110.87019   0.28378849    -110.5864   -6665.1756    4.4031743    4.4031743    4.4031743   -6665.1756   -8931.4982   -4843.2858   -6220.7428     4648.643   -133.86085   -2509.0341    85.368495 
   16400    189.21075   -110.75814   0.17120186   -110.58694    4293.4188    4.4001261    4.4001261    4.4001261    4293.4188   -3955.8267     968.7095    15867.373    5713.6296    2832.1528   -1578.4915    85.191325 
   16500     410.9774   -110.95665   0.37186099   -110.58479   -1962.3803    4.4011923    4.4011923    4.4011923   -1962.3803   -919.86845   -6878.0279    1910.7554   -2401.3067    1132.0854    2383.8705     85.25327 
   16600    218.30152    -110.7847   0.19752381   -110.58717   -884.53703    4.4039763    4.4039763    4.4039763   -884.53703   -6117.2884    2741.6344    722.04289    4850.2491    965.07124   -1373.5948    85.415152 
   16700    244.41575   -110.80729   0.22115251   -110.58613     4985.563    4.3988694    4.3988694    4.3988694     4985.563   -5398.0952    1861.5016    18493.282    7042.5322    3230.0915   -3911.7986     85.11835 
   16800     407.2532   -110.95328   0.36849125   -110.58479   -4978.1811    4.4043214    4.4043214    4.4043214   -4978.1811   -3913.5491   -5298.0268   -5722.9675   -1622.4946    -1512.711    1181.9118    85.435232 
   16900    161.84878   -110.73318   0.14644418   -110.58674    5677.9233    4.4006554    4.4006554    4.4006554    5677.9233   -4984.0737    9642.6771    12375.167    5969.0817    2754.5755   -3781.3704    85.222073 
   17000    309.44866    -110.8649   0.27999565   -110.58491    -383.1584    4.4014625    4.4014625    4.4014625    -383.1584   -4294.2859   -1526.0143     4670.825    3527.9355    1343.8212   -106.46149    85.268969 
   17100    372.54303   -110.92131   0.33708477   -110.58423   -2232.7061    4.4032415    4.4032415    4.4032415   -2232.7061   -2411.3578    3305.9884    -7592.749   -29.586278    189.19867    1149.3169    85.372406 
   17200    130.26877   -110.70438   0.11786992   -110.58651     5186.528    4.4012426    4.4012426    4.4012426     5186.528   -4360.5475    9956.2022    9963.9294    8536.4071    3281.3922   -5111.2607    85.256193 
   17300    420.57581    -110.9656   0.38054583   -110.58505   -5131.6874    4.4011432    4.4011432    4.4011432   -5131.6874   -7375.7991   -320.97897   -7698.2842    6.6789982   -3694.3505    4514.3883    85.250414 
   17400    275.41259   -110.83517   0.24919909   -110.58597    2410.2698    4.4038187    4.4038187    4.4038187    2410.2698     778.4523     8015.713   -1563.3558    44.013199    2092.5986    2678.7616    85.405982 
   17500    252.18253   -110.81558   0.22818005    -110.5874   -3305.2945    4.4023763    4.4023763    4.4023763   -3305.2945   -10201.024    333.55757    -48.41748    7472.0028    656.09146   -2926.1052    85.322088 
   17600    382.54767   -110.93093   0.34613718   -110.58479   -1847.5627    4.4010967    4.4010967    4.4010967   -1847.5627    2487.4841   -2236.8049   -5793.3673   -412.36191   -4076.4093    1036.0167    85.247711 
   17700     287.4458   -110.84482     0.260087   -110.58473    -995.2614    4.4057786    4.4057786    4.4057786    -995.2614   -4479.6255    970.72353    523.11774     735.4044    2468.1556    1996.5888    85.520064 
   17800    284.35858   -110.84295   0.25729362   -110.58566   -4330.5958    4.3997358    4.3997358    4.3997358   -4330.5958   -5444.5568   -7434.1705   -113.06027    4112.9743    -813.6453    365.45552    85.168656 
   17900    360.71676   -110.91139   0.32638411     -110.585    -3965.452    4.4044199    4.4044199    4.4044199    -3965.452   -1577.3679   -7630.8996   -2688.0884   -1132.7975   -827.61112   -2691.8771    85.440966 
   18000    285.46623    -110.8437   0.25829585    -110.5854     1600.951    4.4022896    4.4022896    4.4022896     1600.951   -4410.3561    5736.1136    3477.0955   -163.00762    990.18756     -410.788    85.317049 
   18100    336.11488   -110.88977    0.3041238   -110.58565   -9175.0041    4.4025708    4.4025708    4.4025708   -9175.0041   -10430.577    -9828.289   -7266.1459     2353.943   -2507.0696    519.32445    85.333401 
   18200    311.25315   -110.86648   0.28162839   -110.58485    3033.1271    4.4031296    4.4031296    4.4031296    3033.1271    563.74239    8083.3976    452.24122   -2492.8309    1491.9177   -1575.6134    85.365894 
   18300    358.86334   -110.90959   0.32470709   -110.58488   -3720.2588    4.4041177    4.4041177    4.4041177   -3720.2588   -10136.619    7539.4371   -8563.5944    257.43478    588.52362   -1555.7417    85.423379 
   18400    277.22769   -110.83726   0.25084144   -110.58642   -1507.1106    4.4006213    4.4006213    4.4006213   -1507.1106   -2758.7641    1381.8684    -3144.436    4529.5653   -764.63587    -5123.999    85.220093 
   18500    303.59384   -110.85978   0.27469809   -110.58509    2962.0682    4.4037989    4.4037989    4.4037989    2962.0682   -3918.2375    15383.366   -2578.9237   -2370.8202    515.77275   -609.94913    85.404828 
   18600    370.80297   -110.92043   0.33551032   -110.58492   -3961.2736    4.4019213    4.4019213    4.4019213   -3961.2736   -2026.5288   -1125.1889   -8732.1031     3309.773    1023.0238    1169.7893    85.295638 
   18700    207.78188   -110.77494   0.18800541   -110.58694    1106.0636    4.4015747    4.4015747    4.4015747    1106.0636    5746.5283   -48.433854   -2379.9037    5609.8075    988.76168   -6738.1932    85.275491 
   18800    321.47189   -110.87538   0.29087452    -110.5845    2751.3857    4.4039325    4.4039325    4.4039325    2751.3857    3373.0683     9696.684   -4815.5952   -769.37094   -981.33292   -771.97652    85.412605 
   18900    381.76931   -110.93005   0.34543289   -110.58462   -3024.1039     4.399892     4.399892     4.399892   -3024.1039    6806.1095   -6754.7449   -9123.6761     2523.132    128.19591    574.26543    85.177727 
   19000    145.94553   -110.71943   0.13205459   -110.58737    3267.3958     4.403638     4.403638     4.403638    3267.3958    11338.548    1565.9648   -3102.3257    4101.7356    1325.1705   -5615.2214    85.395473 
   19100    440.42441   -110.98206   0.39850526   -110.58355   -1354.9636    4.4019241    4.4019241    4.4019241   -1354.9636    1668.7313    1898.3445   -7631.9666    1348.5308   -20.823298   -244.71594      85.2958 
   19200    279.07221    -110.8385    0.2525104   -110.58599     576.6215    4.4011158    4.4011158    4.4011158     576.6215    16811.548   -7606.6513   -7475.0321    1627.8414    811.07832   -3219.5436    85.248821 
   19300    185.53253   -110.75602   0.16787373   -110.58814    2005.6753    4.4018895    4.4018895    4.4018895    2005.6753    3620.4361    2611.3441   -214.75449    2952.0986    419.59163   -3985.5055    85.293786 
   19400    413.42756   -110.95891   0.37407794   -110.58483   -2598.1355    4.4027736    4.4027736    4.4027736   -2598.1355    3572.7668   -2928.1576   -8439.0156   -1304.6429    3.6991571    3071.1388    85.345191 
   19500    200.38681   -110.76768   0.18131419   -110.58637    4070.1192    4.3997124    4.3997124    4.3997124    4070.1192    13078.111   -3016.2031    2148.4499    1466.0338    2646.4503   -5411.1182    85.167297 
   19600     216.3812   -110.78233   0.19578626   -110.58655   -2555.9145    4.4038229    4.4038229    4.4038229   -2555.9145     -2954.93   -2817.2673   -1895.5461    1629.5268   -748.93629   -2003.1049     85.40623 
   19700    423.59015   -110.96694   0.38327327   -110.58367   -2240.2071    4.4009069    4.4009069    4.4009069   -2240.2071    1646.9264   -3404.6807   -4962.8669   -4679.1606   -808.43557    3402.1986    85.236683 
   19800     188.2581   -110.75686   0.17033989   -110.58652    3364.4185    4.4016032    4.4016032    4.4016032    3364.4185    3598.4133    2490.2264    4004.6159    4204.5209    2179.0434   -5272.5515    85.277149 
   19900    349.65098   -110.90274   0.31637155   -110.58637   -5361.5509     4.401468     4.401468     4.401468   -5361.5509   -7511.6627   -526.90798    -8046.082    3253.1835   -1946.8316    265.67328    85.269292 
   20000    382.49404   -110.93118   0.34608864   -110.58509   -2400.5182    4.4031255    4.4031255    4.4031255   -2400.5182   -6090.8377   -1170.3959    59.678914   -2640.2738    164.71107   -1832.2578    85.365657 
   20100    251.91731   -110.81497   0.22794008   -110.58703   -1329.2837     4.400427     4.400427     4.400427   -1329.2837   -3623.1087   -740.68042      375.938    3391.7816   -147.23598   -4134.0318    85.208801 
   20200    340.04835   -110.89414   0.30768289   -110.58646   -8486.8883    4.4021123    4.4021123    4.4021123   -8486.8883   -9498.8366   -8816.5651   -7145.2632     3941.486   -561.07326    2625.8637     85.30674 
   20300     306.6307   -110.86252    0.2774459   -110.58508   -707.99108    4.4033934    4.4033934    4.4033934   -707.99108   -3126.9037   -3135.6219    4138.5523    1701.5081    502.88687   -5499.4048    85.381243 
   20400    315.64153   -110.87145   0.28559909   -110.58585   -5396.1326    4.4001909    4.4001909    4.4001909   -5396.1326   -1772.8916   -7671.2113   -6744.2948    2080.8773    -1985.292   -1311.1111    85.195091 
   20500    258.54366   -110.82085   0.23393574   -110.58692   -3961.0401     4.403558     4.403558     4.403558   -3961.0401    -8775.451    -3850.146    742.47668    2471.4085    693.23437    2062.9887    85.390817 
   20600    359.69398   -110.90989   0.32545867   -110.58443    1039.9955    4.4001581    4.4001581    4.4001581    1039.9955   -1875.6111    4135.8939    859.70376   -742.34147    1180.2765   -5837.3171    85.193182 
   20700    321.30636    -110.8768   0.29072475   -110.58608   -6912.8475    4.4024654    4.4024654    4.4024654   -6912.8475   -4318.9356    -10312.69   -6106.9172    3750.7409     98.11843    384.36265    85.327272 
   20800    219.79206   -110.78648   0.19887247   -110.58761    1818.6061    4.4020832    4.4020832    4.4020832    1818.6061   -5368.7129    3618.3894    7206.1416    2633.8808    863.57592   -476.15175    85.305052 
   20900    379.37382   -110.92825    0.3432654   -110.58499    131.42441    4.4011846    4.4011846    4.4011846    131.42441    6674.2892    95.995461   -6376.0114   -4732.4689    1121.0802    814.77045     85.25282 
   21000    246.45655   -110.80957   0.22299907   -110.58657   -2019.6544    4.4018076    4.4018076    4.4018076   -2019.6544   -3837.8934   -8076.7713    5855.7014    5591.9892    2207.2597    428.26569     85.28903 
   21100    173.04436   -110.74359   0.15657417   -110.58702     1946.201    4.4028792    4.4028792    4.4028792     1946.201   -1721.9564    6398.5282     1162.031   -142.61787    1216.7357   -2887.1586    85.351334 
   21200    417.63247   -110.96163   0.37788264   -110.58375   -2249.1964     4.399641     4.399641     4.399641   -2249.1964    3015.7126   -5546.6515   -4216.6503   -3643.7346   -182.34243    2312.9842     85.16315 
   21300    166.37358   -110.73734   0.15053831    -110.5868    342.42941    4.4031996    4.4031996    4.4031996    342.42941   -1923.6919   -5945.5336    8896.5137    5197.0003    1215.3983   -32.151962    85.369967 
   21400    300.46735   -110.85862   0.27186917   -110.58675   -2852.4187    4.4018464    4.4018464    4.4018464   -2852.4187   -6776.8605    7493.5266   -9273.9223   -4174.8806     1263.678   -944.11036    85.291283 
   21500    377.27856   -110.92616   0.34136957    -110.5848    2658.4347    4.3995734    4.3995734    4.3995734    2658.4347    3853.6323   -450.35187    4572.0236     3177.728   -1577.0635    -1440.283    85.159226 
   21600    245.71072   -110.80907   0.22232422   -110.58675   -2434.2266    4.4036095    4.4036095    4.4036095   -2434.2266   -11570.833    3787.9651    480.18866    6332.3195    674.58723   -577.28463    85.393813 
   21700    314.68749    -110.8702   0.28473585   -110.58546   -3333.9822    4.4010247    4.4010247    4.4010247   -3333.9822   -7860.9401    8207.9979   -10349.004   -3125.7017    -740.5113    2952.2344    85.243529 
   21800    379.68911   -110.92747   0.34355069   -110.58392    -1187.471    4.4016769    4.4016769    4.4016769    -1187.471   -7785.5326   -2323.1405      6546.26    4350.0081   -1455.5935   -1868.0737    85.281433 
   21900    222.66981   -110.78819   0.20147633   -110.58671   -393.89187    4.4014125    4.4014125    4.4014125   -393.89187    -2240.619    6597.3241   -5538.3807    3529.3661    171.36057   -1257.2542    85.266063 
   22000     335.3753   -110.88955   0.30345462   -110.58609   -4297.7377    4.4015931    4.4015931    4.4015931   -4297.7377   -9269.2466    1863.2902   -5487.2567    6.9452466    -3549.156    2018.1239    85.276559 
   22100    329.50733   -110.88322   0.29814516   -110.58508    3592.1748    4.4011985    4.4011985    4.4011985    3592.1748   -175.61998    5700.7432    5251.4012    1296.2576    1373.5287    -1084.579    85.253629 
   22200    269.22885   -110.83029   0.24360392   -110.58669   -2076.4756    4.4013871    4.4013871    4.4013871   -2076.4756   -3045.9035    6729.1143   -9912.6377    1557.5283   -501.55771    269.92627    85.264588 
   22300    304.79409   -110.86227    0.2757841   -110.58649    -996.4574     4.401353     4.401353     4.401353    -996.4574   -7488.4815    3192.7057    1306.4036    1042.0581    -2456.545   -354.94499    85.262608 
   22400    363.33325   -110.91341   0.32875156   -110.58465    1348.3345     4.402096     4.402096     4.402096    1348.3345   -581.01006      8983.69   -4357.6765    219.83657    2188.1958    406.29376    85.305794 
   22500    257.43308   -110.81916   0.23293086   -110.58623    569.33639    4.4012617    4.4012617    4.4012617    569.33639    1897.4946    4766.4608   -4955.9463    2616.5283   -1838.2981    3092.9269    85.257299 
   22600    292.27649   -110.85022   0.26445791   -110.58576    4214.9882    4.4001671    4.4001671    4.4001671    4214.9882    3148.6051    6481.2965    3015.0631   -2936.8923    878.47033   -2273.5665    85.193703 
   22700    320.04082   -110.87459   0.28957966   -110.58501    2648.6606    4.4025669    4.4025669    4.4025669    2648.6606    9824.0535     5057.739   -6935.8106    1354.9245    1278.5353   -269.08601    85.333172 
   22800    260.07298   -110.82252   0.23531949   -110.58721   -157.12945    4.4000871    4.4000871    4.4000871   -157.12945    511.07433   -2168.3866    1185.9239    4142.5856   -1883.0354     725.5681    85.189059 
   22900    243.82927   -110.80729   0.22062185   -110.58666    4185.1122    4.4029163    4.4029163    4.4029163    4185.1122    12562.777    3374.8068   -3382.2469   -5394.4781    3945.0502   -1285.9308    85.353488 
   23000    368.06196    -110.9175    0.3330302   -110.58447    1809.2572     4.400843     4.400843     4.400843    1809.2572    7876.4043    1471.3693   -3920.0019    5449.0665    422.79697    394.86393    85.232972 
   23100     244.8079   -110.80771   0.22150733    -110.5862    2205.7682    4.4012241    4.4012241    4.4012241    2205.7682    1599.4681    2056.1533    2961.6833    4124.1421   -438.99384   -2551.8223    85.255118 
   23200    308.54513   -110.86455   0.27917812   -110.58537    3872.9455    4.4021935    4.4021935    4.4021935    3872.9455    13810.057    5867.2762   -8058.4967   -2666.9788    2429.8599   -299.58984     85.31146 
   23300    403.59872   -110.95014    0.3651846   -110.58496    -1966.279    4.4006134    4.4006134    4.4006134    -1966.279   -5359.3184     156.3682    -695.8868    3275.4507   -1205.7729    1801.4211    85.219631 
   23400     196.5228   -110.76504   0.17781796   -110.58723    1375.7646    4.4030514    4.4030514    4.4030514    1375.7646    864.72841    5146.3266   -1883.7612    1816.9947    1356.1783   -3979.1663    85.361346 
   23500    357.87774   -110.90859    0.3238153   -110.58478    465.68569     4.401147     4.401147     4.401147    465.68569    8337.9758    135.83744   -7076.7562   -498.86455    285.42904   -330.39304    85.250633 
   23600    340.38915   -110.89258   0.30799125   -110.58459    1172.8558    4.4002755    4.4002755    4.4002755    1172.8558   -628.16519    2096.0583    2050.6741    657.72015   -1837.8491   -574.33854    85.200003 
   23700    146.16918   -110.71901   0.13225695   -110.58676     3702.327    4.4037701    4.4037701    4.4037701     3702.327     11436.01     5246.383   -5575.4125    1237.3722    1660.7172   -3087.0034    85.403153 
   23800     399.2311   -110.94513   0.36123269   -110.58389   -3431.3056     4.401041     4.401041     4.401041   -3431.3056     2623.147   -6297.8177   -6619.2461   -2042.3178   -88.129371     1358.184    85.244476 
   23900     262.4745   -110.82264   0.23749244   -110.58515    3329.1826    4.3997573    4.3997573    4.3997573    3329.1826    2707.2739    6533.6669    746.60689    4161.4647     514.8029   -3189.3471    85.169905 
   24000    231.72113   -110.79696   0.20966615   -110.58729   -2333.9783     4.404339     4.404339     4.404339   -2333.9783    5674.3183   -3160.0499   -9516.2034    1157.3856   -972.32197   -1311.9201    85.436255 
   24100    413.67044    -110.9599   0.37429771    -110.5856   -978.68384    4.3987671    4.3987671    4.3987671   -978.68384   -498.96809    2671.8566     -5108.94    -6994.152    1021.9881    3437.0935    85.112412 
   24200    212.12799   -110.77868   0.19193786   -110.58675    5672.9062    4.4026227    4.4026227    4.4026227    5672.9062    11154.245    8771.6782   -2907.2051    6606.0193    1566.2522   -4803.0999    85.336417 
   24300     324.2847   -110.87942   0.29341961     -110.586   -7280.2882    4.4030693    4.4030693    4.4030693   -7280.2882   -3768.0528    -8495.347   -9577.4648    1885.4835   -1446.8422   -809.88217    85.362391 
   24400    304.10232   -110.86021   0.27515817   -110.58505   -66.257582    4.3991621    4.3991621    4.3991621   -66.257582   -1307.1679    5925.1421   -4816.7469   -4254.3117    3424.9295    1101.6732    85.135342 
   24500    270.24565   -110.83034   0.24452395   -110.58581   -2177.2549    4.4032207    4.4032207    4.4032207   -2177.2549    1619.3672   -3174.7492   -4976.3826    5214.7621   -475.52151   -2450.2489    85.371196 
   24600     311.0672    -110.8675   0.28146014   -110.58604   -6677.1134     4.401428     4.401428     4.401428   -6677.1134     -3969.67   -8002.5895   -8059.0805     1653.008    1763.0161    1756.7842    85.266965 
   24700    270.13259   -110.83009   0.24442164   -110.58567    2286.6817    4.3999904    4.3999904    4.3999904    2286.6817   -792.07944    13432.263   -5780.1387   -2443.3327    6441.3027   -2279.3548    85.183445 
   24800     352.1933     -110.904    0.3186719   -110.58533   -5850.2805    4.4041829    4.4041829    4.4041829   -5850.2805   -1219.4832   -10198.479   -6132.8793    3514.7098   -2193.9837   -1366.2923    85.427176 
   24900    306.97703   -110.86359   0.27775927   -110.58583   -4373.8673    4.4005932    4.4005932    4.4005932   -4373.8673   -6066.6221    2165.3913    -9220.371   -3368.9472    3593.8808    2595.5559     85.21846 
   25000    303.03282    -110.8591   0.27419046   -110.58491     977.9624     4.400111     4.400111     4.400111     977.9624   -2227.0574    10624.068    -5463.123   -2584.0163    4580.9848   -1378.1109    85.190447 
   25100    365.85132   -110.91641   0.33102996   -110.58538   -7981.5072    4.4046649    4.4046649    4.4046649   -7981.5072   -1801.5859   -12477.198    -9665.738    6665.3659   -1824.7499   -1787.0158    85.455226 
   25200    201.21407   -110.76949   0.18206272   -110.58743    4391.8259    4.3982097    4.3982097    4.3982097    4391.8259    7266.6209     11064.32   -5155.4628   -4974.3093    4349.8742   -668.63795     85.08006 
   25300    352.83633   -110.90523   0.31925373   -110.58598   -3282.1036    4.4034986    4.4034986    4.4034986   -3282.1036    1730.7123   -4501.3968   -7075.6264   -2069.3268    349.63947    1083.6065    85.387361 
   25400    243.96243   -110.80716   0.22074233   -110.58642   -1892.5828    4.4023001    4.4023001    4.4023001   -1892.5828    7257.5868   -6961.8106   -5973.5247    6312.8547   -1445.9403     453.8228    85.317658 
   25500    254.28904   -110.81614   0.23008606   -110.58605   -303.48448    4.3987176    4.3987176    4.3987176   -303.48448    -3732.941    5301.3196    -2478.832   -1606.4526    3858.4972    -2534.247    85.109541 
   25600    369.77822   -110.91904   0.33458311   -110.58446   -3948.0751    4.4044042    4.4044042    4.4044042   -3948.0751    5467.9814   -8260.6321   -9051.5746    -2171.658   -1737.2396    945.39672    85.440049 
   25700    277.47766   -110.83654   0.25106762   -110.58547   -565.13255    4.4013626    4.4013626    4.4013626   -565.13255   -1456.4571    4901.8455    -5140.786    5440.0662   -1123.7895    793.89542    85.263163 
   25800     338.3583   -110.89134    0.3061537   -110.58518   -1371.9781    4.4005115    4.4005115    4.4005115   -1371.9781       -413.2   -95.428283   -3607.3061    1053.1581    2018.5292    288.56211    85.213711 
   25900      370.379   -110.91987    0.3351267   -110.58474   -2432.2907    4.4038101    4.4038101    4.4038101   -2432.2907    414.11776    604.36674   -8315.3566    427.36635   -1740.2876   -589.41442    85.405483 
   26000    277.59722   -110.83677    0.2511758   -110.58559   -2070.2777     4.399928     4.399928     4.399928   -2070.2777   -7011.7077    1092.8913   -292.01682    5659.5622    381.96487   -2259.1722    85.179821 
   26100    327.57454   -110.88189   0.29639633    -110.5855   -5849.4363    4.4035067    4.4035067    4.4035067   -5849.4363   -2369.7209   -8574.9392   -6603.6489   -697.52313    950.18613    2275.2539    85.387834 
   26200    281.01026   -110.83921   0.25426399   -110.58495    1577.7561    4.4025396    4.4025396    4.4025396    1577.7561    4900.7523    5841.8063   -6009.2904    333.83046   -469.09196    1771.5231    85.331583 
   26300     312.3167   -110.86778   0.28259071   -110.58518   -3215.3435    4.3998878    4.3998878    4.3998878   -3215.3435   -6700.4291   -5204.0945    2258.4932     7216.695    682.82937    -3001.451    85.177484 
   26400    237.17208   -110.80094   0.21459828   -110.58634    2062.4138    4.4036406    4.4036406    4.4036406    2062.4138      9378.38    3331.5557   -6522.6943   -4468.8927    1421.8797    819.22302    85.395623 
   26500    356.62718   -110.90717   0.32268377   -110.58449    363.51321    4.4013729    4.4013729    4.4013729    363.51321    603.82692    4045.9604   -3559.2477     1674.229    1295.2461    2496.1438     85.26376 
   26600    277.76044   -110.83707   0.25132349   -110.58575    447.68539      4.40098      4.40098      4.40098    447.68539    1605.0186   -2887.2741    2625.3116    6821.6427    497.54073    941.42232    85.240934 
   26700    249.32537    -110.8118   0.22559483   -110.58621    3248.1708    4.4034779    4.4034779    4.4034779    3248.1708    2606.7398    15665.688   -8527.9151   -7897.6708    3014.2488    620.19117    85.386156 
   26800    368.99891   -110.91877   0.33387797    -110.5849    989.71952    4.4006616    4.4006616    4.4006616    989.71952    4541.0116   -1019.3218   -552.53121    3010.3847    1557.4003   -880.49561    85.222434 
   26900    190.57163   -110.75907   0.17243322   -110.58663    4800.8636    4.4007515    4.4007515    4.4007515    4800.8636    2243.8719    10117.889    2040.8302    3996.1456    1074.1236    1863.0363    85.227657 
   27000    267.09695   -110.82752   0.24167493   -110.58584   -820.14061    4.4032174    4.4032174    4.4032174   -820.14061    2462.6447     2289.312   -7212.3786   -5957.3835    3440.7947    2150.3536    85.371004 
   27100    352.67046   -110.90402   0.31910365   -110.58491   -1417.4219    4.4004268    4.4004268    4.4004268   -1417.4219   -786.29226   -5485.7935    2019.8201    2805.8357   -224.18269   -889.85682    85.208792 
   27200    134.05212   -110.70848   0.12129317   -110.58719    6326.1777    4.4022747    4.4022747    4.4022747    6326.1777    2399.1367    14980.613    1598.7835    1455.0219    1030.8338   -927.76134     85.31618 
   27300    420.45442   -110.96516   0.38043599   -110.58472   -4775.4483    4.4016807    4.4016807    4.4016807   -4775.4483   -4258.0961     -3812.13   -6256.1189   -1650.5475    2961.9014    2037.0393     85.28165 
   27400    269.06873   -110.82901   0.24345904   -110.58555    4200.1087    4.4019204    4.4019204    4.4019204    4200.1087   -2216.9039    12886.326    1930.9042      1701.21   -1126.6867    910.79602    85.295583 
   27500    320.19591   -110.87627   0.28971999   -110.58655   -1759.3665    4.4008142    4.4008142    4.4008142   -1759.3665   -6689.2309    4069.0881   -2657.9567    1360.2145    1304.7066   -2110.2439    85.231297 
   27600    361.25695   -110.91332   0.32687288   -110.58644    -3614.461    4.4018715    4.4018715    4.4018715    -3614.461    -8244.539     3119.444   -5718.2881   -4617.5059    191.04791   -1148.6867    85.292742 
   27700    292.73509   -110.85131   0.26487286   -110.58644   -275.67837    4.4027059    4.4027059    4.4027059   -275.67837   -10332.932    7980.2245    1525.6722    2488.1648   -1940.3257   -771.54571    85.341255 
   27800    302.44145   -110.85966   0.27365538   -110.58601   -4358.6705    4.4014215    4.4014215    4.4014215   -4358.6705   -7238.6993   -3302.5266   -2534.7855    2784.4526    1057.5358    422.65127    85.266586 
   27900    265.68267   -110.82574   0.24039526   -110.58535    12.312716    4.4017102    4.4017102    4.4017102    12.312716   -6141.2956    9021.0643   -2842.8306   -9121.6535    -2179.057    -348.9543    85.283369 
   28000    326.42975    -110.8798    0.2953605   -110.58444   -5580.7259    4.4032226    4.4032226    4.4032226   -5580.7259   -7625.4077   -9247.0977    130.32748    5236.5495   -1321.5507   -1390.7013    85.371303 
   28100    248.39966   -110.81074   0.22475723   -110.58599   -2555.5764    4.4012103    4.4012103    4.4012103   -2555.5764   -4389.3718    2136.5972   -5413.9548    3404.1356     981.7922      528.982    85.254311 
   28200    322.80155   -110.87712   0.29207762   -110.58504   -33.259171    4.4017689    4.4017689    4.4017689   -33.259171   -3022.5447    5879.3495   -2956.5823   -8858.3066   -2739.5587    1516.8918    85.286778 
   28300    351.28697   -110.90268   0.31785183   -110.58483   -4480.1253    4.4037823    4.4037823    4.4037823   -4480.1253   -6242.4321    -4740.932   -2457.0117     6545.297   -553.48485   -596.61566    85.403863 
   28400    229.39048    -110.7939   0.20755733   -110.58635    1868.0816    4.4005181    4.4005181    4.4005181    1868.0816    1263.7307    10102.827   -5762.3124   -805.47015     118.1878   -1904.1402    85.214097 
   28500    369.08698   -110.91887   0.33395766   -110.58491   -3389.4808    4.4033487    4.4033487    4.4033487   -3389.4808     286.1336   -7564.6571   -2889.9188   -3980.1974   -1329.1493     918.3943    85.378642 
   28600    232.67207   -110.79628   0.21052658   -110.58575    990.32336    4.4016214    4.4016214    4.4016214    990.32336    863.75464    4743.1827   -2635.9672    8195.3011    1673.2482    642.43726    85.278204 
   28700    261.35975   -110.82276    0.2364838   -110.58627   -4119.8683     4.402833     4.402833     4.402833   -4119.8683   -1049.4643   -3957.1252   -7353.0155   -3798.3101   -88.927147     186.1602    85.348644 
   28800     298.6103   -110.85548   0.27018887   -110.58529    1432.7469    4.4015218    4.4015218    4.4015218    1432.7469   -1427.9738    2686.6352    3039.5794    69.650746     459.3054    779.12527    85.272418 
   28900    264.67853   -110.82508    0.2394867    -110.5856    605.98693    4.4009819    4.4009819    4.4009819    605.98693   -2001.7523    7676.0045   -3856.2914    6741.9579    2707.5269     -1776.98    85.241042 
   29000    347.36988   -110.90037   0.31430757   -110.58606   -7239.1332    4.4040116    4.4040116    4.4040116   -7239.1332   -8063.0346   -6476.4651   -7177.8998   -3613.7999     518.8563    1645.8207    85.417205 
   29100    279.88756   -110.83866   0.25324814   -110.58542    5125.5991    4.4010996    4.4010996    4.4010996    5125.5991   -2730.8048    14442.673     3664.929   -777.18583    1722.5598    1210.0294     85.24788 
   29200    417.09637     -110.962   0.37739756    -110.5846   -3457.5283    4.4002734    4.4002734    4.4002734   -3457.5283   -5913.4516    3686.1262   -8145.2595    4072.8013    1221.6216   -2999.9212    85.199882 
   29300    276.17715   -110.83625   0.24989089   -110.58636   -2660.5721    4.4052451    4.4052451    4.4052451   -2660.5721   -8788.1685    5579.3254   -4772.8731   -703.25283    1694.9159   -279.07182    85.488996 
   29400    318.97664   -110.87369   0.28861676   -110.58507    4708.1547    4.3985579    4.3985579    4.3985579    4708.1547   -4555.7115    12948.573    5731.6029   -4726.2239    1677.3773    1086.7215    85.100272 
   29500    381.20027    -110.9303   0.34491801   -110.58538   -3303.6398     4.401416     4.401416     4.401416   -3303.6398   -2438.9346    142.52782   -7614.5127    3953.8751    -1127.335   -86.487324    85.266265 
   29600    181.32598   -110.75168   0.16406755   -110.58762     1644.852    4.4046943    4.4046943    4.4046943     1644.852   -5922.0535    10545.165    311.44467   -2396.0892    2552.7722   -631.62736    85.456937 
   29700      390.079   -110.93796   0.35295168   -110.58501    904.13391    4.3972905    4.3972905    4.3972905    904.13391   -340.59468    -1678.888    4731.8845   -5223.9252    989.22242   -1416.9294    85.026732 
   29800    298.82798   -110.85602   0.27038584   -110.58563    922.89006     4.403899     4.403899     4.403899    922.89006   -2084.7111    13932.646   -9079.2647    5367.7503   -1185.2576    132.31177    85.410653 
   29900    246.47695    -110.8088   0.22301753   -110.58578    2254.3191     4.402017     4.402017     4.402017    2254.3191     8.033383    4072.6718    2682.2522   -5614.7345    2591.3947    1298.9056      85.3012 
   30000    389.29685   -110.93674   0.35224397    -110.5845   -652.54967    4.3994485    4.3994485    4.3994485   -652.54967   -4798.0759    3392.5557   -552.12883   -1888.7499   -2143.8107   -1662.0798    85.151973 
   30100      243.409   -110.80642   0.22024158   -110.58618    6384.3755    4.4021259    4.4021259    4.4021259    6384.3755    9062.5504    16850.986   -6760.4101    6387.6831   -167.60391   -2492.7341    85.307534 
   30200    300.61722   -110.85865   0.27200478   -110.58665   -2315.6507    4.4019815    4.4019815    4.4019815   -2315.6507   -2253.9113   -5729.5542    1036.5135    -5681.351    1815.2327    2060.1692    85.299139 
   30300    266.49242   -110.82755   0.24112794   -110.58642    5760.8528     4.399924     4.399924     4.399924    5760.8528    6827.1227    12218.377   -1762.9408    777.74961   -3633.1054    2738.0636    85.179587 
   30400    279.78725   -110.83867   0.25315738   -110.58551    2029.2233    4.4040355    4.4040355    4.4040355    2029.2233    8804.4717    1907.0736   -4623.8755    4144.5081    779.55037   -2103.1243    85.418597 
   30500    252.52728   -110.81418   0.22849199   -110.58569    1785.5088    4.3991377    4.3991377    4.3991377    1785.5088   -448.26349   -810.49527    6615.2852   -6415.5535       771.46   -969.25024    85.133929 
   30600    297.96194   -110.85468   0.26960222   -110.58508    2314.5833     4.402182     4.402182     4.402182    2314.5833    7759.5329    4091.4695   -4907.2525    275.97899   -1979.0213    3271.8906    85.310791 
   30700    324.29825   -110.87849   0.29343187   -110.58506    -1949.947    4.4046178    4.4046178    4.4046178    -1949.947    3504.7761   -4554.6393   -4799.9777    2748.4179    13.633799    575.51418    85.452483 
   30800    267.97188   -110.82776   0.24246659   -110.58529    5642.8921    4.3961266    4.3961266    4.3961266    5642.8921    157.59185    10790.245    5980.8396   -4863.8412   -1616.4913    296.66011    84.959231 
   30900    373.60897   -110.92267   0.33804924   -110.58462    -5962.415    4.4071595    4.4071595    4.4071595    -5962.415    2899.3505   -7241.7239   -13544.872   -938.92259    -600.4616   -1314.2374    85.600502 
   31000    348.03747    -110.9001   0.31491162   -110.58519   -974.25636    4.3994035    4.3994035    4.3994035   -974.25636   -7499.9667    4296.7971    280.40052    580.91948   -1321.0352   -827.83761    85.149358 
   31100    251.08629   -110.81371   0.22718815   -110.58652    853.74485    4.4010616    4.4010616    4.4010616    853.74485    1774.9231    -853.5905    1639.9019   -3729.8827   -29.803198    3407.2568    85.245671 
   31200    429.02713   -110.97251   0.38819277   -110.58432   -8380.2029    4.4057317    4.4057317    4.4057317   -8380.2029   -1692.3396   -12376.568   -11071.701   -293.79674    322.27989   -1749.2766    85.517333 
   31300    234.93564   -110.79812    0.2125747   -110.58554    1983.0382    4.3996214    4.3996214    4.3996214    1983.0382   -5165.3625    7546.0315    3568.4457    2125.1913   -493.61961   -2603.4568    85.162013 
   31400    302.59185   -110.85922   0.27379147   -110.58543   -1331.0304    4.4015387    4.4015387    4.4015387   -1331.0304    7316.2272   -8569.7182   -2739.6003   -1868.6583    2649.6376    1671.0409    85.273397 
   31500    361.85037   -110.91257   0.32740982   -110.58516   -4143.7696    4.4041829    4.4041829    4.4041829   -4143.7696    1852.0617   -4335.3233   -9948.0472    1596.6552   -1771.6855    942.96772    85.427171 
   31600    211.22937   -110.77746   0.19112477   -110.58634    3170.7682    4.3999321    4.3999321    4.3999321    3170.7682    2564.4756    6168.6743     779.1546    5106.5882    989.92262   -1061.9627    85.180054 
   31700    315.42801   -110.87094   0.28540589   -110.58553   -1741.3377    4.4038281    4.4038281    4.4038281   -1741.3377    10660.321   -8501.8676   -7382.4666   -3857.0734    3504.9279   -1768.5433    85.406527 
   31800    307.30007   -110.86325   0.27805156    -110.5852    1527.4904    4.4011923    4.4011923    4.4011923    1527.4904    4375.5482    6483.7547   -6276.8318    2467.3316   -2080.8283   -534.03696    85.253267 
   31900    195.88379   -110.76364   0.17723977    -110.5864    2691.0663    4.4011933    4.4011933    4.4011933    2691.0663    6957.9939    755.83428    359.37063    9336.8658    2049.5653   -288.43707    85.253327 
   32000    326.44243    -110.8811   0.29537197   -110.58572   -4874.3085     4.404615     4.404615     4.404615   -4874.3085    2785.9899   -5795.9026   -11613.013   -5921.2165    1911.0526    1069.9701     85.45232 
   32100    242.48363   -110.80547   0.21940429   -110.58607    3642.1838    4.3979485    4.3979485    4.3979485    3642.1838    2690.8937    8090.5627      145.095    4092.7527   -2451.9766   -1383.5476    85.064902 
   32200    283.42021   -110.84291   0.25644456   -110.58646    -6291.428    4.4050939    4.4050939    4.4050939    -6291.428   -4317.1654   -10649.975   -3907.1439    4375.3445    2194.9669   -1801.0908    85.480197 
   32300    305.21095   -110.86098   0.27616128   -110.58482   -588.41049    4.4021532    4.4021532    4.4021532   -588.41049    8037.4665    506.98385   -10309.682   -4821.0222   -483.49266    4043.4903    85.309119 
   32400    340.76965   -110.89262   0.30833554   -110.58429   -1467.2347    4.3993208    4.3993208    4.3993208   -1467.2347   -7148.8287    2014.7611    732.36354    4655.5175   -2275.4499   -497.64792    85.144559 
   32500    285.31252   -110.84403   0.25815676   -110.58587   -2515.3373    4.4036249    4.4036249    4.4036249   -2515.3373     6845.279   -6803.2656   -7588.0253     -1450.14    4251.4153   -1474.5814    85.394705 
   32600    378.26456   -110.92707   0.34226172   -110.58481   -3650.9636    4.4026033    4.4026033    4.4026033   -3650.9636    1779.7066   -457.23282   -12275.364   -1469.2696    -1868.482    1436.3723     85.33529 
   32700    319.56955   -110.87417   0.28915325   -110.58502    2163.9979    4.3990997    4.3990997    4.3990997    2163.9979    3948.4297    2605.5425   -61.978491    5059.2876   -1454.2092   -1199.4822    85.131724 
   32800    258.32829   -110.81985   0.23374087   -110.58611   -1570.2572     4.404177     4.404177     4.404177   -1570.2572    13258.652    -8148.766   -9820.6573   -1177.0962    4594.3807    982.43329    85.426829 
   32900    345.02559   -110.89772   0.31218641   -110.58553    622.27921    4.3998687    4.3998687    4.3998687    622.27921     2197.914    4651.5113   -4982.5877   -864.94965   -2461.4298    2307.5503    85.176372 
   33000    276.07182   -110.83622   0.24979559   -110.58643    4840.6886    4.4002178    4.4002178    4.4002178    4840.6886     14120.45     2412.907    -2011.291    2372.0302    1715.5698    69.340454    85.196651 
   33100    239.74795   -110.80387   0.21692898   -110.58694   -92.789227    4.4047162    4.4047162    4.4047162   -92.789227    11847.741   -2508.8365    -9617.272    2791.3641    3542.7855    1433.4946    85.458212 
   33200    353.65954   -110.90521   0.31999859   -110.58521    3853.6667    4.3975107    4.3975107    4.3975107    3853.6667    -659.7057    16221.338   -4000.6322   -3845.2125   -1540.8856    2600.0063    85.039503 
   33300    269.99413   -110.83063   0.24429636   -110.58634     4391.847    4.4029297    4.4029297    4.4029297     4391.847    16383.875    3204.6778   -6413.0118    978.45482    4465.6388   -377.14496    85.354268 
   33400    325.70774   -110.88042    0.2947072   -110.58571    124.90973    4.4028817    4.4028817    4.4028817    124.90973   -3747.3124    14147.463   -10025.422    3531.1917    1882.5133   -174.36699    85.351482 
   33500    350.98024   -110.90222    0.3175743   -110.58464    4358.1217    4.3990899    4.3990899    4.3990899    4358.1217    4167.6125    14933.842   -6027.0896   -2147.3418   -1066.4438   -87.978435    85.131152 
   33600    320.57311   -110.87559   0.29006129   -110.58553     851.3636    4.4041793    4.4041793    4.4041793     851.3636    7920.2477   -59.634327   -5306.5226   -1345.0018     4466.935   -1660.9721    85.426966 
   33700    297.74591   -110.85444   0.26940675   -110.58503    2463.8334    4.4011893    4.4011893    4.4011893    2463.8334   -367.43412     14583.18   -6824.2457   -663.60003    682.95411     351.3454    85.253094 
   33800    383.87355   -110.93174   0.34733685    -110.5844   -1463.9354    4.4007713    4.4007713    4.4007713   -1463.9354    7335.7989   -4676.8696   -7050.7356   -2484.3912   -133.08154    1957.4735    85.228806 
   33900    253.40812   -110.81539   0.22928899    -110.5861    984.95341    4.4045678    4.4045678    4.4045678    984.95341    2163.9872    1592.0407   -801.16773       -127.6    3335.8898   -1648.9015    85.449575 
   34000     347.1592   -110.89911   0.31411694     -110.585   -2554.5333    4.4003978    4.4003978    4.4003978   -2554.5333   -3595.3222    6718.1314   -10786.409   -167.12958   -1411.4855   -1249.8676    85.207106 
   34100    310.94687   -110.86666   0.28135126   -110.58531    1273.3378    4.4016178    4.4016178    4.4016178    1273.3378     10924.71   -2580.5798   -4524.1171   -1944.3209     1786.963    2430.6787    85.277995 
   34200    271.30907   -110.83128   0.24548615   -110.58579   -2116.8528    4.4060717    4.4060717    4.4060717   -2116.8528   -10771.628    8733.5816   -4312.5117    2679.1503    1719.7808   -380.45735    85.537128 
   34300    331.44822   -110.88486   0.29990132   -110.58496    1084.0114     4.397756     4.397756     4.397756    1084.0114    2785.6249    12366.391   -11899.982     2868.257   -2746.6323   -1238.8179    85.053735 
   34400    276.84379    -110.8362   0.25049408    -110.5857    1189.1082    4.4035043    4.4035043    4.4035043    1189.1082    -3059.208    9970.9502   -3344.4175   -4345.0285    2555.8547     846.9324    85.387694 
   34500    282.83039    -110.8421   0.25591088   -110.58619     -3373.85    4.4044942    4.4044942    4.4044942     -3373.85   -13414.421    11521.175   -8228.3041    915.40963    -462.5244    1091.8013    85.445291 
   34600     303.7257   -110.86008   0.27481739   -110.58526    1542.9726    4.3973727    4.3973727    4.3973727    1542.9726    -2394.779    13863.253   -6839.5561    1478.2047   -1294.9864    3814.4124    85.031495 
   34700       262.62    -110.8233    0.2376241   -110.58568    492.06797    4.4050938    4.4050938    4.4050938    492.06797   -4823.8252    5769.0405    530.98854   -2721.0788    1941.1713    949.74262    85.480192 
   34800    314.51673   -110.86991   0.28458134   -110.58533   -5694.6188    4.4028854    4.4028854    4.4028854   -5694.6188   -11602.696    3222.0179   -8703.1783    1511.3785   -1526.4415   -1796.7038    85.351691 
   34900    253.33373   -110.81425   0.22922169   -110.58503    2479.7233    4.3974785    4.3974785    4.3974785    2479.7233   -592.47276    9999.0958   -1967.4532   -1951.3263    852.42374    2475.5556    85.037633 
[...]
   91200     352.1602   -110.90373   0.31864195   -110.58509   -1459.8801    4.4013653    4.4013653    4.4013653   -1459.8801    2484.7545    56.329314   -6920.7241   -185.65182   -1264.0907   -2836.8265    85.263322 
   91300    222.34179   -110.78666   0.20117952   -110.58548     4641.241    4.4028078    4.4028078    4.4028078     4641.241   -8441.1526    4886.7993    17478.076    1791.2133   -5218.1408   -531.06869    85.347181 
   91400    342.05201   -110.89379   0.30949585   -110.58429    71.703213    4.3995825    4.3995825    4.3995825    71.703213   -9803.8931    3715.6229    6303.3798    2688.3387    3844.3234   -1269.0111    85.159755 
   91500    243.39782   -110.80598   0.22023146   -110.58575    6998.3842    4.4005297    4.4005297    4.4005297    6998.3842    3256.6714    9181.7133    8556.7677    270.65329   -4465.2809    641.66994    85.214768 
   91600    261.37254   -110.82301   0.23649537   -110.58651    3051.8026    4.4030726    4.4030726    4.4030726    3051.8026   -14478.389    7995.6545    15638.142     261.1838   -2487.1553   -1786.7921    85.362579 
   91700    338.66591   -110.89191   0.30643204   -110.58548    3074.1179    4.3972858    4.3972858    4.3972858    3074.1179   -7135.7194    10430.237    5927.8364    2756.9771    1654.2598    2126.0008    85.026456 
   91800    234.42223    -110.7986   0.21211016   -110.58649    3882.7413    4.4043916    4.4043916    4.4043916    3882.7413    -8195.436     4755.187    15088.473   -343.05045   -3742.7593   -739.80251    85.439317 
   91900    340.24773   -110.89265    0.3078633   -110.58479     3278.912    4.3999067    4.3999067    4.3999067     3278.912   -6974.5855    8192.1058    8619.2157   -15.012682   -862.79101   -685.06799    85.178583 
   92000    296.68666   -110.85324   0.26844833   -110.58479    3041.8264    4.3990944    4.3990944    4.3990944    3041.8264   -6510.4263    3654.7874    11981.118    983.92194    191.49511    3737.9319    85.131412 
   92100    256.95715   -110.81825   0.23250023   -110.58575   -317.73097    4.4044844    4.4044844    4.4044844   -317.73097   -5915.1678    -843.4819    5805.4568   -26.087433   -3871.0415    -3938.715     85.44472 
   92200    345.08703   -110.89683     0.312242   -110.58458   -2616.0159    4.3997611    4.3997611    4.3997611   -2616.0159   -4542.9863     1213.323   -4518.3845    1624.1697   -1456.8105    2297.6081    85.170124 
   92300    250.43644   -110.81258   0.22660016   -110.58598    3671.1281    4.3974307    4.3974307    4.3974307    3671.1281    -9871.941     3194.438    17690.887   -1391.7168    301.82898   -916.71133    85.034864 
   92400    331.93714   -110.88589    0.3003437   -110.58554   -9120.1574    4.4071331    4.4071331    4.4071331   -9120.1574   -11220.973   -10467.559   -5671.9398   -323.62839   -3144.6985   -3027.6315    85.598964 
   92500    343.19012   -110.89555   0.31052563   -110.58502   -615.53698    4.3980079    4.3980079    4.3980079   -615.53698   -7691.9093    2497.7292    3347.5692    345.51209   -1643.2885    2310.7753     85.06835 
   92600     316.3631   -110.87164   0.28625198   -110.58538   -492.20387     4.400113     4.400113     4.400113   -492.20387   -3459.7353   -3672.5684    5655.6921   -680.31485    1952.3921   -2608.0132    85.190562 
   92700    339.63512   -110.89255   0.30730899   -110.58524   -7582.5055    4.4055025    4.4055025    4.4055025   -7582.5055   -3909.2316   -7380.1492   -11458.136   -1548.4056   -1833.7294   -1072.4772    85.503986 
   92800    324.54846   -110.87808   0.29365827   -110.58442    512.83783     4.397189     4.397189     4.397189    512.83783   -3077.3038    6068.2563    -1452.439   -1280.3456    -2874.709   -254.81865    85.020842 
   92900    282.84766   -110.84137    0.2559265   -110.58545   -1496.9784    4.4028961    4.4028961    4.4028961   -1496.9784   -5740.5699     64.94451    1184.6902    1910.8083    1392.7197   -65.344396    85.352319 
   93000     262.3694   -110.82353   0.23739735   -110.58613    1807.8298    4.3993754    4.3993754    4.3993754    1807.8298     -478.025    8296.8709   -2395.3565   -1260.9193   -1736.4878    199.15508    85.147727 
   93100    290.21999    -110.8481   0.26259715    -110.5855   -3875.4056    4.4016958    4.4016958    4.4016958   -3875.4056    -13908.48     8727.979   -6445.7161    864.07638     167.9449   -583.46292    85.282532 
   93200    258.79492   -110.82013   0.23416308   -110.58597    1156.6982    4.4021778    4.4021778    4.4021778    1156.6982   -3857.5405    7291.6857    35.949246    1694.9831    1148.8149     2151.782    85.310547 
   93300    251.80168   -110.81332   0.22783546   -110.58548    6657.7347    4.3991438    4.3991438    4.3991438    6657.7347     3514.866     16236.64    221.69775   -759.20718   -3247.3107    147.76763     85.13428 
   93400    391.93569   -110.93904   0.35463165   -110.58441   -3017.8565    4.4003822    4.4003822    4.4003822   -3017.8565   -10629.234    5667.6268    -4091.962    2145.3738    1296.1857   -462.16403    85.206198 
   93500    209.83884   -110.77675   0.18986659   -110.58689    3205.2568     4.404652     4.404652     4.404652    3205.2568    -2494.197    7716.4505    4393.5169   -287.72337    1942.2805    2503.0521    85.454471 
   93600    404.17187   -110.95075    0.3657032   -110.58505    3095.0741    4.3950866    4.3950866    4.3950866    3095.0741     2456.959    8537.8201   -1709.5566    941.51711   -4517.6964   -204.85399    84.898949 
   93700    321.20643   -110.87629   0.29063432   -110.58566    -3874.371    4.4039635    4.4039635    4.4039635    -3874.371   -6720.1357    920.87631   -5823.8537    3191.2636   -786.52711   -609.04433     85.41441 
   93800    244.72363   -110.80766   0.22143109   -110.58623    -1887.477    4.4040083    4.4040083    4.4040083    -1887.477   -4638.4707   -1044.3762    20.415856   -730.72831    1708.1166    3573.9814    85.417017 
   93900    382.25158   -110.92974   0.34586927   -110.58387    4568.3617    4.3959346    4.3959346    4.3959346    4568.3617    6100.4433    4047.4273    3557.2143    16.042611   -1721.7385   -990.61817    84.948099 
   94000    282.64937    -110.8408   0.25574709   -110.58505   -1823.4129    4.4050458    4.4050458    4.4050458   -1823.4129   -9461.8612   -1022.3135    5013.9361    1723.1797    590.85914    -1811.197    85.477397 
   94100    249.93242   -110.81127   0.22614411   -110.58512   -1967.5456    4.4022671    4.4022671    4.4022671   -1967.5456   -6401.0318   -2640.5245    3138.9196   -303.05457    456.05179    1852.9852    85.315743 
   94200    443.52674    -110.9851   0.40131231   -110.58379   -1599.3684    4.3990718    4.3990718    4.3990718   -1599.3684   -5933.0913    787.77092    347.21518   -1823.4455   -1221.7244   -4533.9688    85.130102 
   94300    240.33954   -110.80319   0.21746426   -110.58573    4812.3429    4.4028776    4.4028776    4.4028776    4812.3429    1648.9608    3559.7484    9228.3197    561.97113    3035.4759   -88.078155    85.351238 
   94400    322.04172   -110.87696   0.29139012   -110.58557   -2534.6182    4.4016624    4.4016624    4.4016624   -2534.6182   -4879.1193   -1010.8899   -1713.8454    923.08826   -184.89144    719.20849    85.280589 
   94500    378.28251   -110.92708   0.34227797    -110.5848    4099.4065    4.4004977    4.4004977    4.4004977    4099.4065    393.07792    7430.0525    4475.0891   -957.36761   -2164.6726   -4352.4563    85.212911 
   94600    216.19578   -110.78164   0.19561848   -110.58602    3863.6601    4.4034044    4.4034044    4.4034044    3863.6601   -984.68519    4954.7633    7620.9024   0.89066058    4432.6398    1169.5001    85.381878 
   94700    276.07252   -110.83549   0.24979622   -110.58569    -720.9606     4.398465     4.398465     4.398465    -720.9606   -7999.4107    7403.9877   -1567.4588   -286.44087    1408.7736   -1394.6896    85.094876 
   94800     297.8461   -110.85424   0.26949741   -110.58474    -728.0882    4.4049171    4.4049171    4.4049171    -728.0882    -10299.11    5036.4543    3078.3908   -454.32481    301.84009    1487.4074    85.469904 
   94900    233.38793   -110.79703   0.21117431   -110.58585    1742.7508    4.4009979    4.4009979    4.4009979    1742.7508   -2577.4158    5438.9202    2366.7479    1785.8755     3244.138    348.06142    85.241969 
   95000    257.84125   -110.81946   0.23330018   -110.58616    4064.2691    4.3974831    4.3974831    4.3974831    4064.2691   -3059.3311    4478.6622    10773.476   -310.32393     1500.963   -340.97942    85.037905 
   95100    377.90569   -110.92655   0.34193701   -110.58462   -2989.1232    4.4067063    4.4067063    4.4067063   -2989.1232   -8225.1275   -2581.8384    1839.5965   -558.11694    1032.8198    4090.5059    85.574093 
   95200    251.28951   -110.81332   0.22737203   -110.58595   -61.645175    4.4003021    4.4003021    4.4003021   -61.645175   -4263.0672   -1357.7963    5435.9279    4597.2536   -863.81129   -234.20424    85.201547 
   95300    322.50223    -110.8775   0.29180679   -110.58569    230.60638    4.3977947    4.3977947    4.3977947    230.60638   -8356.7197   -1787.6846    10836.223    361.97107    464.89721     3132.974    85.055978 
   95400    347.54542   -110.89904    0.3144664   -110.58458   -2085.4608    4.4065499    4.4065499    4.4065499   -2085.4608    -3403.552   -6905.8461    4053.0158   -609.99263    391.01241   -165.63551    85.564983 
   95500    237.58054    -110.8013   0.21496787   -110.58633   -1948.9327    4.4001021    4.4001021    4.4001021   -1948.9327   -6410.4527     -6816.48    7380.1347    5272.6762   -136.48442    -275.5284     85.18993 
   95600    240.53378   -110.80425   0.21764002   -110.58661    4432.9861    4.3987372    4.3987372    4.3987372    4432.9861   -1968.1889   -4870.2555    20137.403   -5.5274993    683.15042    3584.0825    85.110676 
   95700    341.51937   -110.89416    0.3090139   -110.58515   -4704.8298    4.4058109    4.4058109    4.4058109   -4704.8298   -5648.0168   -7368.2327   -1098.2398    1147.0174   -4104.9365   -3094.8973    85.521941 
   95800    184.98728   -110.75445   0.16738038   -110.58707   -2496.0344    4.3981704    4.3981704    4.3981704   -2496.0344   -9104.9059   -6937.6983    8554.5009    4807.8724    2395.8945   -662.45321    85.077782 
   95900    317.32631   -110.87348   0.28712351   -110.58636   -3077.9631    4.4031555    4.4031555    4.4031555   -3077.9631   -6459.0751   -10057.263    7282.4486   -1823.4882   -281.24695    217.01975    85.367401 
   96000    356.46612   -110.90738   0.32253804   -110.58484    2093.8878    4.4019015    4.4019015    4.4019015    2093.8878    9626.7532   -5412.0427     2066.953      1906.25   -6309.9103   -636.69026    85.294489 
   96100    314.07263   -110.87102   0.28417952   -110.58685   -6331.5772    4.3997958    4.3997958    4.3997958   -6331.5772   -9788.9314    -10840.87      1635.07    2254.7967    6032.6178     -1439.07     85.17214 
   96200    290.04223    -110.8498   0.26243631   -110.58737    1173.3895    4.4031498    4.4031498    4.4031498    1173.3895    2121.1765   -5036.9997    6435.9917   -4987.0727   -1438.8551   -698.47925    85.367073 
   96300    417.44758   -110.96265   0.37771534   -110.58494   -2205.7871    4.4003661    4.4003661    4.4003661   -2205.7871   -1460.9055   -5040.0221   -116.43372    1574.8232   -52.503895   -735.07939    85.205265 
   96400    232.32063   -110.79676   0.21020859   -110.58655   -5234.5031    4.4005207    4.4005207    4.4005207   -5234.5031   -11233.025   -5801.6318    1331.1475    1673.1505    3968.8146   -540.58358    85.214244 
   96500    257.28006   -110.81933    0.2327924   -110.58653    101.94932    4.4042553    4.4042553    4.4042553    101.94932   -7229.9273   -2974.2744     10510.05   -4278.8982   -2735.3025    1934.6993    85.431388 
   96600    370.74092   -110.92035   0.33545417    -110.5849    3113.2058    4.3980982    4.3980982    4.3980982    3113.2058    2301.9585   -1247.2095    8284.8682    1398.1428    3466.0705   -3435.9257    85.073589 
   96700    240.19318   -110.80456   0.21733184   -110.58722   -2129.5126    4.4005353    4.4005353    4.4005353   -2129.5126   -10726.788   -2932.9224    7271.1725    962.65375   -342.13009    807.78412    85.215092 
   96800    255.15254   -110.81793   0.23086738   -110.58707   -2257.6327    4.4065327    4.4065327    4.4065327   -2257.6327     -11736.8   -5814.9876     10778.89   -2781.6045   -2224.4371    122.01496    85.563981 
   96900    459.98512   -111.00053   0.41620421   -110.58433    2573.9988    4.3948284    4.3948284    4.3948284    2573.9988     3798.292   -146.91805    4070.6223    2823.8892   -71.272442   -1273.9457    84.883984 
   97000    213.51378     -110.781   0.19319176   -110.58781    2300.7503    4.4033311    4.4033311    4.4033311    2300.7503   -2564.6106   -3488.7094    12955.571    1921.3464   -1504.6274    1095.2242    85.377619 
   97100    331.44209    -110.8863   0.29989577    -110.5864   -1822.7823     4.404525     4.404525     4.404525   -1822.7823   -6976.5557   -7206.0144    8714.2233   -2281.2089    673.09603   -752.96263    85.447082 
   97200    342.70545   -110.89465    0.3100871   -110.58457    7701.8456     4.395885     4.395885     4.395885    7701.8456    17178.868    2738.3329    3188.3363    3173.7659   -3786.6648    2740.2979    84.945223 
   97300     182.2529   -110.75137   0.16490626   -110.58647    2560.6236    4.4037089    4.4037089    4.4037089    2560.6236   -5416.0941   -1795.6152     14893.58     1900.244   -1890.3584   -342.28981    85.399595 
   97400    264.33077   -110.82457   0.23917203   -110.58539   -3156.5231    4.4031493    4.4031493    4.4031493   -3156.5231   -3145.7683     -7332.23    1008.4291   -2692.9693     1024.468     570.8557    85.367044 
   97500     304.3645   -110.86084    0.2753954   -110.58545    4328.0787     4.398288     4.398288     4.398288    4328.0787    8729.1066    2481.5145    1773.6149    3114.4057   -2928.4203     1071.966    85.084609 
   97600    208.43643   -110.77573   0.18859766   -110.58713     5525.575    4.4022648    4.4022648    4.4022648     5525.575    2822.7579   -3472.0078    17225.975    2129.4139   -36.994447   -1552.9024    85.315606 
   97700    335.47726   -110.89004   0.30354687    -110.5865    -6169.391    4.4034182    4.4034182    4.4034182    -6169.391   -833.98942   -9496.5603   -8177.6232   -2140.8322   -320.25461    2274.6077    85.382682 
   97800    344.26148   -110.89806   0.31149502   -110.58656    2492.1132    4.3984542    4.3984542    4.3984542    2492.1132    509.46772     2454.363    4512.5087    3233.2778   -3090.5586   -3413.8512    85.094251 
   97900    323.76089   -110.87907   0.29294566   -110.58612   -3661.7338    4.4048962    4.4048962    4.4048962   -3661.7338   -10376.287   -9424.9726    8816.0583    1841.9583    2227.0943    338.66006    85.468686 
   98000    326.00671   -110.88019   0.29497772   -110.58521   -5597.4914    4.4001161    4.4001161    4.4001161   -5597.4914    -7210.637   -3442.4497   -6139.3874   -2724.7082   -3490.5037    1583.2946    85.190745 
   98100    332.89237   -110.88612   0.30120801   -110.58491   -2193.0994    4.4014842    4.4014842    4.4014842   -2193.0994   -13322.675    1241.1894    5502.1879    1619.0562   -4241.3777   -3112.3418     85.27023 
   98200    307.50764   -110.86302   0.27823938   -110.58478   -4836.4518    4.4046895    4.4046895    4.4046895   -4836.4518   -6869.8678   -10656.313    3016.8252    1152.7486    3546.5299   -29.700499    85.456658 
   98300    263.60045   -110.82438   0.23851123   -110.58587   -3081.7462    4.3964095    4.3964095    4.3964095   -3081.7462   -9902.5433    2911.2691   -2253.9643   -3588.4767   -5143.6366   -582.06705    84.975631 
   98400    309.64389   -110.86657    0.2801723    -110.5864   -8643.5306    4.4063327    4.4063327    4.4063327   -8643.5306    -13547.44   -8557.2633   -3825.8884     1584.771   -1143.8606    1218.7094     85.55233 
   98500    334.82224   -110.88864    0.3029542   -110.58568   -3678.0483    4.4011635    4.4011635    4.4011635   -3678.0483    -4427.909   -9833.2873    3227.0514   -88.238963    1011.0896   -1407.5914    85.251592 
   98600    235.32142   -110.79976   0.21292377   -110.58684    1014.9339    4.3962928    4.3962928    4.3962928    1014.9339   -514.97923    3034.9129    524.86794   -4380.2448   -4704.8586    131.80878    84.968868 
   98700    357.40993    -110.9093   0.32339202   -110.58591   -8784.5818    4.4079869    4.4079869    4.4079869   -8784.5818   -5522.7488   -13513.187   -7317.8092    2360.8036    1279.9291    359.24814    85.648724 
   98800    284.99006   -110.84336   0.25786499    -110.5855   -56.445595    4.3994448    4.3994448    4.3994448   -56.445595    2925.8649   -8077.8848    4982.6831   -2451.7961    -2172.911   -341.28629    85.151759 
   98900    237.05849   -110.80122   0.21449551   -110.58672    214.64608    4.3966695    4.3966695    4.3966695    214.64608   -3104.7688    1912.9614    1835.7456   -4911.2812   -1358.5904    1999.7234     84.99071 
   99000    299.90766   -110.85717   0.27136275    -110.5858    -6917.086    4.4080641    4.4080641    4.4080641    -6917.086   -8019.9831   -9933.2602   -2798.0148    3534.6349    213.45644   -4627.7778    85.653224 
   99100    269.72361   -110.82921   0.24405159   -110.58516    436.84877    4.3984029    4.3984029    4.3984029    436.84877   -6489.1146    -4112.949     11912.61   -2830.2263    -2861.019     850.2975    85.091273 
   99200    254.90372   -110.81755   0.23064224   -110.58691    1513.4447    4.3979089    4.3979089    4.3979089    1513.4447    579.00671    2845.1963    1116.1312   -1951.9926   -1631.7874    2104.9959    85.062609 
   99300    301.47877   -110.85924   0.27278433   -110.58646   -3249.0465    4.4071726    4.4071726    4.4071726   -3249.0465   -8630.0585   -7894.4736    6777.3926    3159.3585   -1388.5009   -2262.4202    85.601263 
   99400    361.13523   -110.91177   0.32676275   -110.58501    387.36967    4.3963524    4.3963524    4.3963524    387.36967   -1107.0385   -5932.2953    8201.4429   -3420.5209    1068.8186    462.35425    84.972322 
   99500    280.12936   -110.84066   0.25346693   -110.58719   -99.804734    4.4022225    4.4022225    4.4022225   -99.804734   -8290.6824    244.81995    7746.4482    1372.2601   -2432.4484   -625.06551    85.313149 
   99600       303.55   -110.86106   0.27465842    -110.5864    529.06533    4.4032934    4.4032934    4.4032934    529.06533   -9315.0462   -1758.0392    12660.281    587.94783   -2334.4511    874.05064    85.375424 
   99700    396.29231    -110.9431   0.35857361   -110.58453   -509.80008    4.3965119    4.3965119    4.3965119   -509.80008   -4380.9773   -5751.9375    8603.5145   -3216.5103    1393.9505   -278.13494     84.98157 
   99800    234.21331   -110.79927   0.21192112   -110.58735     131.6412    4.4051601    4.4051601    4.4051601     131.6412    -11394.98    3051.3724     8738.531    1148.3429   -1939.2445   -995.33261    85.484051 
   99900    296.98998   -110.85498   0.26872278   -110.58626    2367.4514    4.3994411    4.3994411    4.3994411    2367.4514   -3780.7455   -1278.0147    12161.114    -706.2946   -479.12774    244.67443    85.151545 
  100000    381.94625   -110.92998     0.345593   -110.58439   -94.298613    4.3981983    4.3981983    4.3981983   -94.298613   -4152.2278   -4016.4343    7885.7662   -1060.0815    907.73903   -58.560372      85.0794 
Loop time of 21.3212 on 1 procs for 100000 steps with 8 atoms

Pair  time (%) = 6.40403 (30.036)
Kspce time (%) = 5.25138 (24.6299)
Neigh time (%) = 0 (0)
Comm  time (%) = 1.04952 (4.92241)
Outpt time (%) = 0.0380588 (0.178502)
Other time (%) = 8.57817 (40.2331)

Nlocal:    8 ave 8 max 8 min
Histogram: 1 0 0 0 0 0 0 0 0 0
Nghost:    2189 ave 2189 max 2189 min
Histogram: 1 0 0 0 0 0 0 0 0 0
Neighs:    2056 ave 2056 max 2056 min
Histogram: 1 0 0 0 0 0 0 0 0 0

Total # of neighbors = 2056
Ave neighs/atom = 257
Neighbor list builds = 0
Dangerous builds = 0
seeds:5762661
