 vasp.5.4.1 24Jun15 (build Jun 05 2017 10:38:15) complex                        
  
 executed on           IFC91_ompi date 2017.08.29  20:23:50
 running on   16 total cores
 distrk:  each k-point on   16 cores,    1 groups
 distr:  one band on NCORES_PER_BAND=   1 cores,   16 groups


--------------------------------------------------------------------------------------------------------


 INCAR:
 POTCAR:    PAW_PBE O_h 06Feb2004                 
 POTCAR:    PAW_PBE Mg 13Apr2007                  

 ----------------------------------------------------------------------------- 
|                                                                             |
|           W    W    AA    RRRRR   N    N  II  N    N   GGGG   !!!           |
|           W    W   A  A   R    R  NN   N  II  NN   N  G    G  !!!           |
|           W    W  A    A  R    R  N N  N  II  N N  N  G       !!!           |
|           W WW W  AAAAAA  RRRRR   N  N N  II  N  N N  G  GGG   !            |
|           WW  WW  A    A  R   R   N   NN  II  N   NN  G    G                |
|           W    W  A    A  R    R  N    N  II  N    N   GGGG   !!!           |
|                                                                             |
|      For optimal performance we recommend to set                            |
|        NCORE= 4 - approx SQRT( number of cores)                             |
|      NCORE specifies how many cores store one orbital (NPAR=cpu/NCORE).     |
|      This setting can  greatly improve the performance of VASP for DFT.     |
|      The default, NPAR=number of cores might be grossly inefficient         |
|      on modern multi-core architectures or massively parallel machines.     |
|      Do your own testing !!!!                                               |
|      Unfortunately you need to use the default for GW and RPA calculations. |
|      (for HF NCORE is supported but not extensively tested yet)             |
|                                                                             |
 ----------------------------------------------------------------------------- 

 POTCAR:    PAW_PBE O_h 06Feb2004                 
   VRHFIN =O: s2p4                                                              
   LEXCH  = PE                                                                  
   EATOM  =   432.3788 eV,   31.7789 Ry                                         
                                                                                
   TITEL  = PAW_PBE O_h 06Feb2004                                               
   LULTRA =        F    use ultrasoft PP ?                                      
   IUNSCR =        1    unscreen: 0-lin 1-nonlin 2-no                           
   RPACOR =     .800    partial core radius                                     
   POMASS =   16.000; ZVAL   =    6.000    mass and valenz                      
   RCORE  =    1.100    outmost cutoff radius                                   
   RWIGS  =    1.400; RWIGS  =     .741    wigner-seitz radius (au A)           
   ENMAX  =  700.000; ENMIN  =  500.000 eV                                      
   ICORE  =        2    local potential                                         
   LCOR   =        T    correct aug charges                                     
   LPAW   =        T    paw PP                                                  
   EAUG   =  888.804                                                            
   DEXC   =     .000                                                            
   RMAX   =    1.666    core radius for proj-oper                               
   RAUG   =    1.300    factor for augmentation sphere                          
   RDEP   =    1.125    radius for radial grids                                 
   QCUT   =   -7.501; QGAM   =   15.002    optimization parameters              
                                                                                
   Description                                                                  
     l     E      TYP  RCUT    TYP  RCUT                                        
     0   .000     23  1.100                                                     
     0   .000     23  1.100                                                     
     1   .000     23  1.100                                                     
     1   .000     23  1.100                                                     
     2   .000      7  1.100                                                     
  local pseudopotential read in
  partial core-charges read in
  atomic valenz-charges read in
  non local Contribution for L=           0  read in
    real space projection operators read in
  non local Contribution for L=           0  read in
    real space projection operators read in
  non local Contribution for L=           1  read in
    real space projection operators read in
  non local Contribution for L=           1  read in
    real space projection operators read in
    PAW grid and wavefunctions read in
 
   number of l-projection  operators is LMAX  =           4
   number of lm-projection operators is LMMAX =           8
 
 POTCAR:    PAW_PBE Mg 13Apr2007                  
   VRHFIN =Mg: s2p0                                                             
   LEXCH  = PE                                                                  
   EATOM  =    23.0369 eV,    1.6932 Ry                                         
                                                                                
   TITEL  = PAW_PBE Mg 13Apr2007                                                
   LULTRA =        F    use ultrasoft PP ?                                      
   IUNSCR =        1    unscreen: 0-lin 1-nonlin 2-no                           
   RPACOR =    1.500    partial core radius                                     
   POMASS =   24.305; ZVAL   =    2.000    mass and valenz                      
   RCORE  =    2.000    outmost cutoff radius                                   
   RWIGS  =    2.880; RWIGS  =    1.524    wigner-seitz radius (au A)           
   ENMAX  =  126.143; ENMIN  =   94.607 eV                                      
   RCLOC  =    1.506    cutoff for local pot                                    
   LCOR   =        T    correct aug charges                                     
   LPAW   =        T    paw PP                                                  
   EAUG   =  454.734                                                            
   DEXC   =     .000                                                            
   RMAX   =    4.105    core radius for proj-oper                               
   RAUG   =    1.300    factor for augmentation sphere                          
   RDEP   =    2.025    radius for radial grids                                 
   QCUT   =   -3.045; QGAM   =    6.090    optimization parameters              
                                                                                
   Description                                                                  
     l     E      TYP  RCUT    TYP  RCUT                                        
     0   .000     23  2.000                                                     
     0  2.000     23  2.000                                                     
     1   .100     23  2.000                                                     
     1  2.000     23  2.000                                                     
     2   .000     23  2.000                                                     
  local pseudopotential read in
  partial core-charges read in
  atomic valenz-charges read in
  non local Contribution for L=           0  read in
    real space projection operators read in
  non local Contribution for L=           0  read in
    real space projection operators read in
  non local Contribution for L=           1  read in
    real space projection operators read in
  non local Contribution for L=           1  read in
    real space projection operators read in
  non local Contribution for L=           2  read in
    real space projection operators read in
    PAW grid and wavefunctions read in
 
   number of l-projection  operators is LMAX  =           5
   number of lm-projection operators is LMMAX =          13
 
  PAW_PBE O_h 06Feb2004                 :
 energy of atom  1       EATOM= -432.3788
 kinetic energy error for atom=    0.0171 (will be added to EATOM!!)
  PAW_PBE Mg 13Apr2007                  :
 energy of atom  2       EATOM=  -23.0369
 kinetic energy error for atom=    0.0000 (will be added to EATOM!!)
 
 
 POSCAR: Mg1 O1                                  
  positions in direct lattice
  No initial velocities read in
 exchange correlation table for  LEXCH =        8
   RHO(1)=    0.500       N(1)  =     2000
   RHO(2)=  100.500       N(2)  =     4000
 


--------------------------------------------------------------------------------------------------------


 ion  position               nearest neighbor table
   1  0.500  0.500  0.500-   2 2.12   2 2.12   2 2.12   2 2.12   2 2.12   2 2.12
   2  0.000  0.000  0.000-   1 2.12   1 2.12   1 2.12   1 2.12   1 2.12   1 2.12
 
  LATTYP: Found a face centered cubic cell.
 ALAT       =     4.2452137554
  
  Lattice vectors:
  
 A1 = (   3.0018190000,   0.0000000000,   0.0000000000)
 A2 = (   1.5009100000,   2.5996520000,   0.0000000000)
 A3 = (   1.5009100000,   0.8665510000,   2.4509750000)


Analysis of symmetry for initial positions (statically):
=====================================================================
 Subroutine PRICEL returns:
 Original cell was already a primitive cell.
 

 Routine SETGRP: Setting up the symmetry group for a 
 face centered cubic supercell.


 Subroutine GETGRP returns: Found 48 space group operations
 (whereof 48 operations were pure point group operations)
 out of a pool of 48 trial point group operations.


The static configuration has the point symmetry O_h .


Analysis of symmetry for dynamics (positions and initial velocities):
=====================================================================
 Subroutine PRICEL returns:
 Original cell was already a primitive cell.
 

 Routine SETGRP: Setting up the symmetry group for a 
 face centered cubic supercell.


 Subroutine GETGRP returns: Found 48 space group operations
 (whereof 48 operations were pure point group operations)
 out of a pool of 48 trial point group operations.


The dynamic configuration has the point symmetry O_h .


 Subroutine INISYM returns: Found 48 space group operations
 (whereof 48 operations are pure point group operations),
 and found     1 'primitive' translations

 
 
 KPOINTS: Automatic Mesh                          

Automatic generation of k-mesh.
Space group operators:
 irot       det(A)        alpha          n_x          n_y          n_z        tau_x        tau_y        tau_z
    1     1.000000     0.000000     1.000000     0.000000     0.000000     0.000000     0.000000     0.000000
    2    -1.000000     0.000000     1.000000     0.000000     0.000000     0.000000     0.000000     0.000000
    3     1.000000   120.000000    -0.816497    -0.471404    -0.333333     0.000000     0.000000     0.000000
    4    -1.000000   120.000000    -0.816497    -0.471404    -0.333333     0.000000     0.000000     0.000000
    5     1.000000   120.000000     0.816497     0.471405     0.333333     0.000000     0.000000     0.000000
    6    -1.000000   120.000000     0.816497     0.471405     0.333333     0.000000     0.000000     0.000000
    7     1.000000    90.000000    -0.707107    -0.408248     0.577350     0.000000     0.000000     0.000000
    8    -1.000000    90.000000    -0.707107    -0.408248     0.577350     0.000000     0.000000     0.000000
    9     1.000000   180.000000     1.000000    -0.000000    -0.000000     0.000000     0.000000     0.000000
   10    -1.000000   180.000000     1.000000    -0.000000    -0.000000     0.000000     0.000000     0.000000
   11     1.000000    90.000000     0.707107    -0.408248     0.577350     0.000000     0.000000     0.000000
   12    -1.000000    90.000000     0.707107    -0.408248     0.577350     0.000000     0.000000     0.000000
   13     1.000000   180.000000    -0.707107    -0.408248     0.577350     0.000000     0.000000     0.000000
   14    -1.000000   180.000000    -0.707107    -0.408248     0.577350     0.000000     0.000000     0.000000
   15     1.000000   120.000000     0.816497    -0.471405    -0.333333     0.000000     0.000000     0.000000
   16    -1.000000   120.000000     0.816497    -0.471405    -0.333333     0.000000     0.000000     0.000000
   17     1.000000   120.000000    -0.000000    -0.942809     0.333334     0.000000     0.000000     0.000000
   18    -1.000000   120.000000    -0.000000    -0.942809     0.333334     0.000000     0.000000     0.000000
   19     1.000000    90.000000     0.707107     0.408248    -0.577350     0.000000     0.000000     0.000000
   20    -1.000000    90.000000     0.707107     0.408248    -0.577350     0.000000     0.000000     0.000000
   21     1.000000    90.000000    -0.000000    -0.816497    -0.577350     0.000000     0.000000     0.000000
   22    -1.000000    90.000000    -0.000000    -0.816497    -0.577350     0.000000     0.000000     0.000000
   23     1.000000   180.000000     0.500000     0.866025    -0.000000     0.000000     0.000000     0.000000
   24    -1.000000   180.000000     0.500000     0.866025    -0.000000     0.000000     0.000000     0.000000
   25     1.000000   120.000000    -0.000000     0.942809    -0.333333     0.000000     0.000000     0.000000
   26    -1.000000   120.000000    -0.000000     0.942809    -0.333333     0.000000     0.000000     0.000000
   27     1.000000   120.000000     0.000000    -0.000000    -1.000000     0.000000     0.000000     0.000000
   28    -1.000000   120.000000     0.000000    -0.000000    -1.000000     0.000000     0.000000     0.000000
   29     1.000000   180.000000     0.000000    -0.816497    -0.577350     0.000000     0.000000     0.000000
   30    -1.000000   180.000000     0.000000    -0.816497    -0.577350     0.000000     0.000000     0.000000
   31     1.000000    90.000000    -0.707107     0.408248    -0.577350     0.000000     0.000000     0.000000
   32    -1.000000    90.000000    -0.707107     0.408248    -0.577350     0.000000     0.000000     0.000000
   33     1.000000   180.000000    -0.500000    -0.288675    -0.816497     0.000000     0.000000     0.000000
   34    -1.000000   180.000000    -0.500000    -0.288675    -0.816497     0.000000     0.000000     0.000000
   35     1.000000    90.000000     0.000000     0.816497     0.577350     0.000000     0.000000     0.000000
   36    -1.000000    90.000000     0.000000     0.816497     0.577350     0.000000     0.000000     0.000000
   37     1.000000   120.000000    -0.816496     0.471405     0.333333     0.000000     0.000000     0.000000
   38    -1.000000   120.000000    -0.816496     0.471405     0.333333     0.000000     0.000000     0.000000
   39     1.000000   180.000000    -0.707107     0.408248    -0.577350     0.000000     0.000000     0.000000
   40    -1.000000   180.000000    -0.707107     0.408248    -0.577350     0.000000     0.000000     0.000000
   41     1.000000   120.000000     0.000000    -0.000000     1.000000     0.000000     0.000000     0.000000
   42    -1.000000   120.000000     0.000000    -0.000000     1.000000     0.000000     0.000000     0.000000
   43     1.000000   180.000000     0.000000    -0.577350     0.816497     0.000000     0.000000     0.000000
   44    -1.000000   180.000000     0.000000    -0.577350     0.816497     0.000000     0.000000     0.000000
   45     1.000000   180.000000    -0.500000     0.866025    -0.000000     0.000000     0.000000     0.000000
   46    -1.000000   180.000000    -0.500000     0.866025    -0.000000     0.000000     0.000000     0.000000
   47     1.000000   180.000000    -0.500000     0.288675     0.816497     0.000000     0.000000     0.000000
   48    -1.000000   180.000000    -0.500000     0.288675     0.816497     0.000000     0.000000     0.000000
 
 Subroutine IBZKPT returns following result:
 ===========================================
 
 Found     10 irreducible k-points:
 
 Following reciprocal coordinates:
            Coordinates               Weight
  0.125000  0.125000  0.125000     96.000000
  0.375000  0.125000  0.125000    288.000000
 -0.375000  0.125000  0.125000    288.000000
 -0.125000  0.125000  0.125000    288.000000
  0.375000  0.375000  0.125000    288.000000
 -0.375000  0.375000  0.125000    576.000000
 -0.125000  0.375000  0.125000    576.000000
 -0.375000 -0.375000  0.125000    288.000000
  0.375000  0.375000  0.375000     96.000000
 -0.375000  0.375000  0.375000    288.000000
 
 Following cartesian coordinates:
            Coordinates               Weight
  0.041641  0.024042  0.017000     96.000000
  0.124924 -0.024042 -0.017000    288.000000
 -0.124924  0.120208  0.085000    288.000000
 -0.041641  0.072125  0.051000    288.000000
  0.124924  0.072125 -0.051000    288.000000
 -0.124924  0.216375  0.051000    576.000000
 -0.041641  0.168292  0.017000    576.000000
 -0.124924 -0.072125  0.153000    288.000000
  0.124924  0.072125  0.051000     96.000000
 -0.124924  0.216375  0.153000    288.000000
 


--------------------------------------------------------------------------------------------------------




 Dimension of arrays:
   k-points           NKPTS =     10   k-points in BZ     NKDIM =     10   number of bands    NBANDS=     16
   number of dos      NEDOS =    301   number of ions     NIONS =      2
   non local maximal  LDIM  =      5   non local SUM 2l+1 LMDIM =     13
   total plane-waves  NPLWV =  32768
   max r-space proj   IRMAX =      1   max aug-charges    IRDMAX=  17965
   dimension x,y,z NGX =    32 NGY =   32 NGZ =   32
   dimension x,y,z NGXF=    40 NGYF=   40 NGZF=   40
   support grid    NGXF=    40 NGYF=   40 NGZF=   40
   ions per type =               1   1
 NGX,Y,Z   is equivalent  to a cutoff of  17.72, 17.72, 17.72 a.u.
 NGXF,Y,Z  is equivalent  to a cutoff of  22.15, 22.15, 22.15 a.u.


 I would recommend the setting:
   dimension x,y,z NGX =    31 NGY =   31 NGZ =   31
 SYSTEM =  automatically generated by pyflamestk   
 POSCAR =  Mg1 O1                                  

 Startparameter for this run:
   NWRITE =      2    write-flag & timer
   PREC   = high      normal or accurate (medium, high low for compatibility)
   ISTART =      0    job   : 0-new  1-cont  2-samecut
   ICHARG =      0    charge: 1-file 2-atom 10-const
   ISPIN  =      1    spin polarized calculation?
   LNONCOLLINEAR =      F non collinear calculations
   LSORBIT =      F    spin-orbit coupling
   INIWAV =      1    electr: 0-lowe 1-rand  2-diag
   LASPH  =      F    aspherical Exc in radial PAW
   METAGGA=      F    non-selfconsistent MetaGGA calc.

 Electronic Relaxation 1
   ENCUT  = 1000.0 eV  73.50 Ry    8.57 a.u.   7.74  7.74  7.74*2*pi/ulx,y,z
   ENINI  = 1000.0     initial cutoff
   ENAUG  =  888.8 eV  augmentation charge cutoff
   NELM   =     40;   NELMIN=  2; NELMDL= -5     # of ELM steps 
   EDIFF  = 0.1E-05   stopping-criterion for ELM
   LREAL  =      F    real-space projection
   NLSPLINE    = F    spline interpolate recip. space projectors
   LCOMPAT=      F    compatible to vasp.4.4
   GGA_COMPAT  = T    GGA compatible to vasp.4.4-vasp.4.6
   LMAXPAW     = -100 max onsite density
   LMAXMIX     =    2 max onsite mixed and CHGCAR
   VOSKOWN=      0    Vosko Wilk Nusair interpolation
   ROPT   =    0.00000   0.00000
 Ionic relaxation
   EDIFFG = 0.1E-04   stopping-criterion for IOM
   NSW    =      0    number of steps for IOM
   NBLOCK =      1;   KBLOCK =      1    inner block; outer block 
   IBRION =     -1    ionic relax: 0-MD 1-quasi-New 2-CG
   NFREE  =      0    steps in history (QN), initial steepest desc. (CG)
   ISIF   =      2    stress and relaxation
   IWAVPR =     10    prediction:  0-non 1-charg 2-wave 3-comb
   ISYM   =      2    0-nonsym 1-usesym 2-fastsym
   LCORR  =      T    Harris-Foulkes like correction to forces

   POTIM  = 0.5000    time-step for ionic-motion
   TEIN   =    0.0    initial temperature
   TEBEG  =    0.0;   TEEND  =   0.0 temperature during run
   SMASS  =  -3.00    Nose mass-parameter (am)
   estimated Nose-frequenzy (Omega)   =  0.10E-29 period in steps =****** mass=  -0.206E-27a.u.
   SCALEE = 1.0000    scale energy and forces
   NPACO  =    256;   APACO  = 16.0  distance and # of slots for P.C.
   PSTRESS=    0.0 pullay stress

  Mass of Ions in am
   POMASS =  16.00 24.30
  Ionic Valenz
   ZVAL   =   6.00  2.00
  Atomic Wigner-Seitz radii
   RWIGS  =  -1.00 -1.00
  virtual crystal weights 
   VCA    =   1.00  1.00
   NELECT =       8.0000    total number of electrons
   NUPDOWN=      -1.0000    fix difference up-down

 DOS related values:
   EMIN   =  10.00;   EMAX   =-10.00  energy-range for DOS
   EFERMI =   0.00
   ISMEAR =     0;   SIGMA  =   0.05  broadening in eV -4-tet -1-fermi 0-gaus

 Electronic relaxation 2 (details)
   IALGO  =     38    algorithm
   LDIAG  =      T    sub-space diagonalisation (order eigenvalues)
   LSUBROT=      F    optimize rotation matrix (better conditioning)
   TURBO    =      0    0=normal 1=particle mesh
   IRESTART =      0    0=no restart 2=restart with 2 vectors
   NREBOOT  =      0    no. of reboots
   NMIN     =      0    reboot dimension
   EREF     =   0.00    reference energy to select bands
   IMIX   =      4    mixing-type and parameters
     AMIX     =   0.40;   BMIX     =  1.00
     AMIX_MAG =   1.60;   BMIX_MAG =  1.00
     AMIN     =   0.10
     WC   =   100.;   INIMIX=   1;  MIXPRE=   1;  MAXMIX= -45

 Intra band minimization:
   WEIMIN = 0.0000     energy-eigenvalue tresh-hold
   EBREAK =  0.16E-07  absolut break condition
   DEPER  =   0.30     relativ break condition  

   TIME   =   0.40     timestep for ELM

  volume/ion in A,a.u.               =       9.56        64.54
  Fermi-wavevector in a.u.,A,eV,Ry     =   1.224312  2.313613 20.394301  1.498939
  Thomas-Fermi vector in A             =   2.359391
 
 Write flags
   LWAVE  =      F    write WAVECAR
   LCHARG =      F    write CHGCAR
   LVTOT  =      F    write LOCPOT, total local potential
   LVHAR  =      F    write LOCPOT, Hartree potential only
   LELF   =      F    write electronic localiz. function (ELF)
   LORBIT =      0    0 simple, 1 ext, 2 COOP (PROOUT)


 Dipole corrections
   LMONO  =      F    monopole corrections only (constant potential shift)
   LDIPOL =      F    correct potential (dipole corrections)
   IDIPOL =      0    1-x, 2-y, 3-z, 4-all directions 
   EPSILON=  1.0000000 bulk dielectric constant

 Exchange correlation treatment:
   GGA     =    --    GGA type
   LEXCH   =     8    internal setting for exchange type
   VOSKOWN=      0    Vosko Wilk Nusair interpolation
   LHFCALC =     F    Hartree Fock is set to
   LHFONE  =     F    Hartree Fock one center treatment
   AEXX    =    0.0000 exact exchange contribution

 Linear response parameters
   LEPSILON=     F    determine dielectric tensor
   LRPA    =     F    only Hartree local field effects (RPA)
   LNABLA  =     F    use nabla operator in PAW spheres
   LVEL    =     F    velocity operator in full k-point grid
   LINTERFAST=   F  fast interpolation
   KINTER  =     0    interpolate to denser k-point grid
   CSHIFT  =0.1000    complex shift for real part using Kramers Kronig
   OMEGAMAX=  -1.0    maximum frequency
   DEG_THRESHOLD= 0.2000000E-02 threshold for treating states as degnerate
   RTIME   =    0.100 relaxation time in fs

 Orbital magnetization related:
   ORBITALMAG=     F  switch on orbital magnetization
   LCHIMAG   =     F  perturbation theory with respect to B field
   DQ        =  0.001000  dq finite difference perturbation B field



--------------------------------------------------------------------------------------------------------


 Static calculation
 charge density and potential will be updated during run
 non-spin polarized calculation
 Variant of blocked Davidson
 Davidson routine will perform the subspace rotation
 perform sub-space diagonalisation
    after iterative eigenvector-optimisation
 modified Broyden-mixing scheme, WC =      100.0
 initial mixing is a Kerker type mixing with AMIX =  0.4000 and BMIX =      1.0000
 Hartree-type preconditioning will be used
 using additional bands           12
 reciprocal scheme for non local part
 use partial core corrections
 calculate Harris-corrections to forces 
   (improved forces if not selfconsistent)
 use gradient corrections 
 use of overlap-Matrix (Vanderbilt PP)
 Gauss-broadening in eV      SIGMA  =   0.05


--------------------------------------------------------------------------------------------------------


  energy-cutoff  :     1000.00
  volume of cell :       19.13
      direct lattice vectors                 reciprocal lattice vectors
     3.001819000  0.000000000  0.000000000     0.333131345 -0.192333499 -0.136000318
     1.500910000  2.599652000  0.000000000     0.000000000  0.384666871 -0.136000352
     1.500910000  0.866551000  2.450975000     0.000000000  0.000000000  0.408000898

  length of vectors
     3.001819000  3.001819673  3.001819434     0.408000925  0.408000854  0.408000898


 
 k-points in units of 2pi/SCALE and weight: Automatic Mesh                          
   0.04164142  0.02404167  0.01700003       0.031
   0.12492425 -0.02404170 -0.01700005       0.094
  -0.12492425  0.12020842  0.08500019       0.094
  -0.04164142  0.07212505  0.05100011       0.094
   0.12492425  0.07212501 -0.05100014       0.094
  -0.12492425  0.21637514  0.05100010       0.188
  -0.04164142  0.16829176  0.01700002       0.188
  -0.12492425 -0.07212501  0.15300036       0.094
   0.12492425  0.07212501  0.05100009       0.031
  -0.12492425  0.21637514  0.15300032       0.094
 
 k-points in reciprocal lattice and weights: Automatic Mesh                          
   0.12500000  0.12500000  0.12500000       0.031
   0.37500000  0.12500000  0.12500000       0.094
  -0.37500000  0.12500000  0.12500000       0.094
  -0.12500000  0.12500000  0.12500000       0.094
   0.37500000  0.37500000  0.12500000       0.094
  -0.37500000  0.37500000  0.12500000       0.188
  -0.12500000  0.37500000  0.12500000       0.188
  -0.37500000 -0.37500000  0.12500000       0.094
   0.37500000  0.37500000  0.37500000       0.031
  -0.37500000  0.37500000  0.37500000       0.094
 
 position of ions in fractional coordinates (direct lattice) 
   0.50000000  0.50000000  0.50000000
   0.00000000  0.00000000  0.00000000
 
 position of ions in cartesian coordinates  (Angst):
   3.00181950  1.73310150  1.22548750
   0.00000000  0.00000000  0.00000000
 


--------------------------------------------------------------------------------------------------------


 k-point  1 :   0.1250 0.1250 0.1250  plane waves:    1387
 k-point  2 :   0.3750 0.1250 0.1250  plane waves:    1374
 k-point  3 :  -0.3750 0.1250 0.1250  plane waves:    1379
 k-point  4 :  -0.1250 0.1250 0.1250  plane waves:    1366
 k-point  5 :   0.3750 0.3750 0.1250  plane waves:    1368
 k-point  6 :  -0.3750 0.3750 0.1250  plane waves:    1377
 k-point  7 :  -0.1250 0.3750 0.1250  plane waves:    1379
 k-point  8 :  -0.3750-0.3750 0.1250  plane waves:    1368
 k-point  9 :   0.3750 0.3750 0.3750  plane waves:    1377
 k-point 10 :  -0.3750 0.3750 0.3750  plane waves:    1371

 maximum and minimum number of plane-waves per node :      1387     1366

 maximum number of plane-waves:      1387
 maximum index in each direction: 
   IXMAX=    8   IYMAX=    8   IZMAX=    7
   IXMIN=   -8   IYMIN=   -8   IZMIN=   -8

 WARNING: aliasing errors must be expected set NGX to  34 to avoid them
 WARNING: aliasing errors must be expected set NGY to  34 to avoid them
 NGZ is ok and might be reduce to  32
 aliasing errors are usually negligible using standard VASP settings
 and one can safely disregard these warnings

 serial   3D FFT for wavefunctions
 parallel 3D FFT for charge:
    minimum data exchange during FFTs selected (reduces bandwidth)


 total amount of memory used by VASP on root node    35107. kBytes
========================================================================

   base      :      30000. kBytes
   nonl-proj :       2939. kBytes
   fftplans  :        320. kBytes
   grid      :       1605. kBytes
   one-center:         16. kBytes
   wavefun   :        227. kBytes
 
     INWAV:  cpu time    0.0000: real time    0.0001
 Broyden mixing: mesh for mixing (old mesh)
   NGX = 15   NGY = 15   NGZ = 15
  (NGX  = 40   NGY  = 40   NGZ  = 40)
  gives a total of   3375 points

 charge density for first step will be calculated from the start-wavefunctions


--------------------------------------------------------------------------------------------------------


 Maximum index for augmentation-charges         1453 (set IRDMAX)


--------------------------------------------------------------------------------------------------------


 initial charge from wavefunction
 First call to EWALD:  gamma=   0.663
 Maximum number of real-space cells 3x 3x 3
 Maximum number of reciprocal cells 3x 3x 3

 FEWALD executed in parallel
    FEWALD:  cpu time    0.0020: real time    0.0016


----------------------------------------- Iteration    1(   1)  ---------------------------------------


    POTLOK:  cpu time    0.0060: real time    0.0060
    SETDIJ:  cpu time    0.0030: real time    0.0028
     EDDAV:  cpu time    0.0500: real time    0.0503
       DOS:  cpu time    0.0000: real time    0.0002
    --------------------------------------------
      LOOP:  cpu time    0.0630: real time    0.0651

 eigenvalue-minimisations  :   320
 total energy-change (2. order) :-0.2250253E+03  (-0.1101225E+04)
 number of electron       8.0000000 magnetization 
 augmentation part       -1.0012810 magnetization 

 Free energy of the ion-electron system (eV)
  ---------------------------------------------------
  alpha Z        PSCENC =        15.91937336
  Ewald energy   TEWEN  =      -355.39410472
  -Hartree energ DENC   =       -36.44833875
  -exchange      EXHF   =         0.00000000
  -V(xc)+E(xc)   XCENC  =       -29.33921479
  PAW double counting   =    126562.31147769  -126508.36503975
  entropy T*S    EENTRO =        -0.00000000
  eigenvalues    EBANDS =      -329.10804834
  atomic energy  EATOM  =       455.39862694
  Solvation  Ediel_sol  =         0.00000000
  ---------------------------------------------------
  free energy    TOTEN  =      -225.02526835 eV

  energy without entropy =     -225.02526835  energy(sigma->0) =     -225.02526835


--------------------------------------------------------------------------------------------------------




----------------------------------------- Iteration    1(   2)  ---------------------------------------


     EDDAV:  cpu time    0.0700: real time    0.0695
       DOS:  cpu time    0.0000: real time    0.0001
    --------------------------------------------
      LOOP:  cpu time    0.0700: real time    0.0730

 eigenvalue-minimisations  :   448
 total energy-change (2. order) :-0.8998617E+02  (-0.8998617E+02)
 number of electron       8.0000000 magnetization 
 augmentation part       -1.0012810 magnetization 

 Free energy of the ion-electron system (eV)
  ---------------------------------------------------
  alpha Z        PSCENC =        15.91937336
  Ewald energy   TEWEN  =      -355.39410472
  -Hartree energ DENC   =       -36.44833875
  -exchange      EXHF   =         0.00000000
  -V(xc)+E(xc)   XCENC  =       -29.33921479
  PAW double counting   =    126562.31147769  -126508.36503975
  entropy T*S    EENTRO =        -0.00000000
  eigenvalues    EBANDS =      -419.09422270
  atomic energy  EATOM  =       455.39862694
  Solvation  Ediel_sol  =         0.00000000
  ---------------------------------------------------
  free energy    TOTEN  =      -315.01144271 eV

  energy without entropy =     -315.01144271  energy(sigma->0) =     -315.01144271


--------------------------------------------------------------------------------------------------------




----------------------------------------- Iteration    1(   3)  ---------------------------------------


     EDDAV:  cpu time    0.0600: real time    0.0599
       DOS:  cpu time    0.0000: real time    0.0001
    --------------------------------------------
      LOOP:  cpu time    0.0600: real time    0.0632

 eigenvalue-minimisations  :   384
 total energy-change (2. order) :-0.5207696E+00  (-0.5207696E+00)
 number of electron       8.0000000 magnetization 
 augmentation part       -1.0012810 magnetization 

 Free energy of the ion-electron system (eV)
  ---------------------------------------------------
  alpha Z        PSCENC =        15.91937336
  Ewald energy   TEWEN  =      -355.39410472
  -Hartree energ DENC   =       -36.44833875
  -exchange      EXHF   =         0.00000000
  -V(xc)+E(xc)   XCENC  =       -29.33921479
  PAW double counting   =    126562.31147769  -126508.36503975
  entropy T*S    EENTRO =        -0.00000000
  eigenvalues    EBANDS =      -419.61499235
  atomic energy  EATOM  =       455.39862694
  Solvation  Ediel_sol  =         0.00000000
  ---------------------------------------------------
  free energy    TOTEN  =      -315.53221236 eV

  energy without entropy =     -315.53221236  energy(sigma->0) =     -315.53221236


--------------------------------------------------------------------------------------------------------




----------------------------------------- Iteration    1(   4)  ---------------------------------------


     EDDAV:  cpu time    0.0900: real time    0.0905
       DOS:  cpu time    0.0000: real time    0.0001
    --------------------------------------------
      LOOP:  cpu time    0.0910: real time    0.0937

 eigenvalue-minimisations  :   544
 total energy-change (2. order) :-0.1493780E-02  (-0.1493780E-02)
 number of electron       8.0000000 magnetization 
 augmentation part       -1.0012810 magnetization 

 Free energy of the ion-electron system (eV)
  ---------------------------------------------------
  alpha Z        PSCENC =        15.91937336
  Ewald energy   TEWEN  =      -355.39410472
  -Hartree energ DENC   =       -36.44833875
  -exchange      EXHF   =         0.00000000
  -V(xc)+E(xc)   XCENC  =       -29.33921479
  PAW double counting   =    126562.31147769  -126508.36503975
  entropy T*S    EENTRO =        -0.00000000
  eigenvalues    EBANDS =      -419.61648613
  atomic energy  EATOM  =       455.39862694
  Solvation  Ediel_sol  =         0.00000000
  ---------------------------------------------------
  free energy    TOTEN  =      -315.53370614 eV

  energy without entropy =     -315.53370614  energy(sigma->0) =     -315.53370614


--------------------------------------------------------------------------------------------------------




----------------------------------------- Iteration    1(   5)  ---------------------------------------


     EDDAV:  cpu time    0.0620: real time    0.0618
       DOS:  cpu time    0.0000: real time    0.0001
    CHARGE:  cpu time    0.0100: real time    0.0100
    MIXING:  cpu time    0.0010: real time    0.0004
    --------------------------------------------
      LOOP:  cpu time    0.0730: real time    0.0750

 eigenvalue-minimisations  :   400
 total energy-change (2. order) :-0.3238276E-06  (-0.3238276E-06)
 number of electron       7.9999984 magnetization 
 augmentation part        0.6044158 magnetization 

 Broyden mixing:
  rms(total) = 0.96098E+01    rms(broyden)= 0.95922E+01
  rms(prec ) = 0.29350E+02
  weight for this iteration     100.00

 Free energy of the ion-electron system (eV)
  ---------------------------------------------------
  alpha Z        PSCENC =        15.91937336
  Ewald energy   TEWEN  =      -355.39410472
  -Hartree energ DENC   =       -36.44833875
  -exchange      EXHF   =         0.00000000
  -V(xc)+E(xc)   XCENC  =       -29.33921479
  PAW double counting   =    126562.31147769  -126508.36503975
  entropy T*S    EENTRO =        -0.00000000
  eigenvalues    EBANDS =      -419.61648645
  atomic energy  EATOM  =       455.39862694
  Solvation  Ediel_sol  =         0.00000000
  ---------------------------------------------------
  free energy    TOTEN  =      -315.53370646 eV

  energy without entropy =     -315.53370646  energy(sigma->0) =     -315.53370646


--------------------------------------------------------------------------------------------------------




----------------------------------------- Iteration    1(   6)  ---------------------------------------


    POTLOK:  cpu time    0.0050: real time    0.0049
    SETDIJ:  cpu time    0.0030: real time    0.0027
     EDDAV:  cpu time    0.0480: real time    0.0482
       DOS:  cpu time    0.0000: real time    0.0001
    CHARGE:  cpu time    0.0100: real time    0.0098
    MIXING:  cpu time    0.0000: real time    0.0003
    --------------------------------------------
      LOOP:  cpu time    0.0660: real time    0.0697

 eigenvalue-minimisations  :   320
 total energy-change (2. order) : 0.2455656E+03  (-0.2846150E+02)
 number of electron       7.9999993 magnetization 
 augmentation part        0.2576114 magnetization 

 Broyden mixing:
  rms(total) = 0.41804E+01    rms(broyden)= 0.41783E+01
  rms(prec ) = 0.13693E+02
  weight for this iteration     100.00

 eigenvalues of (default mixing * dielectric matrix)
  average eigenvalue GAMMA=   1.4873
  1.4873

 Free energy of the ion-electron system (eV)
  ---------------------------------------------------
  alpha Z        PSCENC =        15.91937336
  Ewald energy   TEWEN  =      -355.39410472
  -Hartree energ DENC   =       -68.44160548
  -exchange      EXHF   =         0.00000000
  -V(xc)+E(xc)   XCENC  =       -25.80613904
  PAW double counting   =    367414.42684943  -367364.59490986
  entropy T*S    EENTRO =        -0.00000000
  eigenvalues    EBANDS =      -141.47622020
  atomic energy  EATOM  =       455.39862694
  Solvation  Ediel_sol  =         0.00000000
  ---------------------------------------------------
  free energy    TOTEN  =       -69.96812957 eV

  energy without entropy =      -69.96812957  energy(sigma->0) =      -69.96812957


--------------------------------------------------------------------------------------------------------




----------------------------------------- Iteration    1(   7)  ---------------------------------------


    POTLOK:  cpu time    0.0040: real time    0.0043
    SETDIJ:  cpu time    0.0030: real time    0.0027
     EDDAV:  cpu time    0.0770: real time    0.0774
       DOS:  cpu time    0.0000: real time    0.0001
    CHARGE:  cpu time    0.0100: real time    0.0101
    MIXING:  cpu time    0.0010: real time    0.0002
    --------------------------------------------
      LOOP:  cpu time    0.0960: real time    0.0982

 eigenvalue-minimisations  :   496
 total energy-change (2. order) : 0.4679215E+02  (-0.3932454E+02)
 number of electron       8.0000001 magnetization 
 augmentation part       -0.0142985 magnetization 

 Broyden mixing:
  rms(total) = 0.26571E+01    rms(broyden)= 0.26555E+01
  rms(prec ) = 0.70752E+01
  weight for this iteration     100.00

 eigenvalues of (default mixing * dielectric matrix)
  average eigenvalue GAMMA=   1.3383
  1.3383  1.3383

 Free energy of the ion-electron system (eV)
  ---------------------------------------------------
  alpha Z        PSCENC =        15.91937336
  Ewald energy   TEWEN  =      -355.39410472
  -Hartree energ DENC   =      -179.19432074
  -exchange      EXHF   =         0.00000000
  -V(xc)+E(xc)   XCENC  =       -18.67793673
  PAW double counting   =     52948.15768580   -52899.96259381
  entropy T*S    EENTRO =        -0.00000000
  eigenvalues    EBANDS =        10.57729493
  atomic energy  EATOM  =       455.39862694
  Solvation  Ediel_sol  =         0.00000000
  ---------------------------------------------------
  free energy    TOTEN  =       -23.17597497 eV

  energy without entropy =      -23.17597497  energy(sigma->0) =      -23.17597497


--------------------------------------------------------------------------------------------------------




----------------------------------------- Iteration    1(   8)  ---------------------------------------


    POTLOK:  cpu time    0.0040: real time    0.0043
    SETDIJ:  cpu time    0.0030: real time    0.0027
     EDDAV:  cpu time    0.0500: real time    0.0505
       DOS:  cpu time    0.0000: real time    0.0001
    CHARGE:  cpu time    0.0100: real time    0.0101
    MIXING:  cpu time    0.0010: real time    0.0002
    --------------------------------------------
      LOOP:  cpu time    0.0680: real time    0.0711

 eigenvalue-minimisations  :   336
 total energy-change (2. order) : 0.2004666E+01  (-0.1794774E+02)
 number of electron       7.9999996 magnetization 
 augmentation part        0.1485886 magnetization 

 Broyden mixing:
  rms(total) = 0.17038E+01    rms(broyden)= 0.17036E+01
  rms(prec ) = 0.60062E+01
  weight for this iteration     100.00

 eigenvalues of (default mixing * dielectric matrix)
  average eigenvalue GAMMA=   1.5657
  2.5934  1.3400  0.7637

 Free energy of the ion-electron system (eV)
  ---------------------------------------------------
  alpha Z        PSCENC =        15.91937336
  Ewald energy   TEWEN  =      -355.39410472
  -Hartree energ DENC   =      -101.03162168
  -exchange      EXHF   =         0.00000000
  -V(xc)+E(xc)   XCENC  =       -23.89959074
  PAW double counting   =     62943.93939707   -62893.91125873
  entropy T*S    EENTRO =        -0.00000000
  eigenvalues    EBANDS =       -62.19213084
  atomic energy  EATOM  =       455.39862694
  Solvation  Ediel_sol  =         0.00000000
  ---------------------------------------------------
  free energy    TOTEN  =       -21.17130933 eV

  energy without entropy =      -21.17130933  energy(sigma->0) =      -21.17130933


--------------------------------------------------------------------------------------------------------




----------------------------------------- Iteration    1(   9)  ---------------------------------------


    POTLOK:  cpu time    0.0040: real time    0.0042
    SETDIJ:  cpu time    0.0030: real time    0.0027
     EDDAV:  cpu time    0.0480: real time    0.0477
       DOS:  cpu time    0.0000: real time    0.0001
    CHARGE:  cpu time    0.0100: real time    0.0099
    MIXING:  cpu time    0.0000: real time    0.0003
    --------------------------------------------
      LOOP:  cpu time    0.0650: real time    0.0686

 eigenvalue-minimisations  :   320
 total energy-change (2. order) : 0.9194529E+01  (-0.3084083E+01)
 number of electron       7.9999998 magnetization 
 augmentation part        0.0817748 magnetization 

 Broyden mixing:
  rms(total) = 0.25891E+00    rms(broyden)= 0.25871E+00
  rms(prec ) = 0.71402E+00
  weight for this iteration     100.00

 eigenvalues of (default mixing * dielectric matrix)
  average eigenvalue GAMMA=   1.4922
  2.5748  1.3215  1.3215  0.7512

 Free energy of the ion-electron system (eV)
  ---------------------------------------------------
  alpha Z        PSCENC =        15.91937336
  Ewald energy   TEWEN  =      -355.39410472
  -Hartree energ DENC   =      -137.60697941
  -exchange      EXHF   =         0.00000000
  -V(xc)+E(xc)   XCENC  =       -20.92255376
  PAW double counting   =      1207.25881330    -1156.75092975
  entropy T*S    EENTRO =        -0.00000000
  eigenvalues    EBANDS =       -19.87902650
  atomic energy  EATOM  =       455.39862694
  Solvation  Ediel_sol  =         0.00000000
  ---------------------------------------------------
  free energy    TOTEN  =       -11.97678053 eV

  energy without entropy =      -11.97678053  energy(sigma->0) =      -11.97678053


--------------------------------------------------------------------------------------------------------




----------------------------------------- Iteration    1(  10)  ---------------------------------------


    POTLOK:  cpu time    0.0040: real time    0.0040
    SETDIJ:  cpu time    0.0030: real time    0.0027
     EDDAV:  cpu time    0.0650: real time    0.0651
       DOS:  cpu time    0.0000: real time    0.0001
    CHARGE:  cpu time    0.0100: real time    0.0099
    MIXING:  cpu time    0.0000: real time    0.0002
    --------------------------------------------
      LOOP:  cpu time    0.0820: real time    0.0852

 eigenvalue-minimisations  :   416
 total energy-change (2. order) :-0.1168455E-01  (-0.2364332E+00)
 number of electron       7.9999999 magnetization 
 augmentation part        0.0613179 magnetization 

 Broyden mixing:
  rms(total) = 0.20050E+00    rms(broyden)= 0.20036E+00
  rms(prec ) = 0.63150E+00
  weight for this iteration     100.00

 eigenvalues of (default mixing * dielectric matrix)
  average eigenvalue GAMMA=   1.6434
  2.7126  2.5533  1.2299  0.8781  0.8433

 Free energy of the ion-electron system (eV)
  ---------------------------------------------------
  alpha Z        PSCENC =        15.91937336
  Ewald energy   TEWEN  =      -355.39410472
  -Hartree energ DENC   =      -145.12705209
  -exchange      EXHF   =         0.00000000
  -V(xc)+E(xc)   XCENC  =       -20.43691891
  PAW double counting   =       890.29056643     -839.97611966
  entropy T*S    EENTRO =        -0.00000000
  eigenvalues    EBANDS =       -12.66283644
  atomic energy  EATOM  =       455.39862694
  Solvation  Ediel_sol  =         0.00000000
  ---------------------------------------------------
  free energy    TOTEN  =       -11.98846508 eV

  energy without entropy =      -11.98846508  energy(sigma->0) =      -11.98846508


--------------------------------------------------------------------------------------------------------




----------------------------------------- Iteration    1(  11)  ---------------------------------------


    POTLOK:  cpu time    0.0040: real time    0.0040
    SETDIJ:  cpu time    0.0030: real time    0.0027
     EDDAV:  cpu time    0.0520: real time    0.0524
       DOS:  cpu time    0.0000: real time    0.0001
    CHARGE:  cpu time    0.0100: real time    0.0098
    MIXING:  cpu time    0.0000: real time    0.0003
    --------------------------------------------
      LOOP:  cpu time    0.0700: real time    0.0729

 eigenvalue-minimisations  :   352
 total energy-change (2. order) : 0.6554011E-01  (-0.7287542E-01)
 number of electron       7.9999998 magnetization 
 augmentation part        0.0726602 magnetization 

 Broyden mixing:
  rms(total) = 0.37758E-01    rms(broyden)= 0.37721E-01
  rms(prec ) = 0.13891E+00
  weight for this iteration     100.00

 eigenvalues of (default mixing * dielectric matrix)
  average eigenvalue GAMMA=   1.5772
  2.8953  2.5356  1.3172  0.8391  0.9380  0.9380

 Free energy of the ion-electron system (eV)
  ---------------------------------------------------
  alpha Z        PSCENC =        15.91937336
  Ewald energy   TEWEN  =      -355.39410472
  -Hartree energ DENC   =      -140.37922266
  -exchange      EXHF   =         0.00000000
  -V(xc)+E(xc)   XCENC  =       -20.72509365
  PAW double counting   =       670.44993711     -620.06120583
  entropy T*S    EENTRO =        -0.00000000
  eigenvalues    EBANDS =       -17.13123552
  atomic energy  EATOM  =       455.39862694
  Solvation  Ediel_sol  =         0.00000000
  ---------------------------------------------------
  free energy    TOTEN  =       -11.92292497 eV

  energy without entropy =      -11.92292497  energy(sigma->0) =      -11.92292497


--------------------------------------------------------------------------------------------------------




----------------------------------------- Iteration    1(  12)  ---------------------------------------


    POTLOK:  cpu time    0.0040: real time    0.0040
    SETDIJ:  cpu time    0.0020: real time    0.0027
     EDDAV:  cpu time    0.0620: real time    0.0623
       DOS:  cpu time    0.0010: real time    0.0001
    CHARGE:  cpu time    0.0090: real time    0.0100
    MIXING:  cpu time    0.0010: real time    0.0003
    --------------------------------------------
      LOOP:  cpu time    0.0800: real time    0.0830

 eigenvalue-minimisations  :   400
 total energy-change (2. order) : 0.3151348E-02  (-0.2861910E-02)
 number of electron       7.9999999 magnetization 
 augmentation part        0.0707265 magnetization 

 Broyden mixing:
  rms(total) = 0.24621E-02    rms(broyden)= 0.24566E-02
  rms(prec ) = 0.86710E-02
  weight for this iteration     100.00

 eigenvalues of (default mixing * dielectric matrix)
  average eigenvalue GAMMA=   1.5251
  2.8704  2.5345  1.4400  1.2023  0.8312  0.8312  0.9660

 Free energy of the ion-electron system (eV)
  ---------------------------------------------------
  alpha Z        PSCENC =        15.91937336
  Ewald energy   TEWEN  =      -355.39410472
  -Hartree energ DENC   =      -141.31281783
  -exchange      EXHF   =         0.00000000
  -V(xc)+E(xc)   XCENC  =       -20.65361809
  PAW double counting   =       599.56996833     -549.19625910
  entropy T*S    EENTRO =        -0.00000000
  eigenvalues    EBANDS =       -16.25094251
  atomic energy  EATOM  =       455.39862694
  Solvation  Ediel_sol  =         0.00000000
  ---------------------------------------------------
  free energy    TOTEN  =       -11.91977362 eV

  energy without entropy =      -11.91977362  energy(sigma->0) =      -11.91977362


--------------------------------------------------------------------------------------------------------




----------------------------------------- Iteration    1(  13)  ---------------------------------------


    POTLOK:  cpu time    0.0040: real time    0.0040
    SETDIJ:  cpu time    0.0030: real time    0.0027
     EDDAV:  cpu time    0.0620: real time    0.0619
       DOS:  cpu time    0.0000: real time    0.0001
    CHARGE:  cpu time    0.0100: real time    0.0098
    MIXING:  cpu time    0.0000: real time    0.0003
    --------------------------------------------
      LOOP:  cpu time    0.0790: real time    0.0825

 eigenvalue-minimisations  :   400
 total energy-change (2. order) :-0.5030402E-04  (-0.7710391E-04)
 number of electron       7.9999999 magnetization 
 augmentation part        0.0703767 magnetization 

 Broyden mixing:
  rms(total) = 0.47905E-02    rms(broyden)= 0.47890E-02
  rms(prec ) = 0.13421E-01
  weight for this iteration     100.00

 eigenvalues of (default mixing * dielectric matrix)
  average eigenvalue GAMMA=   1.6818
  3.2892  2.6923  2.5258  1.2891  0.8922  0.8922  0.8929  0.9811

 Free energy of the ion-electron system (eV)
  ---------------------------------------------------
  alpha Z        PSCENC =        15.91937336
  Ewald energy   TEWEN  =      -355.39410472
  -Hartree energ DENC   =      -141.43017549
  -exchange      EXHF   =         0.00000000
  -V(xc)+E(xc)   XCENC  =       -20.64676448
  PAW double counting   =       618.42532390     -568.05403791
  entropy T*S    EENTRO =        -0.00000000
  eigenvalues    EBANDS =       -16.13806554
  atomic energy  EATOM  =       455.39862694
  Solvation  Ediel_sol  =         0.00000000
  ---------------------------------------------------
  free energy    TOTEN  =       -11.91982393 eV

  energy without entropy =      -11.91982393  energy(sigma->0) =      -11.91982393


--------------------------------------------------------------------------------------------------------




----------------------------------------- Iteration    1(  14)  ---------------------------------------


    POTLOK:  cpu time    0.0040: real time    0.0040
    SETDIJ:  cpu time    0.0020: real time    0.0027
     EDDAV:  cpu time    0.0730: real time    0.0732
       DOS:  cpu time    0.0010: real time    0.0001
    CHARGE:  cpu time    0.0090: real time    0.0098
    MIXING:  cpu time    0.0010: real time    0.0003
    --------------------------------------------
      LOOP:  cpu time    0.0910: real time    0.0937

 eigenvalue-minimisations  :   464
 total energy-change (2. order) : 0.3005363E-04  (-0.2883563E-04)
 number of electron       7.9999999 magnetization 
 augmentation part        0.0706311 magnetization 

 Broyden mixing:
  rms(total) = 0.10206E-02    rms(broyden)= 0.10195E-02
  rms(prec ) = 0.25618E-02
  weight for this iteration     100.00

 eigenvalues of (default mixing * dielectric matrix)
  average eigenvalue GAMMA=   1.5813
  2.9822  2.6804  2.5203  1.2127  1.2127  0.8819  0.8819  0.9009  0.9587

 Free energy of the ion-electron system (eV)
  ---------------------------------------------------
  alpha Z        PSCENC =        15.91937336
  Ewald energy   TEWEN  =      -355.39410472
  -Hartree energ DENC   =      -141.35927939
  -exchange      EXHF   =         0.00000000
  -V(xc)+E(xc)   XCENC  =       -20.65106249
  PAW double counting   =       636.04147972     -585.66799480
  entropy T*S    EENTRO =        -0.00000000
  eigenvalues    EBANDS =       -16.20683249
  atomic energy  EATOM  =       455.39862694
  Solvation  Ediel_sol  =         0.00000000
  ---------------------------------------------------
  free energy    TOTEN  =       -11.91979387 eV

  energy without entropy =      -11.91979387  energy(sigma->0) =      -11.91979387


--------------------------------------------------------------------------------------------------------




----------------------------------------- Iteration    1(  15)  ---------------------------------------


    POTLOK:  cpu time    0.0040: real time    0.0040
    SETDIJ:  cpu time    0.0030: real time    0.0027
     EDDAV:  cpu time    0.0550: real time    0.0547
       DOS:  cpu time    0.0000: real time    0.0001
    CHARGE:  cpu time    0.0100: real time    0.0098
    MIXING:  cpu time    0.0000: real time    0.0004
    --------------------------------------------
      LOOP:  cpu time    0.0720: real time    0.0755

 eigenvalue-minimisations  :   368
 total energy-change (2. order) : 0.4640841E-06  (-0.1477297E-05)
 number of electron       7.9999999 magnetization 
 augmentation part        0.0705794 magnetization 

 Broyden mixing:
  rms(total) = 0.30984E-03    rms(broyden)= 0.30979E-03
  rms(prec ) = 0.11629E-02
  weight for this iteration     100.00

 eigenvalues of (default mixing * dielectric matrix)
  average eigenvalue GAMMA=   1.6930
  3.2466  2.8227  2.5235  2.4383  1.2850  0.8902  0.8902  1.0155  0.8796  0.9388

 Free energy of the ion-electron system (eV)
  ---------------------------------------------------
  alpha Z        PSCENC =        15.91937336
  Ewald energy   TEWEN  =      -355.39410472
  -Hartree energ DENC   =      -141.37616184
  -exchange      EXHF   =         0.00000000
  -V(xc)+E(xc)   XCENC  =       -20.65024143
  PAW double counting   =       633.47550539     -583.10249585
  entropy T*S    EENTRO =        -0.00000000
  eigenvalues    EBANDS =       -16.19029528
  atomic energy  EATOM  =       455.39862694
  Solvation  Ediel_sol  =         0.00000000
  ---------------------------------------------------
  free energy    TOTEN  =       -11.91979341 eV

  energy without entropy =      -11.91979341  energy(sigma->0) =      -11.91979341


--------------------------------------------------------------------------------------------------------




----------------------------------------- Iteration    1(  16)  ---------------------------------------


    POTLOK:  cpu time    0.0040: real time    0.0040
    SETDIJ:  cpu time    0.0030: real time    0.0027
     EDDAV:  cpu time    0.0280: real time    0.0280
       DOS:  cpu time    0.0000: real time    0.0001
    --------------------------------------------
      LOOP:  cpu time    0.0350: real time    0.0387

 eigenvalue-minimisations  :   160
 total energy-change (2. order) : 0.5131449E-07  (-0.7383964E-07)
 number of electron       7.9999999 magnetization 
 augmentation part        0.0705794 magnetization 

 Free energy of the ion-electron system (eV)
  ---------------------------------------------------
  alpha Z        PSCENC =        15.91937336
  Ewald energy   TEWEN  =      -355.39410472
  -Hartree energ DENC   =      -141.37072582
  -exchange      EXHF   =         0.00000000
  -V(xc)+E(xc)   XCENC  =       -20.65069456
  PAW double counting   =       631.30487516     -580.93181819
  entropy T*S    EENTRO =        -0.00000000
  eigenvalues    EBANDS =       -16.19532554
  atomic energy  EATOM  =       455.39862694
  Solvation  Ediel_sol  =         0.00000000
  ---------------------------------------------------
  free energy    TOTEN  =       -11.91979336 eV

  energy without entropy =      -11.91979336  energy(sigma->0) =      -11.91979336


--------------------------------------------------------------------------------------------------------




 average (electrostatic) potential at core
  the test charge radii are     0.5955  1.0714
  (the norm of the test charge is              1.0000)
       1-108.4532       2 -34.8734
 
 
 
 E-fermi :   3.6364     XC(G=0): -10.9722     alpha+bet :-13.2242


 k-point     1 :       0.1250    0.1250    0.1250
  band No.  band energies     occupation 
      1     -13.5730      2.00000
      2       2.4686      2.00000
      3       3.3152      2.00000
      4       3.3152      2.00000
      5       8.8337      0.00000
      6      17.4123      0.00000
      7      19.4288      0.00000
      8      19.4288      0.00000
      9      23.6792      0.00000
     10      23.6792      0.00000
     11      25.0177      0.00000
     12      27.4551      0.00000
     13      28.8862      0.00000
     14      28.8862      0.00000
     15      39.1506      0.00000
     16      41.0529      0.00000

 k-point     2 :       0.3750    0.1250    0.1250
  band No.  band energies     occupation 
      1     -12.9139      2.00000
      2       0.2962      2.00000
      3       2.4535      2.00000
      4       3.0169      2.00000
      5      11.2500      0.00000
      6      15.3506      0.00000
      7      18.7627      0.00000
      8      20.4304      0.00000
      9      22.2510      0.00000
     10      24.4818      0.00000
     11      26.6003      0.00000
     12      31.2614      0.00000
     13      32.5352      0.00000
     14      33.4104      0.00000
     15      35.7809      0.00000
     16      39.0743      0.00000

 k-point     3 :      -0.3750    0.1250    0.1250
  band No.  band energies     occupation 
      1     -12.4728      2.00000
      2      -0.8377      2.00000
      3       2.3024      2.00000
      4       2.6772      2.00000
      5      11.8372      0.00000
      6      15.5615      0.00000
      7      18.0521      0.00000
      8      19.8683      0.00000
      9      23.8583      0.00000
     10      26.1080      0.00000
     11      26.2041      0.00000
     12      32.4878      0.00000
     13      33.0840      0.00000
     14      33.4294      0.00000
     15      36.0108      0.00000
     16      37.7217      0.00000

 k-point     4 :      -0.1250    0.1250    0.1250
  band No.  band energies     occupation 
      1     -13.2060      2.00000
      2       1.1852      2.00000
      3       2.9445      2.00000
      4       2.9484      2.00000
      5      10.4224      0.00000
      6      15.5914      0.00000
      7      19.5568      0.00000
      8      20.0374      0.00000
      9      21.2128      0.00000
     10      25.0587      0.00000
     11      27.0580      0.00000
     12      30.1560      0.00000
     13      30.4408      0.00000
     14      31.1940      0.00000
     15      37.4160      0.00000
     16      39.1781      0.00000

 k-point     5 :       0.3750    0.3750    0.1250
  band No.  band energies     occupation 
      1     -12.6759      2.00000
      2       0.1097      2.00000
      3       2.2530      2.00000
      4       2.4862      2.00000
      5      12.3530      0.00000
      6      13.9950      0.00000
      7      17.3064      0.00000
      8      20.9363      0.00000
      9      21.3933      0.00000
     10      27.2393      0.00000
     11      30.3452      0.00000
     12      30.6140      0.00000
     13      32.5274      0.00000
     14      35.0192      0.00000
     15      36.6723      0.00000
     16      38.0884      0.00000

 k-point     6 :      -0.3750    0.3750    0.1250
  band No.  band energies     occupation 
      1     -12.2597      2.00000
      2      -0.0086      2.00000
      3       0.9919      2.00000
      4       2.0745      2.00000
      5      13.8672      0.00000
      6      14.9058      0.00000
      7      15.6977      0.00000
      8      19.7112      0.00000
      9      23.1567      0.00000
     10      26.6099      0.00000
     11      30.1733      0.00000
     12      31.5957      0.00000
     13      32.8637      0.00000
     14      36.5379      0.00000
     15      39.1094      0.00000
     16      41.3288      0.00000

 k-point     7 :      -0.1250    0.3750    0.1250
  band No.  band energies     occupation 
      1     -12.5187      2.00000
      2      -0.2119      2.00000
      3       1.7348      2.00000
      4       2.5756      2.00000
      5      12.7110      0.00000
      6      14.9049      0.00000
      7      17.0788      0.00000
      8      20.2742      0.00000
      9      22.8436      0.00000
     10      25.5181      0.00000
     11      29.0530      0.00000
     12      31.8448      0.00000
     13      32.4265      0.00000
     14      35.0912      0.00000
     15      35.7342      0.00000
     16      41.2357      0.00000

 k-point     8 :      -0.3750   -0.3750    0.1250
  band No.  band energies     occupation 
      1     -12.2964      2.00000
      2      -0.3732      2.00000
      3       1.7346      2.00000
      4       2.1916      2.00000
      5      12.9415      0.00000
      6      13.6241      0.00000
      7      16.1484      0.00000
      8      21.6473      0.00000
      9      21.6582      0.00000
     10      29.1270      0.00000
     11      29.5587      0.00000
     12      32.1415      0.00000
     13      32.8561      0.00000
     14      38.0049      0.00000
     15      38.3866      0.00000
     16      41.3176      0.00000

 k-point     9 :       0.3750    0.3750    0.3750
  band No.  band energies     occupation 
      1     -12.7122      2.00000
      2      -0.5672      2.00000
      3       2.8725      2.00000
      4       2.8725      2.00000
      5      11.0474      0.00000
      6      15.5669      0.00000
      7      19.6639      0.00000
      8      19.6639      0.00000
      9      24.2533      0.00000
     10      24.5932      0.00000
     11      24.5932      0.00000
     12      32.1079      0.00000
     13      33.4278      0.00000
     14      33.4278      0.00000
     15      37.0417      0.00000
     16      37.0417      0.00000

 k-point    10 :      -0.3750    0.3750    0.3750
  band No.  band energies     occupation 
      1     -12.3441      2.00000
      2      -0.2508      2.00000
      3       1.0979      2.00000
      4       2.5451      2.00000
      5      13.1900      0.00000
      6      15.3640      0.00000
      7      16.2701      0.00000
      8      20.5860      0.00000
      9      22.6698      0.00000
     10      25.6943      0.00000
     11      29.2732      0.00000
     12      31.8151      0.00000
     13      32.2378      0.00000
     14      35.5766      0.00000
     15      37.4613      0.00000
     16      40.3351      0.00000


--------------------------------------------------------------------------------------------------------


 soft charge-density along one line, spin component           1
         0         1         2         3         4         5         6         7         8         9
 total charge-density along one line
 
 pseudopotential strength for first ion, spin component:           1
 25.182  -0.005  -0.000  -0.000  -0.000   0.000   0.000   0.000
 -0.005   0.001  -0.000  -0.000  -0.000  -0.000  -0.000  -0.000
 -0.000  -0.000  -8.627   0.000   0.000   0.014   0.000   0.000
 -0.000  -0.000   0.000  -8.627   0.000   0.000   0.014   0.000
 -0.000  -0.000   0.000   0.000  -8.627   0.000   0.000   0.014
  0.000  -0.000   0.014   0.000   0.000   0.018   0.000   0.000
  0.000  -0.000   0.000   0.014   0.000   0.000   0.018   0.000
  0.000  -0.000   0.000   0.000   0.014   0.000   0.000   0.018
 total augmentation occupancy for first ion, spin component:           1
  1.787   2.154   0.000   0.000   0.000   0.000   0.000   0.000
  2.154   4.167   0.000   0.000   0.000   0.000   0.000   0.000
  0.000   0.000   1.498   0.000   0.000  -0.970  -0.000  -0.000
  0.000   0.000   0.000   1.498   0.000  -0.000  -0.970  -0.000
  0.000   0.000   0.000   0.000   1.498  -0.000  -0.000  -0.970
  0.000   0.000  -0.970  -0.000  -0.000   0.691   0.000   0.000
  0.000   0.000  -0.000  -0.970  -0.000   0.000   0.691   0.000
  0.000   0.000  -0.000  -0.000  -0.970   0.000   0.000   0.691


------------------------ aborting loop because EDIFF is reached ----------------------------------------


    CHARGE:  cpu time    0.0100: real time    0.0099
    FORLOC:  cpu time    0.0000: real time    0.0002
    FORNL :  cpu time    0.0070: real time    0.0069
    STRESS:  cpu time    0.0630: real time    0.0628
    FORCOR:  cpu time    0.0030: real time    0.0031
    FORHAR:  cpu time    0.0010: real time    0.0007
    MIXING:  cpu time    0.0010: real time    0.0005
    OFIELD:  cpu time    0.0000: real time    0.0000

  FORCE on cell =-STRESS in cart. coord.  units (eV):
  Direction    XX          YY          ZZ          XY          YZ          ZX
  --------------------------------------------------------------------------------------
  Alpha Z    15.91937    15.91937    15.91937
  Ewald    -118.46471  -118.46474  -118.46473     0.00000    -0.00002     0.00000
  Hartree    47.12071    47.12072    47.12071     0.00000     0.00001     0.00000
  E(xc)     -36.97426   -36.97425   -36.97426    -0.00000     0.00000    -0.00000
  Local     -88.70076   -88.70079   -88.70076    -0.00002    -0.00001    -0.00001
  n-local    -9.03486    -9.24075   -10.36668     0.23239     0.47430    -1.15372
  augment     0.84263     0.84264     0.84264    -0.00000    -0.00000    -0.00000
  Kinetic   185.87127   188.89432   194.73296     0.68037    -1.76564     4.00283
  Fock        0.00000     0.00000     0.00000     0.00000     0.00000     0.00000
  -------------------------------------------------------------------------------------
  Total       0.02838     0.02838     0.02838     0.00000     0.00000     0.00000
  in kB       2.37737     2.37737     2.37737     0.00000     0.00000     0.00000
  external pressure =        2.38 kB  Pullay stress =        0.00 kB


 VOLUME and BASIS-vectors are now :
 -----------------------------------------------------------------------------
  energy-cutoff  :     1000.00
  volume of cell :       19.13
      direct lattice vectors                 reciprocal lattice vectors
     3.001819000  0.000000000  0.000000000     0.333131345 -0.192333499 -0.136000318
     1.500910000  2.599652000  0.000000000     0.000000000  0.384666871 -0.136000352
     1.500910000  0.866551000  2.450975000     0.000000000  0.000000000  0.408000898

  length of vectors
     3.001819000  3.001819673  3.001819434     0.408000925  0.408000854  0.408000898


 FORCES acting on ions
    electron-ion (+dipol)            ewald-force                    non-local-force                 convergence-correction
 -----------------------------------------------------------------------------------------------
   0.751E-12 0.784E-12 0.377E-12   -.125E-14 0.936E-15 0.445E-15   -.432E-23 0.292E-23 0.492E-24   0.109E-14 0.777E-14 0.470E-14
   0.151E-14 -.200E-14 -.237E-14   0.194E-15 -.884E-15 -.477E-15   0.613E-24 0.364E-24 -.793E-25   0.277E-17 -.419E-16 -.126E-16
 -----------------------------------------------------------------------------------------------
   0.752E-12 0.782E-12 0.375E-12   -.105E-14 0.525E-16 -.315E-16   -.371E-23 0.328E-23 0.413E-24   0.109E-14 0.773E-14 0.468E-14
 
 
 POSITION                                       TOTAL-FORCE (eV/Angst)
 -----------------------------------------------------------------------------------
      3.00182      1.73310      1.22549         0.000000      0.000000      0.000000
      0.00000      0.00000      0.00000        -0.000000     -0.000000     -0.000000
 -----------------------------------------------------------------------------------
    total drift:                                0.000000      0.000000      0.000000


--------------------------------------------------------------------------------------------------------



  FREE ENERGIE OF THE ION-ELECTRON SYSTEM (eV)
  ---------------------------------------------------
  free  energy   TOTEN  =       -11.91979336 eV

  energy  without entropy=      -11.91979336  energy(sigma->0) =      -11.91979336
 


--------------------------------------------------------------------------------------------------------


    POTLOK:  cpu time    0.0060: real time    0.0068


--------------------------------------------------------------------------------------------------------


     LOOP+:  cpu time    1.2598: real time    1.3166
    4ORBIT:  cpu time    0.0000: real time    0.0000

 total amount of memory used by VASP on root node    35107. kBytes
========================================================================

   base      :      30000. kBytes
   nonl-proj :       2939. kBytes
   fftplans  :        320. kBytes
   grid      :       1605. kBytes
   one-center:         16. kBytes
   wavefun   :        227. kBytes
 
  
  
 General timing and accounting informations for this job:
 ========================================================
  
                  Total CPU time used (sec):        2.217
                            User time (sec):        1.810
                          System time (sec):        0.407
                         Elapsed time (sec):        2.571
  
                   Maximum memory used (kb):       44248.
                   Average memory used (kb):           0.
  
                          Minor page faults:        39046
                          Major page faults:            6
                 Voluntary context switches:          909
