# ['Ni']

18 atoms
1 atom types

    0.0000     2.5772 xlo xhi
    0.0000     4.4639 ylo yhi
    0.0000    37.8709 zlo zhi

    0.0000     0.0000    -0.0004 xy xz yz

Atoms

1 1     0.0000     0.0000     0.0000
2 1     1.2886     0.7440     2.1040
3 1     0.0000     1.4880     4.2079
4 1     1.2886     2.2319     0.0000
5 1     0.0000     2.9759     2.1040
6 1     1.2886     3.7199     4.2079
7 1     0.0000     0.0000     6.3118
8 1     1.2886     0.7440     8.4158
9 1     0.0000     1.4880    10.5197
10 1     1.2886     2.2319     6.3118
11 1     0.0000     2.9759     8.4158
12 1     1.2886     3.7199    10.5197
13 1     0.0000     0.0000    12.6236
14 1     1.2886     0.7440    14.7276
15 1     0.0000     1.4880    16.8315
16 1     1.2886     2.2319    12.6236
17 1     0.0000     2.9759    14.7276
18 1     1.2886     3.7199    16.8315
