Automatically generated mesh
      12
Reciprocal lattice
    0.12500000000000    0.12500000000000    0.12500000000000            96
    0.37500000000000    0.12500000000000    0.12500000000000           192
   -0.37500000000000    0.12500000000000    0.12500000000000           192
   -0.12500000000000    0.12500000000000    0.12500000000000            96
    0.37500000000000    0.37500000000000    0.12500000000000            96
   -0.37500000000000    0.37500000000000    0.12500000000000            96
    0.12500000000000    0.12500000000000    0.37500000000000            96
    0.37500000000000    0.12500000000000    0.37500000000000           192
   -0.37500000000000    0.12500000000000    0.37500000000000           192
   -0.12500000000000    0.12500000000000    0.37500000000000            96
    0.37500000000000    0.37500000000000    0.37500000000000            96
   -0.37500000000000    0.37500000000000    0.37500000000000            96
