LAMMPS (11 Aug 2017)
Reading data file ...
  triclinic box = (0 0 0) to (2.8005 2.8005 2.8005) with tilt (0 0 0)
  1 by 1 by 1 MPI processor grid
  reading atoms ...
  2 atoms
2 atoms in group Ni
Neighbor list info ...
  update every 1 steps, delay 0 steps, check yes
  max neighbors/atom: 2000, page size: 100000
  master list distance cutoff = 5.64464
  ghost atom cutoff = 5.64464
  binsize = 2.82232, bins = 1 1 1
  1 neighbor lists, perpetual/occasional/extra = 1 0 0
  (1) pair eam/alloy, perpetual
      attributes: half, newton on
      pair build: half/bin/newton/tri
      stencil: half/bin/3d/newton/tri
      bin: standard
Setting up cg style minimization ...
  Unit style    : metal
  Current step  : 0
WARNING: Energy due to 3 extra global DOFs will be included in minimizer energies
Per MPI rank memory allocation (min/avg/max) = 4.24 | 4.24 | 4.24 Mbytes
Step PotEng Xhi Xlo Yhi Ylo Zhi Xy Xz Yz Press Pxx Pyy Pzz Pxy Pxz Pyz c_eatoms 
       0  0.048258376       2.8005            0       2.8005            0       2.8005            0            0            0    287219.61    287219.61    287219.61    287219.61 0.0068732473 0.0068732473 0.0068732473  0.048258376 
      10 -0.062387232    2.8145025   -0.0140025    2.8145025   -0.0140025    2.8145025            0            0            0    246575.97    246575.97    246575.97    246575.97 0.0031696317 0.0031696317 0.0031696317 -0.062387232 
      20  -0.15915521     2.828505    -0.028005     2.828505    -0.028005     2.828505            0            0            0    211131.09    211131.09    211131.09    211131.09 0.0026796447 0.0026796448 0.0026796448  -0.15915521 
      30  -0.24353155    2.8425075   -0.0420075    2.8425075   -0.0420075    2.8425075            0            0            0    180231.78    180231.78    180231.78    180231.78 0.0022528616 0.0022528616 0.0022528616  -0.24353155 
      40  -0.31684769      2.85651     -0.05601      2.85651     -0.05601      2.85651            0            0            0    153308.15    153308.15    153308.15    153308.15 0.0018959732 0.0018959732 0.0018959732  -0.31684769 
      50  -0.38029673    2.8705125   -0.0700125    2.8705125   -0.0700125    2.8705125            0            0            0    129862.17    129862.17    129862.17    129862.17  0.001591534  0.001591534  0.001591534  -0.38029673 
      60  -0.43494774     2.884515    -0.084015     2.884515    -0.084015     2.884515            0            0            0    109458.53    109458.53    109458.53    109458.53 0.0013318613 0.0013318613 0.0013318613  -0.43494774 
      70  -0.48175881    2.8985175   -0.0980175    2.8985175   -0.0980175    2.8985175            0            0            0    91716.634    91716.634    91716.634    91716.634  0.001106504 0.0011065039 0.0011065039  -0.48175881 
      80  -0.52158851      2.91252     -0.11202      2.91252     -0.11202      2.91252            0            0            0    76303.631    76303.631    76303.631    76303.631 0.00091870917 0.00091870917 0.00091870918  -0.52158851 
      90  -0.55520635    2.9265225   -0.1260225    2.9265225   -0.1260225    2.9265225            0            0            0     62928.37     62928.37     62928.37     62928.37 0.00075890142 0.00075890143 0.00075890142  -0.55520635 
     100    -0.583302     2.940525    -0.140025     2.940525    -0.140025     2.940525            0            0            0    51336.118    51336.118    51336.118    51336.118 0.00062299071 0.00062299071 0.00062299072    -0.583302 
     110  -0.60649363    2.9545275   -0.1540275    2.9545275   -0.1540275    2.9545275            0            0            0    41303.961    41303.961    41303.961    41303.961 0.00050556502 0.00050556502 0.00050556503  -0.60649363 
     120  -0.62533538      2.96853     -0.16803      2.96853     -0.16803      2.96853            0            0            0    32636.799    32636.799    32636.799    32636.799 0.00040767271 0.00040767271 0.00040767272  -0.62533538 
     130  -0.64032401    2.9825325   -0.1820325    2.9825325   -0.1820325    2.9825325            0            0            0    25163.842    25163.842    25163.842    25163.842 0.00032434934 0.00032434933 0.00032434933  -0.64032401 
     140  -0.65190487     2.996535    -0.196035     2.996535    -0.196035     2.996535            0            0            0    18735.563    18735.563    18735.563    18735.563 0.00025322653 0.00025322654 0.00025322654  -0.65190487 
     150  -0.66047732    3.0105375   -0.2100375    3.0105375   -0.2100375    3.0105375            0            0            0    13221.032    13221.032    13221.032    13221.032 0.00019140102  0.000191401  0.000191401  -0.66047732 
     160  -0.66639947      3.02454     -0.22404      3.02454     -0.22404      3.02454            0            0            0    8505.5896    8505.5896    8505.5896    8505.5896 0.00013831909 0.00013831911 0.00013831911  -0.66639947 
     170   -0.6699925    3.0385425   -0.2380425    3.0385425   -0.2380425    3.0385425            0            0            0    4488.8191    4488.8191    4488.8191    4488.8191 9.023847e-05 9.0238488e-05 9.0238486e-05   -0.6699925 
     180  -0.67149649     3.052545    -0.252045     3.052545    -0.252045     3.052545            0            0            0    859.80882    859.80882    859.80882    859.80882 3.8378518e-05 3.8378517e-05 3.8378517e-05  -0.67149649 
     188  -0.67155929    3.0561358  -0.25563579    3.0561358  -0.25563579    3.0561358            0            0            0 4.4992157e-11 4.4992157e-11 4.5298226e-11 4.4686088e-11 -3.060691e-13            0            0  -0.67155929 
Loop time of 0.00212502 on 1 procs for 188 steps with 2 atoms

100.0% CPU use with 1 MPI tasks x no OpenMP threads

Minimization stats:
  Stopping criterion = quadratic factors are zero
  Energy initial, next-to-last, final = 
       0.0482583759097     -0.67155928515     -0.67155928515
  Force two-norm initial, final = 6.81979 1.55934e-15
  Force max component initial, final = 3.93741 8.68415e-16
  Final line search alpha, max atom move = 1 8.68415e-16
  Iterations, force evaluations = 188 194

MPI task timing breakdown:
Section |  min time  |  avg time  |  max time  |%varavg| %total
---------------------------------------------------------------
Pair    | 0.00081301 | 0.00081301 | 0.00081301 |   0.0 | 38.26
Neigh   | 9.0599e-06 | 9.0599e-06 | 9.0599e-06 |   0.0 |  0.43
Comm    | 0.00028419 | 0.00028419 | 0.00028419 |   0.0 | 13.37
Output  | 0.00016499 | 0.00016499 | 0.00016499 |   0.0 |  7.76
Modify  | 0          | 0          | 0          |   0.0 |  0.00
Other   |            | 0.0008538  |            |       | 40.18

Nlocal:    2 ave 2 max 2 min
Histogram: 1 0 0 0 0 0 0 0 0 0
Nghost:    187 ave 187 max 187 min
Histogram: 1 0 0 0 0 0 0 0 0 0
Neighs:    58 ave 58 max 58 min
Histogram: 1 0 0 0 0 0 0 0 0 0

Total # of neighbors = 58
Ave neighs/atom = 29
Neighbor list builds = 1
Dangerous builds = 0
pypospack:output_section:begin
tot_energy = -0.671559285149615
num_atoms = 2
a11 = 3.31177157154107
a22 = 3.31177157154107
a33 = 3.31177157154107
a12 = 0
a13 = 0
a23 = 0
tot_press = 4.49921573520534e-11
pxx = 4.49921573520534e-11
pyy = 4.52982264496865e-11
pzz = 4.46860882544204e-11
pxy = -3.06069097633017e-13
pxz = 0
pyz = 0
pypospack:output_section:done
pypospack:lammps_sim:done
Total wall time: 0:00:00
