# ['Mg', 'O']

216 atoms
2 atom types

    0.0000    14.1420 xlo xhi
    0.0000    14.1420 ylo yhi
    0.0000    14.1420 zlo zhi

    0.0000     0.0000     0.0000 xy xz yz

Atoms

1 1     1.0000     2.3570     2.3570     0.0000
2 1     1.0000     2.3570     0.0000     2.3570
3 1     1.0000     0.0000     0.0000     0.0000
4 1     1.0000     0.0000     2.3570     2.3570
5 1     1.0000     2.3570     2.3570     4.7140
6 1     1.0000     2.3570     0.0000     7.0710
7 1     1.0000     0.0000     0.0000     4.7140
8 1     1.0000     0.0000     2.3570     7.0710
9 1     1.0000     2.3570     2.3570     9.4280
10 1     1.0000     2.3570     0.0000    11.7850
11 1     1.0000     0.0000     0.0000     9.4280
12 1     1.0000     0.0000     2.3570    11.7850
13 1     1.0000     2.3570     7.0710     0.0000
14 1     1.0000     2.3570     4.7140     2.3570
15 1     1.0000     0.0000     4.7140     0.0000
16 1     1.0000     0.0000     7.0710     2.3570
17 1     1.0000     2.3570     7.0710     4.7140
18 1     1.0000     2.3570     4.7140     7.0710
19 1     1.0000     0.0000     4.7140     4.7140
20 1     1.0000     0.0000     7.0710     7.0710
21 1     1.0000     2.3570     7.0710     9.4280
22 1     1.0000     2.3570     4.7140    11.7850
23 1     1.0000     0.0000     4.7140     9.4280
24 1     1.0000     0.0000     7.0710    11.7850
25 1     1.0000     2.3570    11.7850     0.0000
26 1     1.0000     2.3570     9.4280     2.3570
27 1     1.0000     0.0000     9.4280     0.0000
28 1     1.0000     0.0000    11.7850     2.3570
29 1     1.0000     2.3570    11.7850     4.7140
30 1     1.0000     2.3570     9.4280     7.0710
31 1     1.0000     0.0000     9.4280     4.7140
32 1     1.0000     0.0000    11.7850     7.0710
33 1     1.0000     2.3570    11.7850     9.4280
34 1     1.0000     2.3570     9.4280    11.7850
35 1     1.0000     0.0000     9.4280     9.4280
36 1     1.0000     0.0000    11.7850    11.7850
37 1     1.0000     7.0710     2.3570     0.0000
38 1     1.0000     7.0710     0.0000     2.3570
39 1     1.0000     4.7140     0.0000     0.0000
40 1     1.0000     4.7140     2.3570     2.3570
41 1     1.0000     7.0710     2.3570     4.7140
42 1     1.0000     7.0710     0.0000     7.0710
43 1     1.0000     4.7140     0.0000     4.7140
44 1     1.0000     4.7140     2.3570     7.0710
45 1     1.0000     7.0710     2.3570     9.4280
46 1     1.0000     7.0710     0.0000    11.7850
47 1     1.0000     4.7140     0.0000     9.4280
48 1     1.0000     4.7140     2.3570    11.7850
49 1     1.0000     7.0710     7.0710     0.0000
50 1     1.0000     7.0710     4.7140     2.3570
51 1     1.0000     4.7140     4.7140     0.0000
52 1     1.0000     4.7140     7.0710     2.3570
53 1     1.0000     7.0710     7.0710     4.7140
54 1     1.0000     7.0710     4.7140     7.0710
55 1     1.0000     4.7140     4.7140     4.7140
56 1     1.0000     4.7140     7.0710     7.0710
57 1     1.0000     7.0710     7.0710     9.4280
58 1     1.0000     7.0710     4.7140    11.7850
59 1     1.0000     4.7140     4.7140     9.4280
60 1     1.0000     4.7140     7.0710    11.7850
61 1     1.0000     7.0710    11.7850     0.0000
62 1     1.0000     7.0710     9.4280     2.3570
63 1     1.0000     4.7140     9.4280     0.0000
64 1     1.0000     4.7140    11.7850     2.3570
65 1     1.0000     7.0710    11.7850     4.7140
66 1     1.0000     7.0710     9.4280     7.0710
67 1     1.0000     4.7140     9.4280     4.7140
68 1     1.0000     4.7140    11.7850     7.0710
69 1     1.0000     7.0710    11.7850     9.4280
70 1     1.0000     7.0710     9.4280    11.7850
71 1     1.0000     4.7140     9.4280     9.4280
72 1     1.0000     4.7140    11.7850    11.7850
73 1     1.0000    11.7850     2.3570     0.0000
74 1     1.0000    11.7850     0.0000     2.3570
75 1     1.0000     9.4280     0.0000     0.0000
76 1     1.0000     9.4280     2.3570     2.3570
77 1     1.0000    11.7850     2.3570     4.7140
78 1     1.0000    11.7850     0.0000     7.0710
79 1     1.0000     9.4280     0.0000     4.7140
80 1     1.0000     9.4280     2.3570     7.0710
81 1     1.0000    11.7850     2.3570     9.4280
82 1     1.0000    11.7850     0.0000    11.7850
83 1     1.0000     9.4280     0.0000     9.4280
84 1     1.0000     9.4280     2.3570    11.7850
85 1     1.0000    11.7850     7.0710     0.0000
86 1     1.0000    11.7850     4.7140     2.3570
87 1     1.0000     9.4280     4.7140     0.0000
88 1     1.0000     9.4280     7.0710     2.3570
89 1     1.0000    11.7850     7.0710     4.7140
90 1     1.0000    11.7850     4.7140     7.0710
91 1     1.0000     9.4280     4.7140     4.7140
92 1     1.0000     9.4280     7.0710     7.0710
93 1     1.0000    11.7850     7.0710     9.4280
94 1     1.0000    11.7850     4.7140    11.7850
95 1     1.0000     9.4280     4.7140     9.4280
96 1     1.0000     9.4280     7.0710    11.7850
97 1     1.0000    11.7850    11.7850     0.0000
98 1     1.0000    11.7850     9.4280     2.3570
99 1     1.0000     9.4280     9.4280     0.0000
100 1     1.0000     9.4280    11.7850     2.3570
101 1     1.0000    11.7850    11.7850     4.7140
102 1     1.0000    11.7850     9.4280     7.0710
103 1     1.0000     9.4280     9.4280     4.7140
104 1     1.0000     9.4280    11.7850     7.0710
105 1     1.0000    11.7850    11.7850     9.4280
106 1     1.0000    11.7850     9.4280    11.7850
107 1     1.0000     9.4280     9.4280     9.4280
108 1     1.0000     9.4280    11.7850    11.7850
109 2     1.0000     0.0000     2.3570     0.0000
110 2     1.0000     2.3570     0.0000     0.0000
111 2     1.0000     2.3570     2.3570     2.3570
112 2     1.0000     0.0000     0.0000     2.3570
113 2     1.0000     0.0000     2.3570     4.7140
114 2     1.0000     2.3570     0.0000     4.7140
115 2     1.0000     2.3570     2.3570     7.0710
116 2     1.0000     0.0000     0.0000     7.0710
117 2     1.0000     0.0000     2.3570     9.4280
118 2     1.0000     2.3570     0.0000     9.4280
119 2     1.0000     2.3570     2.3570    11.7850
120 2     1.0000     0.0000     0.0000    11.7850
121 2     1.0000     0.0000     7.0710     0.0000
122 2     1.0000     2.3570     4.7140     0.0000
123 2     1.0000     2.3570     7.0710     2.3570
124 2     1.0000     0.0000     4.7140     2.3570
125 2     1.0000     0.0000     7.0710     4.7140
126 2     1.0000     2.3570     4.7140     4.7140
127 2     1.0000     2.3570     7.0710     7.0710
128 2     1.0000     0.0000     4.7140     7.0710
129 2     1.0000     0.0000     7.0710     9.4280
130 2     1.0000     2.3570     4.7140     9.4280
131 2     1.0000     2.3570     7.0710    11.7850
132 2     1.0000     0.0000     4.7140    11.7850
133 2     1.0000     0.0000    11.7850     0.0000
134 2     1.0000     2.3570     9.4280     0.0000
135 2     1.0000     2.3570    11.7850     2.3570
136 2     1.0000     0.0000     9.4280     2.3570
137 2     1.0000     0.0000    11.7850     4.7140
138 2     1.0000     2.3570     9.4280     4.7140
139 2     1.0000     2.3570    11.7850     7.0710
140 2     1.0000     0.0000     9.4280     7.0710
141 2     1.0000     0.0000    11.7850     9.4280
142 2     1.0000     2.3570     9.4280     9.4280
143 2     1.0000     2.3570    11.7850    11.7850
144 2     1.0000     0.0000     9.4280    11.7850
145 2     1.0000     4.7140     2.3570     0.0000
146 2     1.0000     7.0710     0.0000     0.0000
147 2     1.0000     7.0710     2.3570     2.3570
148 2     1.0000     4.7140     0.0000     2.3570
149 2     1.0000     4.7140     2.3570     4.7140
150 2     1.0000     7.0710     0.0000     4.7140
151 2     1.0000     7.0710     2.3570     7.0710
152 2     1.0000     4.7140     0.0000     7.0710
153 2     1.0000     4.7140     2.3570     9.4280
154 2     1.0000     7.0710     0.0000     9.4280
155 2     1.0000     7.0710     2.3570    11.7850
156 2     1.0000     4.7140     0.0000    11.7850
157 2     1.0000     4.7140     7.0710     0.0000
158 2     1.0000     7.0710     4.7140     0.0000
159 2     1.0000     7.0710     7.0710     2.3570
160 2     1.0000     4.7140     4.7140     2.3570
161 2     1.0000     4.7140     7.0710     4.7140
162 2     1.0000     7.0710     4.7140     4.7140
163 2     1.0000     4.7140     4.7140     7.0710
164 2     1.0000     4.7140     7.0710     9.4280
165 2     1.0000     7.0710     4.7140     9.4280
166 2     1.0000     7.0710     7.0710    11.7850
167 2     1.0000     4.7140     4.7140    11.7850
168 2     1.0000     4.7140    11.7850     0.0000
169 2     1.0000     7.0710     9.4280     0.0000
170 2     1.0000     7.0710    11.7850     2.3570
171 2     1.0000     4.7140     9.4280     2.3570
172 2     1.0000     4.7140    11.7850     4.7140
173 2     1.0000     7.0710     9.4280     4.7140
174 2     1.0000     7.0710    11.7850     7.0710
175 2     1.0000     4.7140     9.4280     7.0710
176 2     1.0000     4.7140    11.7850     9.4280
177 2     1.0000     7.0710     9.4280     9.4280
178 2     1.0000     7.0710    11.7850    11.7850
179 2     1.0000     4.7140     9.4280    11.7850
180 2     1.0000     9.4280     2.3570     0.0000
181 2     1.0000    11.7850     0.0000     0.0000
182 2     1.0000    11.7850     2.3570     2.3570
183 2     1.0000     9.4280     0.0000     2.3570
184 2     1.0000     9.4280     2.3570     4.7140
185 2     1.0000    11.7850     0.0000     4.7140
186 2     1.0000    11.7850     2.3570     7.0710
187 2     1.0000     9.4280     0.0000     7.0710
188 2     1.0000     9.4280     2.3570     9.4280
189 2     1.0000    11.7850     0.0000     9.4280
190 2     1.0000    11.7850     2.3570    11.7850
191 2     1.0000     9.4280     0.0000    11.7850
192 2     1.0000     9.4280     7.0710     0.0000
193 2     1.0000    11.7850     4.7140     0.0000
194 2     1.0000    11.7850     7.0710     2.3570
195 2     1.0000     9.4280     4.7140     2.3570
196 2     1.0000     9.4280     7.0710     4.7140
197 2     1.0000    11.7850     4.7140     4.7140
198 2     1.0000    11.7850     7.0710     7.0710
199 2     1.0000     9.4280     4.7140     7.0710
200 2     1.0000     9.4280     7.0710     9.4280
201 2     1.0000    11.7850     4.7140     9.4280
202 2     1.0000    11.7850     7.0710    11.7850
203 2     1.0000     9.4280     4.7140    11.7850
204 2     1.0000     9.4280    11.7850     0.0000
205 2     1.0000    11.7850     9.4280     0.0000
206 2     1.0000    11.7850    11.7850     2.3570
207 2     1.0000     9.4280     9.4280     2.3570
208 2     1.0000     9.4280    11.7850     4.7140
209 2     1.0000    11.7850     9.4280     4.7140
210 2     1.0000    11.7850    11.7850     7.0710
211 2     1.0000     9.4280     9.4280     7.0710
212 2     1.0000     9.4280    11.7850     9.4280
213 2     1.0000    11.7850     9.4280     9.4280
214 2     1.0000    11.7850    11.7850    11.7850
215 2     1.0000     9.4280     9.4280    11.7850
216 2     1.0000    10.6065    10.6065    10.6065
