LAMMPS (11 Aug 2017)
# ---- initialize simulations
clear
units metal
dimension 3
boundary p p p
atom_style atomic
atom_modify map array
# ---- create atoms
read_data /home/sullberg/repos/pypospack/examples/Ni__eam__born_exp_rose/01_preconditioning_3.5NN/rank_48/Ni_dia.lmps_min_all/lammps.structure
  triclinic box = (0 0 0) to (4.8791 4.8791 4.8791) with tilt (0 0 0)
  1 by 1 by 1 MPI processor grid
  reading atoms ...
  8 atoms
# ---- define interatomic potential
include potential.mod
mass 1 58.6934

group Ni type 1
8 atoms in group Ni

pair_style eam/alloy
pair_coeff * * /home/sullberg/repos/pypospack/examples/Ni__eam__born_exp_rose/01_preconditioning_3.5NN/rank_48/Ni_dia.lmps_min_all/Ni.eam.alloy Ni

neighbor 1.0 bin
neigh_modify every 1 delay 0 check yes
# ---- define settings
compute eng all pe/atom
compute eatoms all reduce sum c_eng
# ---- run minimization
reset_timestep 0
fix 1 all box/relax aniso 0.0 vmax 0.001
thermo 10
thermo_style custom step pe xhi xlo yhi ylo zhi xy xz yz press pxx pyy pzz pxy pxz pyz c_eatoms
min_style cg
minimize 1e-25 1e-25 5000 10000
Neighbor list info ...
  update every 1 steps, delay 0 steps, check yes
  max neighbors/atom: 2000, page size: 100000
  master list distance cutoff = 11
  ghost atom cutoff = 11
  binsize = 5.5, bins = 1 1 1
  1 neighbor lists, perpetual/occasional/extra = 1 0 0
  (1) pair eam/alloy, perpetual
      attributes: half, newton on
      pair build: half/bin/newton/tri
      stencil: half/bin/3d/newton/tri
      bin: standard
Per MPI rank memory allocation (min/avg/max) = 4.276 | 4.276 | 4.276 Mbytes
Step PotEng Xhi Xlo Yhi Ylo Zhi Xy Xz Yz Press Pxx Pyy Pzz Pxy Pxz Pyz c_eatoms 
       0   -23.211442       4.8791            0       4.8791            0       4.8791            0            0            0   -17939.454   -17939.454   -17939.454   -17939.454   -22.148208   -22.148208   -22.148208   -23.211442 
      10   -23.226401    4.8606915  0.018408474    4.8606915  0.018408474    4.8606915            0            0            0  0.008734058 0.0087340583 0.0087340576  0.008734058    4.9385612    4.9385612    4.9385612   -23.226401 
      20   -23.983151    4.8616579  0.017442057    4.8608265  0.018273547     4.861279            0            0            0   -20997.784   -20868.715   -21134.705   -20989.932    56983.415    56986.811    56980.577   -23.983151 
      30   -25.420536    4.8532212  0.025878773    4.8510651  0.028034908    4.8522386            0            0            0   -51470.302   -51286.405   -51665.439   -51459.061    137697.03       137774    137632.58   -25.420536 
      40    -25.95767    4.8290706  0.050029357    4.8266696  0.052430408    4.8279765            0            0            0     -35599.8   -35392.194   -35820.122   -35587.084    135642.01    135731.87     135566.8    -25.95767 
      50   -26.637555    4.8050981  0.074001858    4.8022741  0.076825908    4.8038115            0            0            0   -20118.451   -19882.162   -20369.266   -20103.924    127371.11    127481.23    127278.96   -26.637555 
      60   -27.611685     4.781654  0.097445979    4.7778786   0.10122141    4.7799348            0            0            0   -8654.6925   -8381.9353   -8944.4129   -8637.7292    106538.09    106689.18    106411.77   -27.611685 
      70    -28.90424    4.7598748   0.11922522    4.7534831   0.12561691    4.7569696            0            0            0   -2948.9798    -2673.015   -3243.1072   -2930.8171    70846.136    71102.747    70632.117    -28.90424 
      80   -30.326099    4.7389949   0.14010512    4.7300524   0.14904762    4.7349775            0            0            0    277.81375    95.652943    470.83277    266.95555    33358.641    33681.039    33095.484   -30.326099 
      90    -30.70842    4.7314349   0.14766513    4.7312952   0.14780484    4.7313816            0            0            0   -4347.6866   -4337.5497   -4358.4483   -4347.0618    11706.366    11707.819    11706.326    -30.70842 
     100    -30.79432    4.7265511   0.15254887     4.726815   0.15228504    4.7266833            0            0            0    1195.1805    1192.3621    1197.9932    1195.1861    3992.1192     4026.727    3967.0725    -30.79432 
     110   -30.882348    4.7240899   0.15501011    4.7307912   0.14830875    4.7278813            0            0            0   -3156.7836   -3163.6928    -3249.178   -3057.4801    1824.6751    2822.3175    2496.0365   -30.882348 
     120   -31.288743    4.7148945   0.16420552    4.7233256   0.15577437    4.7263021            0            0            0   -4716.5134   -4968.4927   -4753.4121   -4427.6355   -1392.9598    2535.6463     2299.964   -31.288743 
     130   -31.957836    4.6985967   0.18050326    4.7106348   0.16846521    4.7207713            0            0            0   -3762.3572   -4116.3416   -3893.3821    -3277.348   -3261.9453    6621.9577    5382.1191   -31.957836 
     140   -33.060796    4.6742012   0.20489876    4.6900274   0.18907263    4.7100921            0            0            0   -539.08961   -995.37763   -660.04356    38.152359   -6655.7862    13698.642    10109.525   -33.060796 
     150   -34.236622    4.6498057   0.22929426    4.6734293   0.20567074    4.7028691            0            0            0   -1999.5139   -2784.7596   -1905.9255   -1307.8565    -10315.51    20516.605    14339.145   -34.236622 
     160   -34.954398    4.6272495   0.25185054    4.6653783    0.2137217    4.7014774            0            0            0    17.805868   -1005.4254     335.2555    723.58753   -10893.774     22726.66    15133.807   -34.954398 
     170   -35.343908    4.6071609   0.27193906    4.6650869    0.2140131    4.7053155            0            0            0    611.88162   -408.67528    1019.1087    1225.2114   -7748.1289    21356.856    12481.712   -35.343908 
     180   -35.540796    4.5910832   0.28801675    4.6682457   0.21085435    4.7102718            0            0            0    758.04759   -136.51513    1174.3329     1236.325   -3895.4305    19139.237    8899.8281   -35.540796 
     190   -35.656647    4.5780224    0.3010776    4.6725877   0.20651229    4.7147292            0            0            0    787.45215    67.686097    1171.0492    1123.6211   -1119.0825    17018.636    5569.4988   -35.656647 
     200   -35.728955    4.5675177    0.3115823    4.6771033    0.2019967    4.7179052            0            0            0    1132.2237    610.36017    1462.3936    1323.9174    341.99472    15054.601    2778.7334   -35.728955 
     210   -35.773953     4.559512   0.31958803     4.681731   0.19736902    4.7197572            0            0            0    1381.6424    1032.0141    1667.9317    1444.9815    833.85042    13188.684    636.96923   -35.773953 
     220   -35.803483    4.5531183    0.3259817    4.6867191   0.19238089     4.720036            0            0            0    1742.2266    1536.7842    2002.1937    1687.7018    793.99176    11302.867   -883.85418   -35.803483 
     230   -35.828048    4.5472408   0.33185925    4.6934776   0.18562242    4.7180483            0            0            0    2202.8826    2110.3384    2469.3199    2028.9893    509.57817    9093.8129   -1856.3459   -35.828048 
     240   -35.853015    4.5421109   0.33698908    4.7026433   0.17645673    4.7130033            0            0            0    2511.8632    2462.4266     2840.026    2233.1371    264.20489    6832.2372   -2141.3166   -35.853015 
     250   -35.878543     4.537941   0.34115898     4.712226   0.16687404    4.7067747            0            0            0    2608.8819    2545.1897    3026.5939    2254.8622    162.60167     5146.221   -2114.6068   -35.878543 
     260   -35.907293    4.5339059   0.34519408    4.7222343   0.15686565    4.7002398            0            0            0    2434.6292    2325.9705    2958.7105    2019.2066    110.88797    3818.8417   -2066.8198   -35.907293 
     270   -35.937981    4.5296331   0.34946685      4.73167   0.14742997    4.6937613            0            0            0    2891.5803    2764.8666    3480.6279    2429.2465    82.169491    2814.4594   -2043.4046   -35.937981 
     280   -35.974195    4.5253251   0.35377486    4.7419962   0.13710385    4.6874408            0            0            0    2410.6574    2209.3121    3114.0878    1908.5724    62.195607    1967.1521   -2038.1515   -35.974195 
     290   -36.014453    4.5205909   0.35850909    4.7521585   0.12694155    4.6811786            0            0            0    2318.7632    2062.6592    3103.8705      1789.76    47.965043    1300.6755   -2053.0509   -36.014453 
     300   -36.058174    4.5156758    0.3634242    4.7620962   0.11700375    4.6752653            0            0            0    2217.4023    1909.2607     3069.124    1673.8222    37.564311    792.31389   -2082.1236   -36.058174 
     310   -36.108127    4.5103045   0.36879548    4.7723515    0.1067485    4.6693985            0            0            0    2108.2585    1749.4568    3014.4942    1560.8246    29.435231    394.08501   -2123.3996   -36.108127 
     320   -36.163217    4.5046254   0.37447462    4.7825831  0.096516868    4.6637727            0            0            0    2034.8907    1632.7921    2978.3004    1493.5795    23.145382    106.61511   -2172.7195   -36.163217 
     330   -36.221971    4.4988148   0.38028515    4.7925147  0.086585282    4.6585148            0            0            0    1980.6627    1547.7339    2941.2114    1453.0429    18.287045   -81.450409   -2224.7872   -36.221971 
     340   -36.285976    4.4927564   0.38634361    4.8024461  0.076653888    4.6534322            0            0            0       1913.4    1467.4397    2868.7062    1404.0542    14.368976   -192.98977   -2275.9545   -36.285976 
     350   -36.353492    4.4866544   0.39244558    4.8121619   0.06693812    4.6485641            0            0            0    1847.9027    1411.6008       2775.1    1357.0073     11.24758   -240.35917   -2318.9675   -36.353492 
     360   -36.422199    4.4807395   0.39836048    4.8214812  0.057618805    4.6438932            0            0            0    1795.7045    1394.5516     2673.264    1319.2978    8.6916744    -240.6694   -2345.3558   -36.422199 
     370   -36.491477    4.4750856    0.4040144    4.8305498  0.048550234    4.6392243            0            0            0    1751.7801    1412.6255    2559.0261    1283.6887    6.5143272   -210.09623   -2345.6376   -36.491477 
     380   -36.557151    4.4700242   0.40907582    4.8391097   0.03999027    4.6345439            0            0            0    1721.9134    1468.2445    2441.8114    1255.6843    4.6530916   -163.62926     -2309.75   -36.557151 
     390   -36.618261    4.4656389   0.41346107    4.8474106  0.031689371    4.6296213            0            0            0    1702.2596    1547.6978    2324.4073    1234.6736    3.0480077    -112.7485   -2226.1786   -36.618261 
     400   -36.671019    4.4621537   0.41694628    4.8553053  0.023794718    4.6244267            0            0            0    1756.4084    1704.7939    2273.3566    1291.0748    1.7837451   -68.195732   -2087.6498   -36.671019 
     410   -36.713604    4.4595844   0.41951563    4.8628043  0.016295691    4.6188852            0            0            0    1948.0402    1999.7574     2347.267    1497.0963   0.89817637   -35.412836   -1891.6699   -36.713604 
     420   -36.747302    4.4578973   0.42120273    4.8704945 0.0086054989    4.6127193            0            0            0    2011.9496    2132.7381    2306.6945    1596.4163    0.3462297   -14.116054   -1623.2424   -36.747302 
     430   -36.772714    4.4569987   0.42210129    4.8790546 4.5370714e-05    4.6054029            0            0            0    1945.6702    2098.7682    2139.4635    1598.7788  0.076768179   -3.1709502   -1254.6523   -36.772714 
     440    -36.79059    4.4568695   0.42223047    4.8925935 -0.013493516    4.5974742            0            0            0    -1865.091   -616.58445   -2330.2317   -2648.4569 0.0035687037 -0.097425664   -693.34426    -36.79059 
     450   -36.794416    4.4576282   0.42147184    4.8943664 -0.015266373    4.5901644            0            0            0    2384.3048    1518.0742     2847.172    2787.6681 0.00060239722 -0.0097421856    -457.5013   -36.794416 
     460   -36.797721    4.4591741   0.41992587     4.902332 -0.023231975    4.5838834            0            0            0    227.07833   -1399.4357    989.86407    1090.8066 -4.2316364e-05 -0.00057707192   -118.28602   -36.797721 
     470   -36.798453     4.458075   0.42102495    4.9074788 -0.028378767    4.5803919            0            0            0    380.90076   -285.97999    1010.9083    417.77393 8.0265953e-06 4.2071552e-05   -2.1876336   -36.798453 
     480   -36.798499    4.4575237   0.42157632    4.9098666 -0.030766574    4.5792831            0            0            0    41.174656   0.74452081    102.76232    20.017127 6.7627603e-05 -7.5696008e-05  -0.39166648   -36.798499 
     490   -36.798499    4.4574937   0.42160631     4.910102  -0.03100198    4.5791611            0            0            0   -3.6884151   -1.5035231   -4.4800618   -5.0816603 -4.388926e-07 -4.7029242e-07   -0.9650681   -36.798499 
     500   -36.798499    4.4574952   0.42160477    4.9101244 -0.031024405    4.5791387            0            0            0   -2.5187409   -2.1524185   -2.4996391   -2.9041652 3.041933e-08 -5.5200367e-08   0.26063904   -36.798499 
     510   -36.798499    4.4574948   0.42160517    4.9101284 -0.031028352    4.5791331            0            0            0  -0.16893149  -0.19798379  -0.23504569 -0.073764978 1.1893052e-09 5.9142646e-09  0.020443822   -36.798499 
     520   -36.798499    4.4574947   0.42160527    4.9101281 -0.031028061    4.5791333            0            0            0 8.2654176e-05 0.0038869638 -0.0016867016 -0.0019522997 -3.3207467e-11 -2.2052572e-11 -0.00090432545   -36.798499 
     530   -36.798499    4.4574947   0.42160526     4.910128 -0.031028013    4.5791333            0            0            0 0.00011713237 -0.00042598848 0.0003358491 0.0004415365 -9.8403742e-11 -1.3424099e-10 -5.302891e-06   -36.798499 
     540   -36.798499    4.4574947   0.42160526     4.910128 -0.031028014    4.5791333            0            0            0 -6.6449204e-07 -2.0282443e-06 -2.2747539e-07 2.6224356e-07 -3.6481866e-12 2.2126124e-10 -5.6369386e-07   -36.798499 
     550   -36.798499    4.4574947   0.42160526     4.910128 -0.031028014    4.5791333            0            0            0 6.9314781e-09 -6.6926399e-09 4.4098745e-08 -1.6611671e-08 2.4337889e-11 2.994935e-10 2.3018265e-08   -36.798499 
     560   -36.798499    4.4574947   0.42160526     4.910128 -0.031028014    4.5791333            0            0            0 -4.8909703e-09 -3.5213851e-09 -6.7698805e-09 -4.3816452e-09 -4.0257596e-11 2.8820878e-10 2.9681042e-10   -36.798499 
     570   -36.798499    4.4574947   0.42160526     4.910128 -0.031028014    4.5791333            0            0            0 -1.2139347e-09 -1.3649892e-09 -9.7426232e-10 -1.3025526e-09 5.7978845e-11 3.128639e-10 3.0278168e-10   -36.798499 
     580   -36.798499    4.4574947   0.42160526     4.910128 -0.031028014    4.5791333            0            0            0 4.9700554e-10 1.1047209e-09 7.9319401e-11 3.0697629e-10 2.2801211e-10 2.0005653e-10 3.9355441e-11   -36.798499 
Loop time of 0.13929 on 1 procs for 580 steps with 8 atoms

92.6% CPU use with 1 MPI tasks x no OpenMP threads

Minimization stats:
  Stopping criterion = energy tolerance
  Energy initial, next-to-last, final = 
          -23.21144179     -36.7984993885     -36.7984993885
  Force two-norm initial, final = 2.25257 8.12864e-14
  Force max component initial, final = 1.30052 7.11328e-14
  Final line search alpha, max atom move = 1 7.11328e-14
  Iterations, force evaluations = 580 721

MPI task timing breakdown:
Section |  min time  |  avg time  |  max time  |%varavg| %total
---------------------------------------------------------------
Pair    | 0.11424    | 0.11424    | 0.11424    |   0.0 | 82.01
Neigh   | 0.00074196 | 0.00074196 | 0.00074196 |   0.0 |  0.53
Comm    | 0.0060482  | 0.0060482  | 0.0060482  |   0.0 |  4.34
Output  | 0.00096631 | 0.00096631 | 0.00096631 |   0.0 |  0.69
Modify  | 0          | 0          | 0          |   0.0 |  0.00
Other   |            | 0.0173     |            |       | 12.42

Nlocal:    8 ave 8 max 8 min
Histogram: 1 0 0 0 0 0 0 0 0 0
Nghost:    1786 ave 1786 max 1786 min
Histogram: 1 0 0 0 0 0 0 0 0 0
Neighs:    2096 ave 2096 max 2096 min
Histogram: 1 0 0 0 0 0 0 0 0 0

Total # of neighbors = 2096
Ave neighs/atom = 262
Neighbor list builds = 8
Dangerous builds = 0
# ---- define output variables ----
variable natoms equal "count(all)"
variable tot_energy equal "c_eatoms"
variable a11 equal "xhi-xlo"
variable a22 equal "yhi-ylo"
variable a33 equal "zhi-zlo"
variable tilt_xy equal "xy"
variable tilt_xz equal "xz"
variable tilt_yz equal "yz"
variable tot_press equal "press"
variable press_xx equal "pxx"
variable press_yy equal "pyy"
variable press_zz equal "pzz"
variable press_xy equal "pxy"
variable press_xz equal "pxz"
variable press_yz equal "pyz"

# ---- output ----
print "pypospack:output_section:begin"
pypospack:output_section:begin
print "tot_energy = ${tot_energy}"
tot_energy = -36.7984993885342
print "num_atoms = ${natoms}"
num_atoms = 8
print "a11 = ${a11}"
a11 = 4.03588947485739
print "a22 = ${a22}"
a22 = 4.9411560275838
print "a33 = ${a33}"
a33 = 4.27916664395019
print "a12 = ${tilt_xy}"
a12 = 0
print "a13 = ${tilt_xz}"
a13 = 0
print "a23 = ${tilt_yz}"
a23 = 0
print "tot_press = ${tot_press}"
tot_press = 4.97005542250055e-10
print "pxx = ${press_xx}"
pxx = 1.1047209310136e-09
print "pyy = ${press_yy}"
pyy = 7.93194008390892e-11
print "pzz = ${press_zz}"
pzz = 3.06976294897476e-10
print "pxy = ${press_xy}"
pxy = 2.28012107204371e-10
print "pxz = ${press_xz}"
pxz = 2.00056533635866e-10
print "pyz = ${press_yz}"
pyz = 3.93554410217576e-11
print "pypospack:output_section:done"
pypospack:output_section:done
print "pypospack:lammps_sim:done"
pypospack:lammps_sim:done
Total wall time: 0:00:00
