LAMMPS (10 Feb 2015)
Reading data file ...
  triclinic box = (0 0 0) to (4.2565 4.2565 4.2565) with tilt (0 0 0)
  1 by 1 by 1 MPI processor grid
  reading atoms ...
  8 atoms
4 atoms in group Mg
4 atoms in group O
Setting atom values ...
  4 settings made for charge
Setting atom values ...
  4 settings made for charge
PPPM initialization ...
  G vector (1/distance) = 0.353152
  grid = 8 8 8
  stencil order = 5
  estimated absolute RMS force accuracy = 4.10333e-05
  estimated relative force accuracy = 2.84961e-06
  using double precision FFTs
  3d grid and FFT values/proc = 3375 512
Neighbor list info ...
  1 neighbor list requests
  update every 1 steps, delay 0 steps, check yes
  master list distance cutoff = 11
Setting up minimization ...
Memory usage per processor = 4.06549 Mbytes
Step PotEng Lx Ly Lz Xy Xz Yz Press Pxx Pyy Pzz Pxy Pxz Pyz eatoms 
       0   -119.82944       4.2565       4.2565       4.2565            0            0            0   -43102.631   -43102.631   -43102.631   -43102.631 -1.1410716e-10 2.0651384e-11 1.0044018e-10   -119.82944 
       9    -119.8549     4.222448     4.222448     4.222448            0            0            0   -490.28356   -490.28356   -490.28356   -490.28356 -3.7927136e-11 -7.2182599e-11 3.2130495e-11    -119.8549 
Loop time of 0.0773139 on 1 procs for 9 steps with 8 atoms

Minimization stats:
  Stopping criterion = linesearch alpha is zero
  Energy initial, next-to-last, final = 
        -119.829437963     -119.854898204     -119.854898204
  Force two-norm initial, final = 6.22404 0.0696885
  Force max component initial, final = 6.22404 0.069669
  Final line search alpha, max atom move = 1.75215e-06 1.2207e-07
  Iterations, force evaluations = 9 35

Pair  time (%) = 0.0533135 (68.9572)
Kspce time (%) = 0.00633335 (8.19174)
Neigh time (%) = 0 (0)
Comm  time (%) = 0.000949621 (1.22827)
Outpt time (%) = 0 (0)
Other time (%) = 0.0167174 (21.6228)

Nlocal:    8 ave 8 max 8 min
Histogram: 1 0 0 0 0 0 0 0 0 0
Nghost:    2189 ave 2189 max 2189 min
Histogram: 1 0 0 0 0 0 0 0 0 0
Neighs:    2344 ave 2344 max 2344 min
Histogram: 1 0 0 0 0 0 0 0 0 0

Total # of neighbors = 2344
Ave neighs/atom = 293
Neighbor list builds = 0
Dangerous builds = 0
pypospack:output_section:begin
tot_energy = -119.854898204259
num_atoms = 8
xx = 4.222448
yy = 4.222448
zz = 4.222448
xy = 0
xz = 0
yz = 0
tot_press = -490.283556338482
pxx = -490.283556338668
pyy = -490.283556338614
pzz = -490.283556338163
pxy = -3.79271362347293e-11
pxz = -7.2182599384956e-11
pyz = 3.21304951944417e-11
pypospack:output_section:done
pypospack:lammps_sim:done
PPPM initialization ...
  G vector (1/distance) = 0.353501
  grid = 8 8 8
  stencil order = 5
  estimated absolute RMS force accuracy = 4.03791e-05
  estimated relative force accuracy = 2.80417e-06
  using double precision FFTs
  3d grid and FFT values/proc = 3375 512
Setting up run ...
Memory usage per processor = 3.06549 Mbytes
Step Temp PotEng KinEng TotEng Press Lx Ly Lz Press Pxx Pyy Pzz Pxy Pxz Pyz Volume 
       0         1000    -119.8549   0.90482101   -118.95008    12347.889     4.222448     4.222448     4.222448    12347.889    7566.3062    6967.9731    22509.386   -3082.4015    -7427.105    66.048534    75.282309 
     100    418.36581   -119.21112   0.37854617   -118.83257   -5781.7938    4.2497954    4.2497954    4.2497954   -5781.7938    992.51826   -13698.129   -4639.7704    4224.0537    1683.7766    10253.238    76.754538 
     200    570.24977   -119.10771   0.51597398   -118.59174   -7518.8729    4.2540024    4.2540024    4.2540024   -7518.8729   -6848.4949   -20100.667    4392.5429    13517.612    235.62562   -17084.579    76.982712 
     300    640.74283   -118.94875   0.57975758   -118.36899    30096.561    4.2493394    4.2493394    4.2493394    30096.561    16658.586   -30989.876    104620.97    5427.3859    607.45324   -2232.6842    76.729835 
     400    1196.8039   -119.27857    1.0828934   -118.19567    -17292.93    4.2624518    4.2624518    4.2624518    -17292.93   -23467.661   -9152.3806   -19258.748   -3307.0643    4164.6337    2850.4032    77.442336 
     500     928.0332   -118.92922   0.83970394   -118.08951    22895.185    4.2503054    4.2503054    4.2503054    22895.185    10328.337     9920.532    48436.687    119.06469    12485.588    1322.7507    76.782176 
     600    741.00892   -118.71983   0.67048045   -118.04935   -17763.263    4.2763041    4.2763041    4.2763041   -17763.263   -47516.004   -51011.565     45237.78    21445.397   -5352.5144   -19446.802    78.199819 
     700    1075.3136   -119.00169   0.97296632   -118.02873   -14487.355     4.267425     4.267425     4.267425   -14487.355    4703.7454   -47730.871   -434.93945     7450.451    10447.644   -19975.357    77.713719 
     800    1010.8024   -118.92993   0.91459521   -118.01533    50770.361    4.2411358    4.2411358    4.2411358    50770.361    15139.842    11429.216    125742.03   -13373.443   -4601.5605    19473.651    76.286298 
     900    846.70634   -118.80677   0.76611769   -118.04065   -25105.372    4.2847619    4.2847619    4.2847619   -25105.372   -33560.644   -39269.751   -2485.7222   -427.77735    1970.0459    7188.1569    78.664737 
    1000    1003.9516   -118.93715    0.9083965   -118.02876   -14481.449    4.2713004    4.2713004    4.2713004   -14481.449   -47673.407    8736.9183   -4507.8572   -6143.9172   -1563.2223   -14784.717    77.925638 
    1100    1259.3181   -119.15202    1.1394575   -118.01256    26690.603    4.2421397    4.2421397    4.2421397    26690.603    23788.727    29582.821    26700.261   -858.75232    794.97995    2055.8766    76.340485 
    1200    1144.6953   -119.06856    1.0357443   -118.03281   -38112.325    4.2791196    4.2791196    4.2791196   -38112.325   -24340.023   -32951.643   -57045.309    2524.2511   -1695.2399    11258.243    78.354379 
    1300    722.71287   -118.67994   0.65392579   -118.02602    16462.918    4.2682003    4.2682003    4.2682003    16462.918    9243.4529    58727.277   -18581.976   -2567.2068    8826.0701    2767.5257    77.756081 
    1400    907.35208   -118.84841   0.82099123   -118.02741    16599.181    4.2605888    4.2605888    4.2605888    16599.181   -7879.9749    13405.055    44272.464    3458.9475   -11772.113   -14078.645    77.340836 
    1500    977.54281   -118.91124   0.88450127   -118.02674   -23673.361    4.2781471    4.2781471    4.2781471   -23673.361   -27812.019   -46465.914    3257.8503   -12552.871    -7322.056   -773.03996    78.300971 
    1600    1081.4034   -118.99425   0.97847653   -118.01577     21317.48    4.2524667    4.2524667    4.2524667     21317.48     18106.03   -8010.9223    53857.332   -2074.6006   -2964.6365     6724.507    76.899368 
    1700    929.40082   -118.87413   0.84094139   -118.03319     1346.817    4.2682558    4.2682558    4.2682558     1346.817   -17599.736    5794.1505    15846.037   -2375.8921   -751.52451    7107.3979    77.759115 
    1800    870.24824   -118.81496    0.7874189   -118.02755   -29348.532    4.2860036    4.2860036    4.2860036   -29348.532   -74007.673   -28958.583    14920.661   -6582.7531    8984.4593   -10938.282    78.733143 
    1900    1001.8652   -118.91941   0.90650873    -118.0129    34205.902     4.246004     4.246004     4.246004    34205.902    13421.708    31603.068    57592.931   -4931.0587    6636.6711    4214.8473    76.549294 
    2000    1136.6927   -119.06234    1.0285034   -118.03384   -2755.8887     4.261513     4.261513     4.261513   -2755.8887   -5247.2457    10462.759    -13483.18   -6416.6782    1190.7466    21798.296     77.39118 
    2100    1205.3858   -119.11316    1.0906584    -118.0225   -29465.287    4.2806259    4.2806259    4.2806259   -29465.287   -22181.111   -39156.852   -27057.899   -6511.5368    8675.4658    2135.0174    78.437156 
    2200    979.77924     -118.904   0.88652485   -118.01747    11167.734     4.253052     4.253052     4.253052    11167.734    25339.276    19783.449   -11619.524    -194.1853   -292.78007   -27168.251    76.931124 
    2300    778.71212    -118.7386   0.70459509   -118.03401   -28294.326    4.2619001    4.2619001    4.2619001   -28294.326   -16543.754   -42014.988   -26324.236   -5990.4701    13548.248    21375.999     77.41227 
    2400    712.34512    -118.6803   0.64454484   -118.03575   -9827.8892    4.2688636    4.2688636    4.2688636   -9827.8892    1740.8077   -48761.778    17537.303   -19811.383   -6178.2609     27084.12    77.792339 
    2500    1259.0232   -119.16439    1.1391906    -118.0252    1208.8969    4.2656994    4.2656994    4.2656994    1208.8969   -21422.455    12789.857    12259.289    10396.223   -5749.1464   -396.91879    77.619482 
    2600    1084.6888   -119.00896   0.98144925   -118.02751   -1430.8429     4.268527     4.268527     4.268527   -1430.8429   -26695.991     5728.567    16674.895   -1346.4173    4721.9128   -6803.5129    77.773942 
    2700    898.79617    -118.8416   0.81324967   -118.02835    20463.019    4.2582248    4.2582248    4.2582248    20463.019     25209.21    11395.289    24784.559    -7338.626    3630.8333    18095.699    77.212168 
    2800    905.72879   -118.85223   0.81952244   -118.03271   -5636.2013    4.2692052    4.2692052    4.2692052   -5636.2013    10715.741    15520.219   -43144.564   -9914.8756   -7348.5896    19583.386    77.811018 
    2900    1402.1465   -119.28867    1.2686916   -118.01997   -24209.564    4.2702515    4.2702515    4.2702515   -24209.564   -19363.318   -28890.679   -24374.695   -10686.422    9321.6883   -6763.6343    77.868242 
    3000    982.52835   -118.91328    0.8890123   -118.02427    -2140.311    4.2640856    4.2640856    4.2640856    -2140.311    37574.361   -19634.959   -24360.334    10592.985   -17982.697   -16401.523    77.531418 
    3100    894.00862   -118.84106   0.80891779   -118.03214   -17818.303     4.268936     4.268936     4.268936   -17818.303   -7560.8475   -30036.448   -15857.613    4437.3296    6543.5092    30143.772    77.796296 
    3200    1005.9934   -118.93712   0.91024394   -118.02687      8747.87    4.2704566    4.2704566    4.2704566      8747.87    7905.5198    3438.6983    14899.392   -785.29893   -39.257211    10066.981    77.879461 
    3300    1346.7028   -119.23701     1.218525   -118.01848   -13004.101    4.2703854    4.2703854    4.2703854   -13004.101   -37860.672    17403.993   -18555.624    9975.3068   -14170.133    -3463.414    77.875568 
    3400     616.4744   -118.58738   0.55779899   -118.02958    29159.921    4.2594138    4.2594138    4.2594138    29159.921   -6121.1045    32862.172    60738.694    1653.5121    4307.7638    2834.4374    77.276868 
    3500    829.83548    -118.7919   0.75085258   -118.04105   -2350.0272     4.275506     4.275506     4.275506   -2350.0272   -32682.819    29296.684   -3663.9467    303.21988    919.59623    8599.2872    78.156045 
    3600    876.93964    -118.8247   0.79347342   -118.03123   -5454.1697    4.2761004    4.2761004    4.2761004   -5454.1697   -13083.153    22813.264    -26092.62   -21111.596   -5087.2052   -46.297317    78.188644 
    3700     1061.546   -118.97926   0.96050915   -118.01875    23471.333    4.2494655    4.2494655    4.2494655    23471.333   -5889.7022     67332.76    8970.9401   -14523.183    7077.6735   -4569.9326    76.736666 
    3800    1074.1358   -119.01329   0.97190065   -118.04139    2021.7112    4.2743267    4.2743267    4.2743267    2021.7112   -2592.6015    8585.7007    72.034335   -4060.8948   -8063.8771    6795.7549    78.091388 
    3900    1050.1536   -118.97363   0.95020108   -118.02343   -29745.247    4.2889019    4.2889019    4.2889019   -29745.247   -28539.439   -44363.226   -16333.076    6542.0322    80.272378    2430.6631    78.892977 
    4000    1030.2371   -118.93998    0.9321802    -118.0078    29448.183    4.2452684    4.2452684    4.2452684    29448.183    6363.8409    26381.182    55599.525   -3019.3017    11755.704   -861.81364    76.509519 
    4100    1170.1584   -119.09373    1.0587839   -118.03495   -6769.1416    4.2653213    4.2653213    4.2653213   -6769.1416   -5721.1874   -17483.101     2896.863    10896.243   -6033.4768   -5415.0615    77.598844 
    4200    734.97055   -118.68483    0.6650168   -118.01981   -40220.913    4.2957172    4.2957172    4.2957172   -40220.913   -9218.2376   -69315.519   -42128.982    2483.3521    2752.7265    19607.576     79.26967 
    4300    1041.5331   -118.95456     0.942401   -118.01216    8.9698497     4.252408     4.252408     4.252408    8.9698497    18980.018   -13840.378   -5112.7295   -5013.7797     11837.68    22013.013    76.896185 
    4400    1012.6174   -118.94578   0.91623754   -118.02954    19038.515      4.25272      4.25272      4.25272    19038.515    40254.598    10816.734    6044.2126   -9944.5074    6721.6073   -7970.8474    76.913107 
    4500    1181.7547   -119.09236    1.0692765   -118.02309   -32594.561     4.283238     4.283238     4.283238   -32594.561   -44330.901   -26371.085   -27081.696   -6068.9254    4436.2167    4967.2667    78.580831 
    4600    970.60434   -118.89115    0.8782232   -118.01293    12249.267    4.2608248    4.2608248    4.2608248    12249.267    19279.307   -9360.8504    26829.345    10588.662   -4079.3906    20183.213    77.353689 
    4700    1108.6112   -119.02971    1.0030947   -118.02662   -3701.6045    4.2576357    4.2576357    4.2576357   -3701.6045   -5506.8062   -14926.417    9328.4091    12280.011     2416.751   -6683.6759    77.180129 
    4800    1086.8612   -119.01479   0.98341489   -118.03138    10082.623    4.2640816    4.2640816    4.2640816    10082.623   -20388.902    11289.688    39347.083   -4056.0141    3458.6842   -13550.861    77.531203 
    4900    991.30302   -118.92907   0.89695181   -118.03212     2266.842    4.2752467    4.2752467    4.2752467     2266.842    19628.837   -21828.098    8999.7872    -18667.38   -2325.4391    9105.3016    78.141821 
    5000    520.64091   -118.49876   0.47108684   -118.02767    6715.0515    4.2775728    4.2775728    4.2775728    6715.0515    49521.065   -32893.236    3517.3252    1369.2646   -9218.1755    3061.2026     78.26944 
    5100    1062.4055   -118.97402   0.96128686   -118.01273    23441.745    4.2513326    4.2513326    4.2513326    23441.745    45078.204    4716.8288    20530.202    -11936.33    1225.0687   -12487.823    76.837859 
    5200    1110.0186   -119.03059    1.0043681   -118.02622   -7776.7021    4.2760956    4.2760956    4.2760956   -7776.7021    2756.2969   -45600.586    19514.182   -2195.2421   -8973.9205   -7179.6199     78.18838 
    5300    1143.9851   -119.05093    1.0351018   -118.01583    -29123.82    4.2836927    4.2836927    4.2836927    -29123.82   -46366.417   -47406.321    6401.2786   -4395.9693    159.05599     15660.06    78.605858 
    5400     739.4676   -118.67495   0.66908583   -118.00587    18993.218    4.2510166    4.2510166    4.2510166    18993.218    16380.773    850.37178    39748.508   -3108.0709    13982.419   -8659.9958    76.820728 
    5500    787.41671   -118.73805   0.71247118   -118.02557   -5529.8151    4.2623058    4.2623058    4.2623058   -5529.8151   -9098.3936   -15611.118     8120.066    513.17526   -11015.373    -20594.13     77.43438 
    5600    1264.8435   -119.16479     1.144457   -118.02033     -12176.6    4.2763931    4.2763931    4.2763931     -12176.6   -30103.545   -9062.7574    2636.5015    -455.2591   -20406.649      8331.18    78.204703 
    5700    1328.1906   -119.22403    1.2017748   -118.02225   -14918.978    4.2688531    4.2688531    4.2688531   -14918.978   -17425.684   -32647.452     5316.202     7968.913    5185.2023   -521.58444    77.791767 
    5800    804.36522   -118.75727   0.72780656   -118.02946    14292.419    4.2511199    4.2511199    4.2511199    14292.419    13466.712   -17891.543    47302.089    10044.988   -1537.8218   -4377.3197    76.826326 
    5900    367.75878   -118.38275   0.33275587   -118.04999    30785.904    4.2621201    4.2621201    4.2621201    30785.904    12635.331    9953.8029    69768.579    3449.3017   -13536.213   -15087.379    77.424257 
    6000    1182.8298   -119.10211    1.0702492   -118.03186   -20349.817    4.2789615    4.2789615    4.2789615   -20349.817   -50873.846   -35285.895    25110.289    10807.427    7222.0241    9444.4133    78.345692 
    6100    1156.8118   -119.06818    1.0467077   -118.02147    34449.727     4.248013     4.248013     4.248013    34449.727    23101.856     26809.32    53438.006    8067.1065    14083.964   -7439.0885    76.658002 
    6200    948.36834   -118.89419   0.85810361   -118.03609    2510.8099     4.263395     4.263395     4.263395    2510.8099    8753.8041    5672.1718   -6893.5461    4193.0461   -5976.6724    -16842.36    77.493754 
    6300    792.99302   -118.74053   0.71751675   -118.02302   -24303.599    4.2790537    4.2790537    4.2790537   -24303.599   -29117.071   -56798.216    13004.489   -3590.9736    9671.9693   -10063.566    78.350761 
    6400    911.13068   -118.83747   0.82441019   -118.01306      28036.1    4.2484446    4.2484446    4.2484446      28036.1   -2212.9002    38878.571     47442.63   -4147.4861   -834.60473    18991.153    76.681371 
    6500    1099.2354   -119.02795   0.99461128   -118.03334    -8544.972    4.2646363    4.2646363    4.2646363    -8544.972    1912.4478    -12976.26   -14571.103    10856.933    5772.0265    1375.6127    77.561467 
    6600    1134.5816   -119.05187    1.0265933   -118.02528   -6394.8299    4.2663829    4.2663829    4.2663829   -6394.8299   -1940.9948    -39269.71    22026.215   -7914.2809   -1473.1072   -11076.525    77.656801 
    6700    954.60087   -118.88879   0.86374293   -118.02504      14612.5    4.2571868    4.2571868    4.2571868      14612.5    51783.448   -10862.747    2916.7998   -22257.361   -7609.3099   -6811.8346    77.155718 
    6800    816.89958    -118.7772   0.73914791   -118.03805   -32430.975    4.2671006    4.2671006    4.2671006   -32430.975   -21359.942   -46809.694   -29123.289    12837.603    18703.974    1473.5636    77.695998 
    6900    926.27761   -118.87442   0.83811544    -118.0363    15119.614    4.2451783    4.2451783    4.2451783    15119.614    20461.552   -11992.389    36889.679    24789.839    4441.8029     1231.177    76.504648 
    7000    1122.8418   -119.06063    1.0159709   -118.04466    6176.9392    4.2697054    4.2697054    4.2697054    6176.9392    6728.2129   -2719.9837    14522.588      824.651    5151.8411   -7620.1397    77.838372 
    7100    1510.5598   -119.39443    1.3667863   -118.02764   -16320.723    4.2732936    4.2732936    4.2732936   -16320.723   -9039.8724   -33322.622   -6599.6753   -11236.172    2176.5185   -4682.0357    78.034776 
    7200    814.62596   -118.75603   0.73709069   -118.01894    41249.887    4.2376323    4.2376323    4.2376323    41249.887    32812.204    7766.7534    83170.705    20038.612    967.66869    5843.2644    76.097398 
    7300    630.65537   -118.61732   0.57063024   -118.04669   -38329.914    4.2745564    4.2745564    4.2745564   -38329.914   -56013.276   -41535.178   -17441.288    25289.708    23189.944    10739.213    78.103981 
    7400    1143.8549   -119.06293     1.034984   -118.02795   -20522.863    4.2711155    4.2711155    4.2711155   -20522.863   -20731.817   -23394.393    -17442.38    1613.7638    25742.751   -7973.1602    77.915516 
    7500    1446.8373   -119.32549    1.3091288   -118.01636    7671.9936    4.2509392    4.2509392    4.2509392    7671.9936    17111.419   -7654.2731    13558.835   -6416.4829   -11559.117    10185.383    76.816531 
    7600    1072.0266   -119.00027   0.96999222   -118.03027    3592.7796    4.2586757    4.2586757    4.2586757    3592.7796    3818.5932    1822.1258    5137.6198    13923.851   -10947.324   -6384.6889    77.236701 
    7700    736.90781   -118.70719   0.66676968   -118.04042     18922.76    4.2586697    4.2586697    4.2586697     18922.76     34795.98    17985.892    3986.4102    16495.474    14284.575   -1049.3073    77.236375 
    7800    773.59967   -118.73669   0.69996924   -118.03672   -4328.8736    4.2773317    4.2773317    4.2773317   -4328.8736   -22902.408    10230.691   -314.90394   -13349.858    14432.676    8771.8577    78.256208 
    7900    1295.6307   -119.19196    1.1723139   -118.01964   -5846.2068    4.2679468    4.2679468    4.2679468   -5846.2068    21734.003    -24742.16   -14530.463   -18442.518   -5989.8206   -11977.146    77.742228 
    8000    920.57713   -118.85323   0.83295753   -118.02028    30760.152    4.2496842    4.2496842    4.2496842    30760.152    31177.722    26130.405    34972.328   -3930.5126   -4698.5489   -995.87841    76.748513 
    8100    763.49161   -118.72581   0.69082325   -118.03499   -9521.4012    4.2750631    4.2750631    4.2750631   -9521.4012    10630.893   -10463.503   -28731.594    10634.571    28344.178    2207.7805    78.131758 
    8200    744.12572   -118.70489   0.67330059   -118.03159   -932.93837    4.2716869    4.2716869    4.2716869   -932.93837    49886.882    -10783.23   -41902.468    2855.3077    16092.545   -5403.8041    77.946791 
    8300    1391.8849   -119.28355    1.2594067   -118.02414      8394.62    4.2434197    4.2434197    4.2434197      8394.62    27893.938   -3996.0074     1285.929   -13973.075   -2881.5585    11951.515    76.409608 
    8400    1001.8109   -118.94831   0.90645952   -118.04185    11636.291    4.2584863    4.2584863    4.2584863    11636.291    19602.627    26546.936    -11240.69   -14200.404   -21526.043   -7265.4766    77.226395 
    8500    777.51902   -118.74136   0.70351555   -118.03784   -25491.593    4.2787926    4.2787926    4.2787926   -25491.593       -45690   -8869.7157   -21915.063    7889.1619    30600.245    -7440.068    78.336418 
    8600    750.09147   -118.70915   0.67869853   -118.03045    -486.7928    4.2610101    4.2610101    4.2610101    -486.7928   -34178.651     15748.84    16969.432   -3439.3615    23880.064    13067.478     77.36378 
    8700    1295.4653   -119.20129    1.1721642   -118.02913    7894.4341    4.2560925    4.2560925    4.2560925    7894.4341    24325.944   -462.05674   -180.58447    3587.7589   -8292.9349   -136.07246    77.096238 
    8800    1335.3696   -119.24073    1.2082705   -118.03246   -11580.998    4.2722498    4.2722498    4.2722498   -11580.998   -18850.795   -11786.221   -4105.9769    -630.8507   -3777.5181   -2260.3963    77.977608 
    8900    1126.0315   -119.05139    1.0188569   -118.03253   -5052.8896    4.2647616    4.2647616    4.2647616   -5052.8896   -19515.255    17963.907   -13607.321   -387.17491    24635.147    4633.5802    77.568302 
    9000    920.81328   -118.86278   0.83317121   -118.02961    3713.6925    4.2586717    4.2586717    4.2586717    3713.6925    30875.623   -5747.8712   -13986.674    5809.7278    14622.311   -1904.2153    77.236484 
    9100    1112.9198   -119.03212    1.0069932   -118.02512   -23483.906    4.2703981    4.2703981    4.2703981   -23483.906   -28034.737   -47030.438    4613.4561   -840.13643   -2496.3873   -1228.6706    77.876263 
    9200    971.31338   -118.90197   0.87886476   -118.02311    18742.121     4.260162     4.260162     4.260162    18742.121    9378.8427    15443.416    31404.104   -10115.345   -5205.0057   -2110.3347    77.317594 
    9300    1024.9812   -118.95673   0.92742449   -118.02931    23199.851    4.2614756    4.2614756    4.2614756    23199.851    9599.9156    24282.462    35717.175   -3686.9772     13864.75     5640.566     77.38914 
    9400    999.53266   -118.92956   0.90439816   -118.02516   -9651.1504    4.2749593    4.2749593    4.2749593   -9651.1504   -27071.469   -27971.007    26089.025    18352.537    12180.529    9031.9711    78.126068 
    9500    969.43501   -118.89474   0.87716517   -118.01758    17519.524    4.2525711    4.2525711    4.2525711    17519.524    29585.828   -30290.862    53263.607   -12255.681   -9772.3759   -2052.7256    76.905032 
    9600    735.67744   -118.70569   0.66565641   -118.04004    -68.03807    4.2664507    4.2664507    4.2664507    -68.03807    42507.944   -49925.151    7213.0929   -15949.998   -1285.4014    2646.6199    77.660504 
    9700    891.80792   -118.84017   0.80692655   -118.03325   -23456.804    4.2711791    4.2711791    4.2711791   -23456.804   -28301.987    -10248.85   -31819.576   -11054.257    9954.0962   -9061.3761    77.918996 
    9800    912.30895   -118.84825   0.82547631   -118.02277    36497.624    4.2429409    4.2429409    4.2429409    36497.624    13218.632    39306.744    56967.497    3575.5138    1140.1295    6797.3494    76.383742 
    9900    1166.3922   -119.09359    1.0553762   -118.03822   -21803.256    4.2690426    4.2690426    4.2690426   -21803.256   -24984.209    -34616.67   -5808.8887   -9134.8827   -11393.879    -631.7184    77.802128 
   10000    1100.4832   -119.02008   0.99574034   -118.02434   -9655.1865    4.2682209    4.2682209    4.2682209   -9655.1865   -29376.338   -51942.754    52353.532   -5044.3525   -6396.1765   -193.71672     77.75721 
   10100    893.57017   -118.82837   0.80852107   -118.01985    6461.3607    4.2593458    4.2593458    4.2593458    6461.3607   -6266.0461    9201.6528    16448.475    837.91727    26938.148    8251.1595    77.273167 
   10200    668.56773   -118.63156   0.60493413   -118.02662   -20241.851    4.2726316    4.2726316    4.2726316   -20241.851    -21796.68   -21576.335   -17352.538   -2957.0903    6878.7339    4182.6886    77.998515 
   10300     909.6091   -118.84519   0.82303343   -118.02216    8768.0102    4.2572867    4.2572867    4.2572867    8768.0102   -2103.7976    -31305.72    59713.549    4329.5169   -18728.427   -1151.8538    77.161148 
   10400    1029.7121   -118.96397   0.93170518   -118.03226    16800.322    4.2638184    4.2638184    4.2638184    16800.322   -10057.544   -8523.1201    68981.632    3561.4095   -1449.2245   -16237.089    77.516849 
   10500    996.63532   -118.93226   0.90177658   -118.03049   -1052.6775     4.280059     4.280059     4.280059   -1052.6775   -33307.047    -12970.81    43119.825    1484.5806    13051.721   -3730.5891    78.405993 
   10600    992.84287   -118.92968   0.89834509   -118.03134    1189.9049      4.25622      4.25622      4.25622    1189.9049    -9469.624    1617.1381    11422.201   -1911.0196    14624.381    12098.675    77.103165 
   10700     666.8555   -118.63557   0.60338487   -118.03218    11481.955    4.2432196    4.2432196    4.2432196    11481.955    4165.0423    16154.492    14126.332    2575.5477   -26803.384    11442.692    76.398799 
   10800    883.19265   -118.84493   0.79913127    -118.0458   -8415.6658    4.2732068    4.2732068    4.2732068   -8415.6658   -33161.748   -25959.881    33874.632    5498.9264   -17933.122   -10943.591    78.030021 
   10900    1028.6889   -118.96387   0.93077935   -118.03309   -18684.043    4.2808165    4.2808165    4.2808165   -18684.043    -44933.77   -13933.379    2815.0198     5170.864     15837.95     -9663.97     78.44763 
   11000    837.07305   -118.77587   0.75740129   -118.01847    42951.095     4.245323     4.245323     4.245323    42951.095   -1714.6956    64537.866    66030.115     525.8132    1588.4648    10492.814    76.512468 
   11100    748.60169   -118.71016   0.67735054   -118.03281    387.17714    4.2657337    4.2657337    4.2657337    387.17714   -48135.484    39135.387    10161.629   -8723.3213     -33061.1    8628.6791    77.621356 
   11200    1180.5493   -119.07627    1.0681858   -118.00809   -35856.129    4.2840943    4.2840943    4.2840943   -35856.129   -44435.279   -25044.473   -38088.636    3768.7236   -10740.241   -10501.209    78.627968 
   11300     1497.211   -119.35039    1.3547079   -117.99569   -26376.946    4.2679485    4.2679485    4.2679485   -26376.946   -25313.039   -31778.581    -22039.22    8469.9782    9234.4578   -23939.663    77.742321 
   11400    1057.9265   -118.96957   0.95723412   -118.01233   -27024.751    4.2721348    4.2721348    4.2721348   -27024.751   -31640.881   -8889.5637   -40543.807   -935.56276   -30881.889   -9801.1187    77.971315 
   11500      1066.17   -118.98212   0.96469301   -118.01743   -18650.209    4.2784877    4.2784877    4.2784877   -18650.209   -41035.157    11252.311   -26167.781    1843.6795   -13415.915   -1849.4497    78.319674 
   11600    1280.7884   -119.17046    1.1588842   -118.01158    70.404957    4.2638885    4.2638885    4.2638885    70.404957   -13381.682    24239.335   -10646.438    3723.1529    10350.305   -936.45958    77.520669 
   11700    542.55653   -118.51781   0.49091655    -118.0269    24853.517    4.2586635    4.2586635    4.2586635    24853.517    19745.598    54305.874     509.0784   -6773.6275   -10398.143   -2536.8327    77.236034 
   11800     778.6326   -118.73781   0.70452314   -118.03329   -5696.6934    4.2754672    4.2754672    4.2754672   -5696.6934   -12489.122    27431.176   -32032.134   -7925.0802    6249.6907    -3044.646    78.153916 
   11900    1247.7096   -119.14154    1.1289539   -118.01259    17318.498    4.2648055    4.2648055    4.2648055    17318.498    4196.8277        28395    19363.666   -7413.4198    4502.6453    11837.528    77.570697 
   12000    805.40586   -118.74661   0.72874814   -118.01786    6824.5082    4.2712532    4.2712532    4.2712532    6824.5082    15303.218    28841.299   -23670.992    16959.501   -1901.6885   -4475.5826    77.923049 
   12100    986.49696   -118.90465   0.89260318   -118.01205   -33484.799    4.2833135    4.2833135    4.2833135   -33484.799   -34735.116   -35097.036   -30622.246    18354.492   -3253.1203   -26688.305    78.584986 
   12200    1320.5509   -119.19693    1.1948622   -118.00207    6591.0192    4.2657083    4.2657083    4.2657083    6591.0192    15994.484   -5850.5302    9629.1042    526.43423   -10302.596   -9903.9474    77.619971 
   12300    1257.2858   -119.14587    1.1376186   -118.00826   -14774.039    4.2683988    4.2683988    4.2683988   -14774.039   -21015.994   -16615.842   -6690.2815    5355.4599      17910.2     3358.208    77.766934 
   12400    679.16569   -118.63517   0.61452339   -118.02065   -3985.8194    4.2603484    4.2603484    4.2603484   -3985.8194    -31754.23   -10526.097    30322.869    20733.058    6134.8555    1169.5803    77.327745 
   12500    721.35445   -118.68201   0.65269667   -118.02931    14908.696    4.2542992    4.2542992    4.2542992    14908.696   -7345.2271    4790.9694    47280.344    16612.577   -12654.388   -4407.3046    76.998822 
   12600    1120.9267   -119.04612     1.014238   -118.03188   -4491.5878    4.2732338    4.2732338    4.2732338   -4491.5878   -3974.4566    4086.5574   -13586.864   -15496.557    1428.4885   -2241.4804    78.031502 
   12700    1194.6268   -119.10563    1.0809234   -118.02471    1455.4595     4.273191     4.273191     4.273191    1455.4595   -28800.544    20510.182    12656.741   -5898.4233   -7769.1258    18027.485    78.029159 
   12800    1030.0929    -118.9441   0.93204971   -118.01205    10220.654    4.2643019    4.2643019    4.2643019    10220.654    24696.203   -810.75998    6776.5204    17967.465    2661.8633   -2195.5335    77.543222 
   12900    945.98103    -118.8742   0.85594352   -118.01826   -17300.881    4.2825931    4.2825931    4.2825931   -17300.881   -7022.4943   -41586.734   -3293.4139    11103.688   -9754.7413   -23033.861     78.54534 
   13000    796.99211   -118.72854   0.72113521    -118.0074     15978.07    4.2790225    4.2790225    4.2790225     15978.07    50928.543   -16726.911    13732.578   -14780.752     11220.76    1921.9557    78.349044 
   13100    942.96931   -118.84585   0.85321845   -117.99264    38276.705    4.2615566    4.2615566    4.2615566    38276.705    37237.314    5557.8542    72034.945   -3793.3784    21664.065    11836.634    77.393553 
   13200    1038.9678   -118.94293   0.94007993   -118.00285   -27233.969    4.2908928    4.2908928    4.2908928   -27233.969   -46680.063   -57685.901    22664.056    23992.226   -3497.1676   -11531.413    79.002894 
   13300    1099.0362   -118.97721   0.99443105   -117.98278   -30806.823    4.2930402    4.2930402    4.2930402   -30806.823   -31444.676    421.07749    -61396.87    6662.3691   -3227.4597   -15826.475    79.121565 
   13400     1054.489   -118.93065    0.9541238   -117.97653    17594.361     4.271822     4.271822     4.271822    17594.361    14472.096    23543.125    14767.861   -12293.356   -3644.6071    15631.697    77.954184 
   13500     883.4936   -118.79115   0.79940358   -117.99175   -29.157967    4.2831864    4.2831864    4.2831864   -29.157967     33667.13   -40694.646    6940.0428   -5390.7676     17829.81   -1143.5662    78.577991 
   13600    802.32157   -118.72086   0.72595742    -117.9949    1413.0151    4.2780835    4.2780835    4.2780835    1413.0151    49549.291   -32147.746     -13162.5    9356.5997    19058.573   -15015.676    78.297475 
   13700    997.94846   -118.90441   0.90296474   -118.00144    9928.9806    4.2588526    4.2588526    4.2588526    9928.9806    45457.639   -32384.631    16713.934   -11447.778   -5920.9727     18567.92    77.246325 
   13800    969.68072   -118.89313   0.87738749   -118.01575   -6131.1461     4.268195     4.268195     4.268195   -6131.1461    8476.9995   -7388.2752   -19482.163   -3660.9996    3499.0221    9394.7875    77.755796 
   13900    1092.6553   -119.00574   0.98865752   -118.01708   -7463.5087    4.2637537    4.2637537    4.2637537   -7463.5087   -15911.766    4718.8796   -11197.639     3468.884    12625.426   -7682.8083    77.513317 
   14000    1089.1483   -119.01007   0.98548423   -118.02458    12800.711    4.2554778    4.2554778    4.2554778    12800.711    16019.766    3945.5497    18436.816    1654.6097   -9492.5361    4165.3542    77.062837 
   14100    957.55584   -118.90045   0.86641664   -118.03404   -22783.128    4.2782293    4.2782293    4.2782293   -22783.128    10776.003   -54938.995   -24186.393   -2371.3646   -4627.9579    23580.389    78.305485 
   14200    1036.8536   -118.95877   0.93816691    -118.0206    3489.0054    4.2620609    4.2620609    4.2620609    3489.0054   -1203.6759   -8008.0794    19678.772   -8601.0145    4417.5999    10287.353     77.42103 
   14300    861.51218   -118.79927   0.77951432   -118.01976    33511.825    4.2523524    4.2523524    4.2523524    33511.825    43115.693    -1964.657    59384.439    1482.6432    27671.535    -14543.59    76.893166 
   14400    935.27504   -118.87162   0.84625651   -118.02536   -11363.411    4.2792116    4.2792116    4.2792116   -11363.411    22243.756   -52485.646   -3848.3414    14702.735    13444.525    11613.936    78.359433 
   14500    947.31795    -118.8791   0.85715319   -118.02194    10850.816    4.2609384    4.2609384    4.2609384    10850.816    45963.099   -40367.643    26956.992    18.700779   -6298.6787    22794.998    77.359877 
   14600    866.84252   -118.80751   0.78433733   -118.02317    1204.3283    4.2550676    4.2550676    4.2550676    1204.3283     13126.79   -23253.203    13739.397   -17211.462     18644.29   -1376.2021    77.040551 
   14700    1217.6374   -119.12453    1.1017439   -118.02278   -34532.727    4.2716459    4.2716459    4.2716459   -34532.727   -23075.471   -40440.571   -40082.137    2168.8655    6771.0474   -12043.011    77.944546 
   14800    1202.0007   -119.10646    1.0875955   -118.01887   -12097.391    4.2659527    4.2659527    4.2659527   -12097.391    894.46908   -23841.851    -13344.79   -7329.3934   -7799.2389     14875.75    77.633312 
   14900    1115.2918   -119.03212    1.0091394   -118.02298    3130.6569    4.2572048    4.2572048    4.2572048    3130.6569    8376.4648   -4864.5284    5880.0343    2877.3318    941.91128    15394.698    77.156697 
   15000    568.98819   -118.55045   0.51483248   -118.03562    22638.848    4.2669002    4.2669002    4.2669002    22638.848    20553.711    2453.9576    44908.877   -7702.8167    17869.534   -14018.749     77.68505 
   15100    794.95054   -118.74688   0.71928796   -118.02759   -1586.6602    4.2718517    4.2718517    4.2718517   -1586.6602   -25747.166    -11343.82    32331.005   -15105.314    17883.805   -19736.761    77.955815 
   15200    1349.2231   -119.23553    1.2208054   -118.01473   -2883.7812     4.261927     4.261927     4.261927   -2883.7812   -19652.904   -6329.4816    17331.042   -3716.8644   -4646.3861    6553.1741    77.413737 
   15300     959.8871   -118.88756   0.86852602   -118.01903   -27228.458    4.2772872    4.2772872    4.2772872   -27228.458   -43317.756   -27551.537   -10816.081    12317.911   -7832.9272    21773.748    78.253761 
   15400    850.84782    -118.7908   0.76986499   -118.02094    7676.8705    4.2542059    4.2542059    4.2542059    7676.8705    1871.3736    14630.713     6528.525   -3777.2823    1101.7917   -443.64487     76.99376 
   15500    684.05272   -118.65611   0.61894528   -118.03716    14000.342    4.2579863    4.2579863    4.2579863    14000.342    20627.997    -24209.09    45582.119   -14825.727    6668.0291   -12551.799    77.199195 
   15600    1155.5666   -119.08151    1.0455809   -118.03593   -21202.878    4.2678154    4.2678154    4.2678154   -21202.878   -16805.271   -46895.892    92.527947   -8080.3952    1142.6905   -1907.4095     77.73505 
   15700    1355.0594   -119.25232    1.2260862   -118.02624    28921.026    4.2412362    4.2412362    4.2412362    28921.026    22451.465     29035.38    35276.232    10697.932   -2695.3258    12733.123    76.291713 
   15800    1167.4551   -119.10298    1.0563379   -118.04664   -22369.251    4.2683104    4.2683104    4.2683104   -22369.251   -26549.007   -38162.559   -2396.1881    -1742.387    15604.043    4290.3027      77.7621 
   15900    681.26595   -118.65551   0.61642375   -118.03908   -19552.261    4.2690572    4.2690572    4.2690572   -19552.261   -12981.132   -22635.499   -23040.152   -20463.045    9231.4957   -12027.861    77.802924 
   16000    901.53917   -118.84545   0.81573159   -118.02972    15635.926    4.2487789    4.2487789    4.2487789    15635.926    18787.242    472.75466    27647.781   -9704.7445   -2318.0172   -27693.773    76.699477 
   16100    1383.7348   -119.28303    1.2520323     -118.031   -13227.017    4.2723954    4.2723954    4.2723954   -13227.017   -28335.033   -6671.3342   -4674.6843    15148.568   -849.50527    6339.0885    77.985579 
   16200    1127.3608   -119.04402    1.0200597   -118.02396   -12531.497    4.2770078    4.2770078    4.2770078   -12531.497   -29814.689    4727.6494   -12507.451   -2147.6343    -1899.418    18578.154    78.238429 
   16300    293.72849   -118.29808   0.26577171   -118.03231      20441.5    4.2555003    4.2555003    4.2555003      20441.5    26254.686    19128.473     15941.34   -18450.503   -443.13487   -19993.877    77.064058 
   16400    761.46355   -118.72276   0.68898822   -118.03377     25162.72    4.2514104    4.2514104    4.2514104     25162.72    9904.1907    33439.994    32143.975   -4215.6364   -1954.4629   -25489.874    76.842076 
   16500    1167.2843   -119.09104    1.0561834   -118.03486   -3798.4432     4.277804     4.277804     4.277804   -3798.4432   -34970.111    23936.866   -362.08452    9782.5085   -1949.9731     10672.24     78.28213 
   16600    1312.4576   -119.21898    1.1875392   -118.03145    3407.0967    4.2597502    4.2597502    4.2597502    3407.0967   -15901.703    -245.0686    26368.062   -6389.1994    3350.0229    14386.019    77.295178 
   16700     611.8055    -118.5886   0.55357448   -118.03502    12307.336    4.2497628    4.2497628    4.2497628    12307.336    8175.8768    25770.085    2976.0456   -18669.666    1320.7647   -10517.694     76.75277 
   16800    640.81343   -118.61726   0.57982146   -118.03744   -26996.919    4.2709603    4.2709603    4.2709603   -26996.919   -7395.4263    -46781.87   -26813.462   -13712.113    7625.5612   -30134.724    77.907019 
   16900    1275.8575   -119.18045    1.1544227   -118.02603    9187.2931    4.2550604    4.2550604    4.2550604    9187.2931    7610.1536   -15532.134     35483.86    2498.6952    3986.0952    221.00849    77.040164 
   17000    1516.2531   -119.40385    1.3719376   -118.03191    297.34008    4.2569447    4.2569447    4.2569447    297.34008     16391.14   -9329.7227   -6169.3966    504.09958    4015.7612    6117.2651    77.142559 
   17100    787.79713   -118.74981    0.7128154     -118.037    12812.523    4.2693943    4.2693943    4.2693943    12812.523    57376.497    -30224.52    11285.592   -10189.288   -2023.1127   -21368.911    77.821359 
   17200    784.59669   -118.73342   0.70991957    -118.0235   -16586.406     4.281385     4.281385     4.281385   -16586.406     21166.09   -35516.446   -35408.862    7538.8918   -5809.8273   -21668.248    78.478887 
   17300    1094.8476   -119.00192   0.99064111   -118.01128   -12559.534    4.2692437    4.2692437    4.2692437   -12559.534   -20470.624    -2162.445   -15045.533    17157.902   -2272.8207     22118.12    77.813123 
   17400     1086.308   -118.98602   0.98291428   -118.00311    27514.991     4.250244     4.250244     4.250244    27514.991    8946.4615    64051.355    9547.1553    3237.5882    3410.2687    1745.9034    76.778846 
   17500    540.98959   -118.51798   0.48949875   -118.02848    257.56147    4.2803292    4.2803292    4.2803292    257.56147   -4376.6789    40372.028   -35222.665   -14802.248    3966.4609   -23269.586    78.420845 
   17600    733.55219   -118.68314   0.66373343    -118.0194   -1439.4974    4.2750847    4.2750847    4.2750847   -1439.4974    3530.9435     38223.58   -46073.015   -5190.9393   -5591.1452   -7330.0536     78.13294 
   17700    1475.0781   -119.32969    1.3346816     -117.995    15942.295    4.2519736    4.2519736    4.2519736    15942.295   -1963.2296    64813.418   -15023.303    11244.034    1108.3458    12386.093     76.87262 
   17800    913.38275   -118.84453   0.82644791   -118.01808    -18963.73    4.2833969    4.2833969    4.2833969    -18963.73   -7025.4281   -13528.772   -36336.991    8844.9895   -6416.4009   -21158.826     78.58958 
   17900    605.29063   -118.56765   0.54767969   -118.01997   -304.97244    4.2709133    4.2709133    4.2709133   -304.97244    9462.5003    7986.8081   -18364.226   -12091.063   -7624.4192   -25815.288    77.904448 
   18000    1071.3676   -118.98045   0.96939591   -118.01105    30254.352    4.2452384    4.2452384    4.2452384    30254.352     -2316.37    50899.148    42180.276   -9703.4471    9793.5843    6737.6117    76.507893 
   18100    1359.2091   -119.24539    1.2298409   -118.01555   -393.87695    4.2589211    4.2589211    4.2589211   -393.87695   -8831.5047    21403.943   -13754.069   -5111.8035   -1179.8254   -192.56751    77.250052 
   18200     1037.232     -118.963   0.93850929   -118.02449   -9538.3739    4.2712452    4.2712452    4.2712452   -9538.3739   -12936.652    5136.5183   -20814.988    6038.6372   -406.02648    -24518.62    77.922615 
   18300    953.01411    -118.8842    0.8623072   -118.02189   -18352.654    4.2734684    4.2734684    4.2734684   -18352.654    -20598.12   -35999.504    1539.6616   -21008.982   -10722.844    2321.0282    78.044353 
   18400    1336.3052   -119.21719    1.2091171   -118.00808   -1138.9354    4.2559978    4.2559978    4.2559978   -1138.9354   -4511.5101    -361.0383    1455.7422   -12865.821   -1349.8875    11661.712    77.091087 
   18500    1082.5599   -118.99643   0.97952297   -118.01691    4873.5359    4.2631523    4.2631523    4.2631523    4873.5359   -11875.383    14439.956    12056.035    16350.629    9699.8606   -10285.025    77.480524 
   18600     763.1283   -118.71158   0.69049453   -118.02109    -1152.737    4.2715757    4.2715757    4.2715757    -1152.737   -29937.383   -5344.1524    31823.324    5350.3779   -14516.078   -23092.704    77.940704 
   18700    1073.3449   -118.98469   0.97118506   -118.01351   -465.09582     4.260921     4.260921     4.260921   -465.09582   -35128.634    24045.757    9687.5897   -17823.423    8580.1575   -5355.2721    77.358931 
   18800    1250.4015   -119.15028    1.1313896   -118.01889   -6159.7691    4.2537271    4.2537271    4.2537271   -6159.7691   -35932.147    2848.3963    14604.444    5094.1454    15722.139    7805.5157    76.967764 
   18900    848.02627   -118.80021   0.76731199    -118.0329    9996.0667    4.2530464    4.2530464    4.2530464    9996.0667    10882.746   -14808.478    33913.932    25779.137    -6741.805   -20293.373    76.930822 
   19000    793.80957   -118.75887   0.71825558   -118.04061   -13012.922    4.2751845    4.2751845    4.2751845   -13012.922   -11500.347   -24008.517   -3529.9024    34.989265   -2405.9075   -25491.991    78.138412 
   19100    1390.6772   -119.27713     1.258314   -118.01882   -26515.498     4.274565     4.274565     4.274565   -26515.498   -23826.582   -29242.407   -26477.503   -13948.658   -5392.3746    7396.6604    78.104449 
   19200    1197.9529   -119.09119    1.0839329   -118.00726    15944.766    4.2404499    4.2404499    4.2404499    15944.766    9744.5449    17204.871    20884.882    14573.067    2618.5276    10012.578    76.249292 
   19300    708.95361   -118.67657   0.64147613    -118.0351   -474.19737    4.2573349    4.2573349    4.2573349   -474.19737    10639.805   -5948.2444   -6114.1523    28851.816   -4704.2862   -19535.551    77.163769 
   19400    1035.4452   -118.95993   0.93689256   -118.02304   -25886.075    4.2766407    4.2766407    4.2766407   -25886.075   -6587.4713   -35450.763   -35619.991    3230.0779    6163.4678   -35094.614    78.218284 
   19500    1262.4951    -119.1517    1.1423321   -118.00937    7547.6371    4.2562955    4.2562955    4.2562955    7547.6371   -33345.453    4028.6145     51959.75   -10375.906   -14775.902    5234.6409    77.107269 
   19600    644.95148   -118.60972   0.58356566   -118.02616    7786.8026    4.2626001    4.2626001    4.2626001    7786.8026   -30574.446   -5215.6465      59150.5    17607.052    -2593.426   -3530.2005    77.450417 
   19700    611.61858   -118.58167   0.55340534   -118.02826     2961.516    4.2719467    4.2719467    4.2719467     2961.516    -14268.99   -17822.471     40976.01    8994.6282   -2177.4234   -26608.291    77.961016 
   19800    1118.7519   -119.03093    1.0122702   -118.01866    5042.1048    4.2700115    4.2700115    4.2700115    5042.1048   -18878.073    14594.871    19409.516   -6956.1314   -8566.3088   -8778.5517     77.85511 
   19900     1350.656   -119.23292    1.2221019   -118.01082   -13507.618    4.2621102    4.2621102    4.2621102   -13507.618    -28669.72   -7013.2763    -4839.857    4734.7944    2631.7261    11348.332    77.423716 
   20000    861.48619    -118.7938   0.77949081   -118.01431    25858.585    4.2482398    4.2482398    4.2482398    25858.585    42038.373    41337.015   -5799.6346    6570.1604   -2150.0144   -3055.2895    76.670286 
   20100    911.00706   -118.85378   0.82429834   -118.02948    6815.9239    4.2699819    4.2699819    4.2699819    6815.9239    32271.768    12979.902   -24803.898    9823.6322    2569.5367   -6499.1541    77.853493 
   20200     859.7347   -118.79068   0.77790603   -118.01277    4665.9558    4.2828277    4.2828277    4.2828277    4665.9558    27402.211   -1807.7287   -11596.615   -21470.261   -17886.883    3312.5077    78.558253 
   20300    889.37102   -118.81078   0.80472159   -118.00606    18825.496    4.2605131    4.2605131    4.2605131    18825.496    29362.214    21525.918    5588.3572   -20276.567   -10485.378   -2573.2581    77.336716 
   20400    1266.4796    -119.1505    1.1459374   -118.00456   -13012.866    4.2602972    4.2602972    4.2602972   -13012.866    7222.5048   -21933.687   -24327.414    3721.3606    10882.083    13533.383    77.324959 
   20500    1216.4675   -119.11024    1.1006853   -118.00955   -13615.579    4.2684075    4.2684075    4.2684075   -13615.579   -26666.793   -9224.4583   -4955.4857    8510.4841    1376.4916    4828.4334     77.76741 
   20600    721.78632   -118.67552   0.65308743   -118.02243   -18836.595    4.2760347    4.2760347    4.2760347   -18836.595   -61199.256    10864.148   -6174.6773   -22463.099    -19279.16   -8038.9347    78.185042 
   20700    862.88522   -118.79354   0.78075668   -118.01279    -2840.584    4.2631297    4.2631297    4.2631297    -2840.584   -23853.076    6950.2349    8381.0886   -21189.196    5318.5777   -6557.9346    77.479292 
   20800     1195.206   -119.08842    1.0814475   -118.00697   -1522.2331    4.2559761    4.2559761    4.2559761   -1522.2331   -12967.884    -9012.429    17413.614    2502.8897    12905.382    13244.215    77.089908 
   20900     959.3348   -118.88777   0.86802629   -118.01975   -6931.1894    4.2625855    4.2625855    4.2625855   -6931.1894    1421.2366   -20376.826   -1837.9787   -7741.3028   -13224.905    9772.3246    77.449626 
   21000    861.78368   -118.80645   0.77975998   -118.02669   -4196.9105    4.2672794    4.2672794    4.2672794   -4196.9105     -11425.1   -17300.547    16134.916    -21574.08   -15832.412   -992.89332    77.705767 
   21100    1269.4168   -119.16881     1.148595   -118.02021   -3067.1127    4.2635865    4.2635865    4.2635865   -3067.1127   -23042.918    5738.2915    8103.2885   -7085.7508    18080.803    4110.0498    77.504201 
   21200    1294.3813   -119.18924    1.1711834   -118.01805    17350.106    4.2518672    4.2518672    4.2518672    17350.106    12930.767    52664.829   -13545.278     8098.212    4974.6631    1497.5275    76.866849 
   21300    706.37722   -118.67663   0.63914495   -118.03748     1900.341    4.2629486    4.2629486    4.2629486     1900.341    -13822.33    27503.086   -7979.7328   -7002.3533   -7782.3588      7828.57    77.469419 
   21400     611.4978   -118.58835   0.55329606   -118.03505    2777.2957    4.2666691    4.2666691    4.2666691    2777.2957   -20294.584   -4454.9196    33081.391   -36411.852   -5386.0739    5247.0967    77.672431 
   21500    1318.7933   -119.21531    1.1932718   -118.02204    4571.8438    4.2568986    4.2568986    4.2568986    4571.8438   -978.57474   -18174.924     32869.03   -4999.4172    4350.7094   -7344.4638    77.140051 
   21600    1347.9605   -119.24136     1.219663    -118.0217   -7049.3452    4.2568895    4.2568895    4.2568895   -7049.3452   -63.871565   -14031.178   -7052.9857    11076.924    10339.782   -6075.3088    77.139553 
   21700    761.19416   -118.72223   0.68874447   -118.03348    3872.2546    4.2533633    4.2533633    4.2533633    3872.2546   -5855.8227   -13957.149    31429.735   -13372.135    -801.6351    4779.4113    76.948021 
   21800    789.70898    -118.7536   0.71454528   -118.03905   -10204.448    4.2610169    4.2610169    4.2610169   -10204.448     1834.882   -25425.482   -7022.7438   -17588.738   -7016.1083    9193.8144    77.364153 
   21900    1003.3084   -118.93899   0.90781454   -118.03118   -7848.7372     4.261738     4.261738     4.261738   -7848.7372    22252.916   -8998.6102   -36800.517     1554.482   -17956.035   -18047.507    77.403436 
   22000    1132.3644   -119.05288    1.0245871   -118.02829    20138.454    4.2504491    4.2504491    4.2504491    20138.454    39543.476     9712.001    11159.885    2444.8889   -2535.2779   -20903.697    76.789964 
   22100    1109.2614   -119.03242     1.003683   -118.02874    1723.1783    4.2674103    4.2674103    4.2674103    1723.1783    8685.6082   -11976.281     8460.208   -7215.9057    4901.0512    1046.8247    77.712915 
   22200    1033.0897   -118.95707   0.93476123   -118.02231   -19490.697    4.2708207    4.2708207    4.2708207   -19490.697   -14473.167   -26691.687   -17307.238   -5987.5754   -19079.973    4762.1944    77.899385 
   22300    696.37734   -118.65022   0.63009685   -118.02013    18701.818    4.2528934    4.2528934    4.2528934    18701.818     10611.01    14556.173     30938.27    15374.157   -8446.3621   -18567.727    76.922519 
   22400      1144.77   -119.05883    1.0358119   -118.02302   -12996.148    4.2735423    4.2735423    4.2735423   -12996.148   -10591.285   -16909.007   -11488.153    8380.1397    1309.7791   -12245.405    78.048405 
   22500    1243.1027   -119.13788    1.1247854   -118.01309    2914.8937    4.2634335    4.2634335    4.2634335    2914.8937   -23947.192    9366.9894    23324.883   -7017.0244   -489.75898   -2275.1368    77.495856 
   22600    799.73699   -118.74001   0.72361883   -118.01639    16503.308    4.2495992    4.2495992    4.2495992    16503.308    19462.196    18369.658    11678.069    -12522.03   -28305.806   -4626.4344    76.743911 
   22700    810.85164   -118.75968    0.7336756     -118.026   -17231.172     4.274297     4.274297     4.274297   -17231.172    37798.619   -41360.165   -48131.971    -2407.512   -9131.3632   -9316.8573    78.089762 
   22800    1391.0904   -119.26452    1.2586878   -118.00583   -16174.668    4.2762966    4.2762966    4.2762966   -16174.668    11030.911   -31868.233   -27686.681    14433.545     5245.435    1320.2882    78.199409 
   22900    948.10698   -118.86208   0.85786712   -118.00422    17306.894    4.2660004    4.2660004    4.2660004    17306.894    43389.604    20865.543   -12334.466    19539.611    2712.5413    2256.5114    77.635916 
   23000    543.74515   -118.50654   0.49199204   -118.01455   -1614.6328    4.2725504    4.2725504    4.2725504   -1614.6328    10617.712     12885.93   -28347.541    5805.9176   -10754.657   -14431.721    77.994068 
   23100    1149.6325   -119.04783    1.0402116   -118.00762    10669.979    4.2516959    4.2516959    4.2516959    10669.979   -10169.746    40564.343    1615.3387    2291.6746    -3788.527   -6489.8245    76.857559 
   23200    1284.7917   -119.18185    1.1625066   -118.01934    3932.7315    4.2601035    4.2601035    4.2601035    3932.7315   -13833.709    12143.893    13488.011   -3124.9206         4256    1684.6441    77.314412 
   23300    1088.8607   -118.99782   0.98522403    -118.0126   -46381.903     4.282523     4.282523     4.282523   -46381.903   -42337.699   -49312.109   -47495.901   -9695.3872   -3156.6299   -2448.3989    78.541486 
   23400    1034.3328   -118.93547   0.93588605   -117.99958    26527.887    4.2524731    4.2524731    4.2524731    26527.887    26041.621    31965.871    21576.168    2712.9952   -7164.1376   -3532.8937    76.899712 
   23500    873.77707     -118.808   0.79061186   -118.01739   -4967.0551     4.276947     4.276947     4.276947   -4967.0551   -7641.8025   -24646.903     17387.54     12817.81    3124.7875    332.06939    78.235092 
   23600    890.06928   -118.81199   0.80535339   -118.00664   -10014.946     4.275152     4.275152     4.275152   -10014.946    24982.113   -44149.084   -10877.867   -2172.1197    12908.765   -1582.7864     78.13663 
   23700    1258.0905   -119.12635    1.1383467     -117.988    23681.709    4.2477985    4.2477985    4.2477985    23681.709    49400.416   -948.70061    22593.412   -7572.5229   -496.83995    16412.129    76.646395 
   23800    1032.6336   -118.94132   0.93434858   -118.00698   -34890.444    4.2747389    4.2747389    4.2747389   -34890.444   -55462.149   -52894.095    3684.9134    27721.757   -3782.4825    10926.927    78.113985 
   23900    801.87964   -118.73289   0.72555755   -118.00733    22920.022    4.2561965    4.2561965    4.2561965    22920.022   -29844.302    36345.991    62258.378    20194.935    2617.2925   -15564.206     77.10189 
   24000     1209.322   -119.10796      1.09422   -118.01374    6803.5977     4.261575     4.261575     4.261575    6803.5977   -13798.962    35998.375   -1788.6194   -16387.807     5019.596   -12550.434    77.394553 
   24100    766.77351   -118.71104   0.69379278   -118.01725   -13243.213    4.2717714    4.2717714    4.2717714   -13243.213   -15152.231    6089.1755   -30666.583     16248.93    8667.8224    -1350.434    77.951417 
   24200    645.55245   -118.60324   0.58410942   -118.01913    21333.998     4.245163     4.245163     4.245163    21333.998    37545.963    5267.5233    21188.506    54286.159    2716.2434    7400.4174    76.503816 
   24300    1163.8851   -119.08225    1.0531077   -118.02914   -10299.258    4.2565945    4.2565945    4.2565945   -10299.258    6352.3039   -19869.614   -17380.464     13844.52   -6587.9242    288.61084     77.12352 
   24400    1532.5398   -119.40909    1.3866742   -118.02241   -13228.488    4.2636833    4.2636833    4.2636833   -13228.488    24508.184   -22603.366   -41590.282   -16145.996    4071.4198   -9257.4222     77.50948 
   24500    801.49201   -118.76291   0.72520681    -118.0377   -6366.1499    4.2565337    4.2565337    4.2565337   -6366.1499    28053.114   -44485.502   -2666.0624    37561.359    29.737666     504.3738    77.120214 
   24600    566.50552   -118.55419    0.5125861    -118.0416    8384.5894    4.2491697    4.2491697    4.2491697    8384.5894     21335.02   -19022.667    22841.415    31686.498   -954.43121    4984.8567    76.720642 
   24700    1073.8879    -119.0077   0.97167635   -118.03603    561.38121    4.2586195    4.2586195    4.2586195    561.38121    25041.718   -11579.013   -11778.561   -20994.321    1936.6512    159.88735    77.233642 
   24800    1096.2715   -119.01905   0.99192951   -118.02712   -9483.2329     4.265771     4.265771     4.265771   -9483.2329   -20630.232    17651.521   -25470.988   -2783.7243   -7253.7408   -5770.8168    77.623391 
   24900    949.70977   -118.88393   0.85931736   -118.02461    7515.5855    4.2532745    4.2532745    4.2532745    7515.5855   -8681.3579    27677.939    3550.1749    35730.379    1580.5031   -8969.9639    76.943201 
   25000    1129.7441   -119.04827    1.0222162   -118.02605    -2800.357    4.2540845    4.2540845    4.2540845    -2800.357   -11873.472    2483.7527    988.64812    17332.334    -49.62955    610.28737    76.987164 
   25100    739.05597   -118.69796   0.66871337   -118.02925   -8882.0925    4.2701175    4.2701175    4.2701175   -8882.0925   -14282.372    13454.227   -25818.132   -23690.746   -7240.5681    7440.6566    77.860909 
   25200     685.9074   -118.64472   0.62062343    -118.0241   -6922.8595    4.2712726    4.2712726    4.2712726   -6922.8595   -16194.386    6550.6099   -11124.803   -13825.319    203.49253    5515.5256    77.924114 
   25300    1515.7265   -119.38169    1.3714612   -118.01023    4898.4159    4.2465767    4.2465767    4.2465767    4898.4159    7801.9949    3349.4731    3543.7798    19814.634    7559.8547   -8192.7915    76.580273 
   25400    1376.8194   -119.26624    1.2457752   -118.02047    5106.8167    4.2516801    4.2516801    4.2516801    5106.8167    25447.686    4490.5379   -14617.774   -11700.985   -3216.3974   -11357.047      76.8567 
   25500    648.81309     -118.618   0.58705972   -118.03094   -28589.209    4.2751412    4.2751412    4.2751412   -28589.209   -30892.742    -13012.15   -41862.735    -29865.49   -8775.8643    2693.6103    78.136038 
   25600    752.99096   -118.70257   0.68132205   -118.02125    15870.657    4.2524121    4.2524121    4.2524121    15870.657    10785.343     45708.85   -8882.2226   -4508.4834    1072.1476     6204.209    76.896407 
   25700    1287.5427   -119.17921    1.1649957   -118.01421    6564.6308    4.2544309    4.2544309    4.2544309    6564.6308    21570.274    10370.449    -12246.83    14286.261    2344.9726    809.57594    77.005974 
   25800    981.17424   -118.90981   0.88778707   -118.02202   -3841.0898    4.2625938    4.2625938    4.2625938   -3841.0898   -9882.6116    11674.111   -13314.769    9942.7381   -8824.8123   -381.42896    77.450075 
   25900    579.31112   -118.55058   0.52417288    -118.0264    17148.948     4.258407     4.258407     4.258407    17148.948   -22191.953    70931.506    2707.2906   -21944.042   -13557.043   -2141.9387    77.222081 
   26000    967.40953   -118.90135   0.87533247   -118.02602   -2347.5101    4.2659797    4.2659797    4.2659797   -2347.5101    -35656.92    37135.621   -8521.2315   -14596.419    2250.0953   -1181.2852    77.634785 
   26100    1436.9852   -119.31266    1.3002144   -118.01245    10027.298    4.2541788    4.2541788    4.2541788    10027.298   -15021.506    44228.496    874.90454    14897.103    1680.6474   -8244.7894    76.992284 
   26200    769.43181   -118.72762   0.69619807   -118.03142   -20291.333    4.2621755    4.2621755    4.2621755   -20291.333   -42631.483   -18595.155    352.63765   -16616.593   -11205.601   -8576.0059    77.427279 
   26300    539.64775    -118.5181   0.48828463   -118.02982   -7501.6347    4.2532049    4.2532049    4.2532049   -7501.6347   -47407.502    9171.8685     15730.73   -36506.732   -5563.8358    12107.111    76.939424 
   26400    1246.4473   -119.15036    1.1278118   -118.02254    18025.382    4.2514214    4.2514214    4.2514214    18025.382   -15605.819    59080.149    10601.816   -318.53466    474.31391    3566.9736    76.842671 
   26500    1129.0913   -119.04421    1.0216255   -118.02259   -10212.868    4.2747589    4.2747589    4.2747589   -10212.868   -32296.134    5799.9484   -4142.4184    9163.5518    1660.2166    5714.4728    78.115077 
   26600    600.75326   -118.56038   0.54357418    -118.0168    18872.014    4.2597627    4.2597627    4.2597627    18872.014   -2599.9143    45743.342    13472.614   -25390.197    -12574.21    1455.0227    77.295856 
   26700    1070.6376   -118.98203   0.96873538   -118.01329   -87.866707    4.2603822    4.2603822    4.2603822   -87.866707    -9488.993    150.08903    9075.3038   -10490.432   -7971.6738    3060.1436    77.329585 
   26800    1334.5925   -119.21378    1.2075673   -118.00621   -18461.161       4.2726       4.2726       4.2726   -18461.161   -20906.079    6892.7357    -41370.14    8548.1054    10566.035    5991.0438    77.996788 
   26900    740.97874   -118.67515   0.67045314    -118.0047   -21192.146     4.282105     4.282105     4.282105   -21192.146   -47810.489    9798.7017   -25564.652   -20935.067    2615.2401   -12516.381    78.518492 
   27000    1049.1659   -118.94615   0.94930734   -117.99684   -9992.5488    4.2651959    4.2651959    4.2651959   -9992.5488   -35415.114   -25588.548    31026.015   -23282.001   -1310.7293   -679.95288    77.592001 
   27100    1447.4875   -119.30001    1.3097171   -117.99029    8671.2222    4.2432183    4.2432183    4.2432183    8671.2222    13792.134   -9152.1631    21373.696    8397.7932   -2963.0519    802.54891     76.39873 
   27200    822.03803   -118.76538   0.74379729   -118.02158   -177.83195    4.2578397    4.2578397    4.2578397   -177.83195   -12545.071   -4157.8403    16169.415   -2097.3039    318.19107   -1276.2064    77.191221 
   27300     430.0789   -118.41884   0.38914443    -118.0297   -2390.1913    4.2713455    4.2713455    4.2713455   -2390.1913    4046.0126   -32149.265    20932.678   -36000.703    2845.6495    752.35514    77.928106 
   27400    1307.9386   -119.20264    1.1834503   -118.01919   -8936.7751     4.262394     4.262394     4.262394   -8936.7751    31.319611   -18685.092    -8156.553   -2572.0616    4310.3849     5803.745    77.439185 
   27500    1387.2418   -119.26955    1.2552056   -118.01434    3968.9147     4.246201     4.246201     4.246201    3968.9147    3536.3946   -535.55023    8905.8998    28134.603   -885.49035      3805.68     76.55995 
   27600    713.00117    -118.6756   0.64513844   -118.03046    1089.4749    4.2569861    4.2569861    4.2569861    1089.4749   -26382.727    16739.142     12912.01   -42764.699    1721.8688    2450.0097    77.144805 
   27700    735.61916   -118.69012   0.66560367   -118.02451   -19731.138    4.2769007    4.2769007    4.2769007   -19731.138   -60256.698    13320.255   -12256.972   -39165.028    2095.2254    -13857.78    78.232554 
   27800    1424.0606   -119.29801    1.2885199   -118.00949    4749.1322    4.2516902    4.2516902    4.2516902    4749.1322   -7860.2674    41056.088   -18948.424    20537.055    3285.0845   -7457.8691    76.857251 
   27900    1074.2618   -118.99417   0.97201469   -118.02215   -7058.0935    4.2500567    4.2500567    4.2500567   -7058.0935   -40399.372      9361.57    9863.5216   -19157.197    4760.0253    4278.3124      76.7687 
   28000    379.72209   -118.37982   0.34358053   -118.03624   -7094.9603    4.2572845    4.2572845    4.2572845   -7094.9603   -53233.372     2641.364    29307.127   -53797.386   -1565.5259   -909.85387     77.16103 
   28100    1131.5032   -119.05242    1.0238079   -118.02861    10096.209    4.2495424    4.2495424    4.2495424    10096.209   -11617.151     47901.34   -5995.5614   -1571.8032    678.72593   -326.74887    76.740832 
   28200    1588.5017   -119.45736    1.4373097   -118.02005   -28294.276    4.2663436    4.2663436    4.2663436   -28294.276   -48533.265    3302.4497   -39652.011    5114.5126    1868.2354    2295.9356    77.654656 
   28300    842.85036   -118.79614   0.76262872   -118.03351    19700.485    4.2385469    4.2385469    4.2385469    19700.485   -20449.817    48219.888    31331.384   -46469.938   -4379.3759   -394.12861    76.146683 
   28400    680.26305   -118.65967   0.61551631   -118.04415    8248.1668    4.2486385    4.2486385    4.2486385    8248.1668   -33925.853    35431.324    23239.029   -21721.185    763.43514    4756.8341    76.691874 
   28500    1083.4392   -118.99964   0.98031859   -118.01932   -35430.166    4.2759577    4.2759577    4.2759577   -35430.166   -57962.408   -21664.017   -26664.074    44464.767     342.4349    1834.1208    78.180816 
   28600    1177.4201   -119.07581    1.0653544   -118.01046    14235.642    4.2434295    4.2434295    4.2434295    14235.642     34611.93    -1940.314    10035.309    4192.2554    1398.1986   -5553.9033    76.410137 
   28700     975.9593   -118.90543   0.88306848   -118.02237    10213.552    4.2450631    4.2450631    4.2450631    10213.552    8522.7384    1786.9569    20330.961   -43001.707    2044.6853   -1276.1627    76.498416 
   28800    972.54537   -118.90751   0.87997949   -118.02753   -1759.2053    4.2587635    4.2587635    4.2587635   -1759.2053    -28978.15    22813.963    886.57052    -7135.242    1372.2315    6799.0777    77.241475 
   28900    901.28384   -118.84311   0.81550056   -118.02761   -6186.2001    4.2666505    4.2666505    4.2666505   -6186.2001   -17090.274    16489.762   -17958.088    38145.822    8994.5725   -1974.6481    77.671415 
   29000      1073.11   -118.99525   0.97097245   -118.02427   -5636.8468    4.2499132    4.2499132    4.2499132   -5636.8468   -2309.9081   -7985.4424   -6615.1899    4864.4361     369.7043   -19361.147    76.760924 
   29100    1035.0215   -118.96107   0.93650922   -118.02456    22451.787    4.2344402    4.2344402    4.2344402    22451.787    5759.3286    35462.949    26133.085   -26177.751   -6010.1001   -10520.389    75.925562 
   29200    1175.2024   -119.09842    1.0633479   -118.03507    -16674.68    4.2646273    4.2646273    4.2646273    -16674.68   -45201.943   -1098.5581   -3723.5391     4072.998    9475.3407    16816.077    77.560972 
   29300    895.86971   -118.83334   0.81060174   -118.02274   -18215.671    4.2682906    4.2682906    4.2682906   -18215.671   -40080.829   -7971.8265   -6594.3582    20397.848    2611.0673    78.224461    77.761016 
   29400    726.72229   -118.67704    0.6575536   -118.01949    8543.8384    4.2418629    4.2418629    4.2418629    8543.8384    2147.5211    10259.859    13224.135    8182.2724   -5070.2056   -46208.931     76.32554 
   29500    1211.2757   -119.12427    1.0959877   -118.02828    784.87065    4.2437396    4.2437396    4.2437396    784.87065    4506.5046    1254.4011   -3406.2937   -4914.0463   -6130.0298   -18416.631    76.426887 
   29600    1596.9264   -119.47291    1.4449325   -118.02798   -14668.624    4.2594392    4.2594392    4.2594392   -14668.624   -31626.716   -2593.4852     -9785.67    12618.182   -526.34293    19463.378    77.278246 
   29700    763.36148   -118.72346    0.6907055   -118.03275   -20763.461    4.2657505    4.2657505    4.2657505   -20763.461   -32214.928   -21911.456    -8163.998    26478.864    3525.1093   -25407.557     77.62227 
   29800    446.49986   -118.43884   0.40400245   -118.03484   -6196.2848    4.2478692    4.2478692    4.2478692   -6196.2848   -6431.5031    15470.283   -27627.634     4210.645   -12814.187    -47669.98    76.650219 
   29900    1226.0292   -119.14371     1.109337   -118.03437    5604.4622    4.2409016    4.2409016    4.2409016    5604.4622   -7971.1208    24929.184   -144.67654   -5843.7206   -9515.9782    5937.4661    76.273658 
   30000    1613.8083   -119.49049    1.4602076   -118.03029     -27188.4    4.2654384    4.2654384    4.2654384     -27188.4   -32425.897    -27643.38   -21495.923    2210.5345    5430.7536    10146.556    77.605233 
   30100     885.8167   -118.83409   0.80150556   -118.03259   -10809.078     4.261165     4.261165     4.261165   -10809.078   -10529.557   -18274.749   -3622.9272    11330.502   -5548.6818   -39535.632     77.37222 
   30200    705.53706   -118.66371   0.63838476   -118.02533    1886.7408    4.2501418    4.2501418    4.2501418    1886.7408    -20554.21    17641.906    8572.5264    7115.6773   -13852.359   -34342.886    76.773312 
   30300    1104.3603   -119.02144   0.99924837   -118.02219   -15085.387    4.2702471    4.2702471    4.2702471   -15085.387   -39071.857    1490.9278   -7675.2312   -4616.6967   -8982.1086    14572.068       77.868 
   30400     1217.535   -119.11576    1.1016512   -118.01411    125.80274    4.2630947    4.2630947    4.2630947    125.80274    15909.824    -12416.33   -3116.0863   -8190.0312    5483.1859    13049.808    77.477384 
   30500    978.92503    -118.8977   0.88575194   -118.01195    23320.506    4.2453903    4.2453903    4.2453903    23320.506    42223.963    9833.0826    17904.472   -5962.6994    2567.9863   -37298.084    76.516107 
   30600    959.13911   -118.88984   0.86784922   -118.02199   -12473.183    4.2626961    4.2626961    4.2626961   -12473.183   -22721.798     8504.004   -23201.755    3077.1293   -8204.8033    -16127.68    77.455652 
   30700    800.18057   -118.74729    0.7240202   -118.02327     -6387.58    4.2618921    4.2618921    4.2618921     -6387.58   -39046.397    7973.7558    11909.901    10210.602   -4608.5901    24072.796    77.411832 
   30800    870.35655   -118.81299    0.7875169   -118.02547    4801.3381    4.2522883    4.2522883    4.2522883    4801.3381    15811.641   -13772.105    12364.479    5713.3279    3861.8202   -1375.0932    76.889687 
   30900    1106.5916   -119.02306    1.0012674   -118.02179    1693.0277    4.2571114    4.2571114    4.2571114    1693.0277     20689.45    762.87975   -16373.247    4234.7898     1280.653   -25914.033    77.151622 
   31000    964.66162   -118.89279   0.87284611   -118.01995     1335.509    4.2630944    4.2630944    4.2630944     1335.509   -7856.9609    20500.649   -8637.1608    18917.861    206.77815    4089.3895    77.477367 
   31100    919.39228   -118.84955   0.83188545   -118.01766   -19546.548    4.2694829    4.2694829    4.2694829   -19546.548   -26855.147   -17485.385   -14299.113    7107.9899   -2698.3132     14942.92    77.826204 
   31200    1391.6295   -119.26009    1.2591757   -118.00092   -7782.0544     4.258303     4.258303     4.258303   -7782.0544   -13544.822   -25809.968    16008.627    -19560.81   -1946.6577   -1631.5432    77.216426 
   31300    967.95275   -118.88551   0.87582399   -118.00969    7556.0494    4.2640598    4.2640598    4.2640598    7556.0494    14377.182   -8094.0985    16385.065    8918.1271     -1861.38   -907.24008    77.530014 
   31400    411.76323   -118.38622   0.37257202   -118.01364     3770.905    4.2760359    4.2760359    4.2760359     3770.905    12120.772    963.40208   -1771.4592    24184.257    4754.2348    10810.248    78.185106 
   31500    1287.2702   -119.15474    1.1647491   -117.98999   -14279.968    4.2681726    4.2681726    4.2681726   -14279.968   -4212.0497   -2703.1511   -35924.703    -14480.27    18184.604   -2898.0328    77.754569 
   31600    1294.9431   -119.15812    1.1716917   -117.98643   -9958.1971    4.2669257    4.2669257    4.2669257   -9958.1971   -15710.854   -11417.974   -2745.7632     2380.333    1135.4875   -8638.5229    77.686443 
   31700    707.46034   -118.63741   0.64012498   -117.99729    5946.5125    4.2676294    4.2676294    4.2676294    5946.5125   -13435.047    18708.532    12566.053    24129.562   -3935.4469    12436.109    77.724884 
   31800    881.00027    -118.7989   0.79714755   -118.00175    14038.855     4.255035     4.255035     4.255035    14038.855   -8952.5639    54862.178   -3793.0488    1473.0045     26229.07    7190.7809    77.038782 
   31900    1137.8839   -119.04181    1.0295812   -118.01222    11265.948    4.2507204    4.2507204    4.2507204    11265.948   -14289.476    22461.261    25626.057   -13962.611    11327.975   -8029.7116    76.804667 
   32000     1214.013   -119.11669    1.0984645   -118.01823   -10066.466    4.2618471    4.2618471    4.2618471   -10066.466   -3979.1237   -27854.739    1634.4654    9008.8353   -19072.579   -6122.8516    77.409379 
   32100    983.60703   -118.91148   0.88998831   -118.02149    2347.7141    4.2548036    4.2548036    4.2548036    2347.7141    5599.9052    8590.1916   -7146.9545    24685.889    12241.851    2105.9778    77.026214 
   32200    782.23416   -118.73579   0.70778191     -118.028   -1443.9339    4.2557618    4.2557618    4.2557618   -1443.9339    3190.2065    6241.6597   -13763.668    1994.5266    38116.081    12057.879    77.078264 
   32300    946.80403     -118.881   0.85668818   -118.02432   -6750.2817    4.2615688    4.2615688    4.2615688   -6750.2817    20132.568   -10402.569   -29980.845   -14723.258   -2538.4264    411.01446    77.394215 
   32400     1091.521   -119.00445   0.98763112   -118.01682    12578.814    4.2531741    4.2531741    4.2531741    12578.814    20315.956    28251.078   -10830.592   -16363.873   -5507.9753   -11414.567    76.937749 
   32500    827.26269   -118.77173   0.74852467    -118.0232    3232.8271    4.2635659    4.2635659    4.2635659    3232.8271   -17395.079    57939.949    -30846.39   -3998.8122    29131.615    2424.6358    77.503078 
   32600    1174.1052   -119.07518     1.062355   -118.01283    1993.9483    4.2607537    4.2607537    4.2607537    1993.9483   -13293.064    49672.711   -30397.802    6377.5494    8598.0003    3307.7979    77.349818 
   32700    1136.2731   -119.04273    1.0281238   -118.01461   -8751.2628    4.2574029    4.2574029    4.2574029   -8751.2628   -7598.4165    10953.577   -29608.949   -10392.741   -5372.3192     1334.092    77.167471 
   32800    561.93784   -118.53534   0.50845317   -118.02689   -11220.572    4.2549987    4.2549987    4.2549987   -11220.572     2690.368   -8357.6432    -27994.44   -14473.846    27452.412   -12966.089    77.036811 
   32900    989.74966   -118.92214   0.89554629    -118.0266    13088.042    4.2467865    4.2467865    4.2467865    13088.042    19959.469    24014.003   -4709.3449    7896.9953    27563.561   -3406.1803    76.591624 
   33000    1492.4286   -119.37321    1.3503808   -118.02283   -22165.131    4.2699314    4.2699314    4.2699314   -22165.131   -32699.457   -18105.401   -15690.536    8966.1111   -12625.386    7080.4224    77.850729 
   33100    1011.2184   -118.93984   0.91497168   -118.02486    22286.271    4.2538463    4.2538463    4.2538463    22286.271   -3225.5987    29002.012    41082.399    -9444.145    4251.2096   -3826.0135    76.974234 
   33200    370.52312   -118.36836   0.33525711   -118.03311    14919.519    4.2568253    4.2568253    4.2568253    14919.519   -9738.1678    24623.668    29873.055   -1980.5202    38777.526   -19158.929    77.136067 
   33300    1012.9624   -118.93239   0.91654964   -118.01584   -17450.781     4.269809     4.269809     4.269809   -17450.781   -37024.004   -8500.5169    -6827.821    7955.0093    5583.4801   -17031.261    77.844034 
   33400    1516.2232   -119.37138    1.3719106   -117.99947   -3127.6368    4.2636137    4.2636137    4.2636137   -3127.6368    24287.892   -13557.474   -20113.328   -2237.3944    -16209.93    4287.5114    77.505682 
   33500    571.85791    -118.5284   0.51742906   -118.01097    -22424.46    4.2762009    4.2762009    4.2762009    -22424.46   -3862.6142   -8314.3092   -55096.455   -2524.7027    38902.783   -7131.6275    78.194154 
   33600    700.55966      -118.64   0.63388111   -118.00612    12559.621    4.2545755    4.2545755    4.2545755    12559.621      18990.2    34560.696   -15872.033    3034.1652    22905.232   -7073.9627    77.013828 
   33700     1509.196   -119.36412    1.3655522   -117.99857   -2965.1618    4.2585024    4.2585024    4.2585024   -2965.1618    13804.969   -1544.3919   -21156.063    7678.1077   -22110.824   -2712.7186    77.227272 
   33800    1143.1989   -119.04602    1.0343904   -118.01163   -1331.6286     4.260477     4.260477     4.260477   -1331.6286   -30139.496     37583.42    -11438.81    2454.0852    6581.2452    5968.4438    77.334749 
   33900    457.31178   -118.43922   0.41378531   -118.02544    15914.164    4.2515629    4.2515629    4.2515629    15914.164   -3026.5678    45068.523    5700.5377   -4871.8896     33927.98   -8769.8524    76.850345 
   34000    813.47169    -118.7655   0.73604628   -118.02945   -10388.388    4.2602003    4.2602003    4.2602003   -10388.388   -20031.228   -15388.086    4254.1496   -4324.2882    189.49546   -20903.622     77.31968 
   34100    1504.3316   -119.38405    1.3611508    -118.0229    3365.9319    4.2480332    4.2480332    4.2480332    3365.9319   -16584.629    19228.037    7454.3879    -663.1391   -8944.3886    5248.2556    76.659099 
   34200    1113.5346   -119.03832    1.0075495   -118.03077    6496.7375    4.2524932    4.2524932    4.2524932    6496.7375   -21433.666    46962.999    -6039.121    4615.2094    28118.134    3384.5864    76.900804 
   34300    765.44171   -118.72095   0.69258775   -118.02836    -6823.853    4.2656562    4.2656562    4.2656562    -6823.853   -45052.507    18389.447    6191.5015   -2454.0988    12272.836   -14983.585    77.617127 
   34400    1096.9542    -119.0058   0.99254725   -118.01325   -10823.806    4.2613039    4.2613039    4.2613039   -10823.806   -35508.714    2108.8844     928.4118   -6853.3172   -12102.138   -16383.127    77.379785 
   34500     1038.372   -118.95134   0.93954078    -118.0118   -2665.5622    4.2544443    4.2544443    4.2544443   -2665.5622   -14261.712     12003.66   -5738.6341   -1577.1075    33231.338   -49.387513    77.006703 
   34600    912.24323   -118.84242   0.82541684   -118.01701   -6438.5103    4.2565534    4.2565534    4.2565534   -6438.5103   -17360.629    17068.277   -19023.179    1152.2873    30956.785    25288.144    77.121286 
   34700     1115.083   -119.02674    1.0089506   -118.01779   -10061.633    4.2563165    4.2563165    4.2563165   -10061.633   -19822.451   -4472.4949   -5889.9536     1464.094    -12916.39    7954.7632    77.108409 
   34800    1092.2069   -119.01214   0.98825177   -118.02389   -578.25804    4.2544595    4.2544595    4.2544595   -578.25804   -14949.567    3730.0108    9484.7825   -2161.5735     1946.234   -19907.001    77.007527 
   34900    767.76454   -118.72703   0.69468949   -118.03234    11039.941    4.2487333    4.2487333    4.2487333    11039.941    6969.6044    43433.914   -17283.696    4914.7579    22660.377    1655.6682    76.697008 
   35000    690.23441   -118.66352    0.6245386   -118.03898    8512.2039    4.2552218    4.2552218    4.2552218    8512.2039    24292.751    15729.402   -14485.541   -3396.4033    10125.391    41340.993    77.048929 
   35100    1294.1166   -119.19636    1.1709439   -118.02542   -7087.5453     4.263443     4.263443     4.263443   -7087.5453    14485.067    -19694.71   -16052.994   -2810.3026   -3611.1295      9006.28    77.496375 
   35200    1432.4104   -119.31352     1.296075   -118.01745    480.72359    4.2568184    4.2568184    4.2568184    480.72359   -4328.8458    1730.8977     4040.119   -2519.8511    9116.8005   -13423.861    77.135691 
[...]
   91200    1463.9236   -119.34017    1.3245888   -118.01558    -14682.82    4.2543351    4.2543351    4.2543351    -14682.82   -9428.2138   -16320.107    -18300.14    14188.317   -950.98117   -7013.7985    77.000772 
   91300    1110.9247   -119.02536     1.005188   -118.02018   -3498.4965    4.2499636    4.2499636    4.2499636   -3498.4965   -18485.464    19301.493   -11311.519     5122.263   -8876.8971    5030.2811     76.76365 
   91400    572.10548   -118.54163   0.51765307   -118.02398    1995.7086    4.2549782    4.2549782    4.2549782    1995.7086    8497.9312    10061.254    -12572.06   -34249.153   -3979.1762   -4150.8557      77.0357 
   91500    1039.3737    -118.9542   0.94044719   -118.01375   -8370.1724    4.2623249    4.2623249    4.2623249   -8370.1724    2004.5275   -7036.8542    -20078.19   -16528.838    5592.0434   -7435.4248    77.435422 
   91600    1218.8528     -119.116    1.1028436   -118.01315     7280.477    4.2480129    4.2480129    4.2480129     7280.477    4080.0966     24391.65   -6630.3154    19712.572   -9907.5085     -1557.15    76.658001 
   91700     659.0214   -118.62186   0.59629641   -118.02556    10785.608    4.2496108    4.2496108    4.2496108    10785.608    17713.933    32896.184   -18253.294   -3319.4601   -12564.241    2750.5709    76.744539 
   91800    929.78311   -118.86335   0.84128729   -118.02206   -10606.896    4.2556847    4.2556847    4.2556847   -10606.896    2253.7756   -12571.066   -21503.398   -22316.514    4560.1608    950.29776    77.074077 
   91900    1299.2186    -119.1895    1.1755603   -118.01394    11622.874    4.2474656    4.2474656    4.2474656    11622.874    27377.454    12630.906   -5139.7387    9552.7557    3095.9189    -4547.977    76.628375 
   92000     832.2956   -118.77949   0.75307855   -118.02641   -14872.438    4.2647622    4.2647622    4.2647622   -14872.438   -23581.935    22301.626   -43337.004    21371.045   -8139.8772    -946.1322    77.568331 
   92100    948.85962   -118.87884   0.85854812   -118.02029   -3321.1919    4.2558334    4.2558334    4.2558334   -3321.1919   -16658.214    31252.698    -24558.06    2741.4487   -2233.3264    166.10997    77.082154 
   92200    1408.7395   -119.27755    1.2746571   -118.00289    803.01912     4.247325     4.247325     4.247325    803.01912     11956.92   -13840.553    4292.6905   -11789.734    5001.8997    -4262.187    76.620762 
   92300    747.38068   -118.69355   0.67624575   -118.01731   -10775.327    4.2576575    4.2576575    4.2576575   -10775.327   -1749.2441    -13071.14   -17505.597    3382.3726   -3206.2962    1445.6952    77.181315 
   92400    858.10227    -118.7954   0.77642896   -118.01897    9515.5025     4.251486     4.251486     4.251486    9515.5025    15818.573    25560.672   -12832.737      10998.1   -6111.3534    5441.9493    76.846175 
   92500    1486.0575    -119.3573     1.344616   -118.01269   -8924.2885    4.2609417    4.2609417    4.2609417   -8924.2885   -5929.5521    4951.6194   -25794.933   -5048.5219    2993.0534    3227.0708    77.360054 
   92600    846.57759   -118.77902    0.7660012   -118.01302    503.83497    4.2567905    4.2567905    4.2567905    503.83497    22943.158     -13046.2   -8385.4532   -7091.8119   -220.96637   -9026.1515    77.134173 
   92700    359.93332   -118.34494   0.32567523   -118.01927    15793.635    4.2524106    4.2524106    4.2524106    15793.635    20581.126   -7282.9675    34082.748    2716.1784   -12499.794   -4494.3783    76.896326 
   92800    1334.7244   -119.21886    1.2076867   -118.01118   -10859.686    4.2601566    4.2601566    4.2601566   -10859.686   -34958.401   -4906.2853    7285.6293    7083.3841   -9394.7855    2129.0454      77.3173 
   92900    1447.5089   -119.31423    1.3097365   -118.00449   -1965.3703    4.2520277    4.2520277    4.2520277   -1965.3703    -6.123019   -9749.0121    3859.0244   -2281.3996     10255.99    -3581.743    76.875553 
   93000    556.26324   -118.51982   0.50331867   -118.01651   -8336.8992    4.2573104    4.2573104    4.2573104   -8336.8992    10448.245   -31432.937   -4026.0056    -4029.414     5317.126   -4465.6326    77.162436 
   93100    976.10659   -118.89494   0.88320176   -118.01174   -11126.336     4.258063     4.258063     4.258063   -11126.336   -1914.6827   -23090.626   -8373.6984    7517.5374   -6313.4273     111.3175    77.203366 
   93200    1471.1561   -119.33802    1.3311329   -118.00689    1600.0059    4.2569355    4.2569355    4.2569355    1600.0059    4209.7389    5727.9249    -5137.646   -10257.161    -2509.745    -445.9964    77.142055 
   93300    624.82274   -118.58337   0.56535274   -118.01801    5687.4002    4.2603865    4.2603865    4.2603865    5687.4002    15328.377    7658.4664   -5924.6429    -18996.25    4612.1555   -7114.4335    77.329822 
   93400    637.12885   -118.59373   0.57648757   -118.01725   -509.00358    4.2541977    4.2541977    4.2541977   -509.00358     10466.56    -7235.036   -4758.5349   -2180.5728    10561.544    2216.8467    76.993314 
   93500    1429.0148   -119.29718    1.2930026   -118.00418   -16188.128    4.2578574    4.2578574    4.2578574   -16188.128   -15341.879   -24449.278   -8773.2256    3123.4618   -876.29076    5518.4777    77.192188 
   93600      1116.79   -119.02474    1.0104951   -118.01424   -6275.3307    4.2571104    4.2571104    4.2571104   -6275.3307   -3495.8131   -12485.725   -2844.4539    5405.1782     -11614.2   -12923.842    77.151565 
   93700    787.29368   -118.73068   0.71235987   -118.01832    14221.667    4.2497619    4.2497619    4.2497619    14221.667    33840.227    6441.1521    2383.6223   -6635.8815    3048.6666   -2224.1555    76.752726 
   93800    1020.7543   -118.93809   0.92359998   -118.01449    260.59953    4.2556004    4.2556004    4.2556004    260.59953    21790.687   -15200.604   -5808.2849   -8561.9648    5149.3023     15627.32    77.069499 
   93900    967.18477   -118.88986    0.8751291   -118.01473   -4128.3902    4.2562024    4.2562024    4.2562024   -4128.3902    14079.383   -34026.083    7561.5292    -3816.368   -11265.329   -13817.096    77.102208 
   94000    926.20131   -118.85729   0.83804641   -118.01924   -1876.8094    4.2511966    4.2511966    4.2511966   -1876.8094    27420.082   -26447.775    -6602.736    1832.9464    -9211.833   -23590.183    76.830486 
   94100    1178.5676   -119.08307    1.0663927   -118.01668   -14079.774    4.2533709    4.2533709    4.2533709   -14079.774     3083.432   -29580.083    -15742.67    -5277.231     6479.099    15949.491     76.94843 
   94200    1035.3553   -118.95096   0.93681124   -118.01415   -7110.0193    4.2563297    4.2563297    4.2563297   -7110.0193    -6031.418   -29165.695    13867.055   -8736.4193   -273.78175    9041.7459    77.109125 
   94300    811.15143   -118.74964   0.73394686   -118.01569   -2807.1062     4.257934     4.257934     4.257934   -2807.1062    14270.726   -9878.6665   -12813.378    6447.5035   -12328.169   -24033.169    77.196351 
   94400     1004.459    -118.9227   0.90885558   -118.01384   -5275.5486    4.2552456    4.2552456    4.2552456   -5275.5486   -639.73897    708.61866   -15895.525    -9163.528   -3208.5689   -2622.6006     77.05022 
   94500    1101.7616   -119.00765   0.99689704   -118.01075   -3195.0234    4.2547025    4.2547025    4.2547025   -3195.0234   -3705.0019   -15025.437    9145.3691   -20596.147    6510.2126    18115.229    77.020723 
   94600    1042.9702    -118.9533   0.94370137   -118.00959   -12747.425    4.2573219    4.2573219    4.2573219   -12747.425    15432.866   -39051.375   -14623.764    2596.4755    3314.9426   -7750.5128    77.163063 
   94700    801.47638   -118.74195   0.72519267   -118.01675    1521.2616    4.2517026    4.2517026    4.2517026    1521.2616    22120.469   -23175.992    5619.3083    15002.434   -3266.0343   -16520.361    76.857923 
   94800    1063.4636   -118.98311   0.96224419   -118.02087    5431.1882    4.2496819    4.2496819    4.2496819    5431.1882   -2219.6749    9969.8542    8543.3855    4325.8638   -35.130664    3958.3514    76.748389 
   94900    1511.0141   -119.38298    1.3671973   -118.01578   -6365.0648    4.2515559    4.2515559    4.2515559   -6365.0648     9572.906   -3090.4359   -25577.664    -5259.737   -93.422507    5788.4136    76.849967 
   95000     828.3367   -118.77759   0.74949646   -118.02809   -3523.0341    4.2533433    4.2533433    4.2533433   -3523.0341    7558.4813   -15941.764   -2185.8196    11298.886   -3270.3066   -15997.948    76.946935 
   95100    377.22993   -118.37782   0.34132556   -118.03649    5696.9428    4.2481783    4.2481783    4.2481783    5696.9428    14758.372   -233.60287    2566.0592    13406.935   -1154.0844   -16132.789    76.666954 
   95200    1169.2522   -119.08579    1.0579639   -118.02783    3437.0089    4.2508256    4.2508256    4.2508256    3437.0089    22200.555    5659.6306   -17549.159    1783.2741   -2603.5182    4126.4769    76.810373 
   95300    1517.3089    -119.3921    1.3728929    -118.0192   -12819.977    4.2569855    4.2569855    4.2569855   -12819.977     -1602.36    -26377.85   -10479.721   -6310.5544    -1948.566    2321.0387    77.144777 
   95400    779.36769   -118.72995   0.70518827   -118.02476    3342.8589    4.2485332    4.2485332    4.2485332    3342.8589    50797.621    -34881.36   -5887.6851    -3830.704   -8067.0251   -15866.329    76.686172 
   95500    799.56864   -118.74726   0.72346651    -118.0238   -608.07577     4.252965     4.252965     4.252965   -608.07577    15168.895   -17958.271    965.14867    6896.1417   -3739.9237   -14847.575    76.926401 
   95600    1255.6821   -119.15103    1.1361676   -118.01486   -12261.826    4.2601117    4.2601117    4.2601117   -12261.826   -31754.953   -9492.3412    4461.8175   -4597.3921    -2047.784    7862.6997    77.314855 
   95700    953.02938   -118.88155   0.86232101   -118.01923    9879.2608    4.2463537    4.2463537    4.2463537    9879.2608    28791.791   -11849.004    12694.995   -18151.784   -454.44044    8504.8697    76.568211 
   95800    686.09093   -118.64708   0.62078949   -118.02629    10988.628     4.248678     4.248678     4.248678    10988.628    23326.677   -18126.637    27765.843    2775.7425   -5055.3895   -16075.516    76.694009 
   95900    1054.3402   -118.97475   0.95398913   -118.02076   -8985.1426    4.2572624    4.2572624    4.2572624   -8985.1426   -22986.065   -14496.902    10527.539    5869.3671     -7566.78   -12190.704    77.159831 
   96000    1263.0951   -119.16037     1.142875   -118.01749   -847.91967    4.2496111    4.2496111    4.2496111   -847.91967   -17388.107    7409.1053    7435.2432   -10440.355    3797.1404    8353.8556    76.744552 
   96100    827.17114   -118.77362   0.74844183   -118.02518   -4976.8733    4.2542892    4.2542892    4.2542892   -4976.8733   -8330.2694   -19822.267    13221.916   -10059.157    3802.8353   -23.208448    76.998282 
   96200    875.18676   -118.81689   0.79188737     -118.025   -4100.0767    4.2507346    4.2507346    4.2507346   -4100.0767    6678.2771   -34146.064    15167.557    4720.8603   -6863.8111   -10907.627     76.80544 
   96300    1299.2339   -119.19448    1.1755742    -118.0189   -3019.4555    4.2473465    4.2473465    4.2473465   -3019.4555   -19604.527   -10162.313    20708.473    11262.597   -5523.8727    -7652.607    76.621927 
   96400     935.4308     -118.871   0.84639744    -118.0246   -9088.5663    4.2553655    4.2553655    4.2553655   -9088.5663   -46193.879    10209.185     8718.995   -5048.5338    3213.2221    1392.8877    77.056737 
   96500    796.28167   -118.74588   0.72049239   -118.02539   -5003.9912    4.2512661    4.2512661    4.2512661   -5003.9912    753.93273   -12439.668   -3326.2382    -14711.71     8289.646   -8099.5205    76.834251 
   96600    1053.3058   -118.97479   0.95305322   -118.02174   -2815.5849      4.25186      4.25186      4.25186   -2815.5849    12009.991   -23820.132    3363.3862   -972.60124   -4285.8751   -13743.011    76.866456 
   96700    1029.1672   -118.94977   0.93121215   -118.01856   -8236.3246    4.2559074    4.2559074    4.2559074   -8236.3246   -37466.035    7736.4289     5020.632    5568.6269   -10478.365    3658.8021    77.086178 
   96800     1060.877   -118.97707   0.95990377   -118.01716    1614.3162    4.2479606    4.2479606    4.2479606    1614.3162   -19363.743     23340.16    866.53196   -1862.5111    674.64798    673.76407    76.655168 
   96900    1089.5251   -119.00548   0.98582521   -118.01966     2974.894    4.2485531    4.2485531    4.2485531     2974.894    18611.021   -19985.013    10298.674   -10754.218    6577.4798   -19771.223    76.687246 
   97000     905.0258   -118.84458   0.81888636    -118.0257   -3180.8751    4.2528293    4.2528293    4.2528293   -3180.8751   -3927.1493   -26399.181    20783.705     2583.184   -2262.8018   -16480.019    76.919042 
   97100    920.28706   -118.85876   0.83269507   -118.02606   -1732.3565    4.2529156    4.2529156    4.2529156   -1732.3565    -22874.17    2253.4663    15423.634    15214.877   -13315.248    7275.8456    76.923722 
   97200    1093.0265   -119.00951   0.98899338   -118.02052   -3200.9533    4.2521703    4.2521703    4.2521703   -3200.9533   -2192.4097   -3297.4038   -4113.0464    2339.6931   -8748.7033   -6564.9066    76.883286 
   97300    975.77911   -118.90421   0.88290544    -118.0213    3564.5059    4.2495112    4.2495112    4.2495112    3564.5059    30663.692   -25306.797    5336.6235   -3415.9567     5312.785   -32552.571    76.739142 
   97400    858.72812   -118.80186   0.77699525   -118.02486    4827.3694    4.2530037    4.2530037    4.2530037    4827.3694    25614.423   -29339.271    18206.956    7765.8981   -4774.7226   -6801.5037    76.928503 
   97500    1048.5679   -118.96862   0.94876629   -118.01985    1735.9479    4.2555749    4.2555749    4.2555749    1735.9479   -15427.555   -2388.1658    23023.565    18785.937   -11854.706    15035.104     77.06811 
   97600    1189.0429   -119.09191     1.075871   -118.01604    286.63167    4.2520556    4.2520556    4.2520556    286.63167   -2269.5222    6736.0711   -3606.6539    4164.0404    2180.0695   -12027.784    76.877068 
   97700    1003.6118   -118.92345   0.90808903   -118.01536   -1082.1336    4.2540827    4.2540827    4.2540827   -1082.1336    27627.993   -23580.032   -7294.3612   -4377.0039    4847.6056   -24257.477    76.987069 
   97800    786.85701   -118.72961   0.71196476   -118.01765     5143.601    4.2554785    4.2554785    4.2554785     5143.601    25027.586   -36767.883    27171.101     13037.85   -5089.3948    8696.2241    77.062871 
   97900    986.15279   -118.90947   0.89229176   -118.01718   -4303.4888    4.2537707    4.2537707    4.2537707   -4303.4888    733.74557   -12809.605   -834.60725    13894.272   -14996.694    10531.949    76.970129 
   98000    1155.3439   -119.06379    1.0453794   -118.01841    11041.743    4.2432183    4.2432183    4.2432183    11041.743    24241.625    5324.6964    3558.9087   -6945.3436   -1808.1453   -28210.766    76.398729 
   98100    984.76774   -118.91602   0.89103855   -118.02499    -6712.979     4.254445     4.254445     4.254445    -6712.979    8465.2298   -32671.873    4067.7062   -7830.6651    2575.3091   -13933.441    77.006738 
   98200     763.9639   -118.71398   0.69125059   -118.02273   -15995.881    4.2596755    4.2596755    4.2596755   -15995.881   -6602.9169   -41101.324   -283.40274    13680.664    -7021.946    26843.908    77.291109 
   98300    1159.5128   -119.06581    1.0491515   -118.01666    5335.4737     4.246918     4.246918     4.246918    5335.4737    9603.6403    -720.9391    7123.7199     2752.327   -5228.7546    783.95717     76.59874 
   98400    1304.8566   -119.19791    1.1806617   -118.01724   -10132.438    4.2560407    4.2560407    4.2560407   -10132.438    1030.8053   -23210.456   -8217.6627   -10462.438   -3500.2764   -22930.772    77.093419 
   98500    793.56661   -118.73773   0.71803575    -118.0197    4797.6839    4.2548509    4.2548509    4.2548509    4797.6839    17639.235   -25422.254    22176.071   -3440.4679    4598.9366     15958.16    77.028783 
   98600    659.79522   -118.61733   0.59699658   -118.02033    5251.0963    4.2526219    4.2526219    4.2526219    5251.0963    12440.054   -21863.243    25176.478    3624.3109   -1058.4172    31284.883    76.907787 
   98700    1287.3629   -119.18011     1.164833   -118.01527   -6640.9065    4.2520728    4.2520728    4.2520728   -6640.9065   -21353.314    -4116.231    5546.8259   -600.30783   -4345.4795   -7044.3802       76.878 
   98800    1195.5546   -119.10093    1.0817629   -118.01916    872.09492    4.2513909    4.2513909    4.2513909    872.09492   -5875.6906   -7890.7617    16382.737   -9850.2954    5602.5527   -4379.4618    76.841019 
   98900    758.68539   -118.71081   0.68647448   -118.02433   -10594.054    4.2557536    4.2557536    4.2557536   -10594.054    23529.854   -59019.044     3707.029    3219.4251     -35.2865    26942.166    77.077823 
   99000    901.10698   -118.83269   0.81534053   -118.01735   -3680.9968    4.2510134    4.2510134    4.2510134   -3680.9968    17886.915   -41067.346    12137.441    5380.4569   -4003.1854    10245.701    76.820553 
   99100    1187.1409   -119.09188    1.0741501   -118.01773   -5658.6066    4.2533052    4.2533052    4.2533052   -5658.6066   -25578.431   -4924.4122    13527.024    -18741.83    6038.8253   -7919.8858    76.944865 
   99200    921.57613   -118.85723   0.83386145   -118.02337   -2837.5271    4.2548159    4.2548159    4.2548159   -2837.5271   -2311.5497   -9834.6447    3633.6132   -15603.372    1445.7829    18662.964    77.026881 
   99300    1122.2724   -119.03299    1.0154557   -118.01753   -6408.9277    4.2514741    4.2514741    4.2514741   -6408.9277    9370.8712   -40402.324     11804.67    4311.5065   -2119.8664    20539.336     76.84553 
   99400    1042.5894   -118.95881   0.94335684   -118.01545    -8569.286    4.2557388    4.2557388    4.2557388    -8569.286   -11639.845   -32126.603     18058.59   -2211.9858    748.26046    -5823.571    77.077019 
   99500    578.94238   -118.54379   0.52383924   -118.01995    6411.6223    4.2579305    4.2579305    4.2579305    6411.6223     9133.252   -13102.756    23204.371   -28902.851    10755.878    1880.6688    77.196162 
   99600    1153.5513   -119.05727    1.0437574   -118.01352    8328.9295    4.2537335    4.2537335    4.2537335    8328.9295    30688.597   -3011.7469   -2690.0617   -10042.171    3935.4353    12687.314    76.968114 
   99700    1460.0495   -119.32515    1.3210835   -118.00407   -8157.3108    4.2605473    4.2605473    4.2605473   -8157.3108    11826.759   -24634.486   -11664.206    10186.919    -3742.795   -9310.0477    77.338575 
   99800    627.13556   -118.57946   0.56744543   -118.01201   -6902.2916    4.2595773    4.2595773    4.2595773   -6902.2916   -20430.061   -10716.746    10439.932    -16049.03     17509.84    -5445.728    77.285767 
   99900     640.6984   -118.59273   0.57971737   -118.01301    6908.0503    4.2492207    4.2492207    4.2492207    6908.0503   -19209.873    17747.678    22186.346   -23189.735    5255.9284    7508.9406    76.723404 
  100000    1433.2042   -119.30332    1.2967933   -118.00653   -2683.7022    4.2560608    4.2560608    4.2560608   -2683.7022    -13177.83     9558.933   -4432.2094    10396.423   -6562.1379   -746.00525    77.094512 
Loop time of 222.711 on 1 procs for 100000 steps with 8 atoms

Pair  time (%) = 75.9155 (34.0871)
Kspce time (%) = 58.3219 (26.1873)
Neigh time (%) = 0.0605974 (0.027209)
Comm  time (%) = 11.6539 (5.23276)
Outpt time (%) = 0.377422 (0.169468)
Other time (%) = 76.3813 (34.2962)

Nlocal:    8 ave 8 max 8 min
Histogram: 1 0 0 0 0 0 0 0 0 0
Nghost:    2189 ave 2189 max 2189 min
Histogram: 1 0 0 0 0 0 0 0 0 0
Neighs:    2369 ave 2369 max 2369 min
Histogram: 1 0 0 0 0 0 0 0 0 0

Total # of neighbors = 2369
Ave neighs/atom = 296.125
Neighbor list builds = 128
Dangerous builds = 0
seeds:7130500
