   2   2   0   0
  0.1090254E+02  0.2793739E-09  0.2793739E-09  0.2793739E-09  0.5000000E-15
  1.000000000000000E-004
  CAR 
 automatically generated by pyflamestk   
     29.80630174     -0.71174768  301      9.07935640      1.00000000
     -0.712  0.0000E+00  0.0000E+00  0.0000E+00  0.0000E+00
     -0.610  0.0000E+00  0.0000E+00  0.0000E+00  0.0000E+00
     -0.508  0.0000E+00  0.0000E+00  0.0000E+00  0.0000E+00
     -0.407 -0.1910E-30 -0.1908E-30 -0.1943E-31 -0.1941E-31
     -0.305 -0.7684E-27 -0.7676E-27 -0.7819E-28 -0.7811E-28
     -0.203 -0.1835E-23 -0.1833E-23 -0.1867E-24 -0.1866E-24
     -0.101 -0.2599E-20 -0.2597E-20 -0.2646E-21 -0.2643E-21
      0.000 -0.2182E-17 -0.2180E-17 -0.2223E-18 -0.2221E-18
      0.102 -0.1085E-14 -0.1084E-14 -0.1106E-15 -0.1105E-15
      0.204 -0.3083E-12 -0.3081E-12 -0.3147E-13 -0.3145E-13
      0.306 -0.5310E-10 -0.5307E-10 -0.5434E-11 -0.5430E-11
      0.407 -0.5370E-08 -0.5367E-08 -0.5517E-09 -0.5514E-09
      0.509 -0.3170E-06 -0.3169E-06 -0.3280E-07 -0.3279E-07
      0.611 -0.1083E-04 -0.1083E-04 -0.1135E-05 -0.1134E-05
      0.712 -0.2108E-03 -0.2108E-03 -0.2258E-04 -0.2258E-04
      0.814 -0.2266E-02 -0.2266E-02 -0.2531E-03 -0.2531E-03
      0.916 -0.1247E-01 -0.1246E-01 -0.1521E-02 -0.1521E-02
      1.018 -0.2601E-01 -0.2601E-01 -0.4167E-02 -0.4167E-02
      1.119  0.4024E-01  0.4022E-01 -0.7386E-04 -0.7562E-04
      1.221  0.2867E+00  0.2866E+00  0.2909E-01  0.2908E-01
      1.323  0.5051E+00  0.5051E+00  0.8047E-01  0.8046E-01
      1.425  0.3802E+00  0.3803E+00  0.1191E+00  0.1191E+00
      1.526  0.1009E+00  0.1009E+00  0.1294E+00  0.1294E+00
      1.628 -0.2046E-01 -0.2046E-01  0.1273E+00  0.1273E+00
      1.730 -0.1811E-01 -0.1811E-01  0.1255E+00  0.1255E+00
      1.831 -0.4240E-02 -0.4241E-02  0.1251E+00  0.1251E+00
      1.933 -0.4832E-03 -0.4833E-03  0.1250E+00  0.1250E+00
      2.035 -0.2990E-04 -0.2991E-04  0.1250E+00  0.1250E+00
      2.137 -0.1046E-05 -0.1046E-05  0.1250E+00  0.1250E+00
      2.238 -0.2109E-07 -0.2110E-07  0.1250E+00  0.1250E+00
      2.340 -0.2478E-09 -0.2479E-09  0.1250E+00  0.1250E+00
      2.442 -0.9550E-11 -0.9543E-11  0.1250E+00  0.1250E+00
      2.544 -0.1091E-08 -0.1090E-08  0.1250E+00  0.1250E+00
      2.645 -0.8887E-07 -0.8881E-07  0.1250E+00  0.1250E+00
      2.747 -0.4215E-05 -0.4213E-05  0.1250E+00  0.1250E+00
      2.849 -0.1151E-03 -0.1150E-03  0.1250E+00  0.1250E+00
      2.950 -0.1773E-02 -0.1772E-02  0.1248E+00  0.1248E+00
      3.052 -0.1475E-01 -0.1475E-01  0.1233E+00  0.1233E+00
      3.154 -0.5877E-01 -0.5876E-01  0.1173E+00  0.1173E+00
      3.256 -0.5162E-01 -0.5165E-01  0.1121E+00  0.1121E+00
      3.357  0.3591E+00  0.3590E+00  0.1486E+00  0.1486E+00
      3.459  0.1206E+01  0.1206E+01  0.2713E+00  0.2713E+00
      3.561  0.1495E+01  0.1495E+01  0.4234E+00  0.4234E+00
      3.663  0.7862E+00  0.7863E+00  0.5033E+00  0.5033E+00
      3.764  0.8489E-01  0.8496E-01  0.5120E+00  0.5120E+00
      3.866 -0.7806E-01 -0.7806E-01  0.5040E+00  0.5040E+00
      3.968 -0.3350E-01 -0.3350E-01  0.5006E+00  0.5006E+00
      4.069 -0.5982E-02 -0.5984E-02  0.5000E+00  0.5000E+00
      4.171 -0.3799E-02 -0.3798E-02  0.4996E+00  0.4996E+00
      4.273 -0.2301E-01 -0.2300E-01  0.4973E+00  0.4973E+00
      4.375 -0.7151E-01 -0.7150E-01  0.4900E+00  0.4900E+00
      4.476  0.2101E-04 -0.2263E-04  0.4900E+00  0.4900E+00
      4.578  0.5646E+00  0.5644E+00  0.5475E+00  0.5474E+00
      4.680  0.1384E+01  0.1384E+01  0.6883E+00  0.6883E+00
      4.782  0.1378E+01  0.1378E+01  0.8285E+00  0.8284E+00
      4.883  0.5467E+00  0.5469E+00  0.8841E+00  0.8841E+00
      4.985 -0.4911E-01 -0.4904E-01  0.8791E+00  0.8791E+00
      5.087 -0.1503E+00 -0.1503E+00  0.8638E+00  0.8638E+00
      5.188  0.1486E+00  0.1485E+00  0.8789E+00  0.8789E+00
      5.290  0.9087E+00  0.9084E+00  0.9714E+00  0.9713E+00
      5.392  0.1554E+01  0.1554E+01  0.1129E+01  0.1129E+01
      5.494  0.1807E+01  0.1806E+01  0.1313E+01  0.1313E+01
      5.595  0.2208E+01  0.2207E+01  0.1538E+01  0.1538E+01
      5.697  0.2162E+01  0.2163E+01  0.1758E+01  0.1758E+01
      5.799  0.1219E+01  0.1221E+01  0.1882E+01  0.1882E+01
      5.900  0.5166E+00  0.5174E+00  0.1934E+01  0.1934E+01
      6.002  0.5238E+00  0.5237E+00  0.1988E+01  0.1988E+01
      6.104  0.1010E+01  0.1009E+01  0.2090E+01  0.2090E+01
      6.206  0.2136E+01  0.2135E+01  0.2308E+01  0.2307E+01
      6.307  0.3278E+01  0.3279E+01  0.2641E+01  0.2641E+01
      6.409  0.3667E+01  0.3669E+01  0.3014E+01  0.3014E+01
      6.511  0.3540E+01  0.3540E+01  0.3374E+01  0.3374E+01
      6.613  0.2591E+01  0.2590E+01  0.3638E+01  0.3638E+01
      6.714  0.1145E+01  0.1145E+01  0.3754E+01  0.3754E+01
      6.816  0.1102E+01  0.1102E+01  0.3866E+01  0.3866E+01
      6.918  0.2466E+01  0.2467E+01  0.4117E+01  0.4117E+01
      7.019  0.3143E+01  0.3143E+01  0.4437E+01  0.4437E+01
      7.121  0.2855E+01  0.2853E+01  0.4727E+01  0.4727E+01
      7.223  0.3280E+01  0.3279E+01  0.5061E+01  0.5061E+01
      7.325  0.4069E+01  0.4069E+01  0.5475E+01  0.5475E+01
      7.426  0.3128E+01  0.3129E+01  0.5793E+01  0.5793E+01
      7.528  0.1055E+01  0.1055E+01  0.5901E+01  0.5901E+01
      7.630  0.6162E-01  0.6171E-01  0.5907E+01  0.5907E+01
      7.732  0.1967E+00  0.1968E+00  0.5927E+01  0.5927E+01
      7.833  0.3275E+00  0.3273E+00  0.5960E+01  0.5960E+01
      7.935  0.5026E+00  0.5015E+00  0.6011E+01  0.6011E+01
      8.037  0.1452E+01  0.1451E+01  0.6159E+01  0.6159E+01
      8.138  0.2613E+01  0.2613E+01  0.6425E+01  0.6425E+01
      8.240  0.2851E+01  0.2852E+01  0.6715E+01  0.6715E+01
      8.342  0.2762E+01  0.2760E+01  0.6996E+01  0.6995E+01
      8.444  0.3704E+01  0.3701E+01  0.7372E+01  0.7372E+01
      8.545  0.4930E+01  0.4928E+01  0.7874E+01  0.7873E+01
      8.647  0.5020E+01  0.5018E+01  0.8385E+01  0.8384E+01
      8.749  0.4240E+01  0.4241E+01  0.8816E+01  0.8815E+01
      8.851  0.3322E+01  0.3324E+01  0.9154E+01  0.9153E+01
      8.952  0.3321E+01  0.3324E+01  0.9492E+01  0.9492E+01
      9.054  0.3993E+01  0.3995E+01  0.9898E+01  0.9898E+01
      9.156  0.3653E+01  0.3654E+01  0.1027E+02  0.1027E+02
      9.257  0.2046E+01  0.2046E+01  0.1048E+02  0.1048E+02
      9.359  0.4616E+00  0.4616E+00  0.1052E+02  0.1052E+02
      9.461 -0.1849E+00 -0.1849E+00  0.1051E+02  0.1051E+02
      9.563 -0.1500E+00 -0.1499E+00  0.1049E+02  0.1049E+02
      9.664  0.3731E+00  0.3733E+00  0.1053E+02  0.1053E+02
      9.766  0.1245E+01  0.1245E+01  0.1066E+02  0.1066E+02
      9.868  0.1476E+01  0.1476E+01  0.1081E+02  0.1081E+02
      9.970  0.7355E+00  0.7353E+00  0.1088E+02  0.1088E+02
     10.071  0.6264E-01  0.6254E-01  0.1089E+02  0.1089E+02
     10.173 -0.7737E-01 -0.7737E-01  0.1088E+02  0.1088E+02
     10.275 -0.3093E-01 -0.3092E-01  0.1088E+02  0.1088E+02
     10.376 -0.5083E-02 -0.5080E-02  0.1088E+02  0.1088E+02
     10.478 -0.4344E-03 -0.4341E-03  0.1088E+02  0.1088E+02
     10.580 -0.2062E-04 -0.2060E-04  0.1088E+02  0.1088E+02
     10.682 -0.5609E-06 -0.5604E-06  0.1088E+02  0.1088E+02
     10.783 -0.1494E-06 -0.1490E-06  0.1087E+02  0.1087E+02
     10.885 -0.6276E-05 -0.6258E-05  0.1087E+02  0.1087E+02
     10.987 -0.1609E-03 -0.1605E-03  0.1087E+02  0.1087E+02
     11.089 -0.2320E-02 -0.2316E-02  0.1087E+02  0.1087E+02
     11.190 -0.1794E-01 -0.1791E-01  0.1087E+02  0.1087E+02
     11.292 -0.6460E-01 -0.6456E-01  0.1087E+02  0.1087E+02
     11.394 -0.3367E-01 -0.3382E-01  0.1086E+02  0.1086E+02
     11.495  0.4426E+00  0.4419E+00  0.1091E+02  0.1091E+02
     11.597  0.1288E+01  0.1287E+01  0.1104E+02  0.1104E+02
     11.699  0.1446E+01  0.1446E+01  0.1119E+02  0.1119E+02
     11.801  0.6386E+00  0.6393E+00  0.1125E+02  0.1125E+02
     11.902 -0.6138E-01 -0.6111E-01  0.1124E+02  0.1124E+02
     12.004  0.6397E-01  0.6378E-01  0.1125E+02  0.1125E+02
     12.106  0.1075E+01  0.1075E+01  0.1136E+02  0.1136E+02
     12.208  0.2004E+01  0.2004E+01  0.1156E+02  0.1156E+02
     12.309  0.1559E+01  0.1559E+01  0.1172E+02  0.1172E+02
     12.411  0.4367E+00  0.4370E+00  0.1177E+02  0.1177E+02
     12.513 -0.7600E-01 -0.7596E-01  0.1176E+02  0.1176E+02
     12.614 -0.7503E-01 -0.7505E-01  0.1175E+02  0.1175E+02
     12.716 -0.1816E-01 -0.1817E-01  0.1175E+02  0.1175E+02
     12.818 -0.2125E-02 -0.2127E-02  0.1175E+02  0.1175E+02
     12.920 -0.1348E-03 -0.1349E-03  0.1175E+02  0.1175E+02
     13.021 -0.4832E-05 -0.4836E-05  0.1175E+02  0.1175E+02
     13.123 -0.9985E-07 -0.9995E-07  0.1175E+02  0.1175E+02
     13.225 -0.1202E-08 -0.1204E-08  0.1175E+02  0.1175E+02
     13.327 -0.8490E-11 -0.8500E-11  0.1175E+02  0.1175E+02
     13.428 -0.3547E-13 -0.3547E-13  0.1175E+02  0.1175E+02
     13.530  0.0000E+00  0.0000E+00  0.1175E+02  0.1175E+02
     13.632  0.0000E+00  0.0000E+00  0.1175E+02  0.1175E+02
     13.733  0.0000E+00  0.0000E+00  0.1175E+02  0.1175E+02
     13.835  0.0000E+00  0.0000E+00  0.1175E+02  0.1175E+02
     13.937  0.0000E+00  0.0000E+00  0.1175E+02  0.1175E+02
     14.039  0.0000E+00  0.0000E+00  0.1175E+02  0.1175E+02
     14.140 -0.1476E-28 -0.1474E-28  0.1175E+02  0.1175E+02
     14.242 -0.4738E-25 -0.4733E-25  0.1175E+02  0.1175E+02
     14.344 -0.9026E-22 -0.9018E-22  0.1175E+02  0.1175E+02
     14.446 -0.1020E-18 -0.1019E-18  0.1175E+02  0.1175E+02
     14.547 -0.6827E-16 -0.6822E-16  0.1175E+02  0.1175E+02
     14.649 -0.2623E-13 -0.2621E-13  0.1175E+02  0.1175E+02
     14.751 -0.6102E-11 -0.6098E-11  0.1175E+02  0.1175E+02
     14.852 -0.8353E-09 -0.8347E-09  0.1175E+02  0.1175E+02
     14.954 -0.6698E-07 -0.6694E-07  0.1175E+02  0.1175E+02
     15.056 -0.3126E-05 -0.3124E-05  0.1175E+02  0.1175E+02
     15.158 -0.8395E-04 -0.8391E-04  0.1175E+02  0.1175E+02
     15.259 -0.1271E-02 -0.1271E-02  0.1175E+02  0.1175E+02
     15.361 -0.1039E-01 -0.1039E-01  0.1175E+02  0.1175E+02
     15.463 -0.4072E-01 -0.4071E-01  0.1174E+02  0.1174E+02
     15.565 -0.3711E-01 -0.3712E-01  0.1174E+02  0.1174E+02
     15.666  0.2211E+00  0.2211E+00  0.1176E+02  0.1176E+02
     15.768  0.7413E+00  0.7413E+00  0.1184E+02  0.1184E+02
     15.870  0.1068E+01  0.1068E+01  0.1195E+02  0.1195E+02
     15.971  0.1276E+01  0.1275E+01  0.1208E+02  0.1208E+02
     16.073  0.1538E+01  0.1538E+01  0.1223E+02  0.1223E+02
     16.175  0.1169E+01  0.1169E+01  0.1235E+02  0.1235E+02
     16.277  0.3512E+00  0.3514E+00  0.1239E+02  0.1239E+02
     16.378 -0.5259E-01 -0.5255E-01  0.1238E+02  0.1238E+02
     16.480 -0.6008E-01 -0.6010E-01  0.1238E+02  0.1238E+02
     16.582 -0.1527E-01 -0.1528E-01  0.1238E+02  0.1238E+02
     16.684 -0.1856E-02 -0.1857E-02  0.1238E+02  0.1238E+02
     16.785 -0.1225E-03 -0.1226E-03  0.1238E+02  0.1238E+02
     16.887 -0.2886E-04 -0.2883E-04  0.1237E+02  0.1237E+02
     16.989 -0.4643E-03 -0.4639E-03  0.1237E+02  0.1237E+02
     17.090 -0.4880E-02 -0.4876E-02  0.1237E+02  0.1237E+02
     17.192 -0.2612E-01 -0.2611E-01  0.1237E+02  0.1237E+02
     17.294 -0.5171E-01 -0.5171E-01  0.1237E+02  0.1237E+02
     17.396  0.9184E-01  0.9174E-01  0.1238E+02  0.1238E+02
     17.497  0.5944E+00  0.5942E+00  0.1244E+02  0.1244E+02
     17.599  0.1009E+01  0.1009E+01  0.1254E+02  0.1254E+02
     17.701  0.7205E+00  0.7207E+00  0.1261E+02  0.1261E+02
     17.803  0.1699E+00  0.1700E+00  0.1263E+02  0.1263E+02
     17.904  0.8212E-01  0.8207E-01  0.1264E+02  0.1264E+02
     18.006  0.3728E+00  0.3727E+00  0.1268E+02  0.1268E+02
     18.108  0.4850E+00  0.4850E+00  0.1273E+02  0.1273E+02
     18.209  0.2394E+00  0.2395E+00  0.1275E+02  0.1275E+02
     18.311  0.8864E-04  0.1253E-03  0.1275E+02  0.1275E+02
     18.413  0.3602E-01  0.3598E-01  0.1275E+02  0.1275E+02
     18.515  0.3144E+00  0.3144E+00  0.1279E+02  0.1279E+02
     18.616  0.5082E+00  0.5082E+00  0.1284E+02  0.1284E+02
     18.718  0.3409E+00  0.3409E+00  0.1287E+02  0.1287E+02
     18.820  0.5382E-01  0.5386E-01  0.1288E+02  0.1288E+02
     18.922 -0.9175E-01 -0.9174E-01  0.1287E+02  0.1287E+02
     19.023 -0.3601E-01 -0.3606E-01  0.1286E+02  0.1286E+02
     19.125  0.4918E+00  0.4917E+00  0.1291E+02  0.1291E+02
     19.227  0.1333E+01  0.1333E+01  0.1305E+02  0.1305E+02
     19.328  0.1424E+01  0.1424E+01  0.1319E+02  0.1319E+02
     19.430  0.6280E+00  0.6282E+00  0.1326E+02  0.1326E+02
     19.532  0.2110E-01  0.2117E-01  0.1326E+02  0.1326E+02
     19.634 -0.7426E-01 -0.7427E-01  0.1325E+02  0.1325E+02
     19.735 -0.2581E-01 -0.2582E-01  0.1325E+02  0.1325E+02
     19.837 -0.3892E-02 -0.3894E-02  0.1325E+02  0.1325E+02
     19.939 -0.3109E-03 -0.3111E-03  0.1325E+02  0.1325E+02
     20.041 -0.7814E-04 -0.7810E-04  0.1325E+02  0.1325E+02
     20.142 -0.1134E-02 -0.1133E-02  0.1325E+02  0.1325E+02
     20.244 -0.1106E-01 -0.1105E-01  0.1325E+02  0.1325E+02
     20.346 -0.5549E-01 -0.5548E-01  0.1324E+02  0.1324E+02
     20.447 -0.1044E+00 -0.1044E+00  0.1323E+02  0.1323E+02
     20.549  0.1848E+00  0.1846E+00  0.1325E+02  0.1325E+02
     20.651  0.1212E+01  0.1212E+01  0.1337E+02  0.1337E+02
     20.753  0.2237E+01  0.2237E+01  0.1360E+02  0.1360E+02
     20.854  0.1929E+01  0.1929E+01  0.1380E+02  0.1380E+02
     20.956  0.7304E+00  0.7306E+00  0.1387E+02  0.1387E+02
     21.058  0.3025E+00  0.3024E+00  0.1390E+02  0.1390E+02
     21.160  0.1009E+01  0.1009E+01  0.1401E+02  0.1401E+02
     21.261  0.1487E+01  0.1487E+01  0.1416E+02  0.1416E+02
     21.363  0.8943E+00  0.8945E+00  0.1425E+02  0.1425E+02
     21.465  0.1416E+00  0.1417E+00  0.1426E+02  0.1426E+02
     21.566 -0.7743E-01 -0.7743E-01  0.1425E+02  0.1425E+02
     21.668 -0.3963E-01 -0.3964E-01  0.1425E+02  0.1425E+02
     21.770 -0.7452E-02 -0.7456E-02  0.1425E+02  0.1425E+02
     21.872 -0.7129E-03 -0.7133E-03  0.1425E+02  0.1425E+02
     21.973 -0.3758E-04 -0.3761E-04  0.1425E+02  0.1425E+02
     22.075 -0.1128E-05 -0.1129E-05  0.1425E+02  0.1425E+02
     22.177 -0.2059E-07 -0.2061E-07  0.1425E+02  0.1425E+02
     22.279 -0.8441E-07 -0.8432E-07  0.1425E+02  0.1425E+02
     22.380 -0.4023E-05 -0.4019E-05  0.1425E+02  0.1425E+02
     22.482 -0.1106E-03 -0.1106E-03  0.1425E+02  0.1425E+02
     22.584 -0.1717E-02 -0.1716E-02  0.1425E+02  0.1425E+02
     22.685 -0.1442E-01 -0.1441E-01  0.1425E+02  0.1425E+02
     22.787 -0.5807E-01 -0.5805E-01  0.1424E+02  0.1424E+02
     22.889 -0.5336E-01 -0.5339E-01  0.1424E+02  0.1424E+02
     22.991  0.3499E+00  0.3497E+00  0.1427E+02  0.1427E+02
     23.092  0.1196E+01  0.1196E+01  0.1439E+02  0.1439E+02
     23.194  0.1499E+01  0.1499E+01  0.1455E+02  0.1455E+02
     23.296  0.7979E+00  0.7981E+00  0.1463E+02  0.1463E+02
     23.398  0.9031E-01  0.9041E-01  0.1464E+02  0.1464E+02
     23.499 -0.7814E-01 -0.7815E-01  0.1463E+02  0.1463E+02
     23.601 -0.3409E-01 -0.3411E-01  0.1463E+02  0.1463E+02
     23.703 -0.5892E-02 -0.5895E-02  0.1463E+02  0.1463E+02
     23.804 -0.5254E-03 -0.5257E-03  0.1463E+02  0.1463E+02
     23.906 -0.2595E-04 -0.2597E-04  0.1463E+02  0.1463E+02
     24.008 -0.7311E-06 -0.7318E-06  0.1463E+02  0.1463E+02
     24.110 -0.1193E-07 -0.1194E-07  0.1463E+02  0.1463E+02
     24.211 -0.1146E-09 -0.1148E-09  0.1462E+02  0.1462E+02
     24.313 -0.1546E-09 -0.1545E-09  0.1462E+02  0.1462E+02
     24.415 -0.1562E-07 -0.1561E-07  0.1462E+02  0.1462E+02
     24.517 -0.9260E-06 -0.9255E-06  0.1462E+02  0.1462E+02
     24.618 -0.3176E-04 -0.3175E-04  0.1462E+02  0.1462E+02
     24.720 -0.6208E-03 -0.6205E-03  0.1462E+02  0.1462E+02
     24.822 -0.6702E-02 -0.6699E-02  0.1462E+02  0.1462E+02
     24.923 -0.3705E-01 -0.3704E-01  0.1462E+02  0.1462E+02
     25.025 -0.7808E-01 -0.7808E-01  0.1461E+02  0.1461E+02
     25.127  0.1175E+00  0.1174E+00  0.1462E+02  0.1462E+02
     25.229  0.8537E+00  0.8535E+00  0.1471E+02  0.1471E+02
     25.330  0.1514E+01  0.1514E+01  0.1487E+02  0.1487E+02
     25.432  0.1146E+01  0.1146E+01  0.1498E+02  0.1498E+02
     25.534  0.3059E+00  0.3060E+00  0.1501E+02  0.1501E+02
     25.636 -0.7319E-01 -0.7317E-01  0.1501E+02  0.1501E+02
     25.737 -0.1086E+00 -0.1086E+00  0.1499E+02  0.1499E+02
     25.839 -0.7508E-01 -0.7511E-01  0.1499E+02  0.1499E+02
     25.941  0.2958E+00  0.2957E+00  0.1502E+02  0.1502E+02
     26.042  0.1134E+01  0.1134E+01  0.1513E+02  0.1513E+02
     26.144  0.1517E+01  0.1517E+01  0.1529E+02  0.1529E+02
     26.246  0.8670E+00  0.8672E+00  0.1537E+02  0.1537E+02
     26.348  0.1225E+00  0.1226E+00  0.1539E+02  0.1539E+02
     26.449 -0.9370E-01 -0.9369E-01  0.1538E+02  0.1538E+02
     26.551 -0.9852E-01 -0.9853E-01  0.1537E+02  0.1537E+02
     26.653 -0.5321E-01 -0.5324E-01  0.1536E+02  0.1536E+02
     26.754  0.3853E+00  0.3852E+00  0.1540E+02  0.1540E+02
     26.856  0.1234E+01  0.1234E+01  0.1553E+02  0.1553E+02
     26.958  0.1483E+01  0.1483E+01  0.1568E+02  0.1568E+02
     27.060  0.7529E+00  0.7531E+00  0.1575E+02  0.1575E+02
     27.161  0.7000E-01  0.7007E-01  0.1576E+02  0.1576E+02
     27.263 -0.7864E-01 -0.7864E-01  0.1575E+02  0.1575E+02
     27.365 -0.4028E-01 -0.4028E-01  0.1575E+02  0.1575E+02
     27.467 -0.4153E-01 -0.4152E-01  0.1575E+02  0.1575E+02
     27.568 -0.4137E-01 -0.4138E-01  0.1574E+02  0.1574E+02
     27.670  0.2018E+00  0.2017E+00  0.1576E+02  0.1576E+02
     27.772  0.7606E+00  0.7605E+00  0.1584E+02  0.1584E+02
     27.873  0.1010E+01  0.1010E+01  0.1594E+02  0.1594E+02
     27.975  0.5732E+00  0.5733E+00  0.1600E+02  0.1600E+02
     28.077  0.8041E-01  0.8047E-01  0.1601E+02  0.1601E+02
     28.179 -0.5202E-01 -0.5202E-01  0.1600E+02  0.1600E+02
     28.280 -0.2492E-01 -0.2493E-01  0.1600E+02  0.1600E+02
     28.382 -0.4531E-02 -0.4533E-02  0.1600E+02  0.1600E+02
     28.484 -0.4215E-03 -0.4217E-03  0.1600E+02  0.1600E+02
     28.586 -0.2165E-04 -0.2166E-04  0.1600E+02  0.1600E+02
     28.687 -0.6336E-06 -0.6341E-06  0.1600E+02  0.1600E+02
     28.789 -0.1073E-07 -0.1074E-07  0.1600E+02  0.1600E+02
     28.891 -0.1061E-09 -0.1062E-09  0.1600E+02  0.1600E+02
     28.992 -0.6161E-12 -0.6166E-12  0.1600E+02  0.1600E+02
     29.094 -0.2183E-14 -0.2183E-14  0.1600E+02  0.1600E+02
     29.196  0.0000E+00  0.0000E+00  0.1600E+02  0.1600E+02
     29.298  0.0000E+00  0.0000E+00  0.1600E+02  0.1600E+02
     29.399  0.0000E+00  0.0000E+00  0.1600E+02  0.1600E+02
     29.501  0.0000E+00  0.0000E+00  0.1600E+02  0.1600E+02
     29.603  0.0000E+00  0.0000E+00  0.1600E+02  0.1600E+02
     29.705  0.0000E+00  0.0000E+00  0.1600E+02  0.1600E+02
     29.806  0.0000E+00  0.0000E+00  0.1600E+02  0.1600E+02
