LAMMPS (11 Aug 2017)
Reading data file ...
  triclinic box = (0 0 0) to (5.43 5.43 5.43) with tilt (0 0 0)
  1 by 1 by 1 MPI processor grid
  reading atoms ...
  8 atoms
8 atoms in group Si
Neighbor list info ...
  update every 1 steps, delay 0 steps, check yes
  max neighbors/atom: 2000, page size: 100000
  master list distance cutoff = 3.67775
  ghost atom cutoff = 3.67775
  binsize = 1.83887, bins = 3 3 3
  1 neighbor lists, perpetual/occasional/extra = 1 0 0
  (1) pair sw, perpetual
      attributes: full, newton on
      pair build: full/bin/atomonly
      stencil: full/bin/3d
      bin: standard
Setting up cg style minimization ...
  Unit style    : metal
  Current step  : 0
WARNING: Energy due to 3 extra global DOFs will be included in minimizer energies
Per MPI rank memory allocation (min/avg/max) = 3.937 | 3.937 | 3.937 Mbytes
Step PotEng Xhi Xlo Yhi Ylo Zhi Xy Xz Yz Press Pxx Pyy Pzz Pxy Pxz Pyz c_eatoms 
       0  -0.28141874         5.43            0         5.43            0         5.43            0            0            0    1447.7166    1447.7166    1447.7166    1447.7166            0            0 1.7359656e-14  -0.28141874 
      10  -0.28154541    5.4315945 -0.0015944674    5.4315945 -0.0015944674    5.4315945            0            0            0 -2.9642343e-10 -2.9642343e-10 -2.9642343e-10 -2.9642343e-10 -4.0739225e-30 -1.5760741e-26 1.1820539e-26  -0.28154541 
      14  -0.28154541    5.4315945 -0.0015944674    5.4315945 -0.0015944674    5.4315945            0            0            0 1.5250356e-10 1.5250356e-10 1.5250356e-10 1.5250356e-10 1.9942773e-10 1.9942773e-10 1.9942773e-10  -0.28154541 
Loop time of 0.000343084 on 1 procs for 14 steps with 8 atoms

100.3% CPU use with 1 MPI tasks x no OpenMP threads

Minimization stats:
  Stopping criterion = energy tolerance
  Energy initial, next-to-last, final = 
       -0.281418742436    -0.281545407424    -0.281545407424
  Force two-norm initial, final = 0.250572 4.20022e-14
  Force max component initial, final = 0.144668 1.52573e-14
  Final line search alpha, max atom move = 1 1.52573e-14
  Iterations, force evaluations = 14 28

MPI task timing breakdown:
Section |  min time  |  avg time  |  max time  |%varavg| %total
---------------------------------------------------------------
Pair    | 0.00024223 | 0.00024223 | 0.00024223 |   0.0 | 70.60
Neigh   | 0          | 0          | 0          |   0.0 |  0.00
Comm    | 1.6212e-05 | 1.6212e-05 | 1.6212e-05 |   0.0 |  4.73
Output  | 1.502e-05  | 1.502e-05  | 1.502e-05  |   0.0 |  4.38
Modify  | 0          | 0          | 0          |   0.0 |  0.00
Other   |            | 6.962e-05  |            |       | 20.29

Nlocal:    8 ave 8 max 8 min
Histogram: 1 0 0 0 0 0 0 0 0 0
Nghost:    86 ave 86 max 86 min
Histogram: 1 0 0 0 0 0 0 0 0 0
Neighs:    0 ave 0 max 0 min
Histogram: 1 0 0 0 0 0 0 0 0 0
FullNghs:  32 ave 32 max 32 min
Histogram: 1 0 0 0 0 0 0 0 0 0

Total # of neighbors = 32
Ave neighs/atom = 4
Neighbor list builds = 0
Dangerous builds = 0
pypospack:output_section:begin
tot_energy = -0.281545407423986
num_atoms = 8
a11 = 5.43318893481823
a22 = 5.43318893481823
a33 = 5.43318893481823
a12 = 0
a13 = 0
a23 = 0
tot_press = 1.52503558545292e-10
pxx = 1.52503558545292e-10
pyy = 1.52503558545292e-10
pzz = 1.52503558545292e-10
pxy = 1.99427730405366e-10
pxz = 1.99427730405366e-10
pyz = 1.99427730405366e-10
pypospack:output_section:done
pypospack:lammps_sim:done
Total wall time: 0:00:00
