LAMMPS (11 Aug 2017)
# ---- initialize simulations
clear
units metal
dimension 3
boundary p p p
atom_style atomic
atom_modify map array
# ---- create atoms
read_data /ufrc/phillpot/eragasa/pareto_optimization_3.5NN/rank_35/Ni_fcc_100_s.lmps_min_pos/lammps.structure
  triclinic box = (0 0 0) to (3.337 3.337 33.3695) with tilt (0 -0 0)
  1 by 1 by 1 MPI processor grid
  reading atoms ...
  20 atoms
# ---- define interatomic potential
include potential.mod
mass 1 58.6934

group Ni type 1
20 atoms in group Ni

pair_style eam/alloy
pair_coeff * * /ufrc/phillpot/eragasa/pareto_optimization_3.5NN/rank_35/Ni_fcc_100_s.lmps_min_pos/Ni.eam.alloy Ni

neighbor 1.0 bin
neigh_modify every 1 delay 0 check yes
# ---- define settings
compute eng all pe/atom
compute eatoms all reduce sum c_eng

# ---- run minimization
reset_timestep 0
thermo 1
thermo_style custom step pe lx ly lz xy xz yz press pxx pyy pzz pxy pxz pyz c_eatoms
min_style cg
minimize 1e-20 1e-20 1000 100000
Neighbor list info ...
  update every 1 steps, delay 0 steps, check yes
  max neighbors/atom: 2000, page size: 100000
  master list distance cutoff = 5.64464
  ghost atom cutoff = 5.64464
  binsize = 2.82232, bins = 2 2 12
  1 neighbor lists, perpetual/occasional/extra = 1 0 0
  (1) pair eam/alloy, perpetual
      attributes: half, newton on
      pair build: half/bin/newton/tri
      stencil: half/bin/3d/newton/tri
      bin: standard
Per MPI rank memory allocation (min/avg/max) = 4.207 | 4.207 | 4.207 Mbytes
Step PotEng Lx Ly Lz Xy Xz Yz Press Pxx Pyy Pzz Pxy Pxz Pyz c_eatoms 
       0   -106.51432        3.337        3.337      33.3695            0           -0            0   -10766.469   -14931.529   -14931.529    -2436.349 -1.0172259e-12 9.5738908e-12 1.184769e-11   -106.51432 
       1     -106.515        3.337        3.337      33.3695            0           -0            0    -10345.07    -14552.82    -14552.82   -1929.5711 -1.4959204e-12 1.8250229e-12 7.4796022e-13     -106.515 
       2   -106.51528        3.337        3.337      33.3695            0           -0            0   -9882.7035   -14153.571   -14153.571   -1340.9682 -1.7352677e-12 5.9537633e-12 8.0031744e-12   -106.51528 
       3   -106.51536        3.337        3.337      33.3695            0           -0            0   -9713.0057   -14000.937   -14000.937   -1137.1435 -3.7098827e-12 5.1459663e-12            0   -106.51536 
       4   -106.51538        3.337        3.337      33.3695            0           -0            0   -9637.3163   -13931.025   -13931.025   -1049.8983 6.5820499e-13 5.7742529e-12 7.3150509e-12   -106.51538 
       5    -106.5155        3.337        3.337      33.3695            0           -0            0   -8770.6674   -13164.076   -13164.076    16.150423 -1.1967364e-13 -2.2349051e-11 1.0381688e-11    -106.5155 
       6   -106.51551        3.337        3.337      33.3695            0           -0            0   -8752.9827   -13147.635   -13147.635    36.321976 -6.881234e-12 9.8132381e-12 1.9297374e-12   -106.51551 
       7   -106.51551        3.337        3.337      33.3695            0           -0            0   -8759.4599   -13152.972   -13152.972    27.565127 -1.0202177e-11 -2.0045334e-12 -4.2035364e-12   -106.51551 
       8   -106.51551        3.337        3.337      33.3695            0           -0            0   -8766.4578   -13159.349   -13159.349    19.324119 6.1931106e-12 6.1931106e-12 -5.8490489e-12   -106.51551 
       9   -106.51551        3.337        3.337      33.3695            0           -0            0   -8770.7065   -13163.047   -13163.047     13.97402 -6.4623763e-12 -1.2386221e-11 -1.2266548e-11   -106.51551 
      10   -106.51551        3.337        3.337      33.3695            0           -0            0   -8776.4497    -13168.21    -13168.21    7.0699197 -1.4540347e-11 -2.049411e-11 1.9776068e-11   -106.51551 
      11   -106.51551        3.337        3.337      33.3695            0           -0            0   -8780.8157   -13172.093   -13172.093    1.7381303 1.3762468e-12 2.0045334e-12 2.2214419e-11   -106.51551 
      12   -106.51551        3.337        3.337      33.3695            0           -0            0   -8782.1434   -13173.262   -13173.262  0.093647219 1.3134181e-11 9.1251147e-12 -1.4196285e-11   -106.51551 
      13   -106.51551        3.337        3.337      33.3695            0           -0            0   -8782.5669   -13173.639   -13173.639  -0.42218217 -4.5864921e-11 -2.5161382e-11 -5.9238449e-12   -106.51551 
      14   -106.51551        3.337        3.337      33.3695            0           -0            0   -8782.4846   -13173.567   -13173.567  -0.31895406 -1.6963738e-11 -2.8242978e-11 6.1183146e-12   -106.51551 
      15   -106.51551        3.337        3.337      33.3695            0           -0            0   -8782.4481   -13173.535   -13173.535  -0.27519726 -2.1840438e-12 7.2103365e-12 2.0464192e-11   -106.51551 
      16   -106.51551        3.337        3.337      33.3695            0           -0            0   -8782.4042   -13173.495   -13173.495  -0.22198296 2.1182233e-11 3.3718047e-11 1.0546239e-11   -106.51551 
      17   -106.51551        3.337        3.337      33.3695            0           -0            0   -8782.2184    -13173.33    -13173.33 0.0050644707 -5.7742529e-12 -1.1398914e-11 6.6718052e-12   -106.51551 
      18   -106.51551        3.337        3.337      33.3695            0           -0            0   -8782.2129   -13173.326   -13173.326  0.012444492 -1.5348144e-11 5.6844977e-13 -1.4136448e-11   -106.51551 
      19   -106.51551        3.337        3.337      33.3695            0           -0            0   -8782.2174    -13173.33    -13173.33 0.0067471772 -2.2349051e-11 -1.8549413e-12 -2.4832279e-12   -106.51551 
      20   -106.51551        3.337        3.337      33.3695            0           -0            0   -8782.2185    -13173.33    -13173.33 0.0054830313 -1.7980964e-11 1.786129e-11 -1.766682e-11   -106.51551 
      21   -106.51551        3.337        3.337      33.3695            0           -0            0   -8782.2186   -13173.331   -13173.331  0.005344926 1.5677246e-11 -1.6844064e-11 4.3980061e-12   -106.51551 
      22   -106.51551        3.337        3.337      33.3695            0           -0            0   -8782.2221   -13173.334   -13173.334 0.0011241356 -1.1668179e-12 -1.20272e-11 3.3388944e-11   -106.51551 
      23   -106.51551        3.337        3.337      33.3695            0           -0            0   -8782.2224   -13173.334   -13173.334 0.00070026968 -1.241614e-11 3.2611066e-11 1.5407981e-11   -106.51551 
      24   -106.51551        3.337        3.337      33.3695            0           -0            0   -8782.2226   -13173.334   -13173.334 0.00046219892 1.2984589e-11 -2.0942886e-13 -2.7300548e-11   -106.51551 
      25   -106.51551        3.337        3.337      33.3695            0           -0            0   -8782.2227   -13173.334   -13173.334 0.00036996877 -1.3642794e-11 -4.9664559e-12 -1.6185859e-11   -106.51551 
      26   -106.51551        3.337        3.337      33.3695            0           -0            0   -8782.2227   -13173.334   -13173.334 0.00031943677 1.7951045e-13 2.0045334e-11 2.5161382e-11   -106.51551 
      27   -106.51551        3.337        3.337      33.3695            0           -0            0   -8782.2228   -13173.334   -13173.334 0.00022025022 1.6155941e-11 3.6201275e-12 -2.2902542e-11   -106.51551 
      28   -106.51551        3.337        3.337      33.3695            0           -0            0   -8782.2229   -13173.334   -13173.334 0.00014794914 -9.9029933e-12 -4.757027e-12 -2.3815053e-11   -106.51551 
      29   -106.51551        3.337        3.337      33.3695            0           -0            0    -8782.223   -13173.334   -13173.334 -9.3297566e-10 -4.4009979e-11 1.9267455e-11 3.3493659e-11   -106.51551 
      30   -106.51551        3.337        3.337      33.3695            0           -0            0    -8782.223   -13173.334   -13173.334 -2.896102e-10 -1.2446058e-11 -2.0224844e-11 3.2356759e-11   -106.51551 
Loop time of 0.002702 on 1 procs for 30 steps with 20 atoms

92.5% CPU use with 1 MPI tasks x no OpenMP threads

Minimization stats:
  Stopping criterion = energy tolerance
  Energy initial, next-to-last, final = 
        -106.514320994     -106.515510443     -106.515510443
  Force two-norm initial, final = 0.1215 3.95322e-13
  Force max component initial, final = 0.0481011 1.51497e-13
  Final line search alpha, max atom move = 1 1.51497e-13
  Iterations, force evaluations = 30 59

MPI task timing breakdown:
Section |  min time  |  avg time  |  max time  |%varavg| %total
---------------------------------------------------------------
Pair    | 0.0021207  | 0.0021207  | 0.0021207  |   0.0 | 78.49
Neigh   | 0          | 0          | 0          |   0.0 |  0.00
Comm    | 0.00017309 | 0.00017309 | 0.00017309 |   0.0 |  6.41
Output  | 0.00032258 | 0.00032258 | 0.00032258 |   0.0 | 11.94
Modify  | 0          | 0          | 0          |   0.0 |  0.00
Other   |            | 8.559e-05  |            |       |  3.17

Nlocal:    20 ave 20 max 20 min
Histogram: 1 0 0 0 0 0 0 0 0 0
Nghost:    547 ave 547 max 547 min
Histogram: 1 0 0 0 0 0 0 0 0 0
Neighs:    688 ave 688 max 688 min
Histogram: 1 0 0 0 0 0 0 0 0 0

Total # of neighbors = 688
Ave neighs/atom = 34.4
Neighbor list builds = 0
Dangerous builds = 0

# ---- define output variables ----
variable natoms equal "count(all)"
variable tot_energy equal "c_eatoms"
variable a11 equal "xhi-xlo"
variable a22 equal "yhi-ylo"
variable a33 equal "zhi-zlo"
variable tilt_xy equal "xy"
variable tilt_xz equal "xz"
variable tilt_yz equal "yz"
variable tot_press equal "press"
variable press_xx equal "pxx"
variable press_yy equal "pyy"
variable press_zz equal "pzz"
variable press_xy equal "pxy"
variable press_xz equal "pxz"
variable press_yz equal "pyz"

# ---- output ----
print "pypospack:output_section:begin"
pypospack:output_section:begin
print "tot_energy = ${tot_energy}"
tot_energy = -106.515510443138
print "num_atoms = ${natoms}"
num_atoms = 20
print "a11 = ${a11}"
a11 = 3.337
print "a22 = ${a22}"
a22 = 3.337
print "a33 = ${a33}"
a33 = 33.3695
print "a12 = ${tilt_xy}"
a12 = 0
print "a13 = ${tilt_xz}"
a13 = -0
print "a23 = ${tilt_yz}"
a23 = 0
print "tot_press = ${tot_press}"
tot_press = -8782.22297659774
print "pxx = ${press_xx}"
pxx = -13173.3344648965
print "pyy = ${press_yy}"
pyy = -13173.3344648965
print "pzz = ${press_zz}"
pzz = -2.89610197117884e-10
print "pxy = ${press_xy}"
pxy = -1.24460580579587e-11
print "pxz = ${press_xz}"
pxz = -2.02248443441828e-11
print "pyz = ${press_yz}"
pyz = 3.23567591098132e-11
print "pypospack:output_section:done"
pypospack:output_section:done
print "pypospack:lammps_sim:done"
pypospack:lammps_sim:done
Total wall time: 0:00:00
