LAMMPS (11 Aug 2017)
Reading data file ...
  triclinic box = (0 0 0) to (2.4819 4.2987 6.0783) with tilt (0 0 0)
  1 by 1 by 1 MPI processor grid
  reading atoms ...
  6 atoms
6 atoms in group Ni
Neighbor list info ...
  update every 1 steps, delay 0 steps, check yes
  max neighbors/atom: 2000, page size: 100000
  master list distance cutoff = 11
  ghost atom cutoff = 11
  binsize = 5.5, bins = 1 1 2
  1 neighbor lists, perpetual/occasional/extra = 1 0 0
  (1) pair eam/alloy, perpetual
      attributes: half, newton on
      pair build: half/bin/newton/tri
      stencil: half/bin/3d/newton/tri
      bin: standard
Setting up cg style minimization ...
  Unit style    : metal
  Current step  : 0
WARNING: Energy due to 3 extra global DOFs will be included in minimizer energies
Per MPI rank memory allocation (min/avg/max) = 4.298 | 4.298 | 4.298 Mbytes
Step PotEng Xhi Xlo Yhi Ylo Zhi Xy Xz Yz Press Pxx Pyy Pzz Pxy Pxz Pyz c_eatoms 
       0   -27.060164       2.4819            0       4.2987            0       6.0783            0            0            0    13962.843     13915.82    13925.554    14047.154 -0.00098348102 -0.00036560668   -2.5230997   -27.060164 
      10    -27.06223    2.4848528 -0.0029528046    4.3038529 -0.0051529112    6.0860771            0            0            0  0.033129644   0.03215688  0.018982727  0.048249326 -1.7933017e-11 6.9252137e-10 0.0034029293    -27.06223 
      20    -27.06223    2.4848528 -0.0029528144    4.3038529 -0.0051528742    6.0860772            0            0            0 -1.2440801e-08 -1.1122245e-08 -1.0491556e-08 -1.5708601e-08 -6.2680364e-11 -5.4346555e-11 -8.9694345e-11    -27.06223 
      30    -27.06223    2.4848528 -0.0029528144    4.3038529 -0.0051528742    6.0860772            0            0            0 -1.2563112e-10 -1.2652397e-10 -4.6665874e-11 -2.0370352e-10 -1.020741e-10 6.9843139e-11 -3.4378121e-11    -27.06223 
      40    -27.06223    2.4848528 -0.0029528144    4.3038529 -0.0051528742    6.0860772            0            0            0 5.5897417e-10 3.3881603e-10 5.6353633e-10 7.7457015e-10 -3.5213234e-11 1.8437719e-10 -8.6477537e-11    -27.06223 
      50    -27.06223    2.4848528 -0.0029528144    4.3038529 -0.0051528742    6.0860772            0            0            0 -1.2182795e-10 2.4007219e-10 -9.5800807e-11 -5.0975522e-10 -1.3975701e-11 6.585516e-12 5.7164383e-11    -27.06223 
      60    -27.06223    2.4848528 -0.0029528144    4.3038529 -0.0051528742    6.0860772            0            0            0 3.6276659e-10 3.9393542e-10 4.6051476e-10 2.338496e-10 -1.2986954e-10 5.3921618e-11 4.7533946e-12    -27.06223 
      70    -27.06223    2.4848528 -0.0029528144    4.3038529 -0.0051528742    6.0860772            0            0            0 1.0249775e-09 1.0713246e-09 1.2071986e-09 7.9640919e-10 1.5120227e-11 1.0855143e-10 1.5822597e-10    -27.06223 
      73    -27.06223    2.4848528 -0.0029528144    4.3038529 -0.0051528742    6.0860772            0            0            0 -3.6938462e-10 -3.3492074e-10 -5.234491e-10 -2.4978402e-10 -1.4612771e-10 -4.8460612e-11 -1.3024283e-10    -27.06223 
Loop time of 0.0181708 on 1 procs for 73 steps with 6 atoms

98.5% CPU use with 1 MPI tasks x no OpenMP threads

Minimization stats:
  Stopping criterion = energy tolerance
  Energy initial, next-to-last, final = 
         -27.060164391     -27.0622297236     -27.0622297236
  Force two-norm initial, final = 0.978885 3.37655e-14
  Force max component initial, final = 0.568567 2.12917e-14
  Final line search alpha, max atom move = 1 2.12917e-14
  Iterations, force evaluations = 73 144

MPI task timing breakdown:
Section |  min time  |  avg time  |  max time  |%varavg| %total
---------------------------------------------------------------
Pair    | 0.01373    | 0.01373    | 0.01373    |   0.0 | 75.56
Neigh   | 0          | 0          | 0          |   0.0 |  0.00
Comm    | 0.0010817  | 0.0010817  | 0.0010817  |   0.0 |  5.95
Output  | 9.8944e-05 | 9.8944e-05 | 9.8944e-05 |   0.0 |  0.54
Modify  | 0          | 0          | 0          |   0.0 |  0.00
Other   |            | 0.00326    |            |       | 17.94

Nlocal:    6 ave 6 max 6 min
Histogram: 1 0 0 0 0 0 0 0 0 0
Nghost:    1626 ave 1626 max 1626 min
Histogram: 1 0 0 0 0 0 0 0 0 0
Neighs:    1590 ave 1590 max 1590 min
Histogram: 1 0 0 0 0 0 0 0 0 0

Total # of neighbors = 1590
Ave neighs/atom = 265
Neighbor list builds = 0
Dangerous builds = 0
pypospack:output_section:begin
tot_energy = -27.0622297235628
num_atoms = 6
a11 = 2.48780562874649
a22 = 4.30900574834476
a33 = 6.09385436965279
a12 = 0
a13 = 0
a23 = 0
tot_press = -3.69384618479393e-10
pxx = -3.34920737582863e-10
pyy = -5.23449100251337e-10
pzz = -2.49784017603978e-10
pxy = -1.46127708545415e-10
pxz = -4.84606118513264e-11
pyz = -1.30242828880788e-10
pypospack:output_section:done
pypospack:lammps_sim:done
Total wall time: 0:00:00
