    2    2    1    1
  0.9639684E+01  0.3009788E-09  0.3009788E-09  0.3009788E-09  0.5000000E-15
  1.000000000000000E-004
  CAR 
 automatically generated by pyflamestk   
      8     10     16
 
  0.1250000E+00  0.1250000E+00  0.1250000E+00  0.3125000E-01
    1      -13.600960   1.000000
    2        2.410807   1.000000
    3        3.257847   1.000000
    4        3.257847   1.000000
    5        8.697557   0.000000
    6       17.309599   0.000000
    7       19.318371   0.000000
    8       19.318374   0.000000
    9       23.529644   0.000000
   10       23.529645   0.000000
   11       24.863958   0.000000
   12       27.258806   0.000000
   13       28.680772   0.000000
   14       28.680773   0.000000
   15       38.894144   0.000000
   16       40.803806   0.000000
 
  0.3750000E+00  0.1250000E+00  0.1250000E+00  0.9375000E-01
    1      -12.952218   1.000000
    2        0.254570   1.000000
    3        2.403211   1.000000
    4        2.963792   1.000000
    5       11.116978   0.000000
    6       15.241174   0.000000
    7       18.617407   0.000000
    8       20.291099   0.000000
    9       22.114765   0.000000
   10       24.330116   0.000000
   11       26.408715   0.000000
   12       31.060337   0.000000
   13       32.315686   0.000000
   14       33.207194   0.000000
   15       35.573750   0.000000
   16       38.846672   0.000000
 
 -0.3750000E+00  0.1250000E+00  0.1250000E+00  0.9375000E-01
    1      -12.518885   1.000000
    2       -0.866659   1.000000
    3        2.253756   1.000000
    4        2.625444   1.000000
    5       11.722812   0.000000
    6       15.418932   0.000000
    7       17.910552   0.000000
    8       19.721497   0.000000
    9       23.698047   0.000000
   10       25.947893   0.000000
   11       26.024423   0.000000
   12       32.284569   0.000000
   13       32.871282   0.000000
   14       33.238911   0.000000
   15       35.793737   0.000000
   16       37.501849   0.000000
 
 -0.1250000E+00  0.1250000E+00  0.1250000E+00  0.9375000E-01
    1      -13.239569   1.000000
    2        1.135564   1.000000
    3        2.890004   1.000000
    4        2.892707   1.000000
    5       10.285199   0.000000
    6       15.496968   0.000000
    7       19.418334   0.000000
    8       19.905827   0.000000
    9       21.070460   0.000000
   10       24.910647   0.000000
   11       26.870025   0.000000
   12       29.951057   0.000000
   13       30.259197   0.000000
   14       30.982437   0.000000
   15       37.177861   0.000000
   16       38.951036   0.000000
 
  0.3750000E+00  0.3750000E+00  0.1250000E+00  0.9375000E-01
    1      -12.717821   1.000000
    2        0.070542   1.000000
    3        2.203503   1.000000
    4        2.434138   1.000000
    5       12.212699   0.000000
    6       13.908003   0.000000
    7       17.160541   0.000000
    8       20.780327   0.000000
    9       21.235784   0.000000
   10       27.083141   0.000000
   11       30.145535   0.000000
   12       30.397989   0.000000
   13       32.328383   0.000000
   14       34.819233   0.000000
   15       36.464986   0.000000
   16       37.868755   0.000000
 
 -0.3750000E+00  0.3750000E+00  0.1250000E+00  0.1875000E+00
    1      -12.308794   1.000000
    2       -0.041604   1.000000
    3        0.951781   1.000000
    4        2.026205   1.000000
    5       13.758367   0.000000
    6       14.767549   0.000000
    7       15.561862   0.000000
    8       19.546416   0.000000
    9       22.991266   0.000000
   10       26.444554   0.000000
   11       29.973301   0.000000
   12       31.399624   0.000000
   13       32.668583   0.000000
   14       36.333496   0.000000
   15       38.880759   0.000000
   16       41.085779   0.000000
 
 -0.1250000E+00  0.3750000E+00  0.1250000E+00  0.1875000E+00
    1      -12.563508   1.000000
    2       -0.247037   1.000000
    3        1.689962   1.000000
    4        2.524725   1.000000
    5       12.582604   0.000000
    6       14.789844   0.000000
    7       16.931836   0.000000
    8       20.117627   0.000000
    9       22.696498   0.000000
   10       25.354955   0.000000
   11       28.863335   0.000000
   12       31.629920   0.000000
   13       32.232898   0.000000
   14       34.881283   0.000000
   15       35.524365   0.000000
   16       41.006554   0.000000
 
 -0.3750000E+00 -0.3750000E+00  0.1250000E+00  0.9375000E-01
    1      -12.344595   1.000000
    2       -0.403775   1.000000
    3        1.688520   1.000000
    4        2.141409   1.000000
    5       12.853685   0.000000
    6       13.485795   0.000000
    7       16.009693   0.000000
    8       21.473451   0.000000
    9       21.485794   0.000000
   10       28.912229   0.000000
   11       29.390760   0.000000
   12       31.963583   0.000000
   13       32.660705   0.000000
   14       37.793476   0.000000
   15       38.168894   0.000000
   16       41.096420   0.000000
 
  0.3750000E+00  0.3750000E+00  0.3750000E+00  0.3125000E-01
    1      -12.754106   1.000000
    2       -0.601004   1.000000
    3        2.820581   1.000000
    4        2.820581   1.000000
    5       10.928513   0.000000
    6       15.430544   0.000000
    7       19.524637   0.000000
    8       19.524639   0.000000
    9       24.070659   0.000000
   10       24.442452   0.000000
   11       24.442455   0.000000
   12       31.898164   0.000000
   13       33.211062   0.000000
   14       33.211065   0.000000
   15       36.838982   0.000000
   16       36.838986   0.000000
 
 -0.3750000E+00  0.3750000E+00  0.3750000E+00  0.9375000E-01
    1      -12.391984   1.000000
    2       -0.282968   1.000000
    3        1.057608   1.000000
    4        2.494693   1.000000
    5       13.073418   0.000000
    6       15.232936   0.000000
    7       16.121909   0.000000
    8       20.427099   0.000000
    9       22.509761   0.000000
   10       25.549443   0.000000
   11       29.075739   0.000000
   12       31.613677   0.000000
   13       32.036751   0.000000
   14       35.364277   0.000000
   15       37.237352   0.000000
   16       40.110169   0.000000
