LAMMPS (11 Aug 2017)
Reading data file ...
  triclinic box = (0 0 0) to (2.085 3.6114 30.6387) with tilt (0 0 -0.0003)
  1 by 1 by 1 MPI processor grid
  reading atoms ...
  18 atoms
18 atoms in group Ni
Neighbor list info ...
  update every 1 steps, delay 0 steps, check yes
  max neighbors/atom: 2000, page size: 100000
  master list distance cutoff = 5.64464
  ghost atom cutoff = 5.64464
  binsize = 2.82232, bins = 1 2 11
  1 neighbor lists, perpetual/occasional/extra = 1 0 0
  (1) pair eam/alloy, perpetual
      attributes: half, newton on
      pair build: half/bin/newton/tri
      stencil: half/bin/3d/newton/tri
      bin: standard
Setting up cg style minimization ...
  Unit style    : metal
  Current step  : 0
Per MPI rank memory allocation (min/avg/max) = 4.233 | 4.233 | 4.233 Mbytes
Step PotEng Lx Ly Lz Xy Xz Yz Press Pxx Pyy Pzz Pxy Pxz Pyz c_eatoms 
       0   -168.77745        2.085       3.6114      30.6387            0            0      -0.0003   -11149.055   -15247.202   -15282.316   -2917.6479 -2.6985884e-12 -3.8551262e-12    6.7387436   -168.77745 
       1   -168.77778        2.085       3.6114      30.6387            0            0      -0.0003   -10490.872   -14848.685   -14883.567   -1740.3628 1.7348068e-11 -6.168202e-12    6.5699861   -168.77778 
       2   -168.77786        2.085       3.6114      30.6387            0            0      -0.0003   -10250.782   -14715.489   -14750.117   -1286.7389 -1.5420505e-11 -4.2406389e-12    6.3748984   -168.77786 
       3   -168.77787        2.085       3.6114      30.6387            0            0      -0.0003   -10242.729   -14719.331   -14753.819   -1255.0362 -7.3247399e-12 1.2721917e-11    6.2646215   -168.77787 
       4   -168.77791        2.085       3.6114      30.6387            0            0      -0.0003   -9855.5448   -14533.506   -14566.413    -466.7153 1.1179866e-11 -2.197422e-11    5.0150757   -168.77791 
       5   -168.77792        2.085       3.6114      30.6387            0            0      -0.0003   -9624.8384   -14422.756   -14454.707    2.9476649 -1.0794353e-11 -1.0794353e-11    4.2561424   -168.77792 
       6   -168.77793        2.085       3.6114      30.6387            0            0      -0.0003   -9643.7189   -14438.187   -14470.081   -22.888748 -1.1565379e-12 -5.7826894e-12    4.2077695   -168.77793 
       7   -168.77793        2.085       3.6114      30.6387            0            0      -0.0003   -9646.7535   -14440.296   -14472.193    -27.77104 2.0817682e-11 -1.5806018e-11    4.2059827   -168.77793 
       8   -168.77793        2.085       3.6114      30.6387            0            0      -0.0003   -9646.3531    -14440.13    -14472.02   -26.909349 1.2336404e-11 7.7102525e-13    4.1968536   -168.77793 
       9   -168.77793        2.085       3.6114      30.6387            0            0      -0.0003   -9645.1048   -14439.561   -14471.419   -24.334615 -1.3878454e-11 -3.8551262e-12    4.1676709   -168.77793 
      10   -168.77793        2.085       3.6114      30.6387            0            0      -0.0003   -9636.4901   -14435.591   -14467.182   -6.6976241 -7.7102525e-12 -2.9298959e-11    3.9342599   -168.77793 
      11   -168.77793        2.085       3.6114      30.6387            0            0      -0.0003   -9633.7851   -14434.231   -14465.674   -1.4504922 1.9275631e-12 -3.3154086e-11     3.812534   -168.77793 
      12   -168.77793        2.085       3.6114      30.6387            0            0      -0.0003   -9633.4262   -14434.204   -14465.505  -0.57019157 3.8551262e-12 -1.464948e-11    3.6977237   -168.77793 
      13   -168.77793        2.085       3.6114      30.6387            0            0      -0.0003   -9633.7624   -14434.574   -14465.669   -1.0434728 3.3925111e-11 -3.8551262e-13    3.5341904   -168.77793 
      14   -168.77793        2.085       3.6114      30.6387            0            0      -0.0003   -9633.5166   -14434.513   -14465.452  -0.58430703 3.084101e-11 -6.168202e-12    3.4096514   -168.77793 
      15   -168.77793        2.085       3.6114      30.6387            0            0      -0.0003   -9633.2349   -14434.464   -14465.193  -0.04753137 -1.0794353e-11 -1.8504606e-11    3.2419573   -168.77793 
      16   -168.77793        2.085       3.6114      30.6387            0            0      -0.0003   -9632.8505   -14434.465   -14464.791   0.70392172 -3.0069985e-11 -1.4263967e-11    2.9176599   -168.77793 
      17   -168.77793        2.085       3.6114      30.6387            0            0      -0.0003   -9632.7991   -14434.586   -14464.643   0.83174795 4.4719464e-11 6.168202e-12    2.6997977   -168.77793 
      18   -168.77793        2.085       3.6114      30.6387            0            0      -0.0003   -9632.6962   -14435.601   -14463.639    1.1516695 9.252303e-12 3.0069985e-11     1.057005   -168.77793 
      19   -168.77793        2.085       3.6114      30.6387            0            0      -0.0003   -9632.4896   -14435.751   -14463.249    1.5320706 3.5852674e-11 1.8890119e-11   0.61709257   -168.77793 
      20   -168.77793        2.085       3.6114      30.6387            0            0      -0.0003   -9632.3592   -14435.841    -14463.01    1.7736556 8.0957651e-12 2.0046656e-11   0.34816359   -168.77793 
      21   -168.77793        2.085       3.6114      30.6387            0            0      -0.0003   -9632.2933   -14435.831   -14462.912    1.8633056 5.3971767e-11 4.7418053e-11   0.27590515   -168.77793 
      22   -168.77793        2.085       3.6114      30.6387            0            0      -0.0003    -9632.478   -14435.958   -14462.932    1.4559133 -4.8189078e-11 8.4812777e-12   0.18710889   -168.77793 
      23   -168.77793        2.085       3.6114      30.6387            0            0      -0.0003   -9632.9923   -14436.293   -14463.151   0.46736582 2.9684472e-11 4.2406389e-11  0.091049223   -168.77793 
      24   -168.77793        2.085       3.6114      30.6387            0            0      -0.0003   -9633.0437   -14436.327   -14463.168   0.36332808 3.238306e-11 -2.1203194e-11  0.076439468   -168.77793 
      25   -168.77793        2.085       3.6114      30.6387            0            0      -0.0003   -9633.0395   -14436.328   -14463.141   0.35051073 -1.4263967e-11 1.2336404e-11  0.054159956   -168.77793 
      26   -168.77793        2.085       3.6114      30.6387            0            0      -0.0003   -9633.0658   -14436.347    -14463.15   0.29917695 5.2044204e-11 2.6985884e-11   0.04605677   -168.77793 
      27   -168.77793        2.085       3.6114      30.6387            0            0      -0.0003   -9633.1254   -14436.388    -14463.17   0.18164913 -2.0817682e-11 3.0069985e-11  0.028993312   -168.77793 
      28   -168.77793        2.085       3.6114      30.6387            0            0      -0.0003   -9633.1703    -14436.42   -14463.179   0.08829804 -2.4287295e-11 -2.9684472e-11  0.011214779   -168.77793 
      29   -168.77793        2.085       3.6114      30.6387            0            0      -0.0003   -9633.1936   -14436.436   -14463.188  0.043116669 -1.0023328e-11 -3.4696136e-12 0.0046654835   -168.77793 
      30   -168.77793        2.085       3.6114      30.6387            0            0      -0.0003   -9633.2009   -14436.442   -14463.188   0.02705577 5.6284843e-11 3.0455497e-11 0.0004793828   -168.77793 
      31   -168.77793        2.085       3.6114      30.6387            0            0      -0.0003   -9633.2014   -14436.442   -14463.186  0.024626392 4.6261515e-12 -1.9275631e-11 -0.0010222222   -168.77793 
Loop time of 0.00422716 on 1 procs for 31 steps with 18 atoms

75.7% CPU use with 1 MPI tasks x no OpenMP threads

Minimization stats:
  Stopping criterion = energy tolerance
  Energy initial, next-to-last, final = 
        -168.777447909     -168.777925706     -168.777925706
  Force two-norm initial, final = 0.0976109 9.75489e-07
  Force max component initial, final = 0.0367695 5.16651e-07
  Final line search alpha, max atom move = 1 5.16651e-07
  Iterations, force evaluations = 31 62

MPI task timing breakdown:
Section |  min time  |  avg time  |  max time  |%varavg| %total
---------------------------------------------------------------
Pair    | 0.0025196  | 0.0025196  | 0.0025196  |   0.0 | 59.61
Neigh   | 0          | 0          | 0          |   0.0 |  0.00
Comm    | 0.00019741 | 0.00019741 | 0.00019741 |   0.0 |  4.67
Output  | 0.000319   | 0.000319   | 0.000319   |   0.0 |  7.55
Modify  | 0          | 0          | 0          |   0.0 |  0.00
Other   |            | 0.001191   |            |       | 28.18

Nlocal:    18 ave 18 max 18 min
Histogram: 1 0 0 0 0 0 0 0 0 0
Nghost:    693 ave 693 max 693 min
Histogram: 1 0 0 0 0 0 0 0 0 0
Neighs:    1038 ave 1038 max 1038 min
Histogram: 1 0 0 0 0 0 0 0 0 0

Total # of neighbors = 1038
Ave neighs/atom = 57.6667
Neighbor list builds = 0
Dangerous builds = 0
pypospack:output_section:begin
tot_energy = -168.77792570641
num_atoms = 18
a11 = 2.085
a22 = 3.6114
a33 = 30.6387
a12 = 0
a13 = 0
a23 = -0.0003
tot_press = -9633.20137984343
pxx = -14436.4424007654
pyy = -14463.1863651564
pzz = 0.0246263915097483
pxy = 4.62615149088497e-12
pxz = -1.92756312120207e-11
pyz = -0.00102222222638032
pypospack:output_section:done
pypospack:lammps_sim:done
Total wall time: 0:00:00
