# ['Ni']

18 atoms
1 atom types

    0.0000     2.0850 xlo xhi
    0.0000     3.6114 ylo yhi
    0.0000    30.6387 zlo zhi

    0.0000     0.0000    -0.0003 xy xz yz

Atoms

1 1     0.0000     0.0000     0.0000
2 1     1.0425     0.6019     1.7022
3 1     0.0000     1.2038     3.4043
4 1     1.0425     1.8057     0.0000
5 1     0.0000     2.4076     1.7022
6 1     1.0425     3.0095     3.4043
7 1     0.0000     0.0000     5.1065
8 1     1.0425     0.6019     6.8086
9 1     0.0000     1.2038     8.5108
10 1     1.0425     1.8057     5.1065
11 1     0.0000     2.4076     6.8086
12 1     1.0425     3.0095     8.5108
13 1     0.0000     0.0000    10.2129
14 1     1.0425     0.6019    11.9151
15 1     0.0000     1.2038    13.6172
16 1     1.0425     1.8057    10.2129
17 1     0.0000     2.4076    11.9151
18 1     1.0425     3.0095    13.6172
