LAMMPS (10 Feb 2015)
# ---- initialize simulations
clear
units metal
dimension 3
boundary p p p
atom_style charge
atom_modify map array
# ---- create atoms
read_data /Users/eugeneragasa/pyflamestk_git/pypospack/tests/tests_integration/workflow/WorkflowLammpsThermalExpansion/param_5378/MgO_NaCl_unit.npt.T400/lammps.structure
  triclinic box = (0 0 0) to (4.2565 4.2565 4.2565) with tilt (0 0 0)
  1 by 1 by 1 MPI processor grid
  reading atoms ...
  8 atoms
# ---- define interatomic potential
include potential.mod
mass 1 24.305
mass 2 15.999

group Mg type 1
4 atoms in group Mg
group O type 2
4 atoms in group O

set group Mg charge 1.67557694923
  4 settings made for charge
set group O charge -1.67557694923
  4 settings made for charge

variable R_cut equal 10.0

pair_style buck/coul/long ${R_cut}
pair_style buck/coul/long 10
pair_coeff 1 1 0.0 0.5 0.0 ${R_cut}
pair_coeff 1 1 0.0 0.5 0.0 10
pair_coeff 1 2 1405.50211521 0.282257384366 0.0 ${R_cut}
pair_coeff 1 2 1405.50211521 0.282257384366 0.0 10
pair_coeff 2 2 19860.1058829 0.143671361936 6.84969713079 ${R_cut}
pair_coeff 2 2 19860.1058829 0.143671361936 6.84969713079 10

kspace_style pppm 1.0e-5

neighbor 1.0 bin
neigh_modify every 1 delay 0 check yes
# ---- define settings
compute eng all pe/atom
compute eatoms all reduce sum c_eng
# ---- run minimization
reset_timestep 0
fix 1 all box/relax iso 0.0 vmax 0.001
thermo 10
thermo_style custom step pe lx ly lz xy xz yz press pxx pyy pzz pxy pxz pyz c_eatoms
min_style cg
minimize 1e-25 1e-25 5000 10000
PPPM initialization ...
  G vector (1/distance) = 0.352969
  grid = 8 8 8
  stencil order = 5
  estimated absolute RMS force accuracy = 4.01483e-05
  estimated relative force accuracy = 2.78815e-06
  using double precision FFTs
  3d grid and FFT values/proc = 3375 512
Neighbor list info ...
  1 neighbor list requests
  update every 1 steps, delay 0 steps, check yes
  master list distance cutoff = 11
Memory usage per processor = 4.06549 Mbytes
Step PotEng Lx Ly Lz Xy Xz Yz Press Pxx Pyy Pzz Pxy Pxz Pyz eatoms 
       0   -115.02334       4.2565       4.2565       4.2565            0            0            0    14836.064    14836.064    14836.064    14836.064 5.7083842e-11 -5.8546636e-11 3.613515e-11   -115.02334 
       4   -115.02629     4.268627     4.268627     4.268627            0            0            0   -3.7663252   -3.7663252   -3.7663252   -3.7663252 5.5364648e-11 -5.1262271e-11 1.3911233e-11   -115.02629 
Loop time of 0.00714397 on 1 procs for 4 steps with 8 atoms

Minimization stats:
  Stopping criterion = linesearch alpha is zero
  Energy initial, next-to-last, final = 
        -115.023341276       -115.0262927       -115.0262927
  Force two-norm initial, final = 2.14234 0.00179672
  Force max component initial, final = 2.14234 0.000546963
  Final line search alpha, max atom move = 0.00390625 2.13657e-06
  Iterations, force evaluations = 4 21

Pair  time (%) = 0.00193048 (27.0224)
Kspce time (%) = 0.00113964 (15.9525)
Neigh time (%) = 0 (0)
Comm  time (%) = 0.000219584 (3.07369)
Outpt time (%) = 0 (0)
Other time (%) = 0.00385427 (53.9514)

Nlocal:    8 ave 8 max 8 min
Histogram: 1 0 0 0 0 0 0 0 0 0
Nghost:    2189 ave 2189 max 2189 min
Histogram: 1 0 0 0 0 0 0 0 0 0
Neighs:    2344 ave 2344 max 2344 min
Histogram: 1 0 0 0 0 0 0 0 0 0

Total # of neighbors = 2344
Ave neighs/atom = 293
Neighbor list builds = 0
Dangerous builds = 0
unfix 1
# ---- define output variables ----
variable natoms equal "count(all)"
variable tot_energy equal "c_eatoms"
variable length_x equal "lx"
variable length_y equal "ly"
variable length_z equal "lz"
variable tilt_xy equal "xy"
variable tilt_xz equal "xz"
variable tilt_yz equal "yz"
variable tot_press equal "press"
variable press_xx equal "pxx"
variable press_yy equal "pyy"
variable press_zz equal "pzz"
variable press_xy equal "pxy"
variable press_xz equal "pxz"
variable press_yz equal "pyz"

# ---- output ----
print "pypospack:output_section:begin"
pypospack:output_section:begin
print "tot_energy = ${tot_energy}"
tot_energy = -115.026292700229
print "num_atoms = ${natoms}"
num_atoms = 8
print "xx = ${length_x}"
xx = 4.26862697136346
print "yy = ${length_y}"
yy = 4.26862697136346
print "zz = ${length_z}"
zz = 4.26862697136346
print "xy = ${tilt_xy}"
xy = 0
print "xz = ${tilt_xz}"
xz = 0
print "yz = ${tilt_yz}"
yz = 0
print "tot_press = ${tot_press}"
tot_press = -3.7663252179344
print "pxx = ${press_xx}"
pxx = -3.76632521787482
print "pyy = ${press_yy}"
pyy = -3.76632521789834
print "pzz = ${press_zz}"
pzz = -3.76632521803003
print "pxy = ${press_xy}"
pxy = 5.53646482695888e-11
print "pxz = ${press_xz}"
pxz = -5.12622707696674e-11
print "pyz = ${press_yz}"
pyz = 1.39112332535826e-11
print "pypospack:output_section:done"
pypospack:output_section:done
print "pypospack:lammps_sim:done"
pypospack:lammps_sim:done
#------------------------------------------------------------------------------
# RUN THERMOSTAT
# running using an NPT Nose-Hoover style thermostat
#------------------------------------------------------------------------------
variable tempdamp equal 0.1
variable pressdamp equal 1.0
# set initial velocities
velocity all create 400 4799858 mom yes dist gaussian loop all
# fix for Nose-Hoover style thermostat
fix 20 all npt temp 400 400 0.1 aniso 0.0 0.0 1.0 drag 1.0 couple xyz
variable boxx equal lx
variable boxy equal ly
variable boxz equal lz
variable boxp equal press
variable boxt equal temp
# calculate averages every 10000 steps
reset_timestep 0
fix 21 all ave/time 10 10 100 v_boxx v_boxy v_boxz v_boxp v_boxt file lattice.out
thermo_style custom step temp pe ke etotal press lx ly lz press pxx pyy pzz pxy pxz pyz vol
thermo_modify flush yes
thermo 100
run 100000
PPPM initialization ...
  G vector (1/distance) = 0.352845
  grid = 8 8 8
  stencil order = 5
  estimated absolute RMS force accuracy = 4.03767e-05
  estimated relative force accuracy = 2.80401e-06
  using double precision FFTs
  3d grid and FFT values/proc = 3375 512
Memory usage per processor = 3.06549 Mbytes
Step Temp PotEng KinEng TotEng Press Lx Ly Lz Press Pxx Pyy Pzz Pxy Pxz Pyz Volume 
       0          400    -115.0263   0.36192841   -114.66437    4966.0102     4.268627     4.268627     4.268627    4966.0102      6833.71    5235.5841    2828.7364    2616.8724   -1098.8121    1048.7237    77.779404 
     100    176.71326    -114.7736   0.15989387   -114.61371   -8252.6395    4.2837083    4.2837083    4.2837083   -8252.6395   -11887.834   -4945.5846   -7924.4993   -3831.4442    92.706181    1752.4685    78.606718 
     200     185.9566   -114.68508   0.16825744   -114.51682    6536.8408    4.2703656    4.2703656    4.2703656    6536.8408    1202.7367    15782.508    2625.2777   -7982.2726      7146.39   -3750.3714    77.874483 
     300    329.58067   -114.72841   0.29821152    -114.4302   -1594.2047    4.2908441    4.2908441    4.2908441   -1594.2047    1474.3493     1994.564   -8251.5275    1701.2685    227.04811   -652.25421    79.000201 
     400    580.05141   -114.89107   0.52484271   -114.36622    9377.6185    4.2716108    4.2716108    4.2716108    9377.6185    9458.7362    11737.079    6937.0401    2827.0531   -1156.4649   -1125.5442    77.942623 
     500    295.23843   -114.59244   0.26713794   -114.32531   -12341.114    4.2898647    4.2898647    4.2898647   -12341.114   -9020.4968   -14638.509   -13364.337   -13319.564    3640.4897    3602.7906    78.946121 
     600    395.11145   -114.65964   0.35750515   -114.30213   -801.98653    4.2819173    4.2819173    4.2819173   -801.98653   -2259.2162   -1282.6113    1135.8679    -10311.33     3054.481   -1122.8096    78.508163 
     700    522.07034    -114.7662   0.47238021   -114.29382    13330.075    4.2792145    4.2792145    4.2792145    13330.075    15594.878    23695.235    700.11279    8012.4433    1302.8464    274.54985    78.359593 
     800    346.73097   -114.61194   0.31372947   -114.29821    385.12343    4.2877246    4.2877246    4.2877246    385.12343   -3160.6841    4447.4826   -131.42824    1101.3841    4226.3961    -3683.186    78.828028 
     900    228.98166   -114.50852   0.20718741   -114.30133   -3708.8578    4.2805928    4.2805928    4.2805928   -3708.8578   -20638.634    10161.488    -649.4279   -13105.228    2546.0897    1240.6014    78.435337 
    1000    584.85273   -114.82782   0.52918704   -114.29864   -4531.3774    4.2811376    4.2811376    4.2811376   -4531.3774   -6799.3484   -6535.3575    -259.4264    -5347.403   -2220.0227   -378.64949    78.465283 
    1100    486.52812   -114.73986   0.44022087   -114.29964   -2608.5866    4.2893328    4.2893328    4.2893328   -2608.5866   -4379.0942    8679.7146    -12126.38    4761.6766    -1347.438    59.179831    78.916756 
    1200    244.72903   -114.52335   0.22143597   -114.30192    3566.7203    4.2765266    4.2765266    4.2765266    3566.7203   -3950.6613    11931.431    2719.3916   -6346.2148    4862.4621    544.96906    78.212026 
    1300    249.47261   -114.52818   0.22572806   -114.30246    1039.5035     4.286962     4.286962     4.286962    1039.5035    2235.2406    8146.7097   -7263.4397   -5261.4273    4530.2934   -4683.4438    78.785973 
    1400    554.43503   -114.79827   0.50166447   -114.29661   -817.73018    4.2845281    4.2845281    4.2845281   -817.73018   -997.35662   -6825.7996    5369.9656    5142.2909    428.50058   -661.65785    78.651861 
    1500    386.49109    -114.6489   0.34970526   -114.29919    2978.0717    4.2771882    4.2771882    4.2771882    2978.0717   -130.77279    2140.7662    6924.2217   -3449.8419    2770.1234   -3087.4484    78.248332 
    1600    309.31059   -114.57963   0.27987072   -114.29976   -14697.857    4.2920153    4.2920153    4.2920153   -14697.857   -18017.262   -12613.872   -13462.438   -12884.301    1738.1543    4871.9168    79.064911 
    1700    387.43247    -114.6473   0.35055704   -114.29675    7504.0718    4.2779425    4.2779425    4.2779425    7504.0718    3038.1513    17628.723    1845.3417    5451.0306   -1677.9748   -2354.7558    78.289738 
    1800    464.03665   -114.71681   0.41987011   -114.29694   -200.29362    4.2831773    4.2831773    4.2831773   -200.29362    9259.8809   -3908.1479   -5952.6138    9119.8411   -1198.5098   -3006.1442    78.577491 
    1900     272.0802   -114.54666   0.24618388   -114.30047   -6374.6419    4.2877305    4.2877305    4.2877305   -6374.6419   -16538.084    2309.0521   -4894.8937   -9795.2888    11398.306   -2498.2029     78.82835 
    2000    365.35432   -114.63044   0.33058026   -114.29986    138.10443    4.2764765    4.2764765    4.2764765    138.10443   -12021.996   -6726.1664    19162.476   -11042.945    2294.1256    1042.1115    78.209277 
    2100    445.14811   -114.70246   0.40277936   -114.29968     2086.467    4.2867409    4.2867409    4.2867409     2086.467   -6842.9746     10998.09    2104.2855    8562.5577   -1953.3941    3264.0279    78.773786 
    2200    377.88744   -114.64257    0.3419205   -114.30064   -7.7863785    4.2838719    4.2838719    4.2838719   -7.7863785   -4054.2135   -1555.5057      5586.36   -780.64989   -1442.9733    23.504508    78.615728 
    2300    309.18713   -114.57985   0.27975902   -114.30009    5693.5088    4.2758878    4.2758878    4.2758878    5693.5088    5348.2676    5851.7304    5880.5283   -11347.388    4829.3343   -612.27234    78.176981 
    2400    432.77976   -114.68958   0.39158823   -114.29799   -8144.1566    4.2924577    4.2924577    4.2924577   -8144.1566    1828.3754   -21367.186   -4893.6595    2768.6104    2409.1019   -2639.3467    79.089364 
    2500    465.12167   -114.71802   0.42085186   -114.29717    6761.3316    4.2742982    4.2742982    4.2742982    6761.3316    1037.1538    717.14324    18529.698    6774.9842   -677.18903    373.46826    78.089827 
    2600    351.02761   -114.61782   0.31761716   -114.30021   -4047.7355     4.286033     4.286033     4.286033   -4047.7355   -2952.6194   -13931.353    4740.7656   -8550.2942    3408.2174   -1456.6451    78.734766 
    2700    362.30261   -114.62682   0.32781901   -114.29901   -4346.2169    4.2857826    4.2857826    4.2857826   -4346.2169   -8873.2323   -2589.3833   -1576.0351   -1100.0379    1484.6245    3184.4666    78.720965 
    2800    413.23497   -114.67179   0.37390369   -114.29789    3821.8471    4.2763048    4.2763048    4.2763048    3821.8471    9475.8554   -3375.7124    5365.3984    16169.245    430.40827   -2043.2771    78.199859 
    2900    475.23444   -114.72852   0.43000211   -114.29852   -10609.658    4.2895777    4.2895777    4.2895777   -10609.658   -7957.3106   -9221.1085   -14650.556   -4866.1601    78.483312    1548.3505    78.930277 
    3000    403.77215   -114.66489   0.36534152   -114.29955   -1616.4694    4.2792266    4.2792266    4.2792266   -1616.4694   -13283.357      4210.81    4223.1391   -10366.336    7440.9484   -146.26899    78.360258 
    3100    419.77703   -114.67985   0.37982308   -114.30002    890.41544    4.2789007    4.2789007    4.2789007    890.41544   -8802.1806    979.07032    10494.357    8220.5963    618.41273    1449.5599    78.342356 
    3200    353.30175    -114.6198   0.31967485   -114.30012    1806.6461    4.2898016    4.2898016    4.2898016    1806.6461    5392.9073    -507.6457    534.67679    11156.819   -5010.9124    713.57748    78.942635 
    3300    479.99248   -114.73322   0.43430728   -114.29891      7955.84     4.274499     4.274499     4.274499      7955.84    16581.854   -2329.0173     9614.683   -12153.131    1300.2056    -463.0386    78.100829 
    3400    402.47247   -114.66491   0.36416555   -114.30075   -3091.8069    4.2877956    4.2877956    4.2877956   -3091.8069    4602.4352   -4962.0727   -8915.7832   -1864.1036    4476.3845    -889.5375     78.83194 
    3500    518.06031   -114.76704   0.46875186   -114.29829   -8786.8084    4.2846385    4.2846385    4.2846385   -8786.8084   -6905.7152   -14660.907    -4793.803    11866.467    2987.1561   -502.00965    78.657936 
    3600    449.65948    -114.7042   0.40686134   -114.29734    5058.7518    4.2787748    4.2787748    4.2787748    5058.7518    9844.2138    6036.2649   -704.22324    675.90499   -2801.3311    -532.8205    78.335441 
    3700    392.10249   -114.65246   0.35478257   -114.29768   -1978.5946    4.2895175    4.2895175    4.2895175   -1978.5946    13993.714   -15963.445   -3966.0527   -6366.9007    151.85007    1588.4669    78.926954 
    3800     261.2253   -114.53571   0.23636214   -114.29935     4562.253    4.2794226    4.2794226    4.2794226     4562.253    4482.3626   -948.79782    10153.194    12820.734   -2369.5212    2409.7217    78.371026 
    3900    420.17832    -114.6791   0.38018617   -114.29892   -2154.6749    4.2827335    4.2827335    4.2827335   -2154.6749   -108.60248   -12688.737    6333.3148    10302.488   -5431.6441   -1009.7153     78.55307 
    4000    521.48861   -114.76986   0.47185385   -114.29801   -5918.0118    4.2868742    4.2868742    4.2868742   -5918.0118   -6101.3712   -6509.8505   -5142.8136   -8010.9305    3191.1759   -400.85498    78.781134 
    4100    362.13043   -114.62723   0.32766323   -114.29956    3819.2968    4.2774271    4.2774271    4.2774271    3819.2968    9291.5671    1796.7724    369.55098    2004.3697    8419.8641    -2904.641    78.261441 
    4200    343.65516   -114.61171   0.31094641   -114.30077   -6555.8959    4.2875823    4.2875823    4.2875823   -6555.8959    10741.347   -14742.897   -15666.137    13338.089   -1487.1624    1267.4578    78.820177 
    4300    412.75325   -114.67281   0.37346781   -114.29934    4899.7594    4.2800684    4.2800684    4.2800684    4899.7594      5588.42    17444.506   -8333.6474    2560.2065   -9881.9528    922.13289    78.406513 
    4400    524.09875   -114.77285   0.47421556   -114.29863   -2668.5454    4.2819116    4.2819116    4.2819116   -2668.5454   -2257.7567   -8283.0199    2535.1404   -5659.9942    329.76548    2834.7598    78.507853 
    4500    217.66146   -114.49841   0.19694467   -114.30147    2557.1065    4.2860562    4.2860562    4.2860562    2557.1065    5712.8463   -748.49816    2706.9714    6196.2057    6529.8127    1119.0434    78.736041 
    4600    378.17233   -114.64249   0.34217827   -114.30031   -29.547441       4.2781       4.2781       4.2781   -29.547441    3871.3847    -9488.496    5528.4689    7515.9312   -4154.9195   -1271.7083    78.298381 
    4700    367.87619   -114.63249   0.33286211   -114.29962    2866.9491    4.2858673    4.2858673    4.2858673    2866.9491    12705.297    7916.0408   -12020.491    1412.3712   -1537.3472   -4515.4244    78.725631 
    4800    497.20884   -114.74899     0.449885   -114.29911   -5650.9132    4.2821085    4.2821085    4.2821085   -5650.9132   -10424.596   -3005.7523   -3522.3913    2664.2316    3917.1203   -237.81343    78.518682 
    4900    259.65456    -114.5359    0.2349409   -114.30096   -2002.9264    4.2808132    4.2808132    4.2808132   -2002.9264   -2349.4527    2430.2947   -6089.6211    10753.447   -3248.5119    1018.0906    78.447452 
    5000    446.99782   -114.70402   0.40445303   -114.29957   -8747.5196    4.2861078    4.2861078    4.2861078   -8747.5196    919.84337   -13664.051   -13498.351   -1610.3575   -7295.6508    258.96065    78.738886 
    5100    419.53828   -114.67807   0.37960705   -114.29846    4202.9884    4.2816436    4.2816436    4.2816436    4202.9884    2313.8544     8623.596    1671.5149    3868.2615    2790.0524    1275.8791    78.493109 
    5200    329.66646   -114.59827   0.29828914   -114.29998    1019.7231     4.280316     4.280316     4.280316    1019.7231   -1886.7617   -5050.6928    9996.6239    9808.6708    4962.3509   -3405.3582     78.42012 
    5300    248.43714   -114.52578   0.22479115   -114.30099   -3290.2676    4.2866987    4.2866987    4.2866987   -3290.2676     -14110.7     12651.96   -8412.0636     3825.427   -11250.666   -1272.8439    78.771455 
    5400    485.99415   -114.73788   0.43973772   -114.29814    2429.4911    4.2782579    4.2782579    4.2782579    2429.4911    5767.2031    4825.5265   -3304.2565   -4119.5346   -7288.7783   -2041.7946    78.307055 
    5500    494.91425   -114.74667   0.44780881   -114.29886   -1812.3935     4.284243     4.284243     4.284243   -1812.3935   -139.72461    839.31459   -6136.7706    4260.2307    6028.3952    3847.4134    78.636157 
    5600    324.13014   -114.59452   0.29327977   -114.30124   -3247.2068     4.283433     4.283433     4.283433   -3247.2068    3776.1764   -4497.5085   -9020.2884    8732.4126   -2397.0458    556.71162    78.591567 
    5700    332.86639   -114.60321    0.3011845   -114.30203    2891.4417    4.2810552    4.2810552    4.2810552    2891.4417   -6500.6875    16230.598   -1055.5858    1167.6062   -10279.488   -1993.0067    78.460756 
    5800    491.14776   -114.74353   0.44440082   -114.29913    3998.8366      4.28386      4.28386      4.28386    3998.8366    7694.1295    4747.2255   -444.84519   -1133.9946   -645.67426   -5253.2565    78.615068 
    5900    385.80616   -114.64907   0.34908552   -114.29998   -265.30119    4.2820657    4.2820657    4.2820657   -265.30119   -3140.1889   -2023.5807     4367.866    5564.7204     714.0977    251.62112    78.516329 
    6000    285.55636   -114.55971   0.25837739   -114.30133   -5640.6637    4.2825848    4.2825848    4.2825848   -5640.6637    3570.1062   -8843.8257   -11648.271    6358.3034    -12203.39    319.91299    78.544886 
    6100    539.74667    -114.7889   0.48837413   -114.30053   -5451.1591    4.2829103    4.2829103    4.2829103   -5451.1591   -4554.2043    2449.3127   -14248.586   -2364.4745   -2686.4035     2306.445    78.562799 
    6200    495.50257    -114.7487   0.44834114   -114.30036    1182.2246     4.282551     4.282551     4.282551    1182.2246    5255.5139    1324.9449   -3033.7852    6405.7755    4198.2483   -1169.9804    78.543025 
    6300    308.12531    -114.5813   0.27879826    -114.3025   -142.47032    4.2815946    4.2815946    4.2815946   -142.47032   -11395.219    13031.186   -2063.3776    2968.2069   -8002.7719   -1674.7209    78.490415 
    6400    290.13684    -114.5652   0.26252191   -114.30268    1922.9074    4.2845168    4.2845168    4.2845168    1922.9074    9166.7303    -4.124741   -3393.8833   -1105.3225   -12617.891   -2671.2963    78.651237 
    6500    592.05936   -114.83384   0.53570775   -114.29813    2717.2833     4.282084     4.282084     4.282084    2717.2833    5277.4082   -1671.6552     4546.097   -1468.0081   -165.58678    759.47351    78.517335 
    6600    475.58928   -114.73001   0.43032317   -114.29969   -1019.6491    4.2836192    4.2836192    4.2836192   -1019.6491    294.76382    3164.4108   -6518.1218    8572.9616    2492.2386     2362.414    78.601813 
    6700    334.24569   -114.60338   0.30243252   -114.30095   -3944.3792    4.2829312    4.2829312    4.2829312   -3944.3792   -7405.1492    9425.2039   -13853.192    980.40843   -11424.506    2568.3058    78.563944 
    6800    419.32466   -114.67955   0.37941376   -114.30013    1404.9111    4.2850828    4.2850828    4.2850828    1404.9111    4687.5049    11154.183   -11626.955   -4531.0441   -1559.8867   -2905.4452    78.682408 
    6900    501.95692   -114.75196   0.45418117   -114.29778    5975.5098    4.2810137    4.2810137    4.2810137    5975.5098    8031.9107    3498.5106     6396.108   -3644.2326   -92.671394   -3447.0302    78.458475 
    7000    307.66662    -114.5793   0.27838322   -114.30092   -4401.7168    4.2847684    4.2847684    4.2847684   -4401.7168   -14481.712   -2444.8406    3721.4024     9819.298   -11702.363   -3093.8787    78.665095 
    7100    347.62503   -114.61521   0.31453843   -114.30067   -4815.6777    4.2821224    4.2821224    4.2821224   -4815.6777   -8759.1085   -5339.9135   -348.01107   -1416.5081   -8344.0852    3529.2589    78.519446 
    7200    525.54245   -114.77408   0.47552186   -114.29855   -1341.5465    4.2834453    4.2834453    4.2834453   -1341.5465   -4944.5698    4145.4924   -3225.5621   -3247.2937    4445.7678    3923.7784    78.592242 
    7300    466.58207   -114.72165   0.42217327   -114.29948   -780.57552    4.2832058    4.2832058    4.2832058   -780.57552    338.98706    10467.151   -13147.865    1169.9273   -1425.0323     -178.722    78.579057 
    7400    258.85775   -114.53598   0.23421993   -114.30176   -1690.0826    4.2831712    4.2831712    4.2831712   -1690.0826   -13120.115    15424.237   -7374.3707    105.44291   -12791.486   -3507.3113    78.577156 
    7500    431.60142   -114.69095   0.39052204   -114.30042    2222.7558    4.2798853    4.2798853    4.2798853    2222.7558    8611.1626   -5593.9202     3651.025   -3223.6704   -1665.1543    -3638.456    78.396451 
    7600    482.69452   -114.73526   0.43675214   -114.29851    194.96406     4.286905     4.286905     4.286905    194.96406   -11204.144    6106.8254    5682.2107   -1493.2214   -197.39783     2816.174    78.782833 
    7700    360.32505   -114.62651   0.32602968   -114.30048    4835.1906    4.2783537    4.2783537    4.2783537    4835.1906   -2353.0469     16806.56    52.058979    4124.3598   -10217.926    2468.8884    78.312315 
    7800    302.04768   -114.57478   0.27329908   -114.30148   -3444.7165    4.2858152    4.2858152    4.2858152   -3444.7165     -7361.96    13387.987   -16360.176   -4314.0887   -4535.1086   -1756.5478    78.722764 
    7900    487.19496   -114.73948   0.44082424   -114.29866   -3772.1622    4.2827407    4.2827407    4.2827407   -3772.1622   -3343.8441   -5134.4178   -2838.2249   -6459.1069    2489.4794   -3098.6138    78.553464 
    8000    421.24734   -114.68013   0.38115345   -114.29898    824.02439    4.2804543    4.2804543    4.2804543    824.02439    -4268.413    6403.1236    337.36252   -850.08026   -6868.8274    707.05363     78.42772 
    8100    347.00685   -114.61446   0.31397909   -114.30048    -4170.389    4.2853906    4.2853906    4.2853906    -4170.389   -12399.946    756.84194   -868.06278    5507.8199   -11787.585    1211.6516    78.699368 
    8200    276.36167   -114.55147   0.25005785   -114.30141   -458.49868     4.283203     4.283203     4.283203   -458.49868   -10933.741    4631.6974    4926.5481   -9317.0788    2546.3574    2554.3163    78.578905 
    8300    478.58856   -114.73265   0.43303699   -114.29961    543.42212    4.2773084    4.2773084    4.2773084    543.42212   -2836.9186     8300.441    -3833.256    -4060.353   -2899.8443   -1744.2637    78.254929 
    8400    412.16907   -114.67257   0.37293923   -114.29963   -8726.7577    4.2906284    4.2906284    4.2906284   -8726.7577   -11290.675   -344.85353   -14544.744   -34.690162   -8366.5964   -214.37436    78.988291 
    8500    396.57212   -114.65864   0.35882679   -114.29981    2898.9476    4.2756312    4.2756312    4.2756312    2898.9476   -1028.6499   -888.05531    10613.548   -843.62816   -1467.6729   -3646.9808    78.162911 
    8600    327.17382   -114.59747   0.29603375   -114.30143    2963.4619    4.2845787    4.2845787    4.2845787    2963.4619   -2463.1228    3008.4257    8345.0827   -5702.9804    105.65518    1696.8052    78.654644 
    8700    333.33314   -114.60169   0.30160683   -114.30008    4233.9879    4.2859704    4.2859704    4.2859704    4233.9879   -5938.2105    4857.4947     13782.68    1375.5671   -6835.2051     4215.261    78.731313 
    8800    460.92646   -114.71462   0.41705594   -114.29756    6541.5496    4.2757346    4.2757346    4.2757346    6541.5496   -2804.5258    16317.638    6111.5365    289.02985   -6294.2274     678.9844    78.168577 
    8900    442.45374   -114.69919   0.40034144   -114.29885   -8247.0414    4.2886689    4.2886689    4.2886689   -8247.0414   -4868.8412   -22588.471    2716.1883   -5764.7674    4069.1922   -5300.2363    78.880121 
    9000    389.15387   -114.65227    0.3521146   -114.30015   -2262.6577    4.2811036    4.2811036    4.2811036   -2262.6577   -1679.8769   -3778.6216   -1329.4746   -4363.6438   -6540.3545    535.22542    78.463417 
    9100    345.65506   -114.61352   0.31275596   -114.30077    4758.1585    4.2805211    4.2805211    4.2805211    4758.1585   -6266.6041    11785.122    8755.9571    2466.4189   -10982.252    4853.3204    78.431392 
    9200    327.21234   -114.59557    0.2960686    -114.2995    181.93601    4.2890937    4.2890937    4.2890937    181.93601   -11697.052     1390.002    10852.858     -1734.61    326.58978    5580.4289    78.903563 
    9300    392.44254   -114.65349   0.35509026    -114.2984   -1373.4059    4.2776022    4.2776022    4.2776022   -1373.4059   -3964.0658    -6492.968    6336.8159   -3930.9252    63.572543   -1665.7402    78.271056 
    9400    379.78589   -114.64315   0.34363825   -114.29951   -5779.8923    4.2847175    4.2847175    4.2847175   -5779.8923   -15122.915    2409.5856    -4626.348    469.90987   -12204.739    -2038.275    78.662287 
    9500    485.55725   -114.73843    0.4393424   -114.29909   -3496.0015    4.2836075    4.2836075    4.2836075   -3496.0015   -13560.902   -13108.999    16181.897   -2761.5727   -4685.1637   -1451.4344    78.601169 
    9600    450.57179   -114.70703   0.40768683   -114.29934    8102.6306    4.2766013    4.2766013    4.2766013    8102.6306   -4602.4388    3177.8489    25732.482   -5635.3089    3553.6186    1544.0545    78.216124 
    9700    269.60334   -114.54534   0.24394277    -114.3014   -808.44824    4.2885154    4.2885154    4.2885154   -808.44824   -18172.973   -1535.3052    17282.934    778.76955   -9421.7949    2401.9841    78.871651 
    9800    374.49783   -114.63918   0.33885351   -114.30032    1156.0904     4.277657     4.277657     4.277657    1156.0904      -2124.3    17396.338   -11803.767    2541.2919   -10572.549     2744.893    78.274064 
    9900    468.66079   -114.72336   0.42405413   -114.29931   -1626.8504    4.2836438    4.2836438    4.2836438   -1626.8504   -9298.1464   -7694.6322    12112.227   -4230.0137    3070.9403   -1980.2256    78.603166 
   10000    449.99131   -114.70722    0.4071616   -114.30006   -4576.2992    4.2834099    4.2834099    4.2834099   -4576.2992   -11366.908    -13965.11     11603.12   -5336.6694    1687.1127   -917.18365    78.590292 
   10100    342.94978   -114.61157   0.31030817   -114.30127    -988.8073    4.2802269    4.2802269    4.2802269    -988.8073   -681.62135   -76.568374   -2208.2322    823.88798   -15231.826    4068.0386     78.41522 
   10200    449.40645   -114.70677    0.4066324   -114.30014    -4568.136    4.2873205    4.2873205    4.2873205    -4568.136   -17927.178    398.01853    3824.7512   -3034.1766   -3460.6686    3415.2528    78.805741 
   10300    423.84317    -114.6824   0.38350221    -114.2989    13017.258    4.2768135    4.2768135    4.2768135    13017.258    6342.5105    13924.176    18785.087   -5226.0794    3178.0201   -2060.1895     78.22777 
   10400    358.51046   -114.62524    0.3243878   -114.30085   -2236.9221     4.286037     4.286037     4.286037   -2236.9221   -8365.3637    5557.4362    -3902.839    2813.8605   -6197.6098   -2304.5613    78.734984 
   10500    349.89522   -114.61682   0.31659255   -114.30023     1757.284    4.2811771    4.2811771    4.2811771     1757.284   -6917.1597    818.33131     11370.68     2042.788   -11227.437    1544.9696    78.467458 
   10600    557.70396   -114.80412   0.50462226    -114.2995   -864.84649     4.278867     4.278867     4.278867   -864.84649   -2803.4243    -6638.576    6847.4608   -6741.9852    2072.5594    2616.3665    78.340504 
   10700    450.72041   -114.70824    0.4078213   -114.30042   -10271.252    4.2889332    4.2889332    4.2889332   -10271.252   -24475.421   -4950.2851   -1388.0513   -5983.8112   -2445.3171   -962.86752    78.894703 
   10800    293.05393   -114.56629   0.26516135   -114.30113    924.26035    4.2768865    4.2768865    4.2768865    924.26035   -12683.774    18056.036   -2599.4814    3451.6782   -18133.493   -3159.9485    78.231774 
   10900    401.92733    -114.6635    0.3636723   -114.29983    -1326.111     4.284579     4.284579     4.284579    -1326.111   -6887.9426    7987.2335   -5077.6238     749.8574    1647.8896    1638.2006    78.654659 
   11000    445.32451   -114.70108   0.40293897   -114.29814   -2376.9186    4.2853035    4.2853035    4.2853035   -2376.9186   -13474.685    -1779.672    8123.6012   -4051.7137    2613.6948   -1615.6589    78.694569 
   11100    386.14244   -114.64819    0.3493898    -114.2988   -817.32902     4.276587     4.276587     4.276587   -817.32902   -1967.0958    7371.4397    -7856.331   -787.44832   -11826.433     4159.076    78.215342 
   11200    418.72808   -114.67834   0.37887397   -114.29946   -4848.7382    4.2886552    4.2886552    4.2886552   -4848.7382    -12467.33   -10381.821    8302.9364   -890.06286   -10226.269   -1708.0363    78.879363 
   11300    501.91068   -114.75264   0.45413933    -114.2985    4640.7947    4.2792657    4.2792657    4.2792657    4640.7947   -6963.7273    4308.6936    16577.418   -6183.7746    4237.0926     846.9594    78.362406 
   11400    377.42376   -114.64158   0.34150095   -114.30008     5346.088     4.279009     4.279009     4.279009     5346.088   -9607.0289    16340.226    9305.0673   -3390.4419   -596.06613   -2982.3819    78.348306 
   11500    317.21491   -114.58703   0.28702272       -114.3   -2309.6387    4.2902696    4.2902696    4.2902696   -2309.6387   -13071.337    9953.5996   -3811.1791    4646.5668   -11120.765    336.28779    78.968476 
   11600    505.94343   -114.75549   0.45778825    -114.2977    8025.5737    4.2734333    4.2734333    4.2734333    8025.5737     8649.338    3428.1597    11999.223   -822.76666    465.58227    1719.5975    78.042432 
   11700    448.04033   -114.70588    0.4053963   -114.30048    -5314.984    4.2882189    4.2882189    4.2882189    -5314.984   -6870.9956   -10981.176    1907.2199   -4276.7624   -318.57792    2761.8481    78.855289 
   11800    338.43459   -114.60771   0.30622273   -114.30149   -2691.5552    4.2825935    4.2825935    4.2825935   -2691.5552   -7702.2708    4757.7557   -5130.1507   -2542.6786   -10589.163    -1384.605    78.545365 
   11900    445.99966   -114.70292   0.40354987   -114.29937    3078.1951    4.2752128    4.2752128    4.2752128    3078.1951   -1695.2907     15365.53   -4435.6544    3506.7083   -8145.9414   -1915.5026    78.139965 
   12000    465.14244   -114.71909   0.42087065   -114.29822   -5640.3729    4.2912982    4.2912982    4.2912982   -5640.3729   -9289.3334   -5690.9002    -1940.885   -2669.9683    5639.9086   -523.19781    79.025288 
   12100    318.58286   -114.58712   0.28826047   -114.29886    5227.5117    4.2765235    4.2765235    4.2765235    5227.5117   -3846.7246      15128.4    4400.8591   -1131.3551    -9170.745     3404.955    78.211858 
   12200    353.46026   -114.61998   0.31981828   -114.30017   -1184.8914    4.2803163    4.2803163    4.2803163   -1184.8914   -5170.7933   -1415.7374    3031.8566     2276.454   -9821.4032    1421.5936    78.420136 
   12300    479.27853   -114.73201   0.43366129   -114.29835   -8282.1697    4.2900024    4.2900024    4.2900024   -8282.1697   -3776.7145   -19691.553   -1378.2418     -655.545    1832.3894   -1663.4116    78.953719 
   12400    458.93168   -114.71287   0.41525103   -114.29762    3402.9861    4.2732054    4.2732054    4.2732054    3402.9861   -1944.7744    13479.736   -1326.0033   -5287.1369   -626.87337   -3526.9515    78.029944 
   12500    272.32574   -114.54763   0.24640605   -114.30122   -2755.5921     4.285878     4.285878     4.285878   -2755.5921   -18349.087    9609.5707    472.73986    1096.5353    -5054.423    3834.3373    78.726221 
   12600    323.53016     -114.593   0.29273689   -114.30027   -1149.0435     4.284929     4.284929     4.284929   -1149.0435    8067.3638   -2287.9533    -9226.541    6440.1864   -5169.9865    1434.1524    78.673939 
   12700    469.05529   -114.72269   0.42441108   -114.29828    6770.4677    4.2742477    4.2742477    4.2742477    6770.4677    13454.125   -2643.7475    9501.0253    1208.1889    2278.0174    1563.5272    78.087058 
   12800    350.26029    -114.6167   0.31692287   -114.29977   -5929.4341    4.2906663    4.2906663    4.2906663   -5929.4341    3465.9174   -3515.0282   -17739.192   -3557.3138    -5595.893   -3893.6855    78.990385 
   12900    391.64873   -114.65332     0.354372   -114.29895   -5945.5818    4.2784624    4.2784624    4.2784624   -5945.5818    1278.8552   -4783.9634   -14331.637    1936.2673   -4977.6057     2008.674    78.318284 
   13000    371.41127   -114.63544   0.33606073   -114.29938    3406.1508     4.280569     4.280569     4.280569    3406.1508    5467.8147    6355.9089   -1605.2711    6166.2046     2376.183     819.7618    78.434028 
   13100    428.40594   -114.68609    0.3876307   -114.29846   -1576.3787    4.2878284    4.2878284    4.2878284   -1576.3787    4394.1623   -4063.0959   -5060.2025    1888.3676   -3361.3674    2930.6706    78.833752 
   13200    232.30575   -114.51039   0.21019513    -114.3002    6853.5109    4.2763505    4.2763505    4.2763505    6853.5109    9454.3617    13876.147   -2769.9763    2407.5578   -9317.8903    3796.1272    78.202364 
   13300    369.10235   -114.63425   0.33397156   -114.30027   -6555.6823     4.284927     4.284927     4.284927   -6555.6823   -700.62885   -20288.349    1321.9304    5268.2327   -1996.6253    455.14702    78.673827 
   13400     488.5044    -114.7404   0.44200904   -114.29839   -4177.0018     4.285425     4.285425     4.285425   -4177.0018    3647.6815   -5522.9428   -10655.744    205.00988    3011.6617   -3664.5078    78.701261 
   13500    468.30615   -114.72199   0.42373324   -114.29826     2982.879    4.2743771    4.2743771    4.2743771     2982.879   -3075.9711    13996.827   -1972.2186   -1779.6175   -391.64034   -2432.4377     78.09415 
   13600    244.95197   -114.52278   0.22163769   -114.30114   -3374.3935    4.2901843    4.2901843    4.2901843   -3374.3935    8869.6555   -328.22731   -18664.609    6329.2239   -5276.7129    4288.1455    78.963763 
   13700    377.90207   -114.64028   0.34193373   -114.29835    6531.2029    4.2799274    4.2799274    4.2799274    6531.2029    15285.473   -2167.2592     6475.395    8198.0733   -1955.4121     1328.628    78.398761 
   13800    470.20842    -114.7229   0.42545446   -114.29745    7882.0359    4.2790274    4.2790274    4.2790274    7882.0359    11694.987    3296.7225    8654.3976   -1184.5631   -6622.2886    2063.7758    78.349315 
   13900    349.32389   -114.61565    0.3160756   -114.29958    -8220.791    4.2895959    4.2895959    4.2895959    -8220.791   -11983.492   -910.81343   -11768.067    -1443.065   -4059.6387   -2048.9382    78.931279 
   14000    388.33679   -114.65044   0.35137529   -114.29906   -3349.3654    4.2761075    4.2761075    4.2761075   -3349.3654   -566.17237   -9766.0474    284.12346    9608.8645    3087.0436    1437.0787    78.189035 
   14100    477.90304   -114.73078   0.43241671   -114.29836   -1055.2114    4.2853216    4.2853216    4.2853216   -1055.2114     4677.995    2665.0713     -10508.7     4445.475    1672.6182   -1620.5347    78.695563 
   14200    471.40008   -114.72484    0.4265327   -114.29831   -5508.2949     4.284614     4.284614     4.284614   -5508.2949    2866.0843   -3408.8091    -15982.16   -792.52282   -7467.8937    1577.4944    78.656586 
   14300    259.63357   -114.53536   0.23492191   -114.30044    3535.3235    4.2753992    4.2753992    4.2753992    3535.3235    1232.2607    10250.938   -877.22824    6253.8955   -6187.8245    4681.0229    78.150188 
   14400    475.47507   -114.72994   0.43021984   -114.29972   -7192.5998    4.2886201    4.2886201    4.2886201   -7192.5998   -4515.9175   -23035.683    5973.8013    5073.7594    1804.0391    614.94582    78.877425 
   14500    486.66144   -114.73909    0.4403415   -114.29875    4969.3491    4.2788402    4.2788402    4.2788402    4969.3491   -735.34117      16106.1   -462.71119   -2468.7718   -3357.9545   -1459.4879    78.339035 
   14600    424.82959   -114.68454   0.38439474   -114.30014   -738.99688    4.2787083    4.2787083    4.2787083   -738.99688    4114.5877    2749.3711   -9080.9494    522.48356   -1448.2972   -160.59808    78.331786 
   14700    321.60835   -114.59178     0.290998   -114.30079   -2596.3143    4.2887629    4.2887629    4.2887629   -2596.3143    4222.6328    3874.2452   -15885.821    9560.7163    490.72334    2809.3822    78.885308 
   14800    542.05432   -114.78848   0.49046214   -114.29802    6616.6791    4.2736036    4.2736036    4.2736036    6616.6791    7467.0754     2327.547    10055.415   -1113.1858   -1642.7316    292.33967    78.051762 
   14900    406.07901    -114.6671   0.36742882   -114.29967    -969.2623    4.2864424    4.2864424    4.2864424    -969.2623      -7261.9    8626.6816   -4272.5685    -3678.706   -5661.8235   -500.51581    78.757329 
   15000    380.12418   -114.64349   0.34394435   -114.29954   -3568.1532    4.2830679    4.2830679    4.2830679   -3568.1532   -9641.7436    4748.9937   -5811.7098    3934.5546    -1849.954   -2441.6736    78.571468 
   15100    382.64525   -114.64526   0.34622547   -114.29903    5384.3271    4.2761048    4.2761048    4.2761048    5384.3271    3172.4025    4605.7449     8374.834    10592.197    5307.6849    2130.0181    78.188885 
   15200    472.64252   -114.72724   0.42765688   -114.29959   -7316.2153    4.2871434    4.2871434    4.2871434   -7316.2153   -1499.3933   -5275.6774   -15173.575   -5609.9769   -4396.9881    170.40975    78.795977 
   15300    382.85029   -114.64748   0.34641099   -114.30107   -4495.1924    4.2795115    4.2795115    4.2795115   -4495.1924   -2678.2012    3283.1315   -14090.507    382.17292   -3198.8384    3763.7881     78.37591 
   15400    411.09861   -114.67251   0.37197066   -114.30054    243.74084    4.2777096    4.2777096    4.2777096    243.74084   -3133.1065   -2647.7902    6512.1192    5560.9879    457.30639    2244.3337    78.276951 
   15500    421.24062   -114.68075   0.38114736    -114.2996   -5705.8207    4.2900821    4.2900821    4.2900821   -5705.8207   -8083.3252   -5962.4734   -3071.6636   -1380.1736    311.94762   -1931.9682    78.958122 
   15600    340.54027   -114.60709   0.30812799   -114.29896      10877.9    4.2724169    4.2724169    4.2724169      10877.9    9727.3645    15583.305    7323.0312   -3902.8331   -1219.8381   -3533.2895    77.986758 
   15700    367.62966   -114.63242   0.33263904   -114.29978   -2146.5748    4.2871088    4.2871088    4.2871088   -2146.5748    3593.9712    1838.4458   -11872.141    5115.6242    62.162514    2414.0525    78.794068 
   15800     441.6902   -114.69674   0.39965058   -114.29709    4075.6062    4.2815574    4.2815574    4.2815574    4075.6062     15197.86    534.19882   -3505.2406     2100.824    1395.8329    4212.6622    78.488369 
   15900    462.11191   -114.71578   0.41812857   -114.29766   -1946.9628    4.2777828    4.2777828    4.2777828   -1946.9628   -6412.8466   -1963.0903    2535.0484   -10452.189   -5802.3631    1199.8455    78.280969 
   16000    326.47705   -114.59512    0.2954033   -114.29971   -4407.5959    4.2874439    4.2874439    4.2874439   -4407.5959   -9812.5134    8816.2909   -12226.565   -594.00702   -1625.0951   -587.59945    78.812546 
   16100    389.91668   -114.65173    0.3528048   -114.29892     4735.798    4.2793189    4.2793189    4.2793189     4735.798    16869.094   -6750.0434    4088.3437     5492.802    5584.7073    2838.7427    78.365328 
   16200    317.53308   -114.58615    0.2873106   -114.29884    7557.3013    4.2803423    4.2803423    4.2803423    7557.3013    19578.997    21.924433     3070.982   -137.63604    3087.0591   -410.89615    78.421563 
   16300    363.96539   -114.62933   0.32932354       -114.3   -10571.128    4.2869866    4.2869866    4.2869866   -10571.128     -6942.29   -14879.853    -9891.241   -8154.8868   -3963.0671   -1617.4929    78.787327 
   16400    385.45864   -114.64846   0.34877108   -114.29969   -2774.2514    4.2759083    4.2759083    4.2759083   -2774.2514   -191.68977    3061.5561    -11192.62    4254.1609   -3635.0691    5432.9517    78.178107 
   16500    517.85607   -114.76731   0.46856706   -114.29875   -8374.1945    4.2848105    4.2848105    4.2848105   -8374.1945    1569.9353   -17769.934   -8922.5847   -1036.6008    1659.3077    4164.4902    78.667413 
   16600    321.51969   -114.59066   0.29091777   -114.29974    1731.8639    4.2839157    4.2839157    4.2839157    1731.8639    12827.742   -5926.7302   -1705.4198   -9265.4522   -553.87021    584.46063    78.618139 
   16700    324.14053   -114.59306   0.29328916   -114.29977    6731.1356     4.274465     4.274465     4.274465    6731.1356    14002.533    1035.8765    5154.9977   -439.80292    2092.9136   -1586.6566     78.09897 
   16800     349.7141   -114.61615   0.31642867   -114.29972   -1030.3923    4.2887028    4.2887028    4.2887028   -1030.3923    1953.3103    1747.6405   -6792.1276     3428.879    4330.2483    5285.0078    78.881988 
   16900    539.50976   -114.78557   0.48815977   -114.29741     267.2349    4.2777277    4.2777277    4.2777277     267.2349   -13.938612   -5409.8527     6225.496   -8570.3044   -2507.4984    -37.60039    78.277941 
   17000    385.39367   -114.64799   0.34871229   -114.29928    428.23174    4.2807634    4.2807634    4.2807634    428.23174    2376.3486     1611.833   -2703.4864   -8481.7206   -3644.1359    1107.9666    78.444712 
   17100    346.91966   -114.61358    0.3139002   -114.29968   -2191.7971    4.2863018    4.2863018    4.2863018   -2191.7971    8829.2996    8447.2712   -23851.962    4225.8756   -1430.5859    1615.3925     78.74958 
   17200    406.86023   -114.66727   0.36813568   -114.29913    1413.1299    4.2780343    4.2780343    4.2780343    1413.1299    12416.671   -8437.0432    259.76199    193.77278    6124.9439    3286.9635    78.294774 
   17300    411.24833   -114.67202   0.37210614   -114.29992     1689.047     4.281984     4.281984     4.281984     1689.047   -4897.9266    2696.3799    7268.6877   -10267.373    365.74546   -2495.0631    78.511832 
   17400    460.26241   -114.71533    0.4164551   -114.29888   -11303.664    4.2860015    4.2860015    4.2860015   -11303.664   -14324.468   -10283.922   -9302.6022   -2204.0425   -3050.2945     4193.573    78.733027 
   17500    335.85173   -114.60298    0.3038857   -114.29909    5871.3822    4.2739108    4.2739108    4.2739108    5871.3822    12915.113    10795.173   -6096.1393    2917.2779   -1864.2449    8432.2395    78.068593 
   17600    463.66441   -114.71874    0.4195333   -114.29921   -8752.0703    4.2879707    4.2879707    4.2879707   -8752.0703     4918.911   -16387.356   -14787.766   -4410.1079    403.06547   -3076.9536    78.841598 
   17700    383.67906   -114.64663   0.34716088   -114.29947    8408.0432    4.2772974    4.2772974    4.2772974    8408.0432    13307.678    12308.805   -392.35337   -5362.3595    1361.1019    245.72831    78.254324 
   17800    465.13453   -114.71986    0.4208635     -114.299   -6044.8818    4.2826955    4.2826955    4.2826955   -6044.8818   -6805.2336   -4039.7356   -7289.6761    137.86028     438.2424    2279.4596    78.550976 
   17900     356.7463   -114.62256   0.32279155   -114.29977    2743.2888    4.2828917    4.2828917    4.2828917    2743.2888   -3089.8202    12948.034   -1628.3469     -4199.95    2642.4733       3399.6    78.561773 
   18000    448.74143   -114.70453   0.40603068    -114.2985    1318.5279    4.2807669    4.2807669    4.2807669    1318.5279    2938.0917   -3656.4597    4673.9518   -9506.8796   -4485.5401   -3904.1328    78.444903 
   18100    376.29799   -114.63936   0.34048233   -114.29888    8514.5062    4.2792977    4.2792977    4.2792977    8514.5062    10469.208    22151.053   -7076.7427    4370.8281   -2018.4879    4153.1649    78.364164 
   18200    393.50572   -114.65539   0.35605225   -114.29934   -6697.6807     4.286843     4.286843     4.286843   -6697.6807   -2231.9503    5782.9864   -23644.078    1436.1377   -280.03679    4945.0903    78.779414 
   18300    394.37616   -114.65563   0.35683984   -114.29879     3221.944    4.2747686    4.2747686    4.2747686     3221.944    3233.0864    4523.0137    1909.7319   -8126.4752    2807.0287   -6642.0053    78.115609 
   18400    473.14779   -114.72698   0.42811406   -114.29886   -9697.8961    4.2866701    4.2866701    4.2866701   -9697.8961   -15884.476   -8735.4166    -4473.796   -9336.5753   -464.18878   -2973.0045    78.769879 
   18500    405.80855    -114.6669   0.36718411   -114.29971    -294.4588    4.2791842    4.2791842    4.2791842    -294.4588   -890.92679    6415.4041   -6407.8537    4812.4516   -6452.9675    5129.9119    78.357928 
   18600    275.98075   -114.55078   0.24971319   -114.30107    1756.1205    4.2801465    4.2801465    4.2801465    1756.1205    15118.597    767.29483    -10617.53    -309.2378    557.62947    5195.6942    78.410802 
   18700    354.52748   -114.62073   0.32078391   -114.29995   -2579.7259    4.2835935    4.2835935    4.2835935   -2579.7259    5193.8372   -9538.7047   -3394.3102   -8156.9095   -1520.9581   -6417.8376    78.600398 
   18800    465.71971   -114.71979   0.42139298    -114.2984    -1715.754    4.2796439    4.2796439    4.2796439    -1715.754    3134.9026    2508.2985   -10790.463   -1440.3378    581.60217    3271.0283    78.383187 
   18900    471.68894   -114.72581   0.42679406   -114.29902   -6910.9334     4.282684     4.282684     4.282684   -6910.9334   -5356.1157   -961.35069   -14415.334   -1304.4405   -8.9948205    3863.1594    78.550343 
   19000    305.73447   -114.57698   0.27663497   -114.30035     23.61048     4.282563     4.282563     4.282563     23.61048    5423.5594    1393.2696   -6745.9976   -6414.0241    3205.4868   -4376.0105    78.543688 
   19100    361.67693   -114.62717   0.32725288   -114.29992    2113.2651    4.2804467    4.2804467    4.2804467    2113.2651    13402.656   -7044.9525   -17.908121   -7192.2272   -3602.7721    -1683.131    78.427301 
   19200      399.475   -114.66077   0.36145337   -114.29932    9025.2144    4.2797319    4.2797319    4.2797319    9025.2144    13613.256    16750.711   -3288.3243    7319.3106   -4129.7203    4628.5625    78.388018 
   19300    375.74395    -114.6408   0.33998102   -114.30082   -7633.0047    4.2852954    4.2852954    4.2852954   -7633.0047    1038.6196   -9542.2468   -14395.387   -5197.2034    235.45496   -1265.4136     78.69412 
   19400    329.90665   -114.59956   0.29850647   -114.30106    720.09282    4.2753404    4.2753404    4.2753404    720.09282     196.1684    85.519164    1878.5909   -8960.0939    3624.9751   -12501.234    78.146962 
   19500    528.88739   -114.77767   0.47854842   -114.29912    -7414.632    4.2865828    4.2865828    4.2865828    -7414.632    -5958.336   -9397.9874   -6887.5725   -3803.3354   -138.92225    3519.6743    78.765066 
   19600    359.20725   -114.62442   0.32501827    -114.2994    9563.6001    4.2776956    4.2776956    4.2776956    9563.6001    25426.253     4471.676   -1207.1289    7445.3929   -4234.0491    3018.8891    78.276184 
   19700     288.9027   -114.56295   0.26140523   -114.30154   -4572.4903    4.2815705    4.2815705    4.2815705   -4572.4903     8306.724   -14885.589   -7138.6057   -8540.3544   -1049.3312   -7029.5394    78.489088 
   19800     390.8356   -114.65313   0.35363626    -114.2995   -2747.5293    4.2833076    4.2833076    4.2833076   -2747.5293   -931.83904   -14551.033    7240.2843   -9324.2851    423.49191   -3157.7281    78.584661 
   19900    582.60184   -114.82431   0.52715039   -114.29716   -1253.1006    4.2792083    4.2792083    4.2792083   -1253.1006    4980.1734    299.78015   -9039.2553    2206.7938   -352.85994    3484.5627     78.35925 
   20000     408.1219   -114.66995   0.36927727   -114.30067   -3694.4119    4.2807943    4.2807943    4.2807943   -3694.4119    4701.7549   -6740.5697   -9044.4209   -453.47662    699.17954   -817.99915    78.446413 
   20100    220.55509   -114.50337   0.19956288    -114.3038    247.32596    4.2840296    4.2840296    4.2840296    247.32596    8897.8155   -2012.8975   -6142.9401   -7744.6028     673.8251    -7331.357     78.62441 
   20200    490.27619   -114.74374    0.4436122   -114.30013    5938.7188    4.2777824    4.2777824    4.2777824    5938.7188    11388.721    866.72507    5560.7103   -5417.9194   -4368.8873    5393.0839    78.280945 
   20300    488.18702   -114.74114   0.44172187   -114.29941    3443.0893    4.2829428    4.2829428    4.2829428    3443.0893    1032.1728    9973.8364   -676.74116    3318.1506   -1722.5898    1559.2935    78.564583 
   20400    372.26596   -114.63854   0.33683407   -114.30171   -8200.1147    4.2827506    4.2827506    4.2827506   -8200.1147   -9113.0344   -4559.7671   -10927.543   -8349.7755    3204.5384   -9030.3552     78.55401 
   20500    356.82999   -114.62465   0.32286727   -114.30178    3623.9905    4.2778455    4.2778455    4.2778455    3623.9905    2178.8817    6933.4675    1759.6222   -5863.7909     3874.328   -8003.9691    78.284411 
   20600    573.66754   -114.81745   0.51906645   -114.29838   -898.14004    4.2853577    4.2853577    4.2853577   -898.14004    8305.4561   -790.13655    -10209.74     1143.581   -5485.2794     5854.679    78.697556 
   20700    361.96166   -114.62776   0.32751051   -114.30025    5857.6718    4.2778805    4.2778805    4.2778805    5857.6718    18764.442    440.81696   -1632.2432   -67.092873   -4469.1358   -4065.8936    78.286335 
   20800    262.26587   -114.54011   0.23730367   -114.30281   -6474.1907    4.2824739    4.2824739    4.2824739   -6474.1907   -3716.6763   -15036.334   -669.56223   -11678.098    1524.9922   -9118.8279    78.538784 
   20900     511.2144   -114.76249   0.46255753   -114.29994   -3622.2625    4.2825275    4.2825275    4.2825275   -3622.2625   -11061.451    -6585.832    6780.4953   -4623.9632    4092.4409   -889.42055    78.541733 
   21000    564.85744   -114.80908   0.51109488   -114.29798   -3343.4958    4.2823201    4.2823201    4.2823201   -3343.4958   -3930.8963    5146.5096   -11246.101    3929.5177   -1522.5946    1471.1588    78.530322 
   21100    332.24755   -114.60147   0.30062457   -114.30085   -3258.4178    4.2799851    4.2799851    4.2799851   -3258.4178     2872.257   -8804.1851   -3843.3254   -6422.3594    1184.4452   -5748.3929    78.401936 
   21200    262.80209   -114.53954   0.23778886   -114.30175   -1816.1434    4.2853173    4.2853173    4.2853173   -1816.1434   -1279.6991     106.2835   -4275.0146   -9445.6406    4406.3111   -2691.9263    78.695327 
   21300    539.37042   -114.78529    0.4880337   -114.29726    9842.3622    4.2764611    4.2764611    4.2764611    9842.3622    10803.417    6986.0781    11737.592    1842.1223    -5072.133     1417.375     78.20843 
   21400    405.24184   -114.66728   0.36667133    -114.3006    212.93182    4.2859212    4.2859212    4.2859212    212.93182   -7686.7679    11026.094   -2700.5305   -3065.8907   -4798.4214   -4469.0443    78.728604 
   21500    266.60085   -114.54318   0.24122605   -114.30196   -255.74301    4.2792956    4.2792956    4.2792956   -255.74301   -10772.832    7036.6919    2968.9107   -10561.501    4144.2186   -8213.4067    78.364049 
   21600    466.90755   -114.72268   0.42246776   -114.30021   -1709.9729    4.2810143    4.2810143    4.2810143   -1709.9729   -9340.3541     10711.38   -6500.9442   -3525.0731    7892.3106   -183.64327    78.458508 
   21700     579.0096   -114.82167   0.52390006   -114.29777   -1863.7679    4.2837815    4.2837815    4.2837815   -1863.7679    190.78987    6552.7394   -12334.833    6545.9975   -1124.9401     2240.954    78.610747 
   21800     278.1937     -114.553   0.25171551   -114.30129   -664.80208    4.2805685    4.2805685    4.2805685   -664.80208    7238.8921     2178.516   -11411.814   -9745.6252   -3812.4849   -9384.5605    78.433999 
   21900    232.41336   -114.51262   0.21029249   -114.30232   -1429.3342    4.2825034    4.2825034    4.2825034   -1429.3342   -3305.2441    1224.7193   -2207.4778   -10731.697    3475.1532   -6677.2623    78.540405 
   22000    522.68802    -114.7707    0.4729391   -114.29776   -1697.0251    4.2838379    4.2838379    4.2838379   -1697.0251   -11576.733    5261.9968    1223.6613   -183.70205   -1870.6804   -841.38714    78.613853 
   22100    457.79656   -114.71364   0.41422395   -114.29942    2864.8468    4.2773658    4.2773658    4.2773658    2864.8468    2502.5522    717.53332     5374.455    2715.6408   -2165.8977   -6046.1921    78.258077 
   22200    267.45347   -114.54505   0.24199752   -114.30305   -5473.2911    4.2831707    4.2831707    4.2831707   -5473.2911   -9479.4429    2296.7753   -9237.2059   -11155.721    5543.1952    -4388.245     78.57713 
   22300     392.5124   -114.65678   0.35515347   -114.30162   -1514.0188    4.2830728    4.2830728    4.2830728   -1514.0188   -10892.862    18537.922   -12187.116   -5454.4345    7920.4602    1146.5452    78.571738 
   22400    578.31558   -114.82122   0.52327209   -114.29795    8486.0809    4.2767604    4.2767604    4.2767604    8486.0809    8120.1012    13464.653     3873.489    3475.5381   -2176.6956    435.40677    78.224852 
   22500    308.59042   -114.58068    0.2792191   -114.30146   -315.97818     4.285032     4.285032     4.285032   -315.97818   -7720.4283    13736.969   -6964.4748   -6421.0511   -3663.7477   -6342.4286    78.679609 
   22600    252.71464   -114.53198   0.22866151   -114.30332   -4377.3014    4.2776956    4.2776956    4.2776956   -4377.3014     -15832.9   -6410.6212    9111.6174   -10798.351    6795.4793   -3630.3401    78.276182 
   22700    451.87395    -114.7109   0.40886504   -114.30203    1622.8863    4.2810124    4.2810124    4.2810124    1622.8863   -9155.7084    15540.571    -1516.204   -469.55912    2617.5841    759.09798    78.458401 
   22800     583.8763   -114.82774   0.52830354   -114.29943   -6044.6793     4.283975     4.283975     4.283975   -6044.6793    -8319.889   -7411.0166   -2403.1324     2567.229    -1536.624   -1549.0503    78.621405 
   22900    222.70283   -114.50441    0.2015062   -114.30291   -2944.7589    4.2765156    4.2765156    4.2765156   -2944.7589   -1782.7142    1722.5586   -8774.1212   -11152.755    4027.4653   -8056.6666    78.211422 
   23000    359.91413   -114.62917   0.32565787   -114.30351   -8996.3687    4.2843867    4.2843867    4.2843867   -8996.3687   -7457.0673   -8512.6816   -11019.357   -5521.2531    8125.7869   -1799.7854    78.644072 
   23100    486.96679    -114.7404   0.44061778   -114.29978    10662.697    4.2802578    4.2802578    4.2802578    10662.697    1180.5044    19457.636    11349.951    3079.0214   -2856.5973    5496.7962    78.416921 
   23200    429.81472   -114.69033   0.38890539   -114.30142     3025.513     4.277143     4.277143     4.277143     3025.513    2137.1402    2693.4674    4245.9314   -3803.2995   -2634.8635   -5333.3841    78.245847 
   23300    199.42416   -114.48371   0.18044317   -114.30326    -9017.867     4.287443     4.287443     4.287443    -9017.867    -18018.83    8297.9883   -17332.759   -10709.573     11637.43   -3570.9552    78.812496 
   23400    507.99866   -114.75903   0.45964786   -114.29939     3477.261     4.276702     4.276702     4.276702     3477.261    -2001.251    11845.497    587.53725   -2152.0035    4713.1393   -2568.3292    78.221651 
   23500    533.29529   -114.78081   0.48253679   -114.29828    4699.1397    4.2814825    4.2814825    4.2814825    4699.1397    4547.5696    12120.233   -2570.3837    3190.6308   -2840.6128    3244.2471    78.484253 
   23600    239.01152   -114.51945   0.21626264   -114.30319   -5814.5814     4.283689     4.283689     4.283689   -5814.5814   -13740.006     390.5902   -4094.3282   -8326.5852    2171.1439   -2631.1431    78.605655 
   23700    233.59041   -114.51581   0.21135751   -114.30445     -3343.58    4.2770947    4.2770947    4.2770947     -3343.58   -10806.642   -2239.9621    3015.8636   -6659.0972    11008.431   -1629.3855    78.243199 
   23800    551.66309   -114.79931   0.49915635   -114.30016     289.3335    4.2823923    4.2823923    4.2823923     289.3335   -4075.6594    4248.1995    695.46044    1530.2475     213.8095    509.91691    78.534297 
   23900    484.27546   -114.73935   0.43818261   -114.30117   -9495.4944    4.2841009    4.2841009    4.2841009   -9495.4944   -12033.502   -6919.3178   -9533.6634   -5393.2887   -1077.7954   -3881.9072    78.628332 
   24000     214.5366   -114.49715   0.19411722   -114.30304   -3953.8193    4.2751765    4.2751765    4.2751765   -3953.8193   -4800.1778    3570.2856   -10631.566   -9358.0952    11349.979    -5028.751    78.137974 
   24100    335.79844   -114.60638   0.30383749   -114.30254   -1051.9478    4.2882046    4.2882046    4.2882046   -1051.9478   -5859.9868    2830.8809   -126.73743    674.01389    2489.7232     1936.931    78.854502 
   24200    558.92228   -114.80362   0.50572463   -114.29789    10642.856    4.2762437    4.2762437    4.2762437    10642.856    8438.0916    10844.038    12646.439    2638.3526   -3404.1839    2568.7104    78.196505 
   24300    318.28469   -114.59054   0.28799068   -114.30254   -1649.0245     4.281615     4.281615     4.281615   -1649.0245   -7238.0027    3826.1712    -1535.242   -9141.0075     4014.211    -5541.637    78.491541 
   24400    264.91115   -114.54229   0.23969718   -114.30259   -2434.5883    4.2847142    4.2847142    4.2847142   -2434.5883   -9526.3941     12524.49   -10301.861   -5843.3276    13533.237    -2967.877    78.662107 
   24500    585.12009   -114.82787   0.52942896   -114.29844    4288.5322    4.2772936    4.2772936    4.2772936    4288.5322    971.06026    8088.5587    3805.9775    1581.3406   -954.85351     2722.552    78.254114 
   24600    436.24009   -114.69458    0.3947192   -114.29986    6758.5991     4.281097     4.281097     4.281097    6758.5991    5210.8157    9384.8314    5680.1501    203.37444   -3494.8234    2951.0226    78.463053 
   24700    245.24244   -114.52562   0.22190052   -114.30372   -9036.2504    4.2852277    4.2852277    4.2852277   -9036.2504   -20778.289   -12559.151    6228.6884   -12425.102    7685.1334   -6206.2324    78.690391 
   24800    332.62108    -114.6036   0.30096255   -114.30264    5241.0533     4.273485     4.273485     4.273485    5241.0533   -2906.9876    8142.4618    10487.686   -2755.6203    7202.1097   -3941.8354    78.045263 
   24900    629.13728   -114.86837   0.56925663   -114.29911   -12148.217     4.290034     4.290034     4.290034   -12148.217   -13257.503   -9606.1185    -13581.03    1004.5091   -371.12926    4812.5129    78.955468 
   25000    398.01772   -114.66092    0.3601348   -114.30079   -4149.7316    4.2779621    4.2779621    4.2779621   -4149.7316   -16059.154    3571.1227    38.836236   -10410.688    5487.2804    713.54705    78.290814 
   25100    274.14855   -114.55029   0.24805537   -114.30223   -2983.8872    4.2789607    4.2789607    4.2789607   -2983.8872   -14307.165   -2171.2745    7526.7776   -3066.1767    11330.242   -5314.2851    78.345649 
   25200    444.72197   -114.70229   0.40239378   -114.29989   -146.89929     4.288788     4.288788     4.288788   -146.89929   -6762.1838    3824.3656    2497.1203    381.39667    -4576.805   -1285.7495    78.886692 
   25300    535.06076   -114.78197   0.48413422   -114.29784    8038.1469    4.2741827    4.2741827    4.2741827    8038.1469    6438.8349    3493.0188    14182.587   -2420.9458   -816.06072    3298.9999    78.083494 
   25400    307.70959   -114.57972   0.27842211    -114.3013   -354.31248    4.2837327    4.2837327    4.2837327   -354.31248   -13261.231    22318.247   -10119.953    -9221.889    10465.188   -2671.8859    78.608064 
   25500    457.80553   -114.71392   0.41423207   -114.29969   -3745.5717    4.2853426    4.2853426    4.2853426   -3745.5717   -11.856915    196.78024   -11421.638    463.41971    8528.1541   -4150.8937    78.696722 
   25600    542.16781   -114.78824   0.49056483   -114.29768    11037.866    4.2745999    4.2745999    4.2745999    11037.866    3241.9404    12267.788     17603.87    1508.5499   -3873.5942    4601.7155    78.106364 
   25700    416.79015   -114.67826   0.37712048   -114.30114    584.93781    4.2854752    4.2854752    4.2854752    584.93781   -6455.8648    -4207.806    12418.484   -5570.8492    3041.6228    2095.4108    78.704028 
   25800    304.79459   -114.57859   0.27578455   -114.30281   -3432.4065    4.2830127    4.2830127    4.2830127   -3432.4065   -7781.4001   -1596.6227   -919.19684   -3820.6021    8378.7501   -7066.5354    78.568431 
   25900    491.17991   -114.74433    0.4444299    -114.2999    6167.7058    4.2744643    4.2744643    4.2744643    6167.7058    8237.6598    12408.364   -2142.9063   -1047.5849   -811.25036   -5508.9538    78.098932 
   26000    494.97231   -114.74535   0.44786134   -114.29748   -10153.576    4.2912722    4.2912722    4.2912722   -10153.576    -12113.83   -9905.7046   -8441.1942   -2276.8102    597.94947    5288.9336    79.023851 
   26100    322.05977   -114.58993   0.29140645   -114.29852    2723.8538    4.2735643    4.2735643    4.2735643    2723.8538   -11997.331    2980.0735    17188.819   -11339.683    10274.695    1146.9365    78.049606 
   26200     360.0738   -114.62603   0.32580234   -114.30023   -6025.0535    4.2858716    4.2858716    4.2858716   -6025.0535   -15054.741   -2700.2522   -320.16716    4448.8563    8843.4284   -5840.5827     78.72587 
   26300    498.10157   -114.74871   0.45069277   -114.29802    537.03623    4.2814845    4.2814845    4.2814845    537.03623   -5083.3198    312.30148     6382.127   -4403.6975   -5219.1032   -1906.3512    78.484363 
   26400      386.827   -114.64946    0.3500092   -114.29945   -2868.9475     4.278131     4.278131     4.278131   -2868.9475     -8316.79    5490.6078   -5780.6603   -6443.8942     4866.377    2690.0193    78.300088 
   26500    349.87416   -114.61768   0.31657349   -114.30111   -4205.5733    4.2832985    4.2832985    4.2832985   -4205.5733   -13766.131    9779.5896   -8630.1786   -3483.1424    9135.5974   -3410.1345    78.584159 
   26600    375.20768   -114.64011   0.33949579   -114.30062    2483.5709     4.282528     4.282528     4.282528    2483.5709    6949.8518   -12526.304    13027.165    3192.1055    2796.6766   -1779.6002    78.541763 
   26700    436.12294   -114.69449    0.3946132   -114.29988    8136.6056    4.2737605    4.2737605    4.2737605    8136.6056     1903.048    8734.6776    13772.091   -1878.3995    822.61919    762.39777    78.060361 
   26800    366.77759   -114.63233   0.33186807   -114.30046   -14391.716    4.2921316    4.2921316    4.2921316   -14391.716    -16028.68   -9332.6291   -17813.839   -6370.2681    7156.6917   -2680.9958    79.071338 
   26900    328.03256   -114.59526   0.29681075   -114.29845    9794.7622    4.2737546    4.2737546    4.2737546    9794.7622    8837.5764    14379.149    6167.5613    2386.0479    3843.1041   -7117.1533    78.060033 
   27000    466.29307   -114.71992   0.42191177   -114.29801   -4527.6748    4.2831975    4.2831975    4.2831975   -4527.6748   -1427.2618    -9880.127   -2275.6357   -2832.0229   -4587.1354    2507.5659      78.5786 
   27100    308.88602   -114.57899   0.27948656   -114.29951   -24.569276    4.2838052    4.2838052    4.2838052   -24.569276   -2010.9067   -6304.7138    8241.9126   -3403.7486    6831.0824    5251.7648    78.612051 
   27200    363.72568   -114.62932   0.32910664   -114.30021    -3294.618    4.2771433    4.2771433    4.2771433    -3294.618   -7129.4972   -2143.9903   -610.36649   -2984.5348    8403.4507   -10986.618    78.245867 
   27300    390.03572   -114.65307   0.35291252   -114.30016    1198.6686    4.2822863    4.2822863    4.2822863    1198.6686    3665.1697    9202.7878   -9271.9517    4352.0112    1152.3733   -6012.2251    78.528462 
   27400     425.5186   -114.68448   0.38501817   -114.29946   -3568.1041    4.2843065    4.2843065    4.2843065   -3568.1041   -8513.3114    3019.3457   -5210.3467   -1686.9792   -2145.4804    5976.5036    78.639653 
   27500    318.84193   -114.58856   0.28849488   -114.30006    5489.5625    4.2746114    4.2746114    4.2746114    5489.5625   -10109.367    18943.301    7634.7535   -5671.8343     11069.71    3328.3387    78.106993 
   27600    368.96762   -114.63414   0.33384966   -114.30029   -5463.7507    4.2865414    4.2865414    4.2865414   -5463.7507   -9958.9068    -4224.593   -2207.7524   -422.09861    5621.5125   -10822.302    78.762785 
   27700     515.5054   -114.76424   0.46644012    -114.2978   -5739.4198    4.2809038    4.2809038    4.2809038   -5739.4198   -3516.8464   -2309.2173   -11392.196   -1515.5218   -3893.4964   -3664.3331    78.452433 
   27800    371.41824    -114.6344   0.33606703   -114.29833   -204.85587    4.2796943    4.2796943    4.2796943   -204.85587   -9367.7323    12223.726   -3470.5609   -2877.6479     6003.293    4317.4056    78.385956 
   27900    319.70622   -114.58904   0.28927691   -114.29976   -2173.1359    4.2840106    4.2840106    4.2840106   -2173.1359   -14459.315    6962.8119    977.09545    809.75927    5898.0706   -3980.8061    78.623364 
   28000    358.50301   -114.62411   0.32438105   -114.29972    1902.6321    4.2795481    4.2795481    4.2795481    1902.6321    7457.6271   -7149.6386    5399.9079    3629.6573   -159.94015   -6703.8347     78.37792 
   28100     496.8373    -114.7483   0.44954883   -114.29875   -4880.4601    4.2814188    4.2814188    4.2814188   -4880.4601   -8388.4125   -6367.9473    114.97939   -5555.2205    -1102.908     5061.181    78.480747 
   28200    423.87007   -114.68344   0.38352655   -114.29991   -4783.9748    4.2826108    4.2826108    4.2826108   -4783.9748   -6067.3239   -3637.4978   -4647.1029   -3597.6458    7166.3824   -3209.6599    78.546316 
   28300    378.56466   -114.64295   0.34253326   -114.30042    1353.4046    4.2784897    4.2784897    4.2784897    1353.4046    3727.2217    3640.9544   -3307.9624    805.80933    3905.7887   -12461.278    78.319781 
   28400    388.58076   -114.65189   0.35159604   -114.30029    4993.5274    4.2829824    4.2829824    4.2829824    4993.5274   -1231.0077     7560.383    8651.2067    1653.7795   -2831.7763    1623.8614    78.566763 
   28500    426.62584   -114.68576   0.38602002   -114.29974    5526.6356     4.280166     4.280166     4.280166    5526.6356    2726.7367    5978.5483    7874.6218   -2892.8239    2128.7323    8888.2783    78.411873 
   28600    391.63142   -114.65459   0.35435634   -114.30024     -2593.99    4.2801824    4.2801824    4.2801824     -2593.99   -11337.592    4950.3487   -1394.7267   0.98837335    9642.4061   -8575.5832    78.412775 
   28700    450.35016   -114.70764   0.40748629   -114.30015   -4082.6989      4.28188      4.28188      4.28188   -4082.6989    5888.5526   -8658.6559   -9477.9935    468.24597   -88.632501   -13059.744    78.506115 
   28800    449.52382   -114.70583    0.4067386   -114.29909    1313.6226    4.2821512    4.2821512    4.2821512    1313.6226   -7420.0629    3179.8713    8181.0595   -985.23232    3390.0194    4293.1294    78.521029 
   28900    360.55818    -114.6259   0.32624061   -114.29965    2062.0986    4.2789002    4.2789002    4.2789002    2062.0986    -10142.42    5915.9973    10412.718   -3172.8611    7142.5637    6739.9857     78.34233 
   29000    317.38578   -114.58759   0.28717732   -114.30041   -4832.4642    4.2834696    4.2834696    4.2834696   -4832.4642   -1869.6178   -10647.451   -1980.3236    33.908301    1629.4695   -14623.801     78.59358 
   29100    516.43932   -114.76538   0.46728515    -114.2981   -3984.7559    4.2801352    4.2801352    4.2801352   -3984.7559    3242.6272   -8391.6681   -6805.2269    457.20294    -3994.826   -4995.4197    78.410181 
   29200    442.75739   -114.69982   0.40061619   -114.29921    371.35764    4.2796288    4.2796288    4.2796288    371.35764   -9635.1672   -2538.7104    13287.951     -4600.65    4547.4044    5198.9929    78.382352 
   29300    352.20504   -114.61959   0.31868252   -114.30091   -3083.4539    4.2816632    4.2816632    4.2816632   -3083.4539   -3523.6912   -6761.8557    1035.1852    1760.1486    9352.6767   -3840.3023    78.494189 
   29400    292.22242   -114.56482   0.26440899   -114.30041    3825.5027    4.2828814    4.2828814    4.2828814    3825.5027    1497.8791    1615.2382    8363.3906   -100.92493   -3181.7162    -8659.683    78.561205 
   29500    531.62486   -114.77902   0.48102535     -114.298     3973.567    4.2762084    4.2762084    4.2762084     3973.567    1175.6029    10696.792     48.30601   -450.60844   -65.440604    2714.0625    78.194569 
   29600    393.29908   -114.65635   0.35586527   -114.30048   -3586.3664    4.2857458    4.2857458    4.2857458   -3586.3664   -3212.2148   -1845.1227   -5701.7616   -1580.1166    5210.3894   -916.28633     78.71894 
   29700    333.29299   -114.60223    0.3015705   -114.30066    1071.6571    4.2793347    4.2793347    4.2793347    1071.6571    -3211.621   -2991.9826     9418.575   -364.82086    5964.0082   -12372.417    78.366195 
   29800     393.3396   -114.65633   0.35590194   -114.30043    6629.0168    4.2778093    4.2778093    4.2778093    6629.0168     8869.463    3092.0893     7925.498   -552.89316     -4227.36    -1216.778    78.282423 
   29900    447.50154   -114.70401   0.40490879    -114.2991   -3807.9204    4.2873899    4.2873899    4.2873899   -3807.9204   -9329.1723    7021.1935   -9115.7824   -1986.1906    3805.6777    7254.7688    78.809568 
   30000    359.26006   -114.62473   0.32506605   -114.29966   -2680.2466    4.2777219    4.2777219    4.2777219   -2680.2466   -7288.0229    2929.6948   -3682.4118    4269.6859    6432.0597   -9001.3485    78.277627 
   30100    354.25946   -114.62077    0.3205414   -114.30022   -227.18858    4.2797188    4.2797188    4.2797188   -227.18858    6999.3285   -4362.4245   -3318.4697    609.50657    949.32607   -16877.652    78.387299 
   30200    455.42581   -114.71043   0.41207884   -114.29835   -7568.2419    4.2872582    4.2872582    4.2872582   -7568.2419   -15230.763   -13768.724     6294.762   -1414.7214    526.77814     6201.094    78.802307 
   30300    367.15371   -114.63151   0.33220839    -114.2993    1859.8945    4.2745204    4.2745204    4.2745204    1859.8945   -6388.4322     11132.94    835.17545   -4535.5082    9918.1099    4671.3731    78.102006 
   30400    365.61853   -114.63164   0.33081933   -114.30082   -5972.0737    4.2837513    4.2837513    4.2837513   -5972.0737   -7868.0676     1367.439   -11415.593    808.75761     3397.632   -11246.194    78.609089 
   30500    400.35413   -114.66147   0.36224883   -114.29922   -4763.3054    4.2859428    4.2859428    4.2859428   -4763.3054   -11917.678    5905.0522     -8277.29   -145.88802     -8170.76    -7836.492    78.729796 
   30600     418.9988   -114.67632   0.37911892   -114.29721    5613.5898    4.2735012    4.2735012    4.2735012    5613.5898   -7040.8191    8464.5111    15417.078   -2071.1038    7945.0647     3539.093    78.046151 
   30700    359.87679   -114.62555   0.32562408   -114.29992     -3281.01    4.2870619    4.2870619    4.2870619     -3281.01   -13012.993    -1867.846    5037.8085     1350.837    7849.0813   -3077.4123     78.79148 
   30800    432.00004   -114.69057   0.39088271   -114.29969   -2296.3849    4.2803022    4.2803022    4.2803022   -2296.3849    3416.1628   -686.72622   -9618.5912   -286.03985   -3760.6162   -9907.1597    78.419363 
   30900    477.43609   -114.73072   0.43199421   -114.29873    2570.5795    4.2759657    4.2759657    4.2759657    2570.5795   -4577.5524    12845.093   -555.80213    342.87345   -2400.6373    1814.3052    78.181254 
   31000    307.53532   -114.57777   0.27826442    -114.2995    2941.2056     4.288764     4.288764     4.288764    2941.2056      -1054.6    95.008103    9783.2088   -1488.6431    6868.1145   -450.72095    78.885364 
   31100    380.72897   -114.64336   0.34449157   -114.29887    4035.1709    4.2758954    4.2758954    4.2758954    4035.1709     5261.353   -1012.1195    7856.2794   -1171.4594    298.53357   -11592.409    78.177399 
   31200    434.55864   -114.69217   0.39319779   -114.29897   -366.02466    4.2800739    4.2800739    4.2800739   -366.02466    3401.8543   -353.20103   -4146.7272   -888.78383   -7378.1829   -5726.1845    78.406812 
   31300    486.46151   -114.73946    0.4401606   -114.29929   -3995.8622    4.2853085    4.2853085    4.2853085   -3995.8622    2167.0468   -7566.1648   -6588.4687   -563.49817    2548.9641    6003.2564    78.694842 
   31400    413.82972   -114.67515   0.37444183   -114.30071    3029.1939    4.2747284    4.2747284    4.2747284    3029.1939   -1232.2111    893.79091    9426.0018    3062.2469    10376.515   -4389.7123    78.113407 
   31500    313.75601   -114.58616   0.28389303   -114.30227    2057.7004    4.2832811    4.2832811    4.2832811    2057.7004    7182.1146   -7934.2045    6925.1911   -559.03064   -7664.4693   -13248.229    78.583203 
   31600     434.7532   -114.69334   0.39337383   -114.29996   -1795.2614    4.2841175    4.2841175    4.2841175   -1795.2614    -10910.01    3356.2433    2167.9825   -3549.0482   -5635.4841   -327.12884    78.629248 
   31700    487.28776   -114.73918    0.4409082   -114.29828    3207.5542    4.2739338    4.2739338    4.2739338    3207.5542   -2146.3203    9478.3518    2290.6312   -2810.6599    8996.0493    1970.3874    78.069857 
   31800    361.85433   -114.62774    0.3274134   -114.30033   -6620.5301    4.2872216    4.2872216    4.2872216   -6620.5301   -7786.9693   -9700.0468   -2374.5742    925.58003    4540.6224   -4707.6451    78.800284 
   31900    390.55313   -114.65319   0.35338068   -114.29981   -2363.7242    4.2793596    4.2793596    4.2793596   -2363.7242   -7087.9512   -5581.1785     5577.957    588.31841   -13069.899   -6106.7954    78.367562 
   32000    445.86056   -114.70251     0.403424   -114.29908     2452.363    4.2776938    4.2776938    4.2776938     2452.363   -11602.579    6920.8179     12038.85   -1147.9424   -5299.6313   -277.55705    78.276081 
   32100    476.33815   -114.73019   0.43100076   -114.29919   -9627.8969    4.2868697    4.2868697    4.2868697   -9627.8969   -6962.2777   -5764.7525   -16156.661   -1357.7026      9807.61   -4375.7473    78.780886 
   32200    338.13585   -114.60596   0.30595242   -114.30001   -143.00556    4.2768935    4.2768935    4.2768935   -143.00556    1045.5525     2614.011   -4088.5802   -1373.2999   -8666.2011   -5598.6586    78.232155 
   32300    314.34656   -114.58559   0.28442737   -114.30117    4066.4909    4.2810181    4.2810181    4.2810181    4066.4909   -10686.106    6747.8313    16137.747    -1052.562   -7776.5171    3591.8714    78.458714 
   32400    485.77734   -114.73867   0.43954155   -114.29912    3971.7738    4.2822991    4.2822991    4.2822991    3971.7738    3564.2067   -3991.4044    12342.519    227.15207    4714.9763    1948.5404    78.529167 
   32500    470.79113   -114.72594    0.4259817   -114.29996   -5001.9964    4.2806411    4.2806411    4.2806411   -5001.9964   -796.32164   -10505.562   -3704.1054    -680.6489    92.871254   -9443.6309    78.437991 
   32600    318.52415    -114.5896   0.28820734   -114.30139   -1609.5439    4.2799939    4.2799939    4.2799939   -1609.5439    3549.5264   -9848.5676    1470.4095   -53.552421   -14986.135   -8850.9339    78.402415 
   32700    447.16486   -114.70484   0.40460416   -114.30023   -1655.9656    4.2847003    4.2847003    4.2847003   -1655.9656   -4700.8184   -7256.2491    6989.1707   -1460.9964   -2596.6997    2711.0194    78.661343 
   32800    453.68262    -114.7092   0.41050157    -114.2987    11275.553     4.275167     4.275167     4.275167    11275.553    6948.6888    190.97759    26686.992    72.094133     10834.64    2391.2218    78.137452 
   32900    320.66966   -114.59237   0.29014865   -114.30222   -9525.8653    4.2847333    4.2847333    4.2847333   -9525.8653   -5092.7335   -6610.3922    -16874.47   -617.53389   -8461.6695   -6340.3942     78.66316 
   33000     298.7741   -114.57267   0.27033708   -114.30233   -2985.0782    4.2800728    4.2800728    4.2800728   -2985.0782   -5846.6111      3029.75   -6138.3735   -2596.8623   -15681.972    -2500.567    78.406755 
   33100    507.35439   -114.75802   0.45906492   -114.29896    3504.8491    4.2802102    4.2802102    4.2802102    3504.8491   -6906.5134    -1429.944    18851.005   -553.19595    4536.4773   -995.18353    78.414303 
   33200     404.1467   -114.66617   0.36568043   -114.30049    1965.3064    4.2808336    4.2808336    4.2808336    1965.3064    856.31534   -9820.4416    14860.046   -1145.3288    3087.3795   -6967.5374    78.448573 
   33300    258.93847   -114.53786   0.23429297   -114.30357   -12219.688     4.282667     4.282667     4.282667   -12219.688   -15015.838   -13231.499   -8411.7289   -1258.2077    -18550.05   -3840.8045    78.549411 
   33400    419.40253   -114.68219   0.37948422   -114.30271    1964.6083    4.2768782    4.2768782    4.2768782    1964.6083   -2583.8942    2146.1039    6331.6152   -1690.6385   -9603.4466     1185.048    78.231316 
   33500    576.66383   -114.82163   0.52177755   -114.29986    1223.9682    4.2837216    4.2837216    4.2837216    1223.9682     1668.903   -10450.427    12453.428     1847.053      8999.48    2748.9147    78.607454 
   33600    264.87428   -114.54334   0.23966382   -114.30368    937.08628    4.2790151    4.2790151    4.2790151    937.08628   -8162.6017   -3179.8354    14153.696    1259.0022   -8072.9756   -8664.0335    78.348639 
   33700    195.87683   -114.48273   0.17723347   -114.30549   -1266.8425    4.2805636    4.2805636    4.2805636   -1266.8425   -570.03914    284.50157     -3514.99   -1109.0044   -17518.349   -2356.1428    78.433728 
[...]
   91300     311.5843   -114.58412   0.28192802   -114.30219   -7358.1661    4.2842086    4.2842086    4.2842086   -7358.1661   -6691.8797   -15793.544    410.92486   -3954.6283   -3946.4936   -10442.689    78.634265 
   91400    459.84915   -114.71593   0.41608117   -114.29985    1219.7324    4.2822445    4.2822445    4.2822445    1219.7324   -7528.8065   -3531.9882    14719.992    3219.6336    4717.7699     1841.183    78.526165 
   91500    403.26606   -114.66364    0.3648836   -114.29875    9449.0971    4.2811187    4.2811187    4.2811187    9449.0971   -5008.2607    14003.107    19352.445   -2689.1739   -3442.2979    8218.9052    78.464248 
   91600    245.79683   -114.52435   0.22240213   -114.30195    607.82357    4.2848747    4.2848747    4.2848747    607.82357   -8656.0719     9252.822    1226.7206    -2013.147   -8861.0572    -2313.292    78.670946 
   91700    402.07349   -114.66378   0.36380454   -114.29997   -5322.3892    4.2826763    4.2826763    4.2826763   -5322.3892   -5953.9647    1560.7017   -11573.904    4586.5847   -59.098642   -7914.3922    78.549921 
   91800    599.14216   -114.83932   0.54211642    -114.2972   -2174.2861    4.2822387    4.2822387    4.2822387   -2174.2861   -3686.8665   -5682.3432    2846.3515    225.10641    4209.5122   -1211.6316    78.525844 
   91900    478.13037   -114.73173   0.43262241    -114.2991   -1089.9877    4.2834205    4.2834205    4.2834205   -1089.9877   -10295.118   -2512.1737    9537.3288   -8602.4368   -1425.7684    -138.3545    78.590875 
   92000    241.39012   -114.52087   0.21841486   -114.30246    882.40665    4.2819745    4.2819745    4.2819745    882.40665   -14472.578      16039.7    1080.0983   -1582.4746   -5138.6839   -581.85649    78.511313 
   92100    398.66839   -114.66239   0.36072354   -114.30167    4584.7436    4.2796093    4.2796093    4.2796093    4584.7436   -3584.4984    15543.125    1795.6042    6232.7052    2596.1032    -792.0176    78.381285 
   92200      614.424   -114.85476   0.55594375   -114.29882   -7540.3069    4.2866173    4.2866173    4.2866173   -7540.3069   -10981.481    933.03881   -12572.478   -47.049702   -3524.2381    82.097694    78.766971 
   92300    415.41213   -114.67734   0.37587362   -114.30147   -4091.3497    4.2786474    4.2786474    4.2786474   -4091.3497   -5928.8379   -4872.4011   -1472.8101   -5682.0939   -8985.7432   -7186.6234    78.328442 
   92400    350.62014   -114.62027   0.31724847   -114.30302   -4478.5305    4.2829682    4.2829682    4.2829682   -4478.5305   -2631.0673   -1175.4011   -9629.1229    621.74225    2756.1007   -7376.5885    78.565984 
   92500    375.22954    -114.6407   0.33951557   -114.30118    6613.3182    4.2843213    4.2843213    4.2843213    6613.3182   -7400.0496      22521.2    4718.8041    1598.0807    3567.3042    7485.0986     78.64047 
   92600    479.42186   -114.73398   0.43379098   -114.30019    7264.7811    4.2768349    4.2768349    4.2768349    7264.7811   -7918.6028    19853.894    9859.0517   -4791.3428   -4959.1006     2498.991    78.228941 
   92700    410.57334   -114.67247   0.37149539   -114.30098   -11667.722    4.2891043    4.2891043    4.2891043   -11667.722   -13493.191    -10042.97   -11467.006   -1623.5866   -3752.2923   -6470.9392    78.904147 
   92800    451.70649   -114.70794   0.40871352   -114.29923    960.64008    4.2778967    4.2778967    4.2778967    960.64008    1156.1496   -672.25996    2398.0306     4754.909    4079.7419   -5991.6892    78.287222 
   92900    448.43739   -114.70499   0.40575557   -114.29923    3456.5527     4.282266     4.282266     4.282266    3456.5527    -12841.02    21533.326    1677.3513    2016.0188   -4646.7734     3991.351    78.527349 
   93000    301.60448   -114.57371   0.27289808   -114.30081    3225.4263    4.2846462    4.2846462    4.2846462    3225.4263   -13628.312    17424.399    5880.1914   -7747.6697   -4701.3306     3141.973    78.658363 
   93100    306.26118   -114.57865   0.27711155   -114.30154    -514.8116    4.2774925    4.2774925    4.2774925    -514.8116   -4161.3384     994.8914    1622.0122   -804.44315     2725.798   -10494.698     78.26503 
   93200    481.06429   -114.73569   0.43527707   -114.30041   -8614.9173    4.2837382    4.2837382    4.2837382   -8614.9173   -10543.896   -10498.453   -4802.4028    5208.3807    2853.7164   -3737.0425    78.608364 
   93300    399.82141   -114.66267   0.36176681    -114.3009   -3375.2179    4.2838143    4.2838143    4.2838143   -3375.2179   -18951.507    11597.765    -2771.912   -762.80422   -8461.2404    523.37848    78.612554 
   93400    340.62855   -114.60867   0.30820787   -114.30046    2362.5337    4.2761421    4.2761421    4.2761421    2362.5337   -15939.221     17689.35    5337.4722   -5091.6838   -4783.5222   -1261.1407     78.19093 
   93500    229.29988   -114.50898   0.20747535   -114.30151   -789.89296    4.2870214    4.2870214    4.2870214   -789.89296   -18536.139    10055.496     6110.964    1288.4527    4982.7421   -1612.3116    78.789247 
   93600    453.91609   -114.70997   0.41071282   -114.29926   -2936.7741    4.2788507    4.2788507    4.2788507   -2936.7741   -10625.885   -154.74898    1970.3113    2473.4785   -6536.9175    596.90289     78.33961 
   93700    434.31338   -114.69226   0.39297587   -114.29929   -4038.8807    4.2828506    4.2828506    4.2828506   -4038.8807   -20299.935    7867.1099    316.18304   -4022.6692    -3851.078   -2364.6118    78.559511 
   93800    347.21424   -114.61487   0.31416674    -114.3007   -1930.7696    4.2825798    4.2825798    4.2825798   -1930.7696   -16363.589    9692.9168    878.36356    1153.5646    1814.4753   -6843.8247    78.544611 
   93900    267.60026   -114.54361   0.24213034   -114.30148    4962.4595     4.278931     4.278931     4.278931    4962.4595   -7369.0227    19905.685    2350.7159    5849.7166   -727.47109    1213.1319    78.344021 
   94000    352.73764   -114.61997   0.31916443    -114.3008   -2419.9195    4.2850105    4.2850105    4.2850105   -2419.9195   -22094.999    1454.4731    13380.768   -1897.5552   -9512.2519     5758.433    78.678428 
   94100    485.09024   -114.73844   0.43891985   -114.29952   -1954.2976    4.2776567    4.2776567    4.2776567   -1954.2976   -7511.7006    -1467.342    3116.1499   -5589.7904   -2938.8115    -4714.087    78.274045 
   94200    412.24854   -114.67343   0.37301114   -114.30042   -8357.8926    4.2846894    4.2846894    4.2846894   -8357.8926   -11881.135   -9400.8064   -3791.7366    3570.9481    4117.5303   -9887.6269    78.660739 
   94300    276.20696   -114.55216   0.24991786   -114.30224    4162.0671    4.2794755    4.2794755    4.2794755    4162.0671   -8375.9677    20325.182    536.98749    5176.5735   -9242.6439    2990.6136    78.373932 
   94400    405.72775   -114.66898     0.367111   -114.30187    2845.1542    4.2795511    4.2795511    4.2795511    2845.1542   -11046.441    12145.585    7436.3189   -2998.5459   -2740.1623     7514.892    78.378083 
   94500     443.7312   -114.70151   0.40149732   -114.30001   -685.33433    4.2852388    4.2852388    4.2852388   -685.33433   -12217.951   -916.35914    11078.307   -3089.0361   -333.63354   -3642.1323    78.691005 
   94600    470.21777   -114.72572   0.42546292   -114.30025   -6081.9844    4.2792053    4.2792053    4.2792053   -6081.9844   -6532.3642    -8696.881   -3016.7079    5603.2681    56.000655   -5019.8612    78.359088 
   94700    358.56178   -114.62597   0.32443423   -114.30153   -245.38745     4.281039     4.281039     4.281039   -245.38745   -7695.1771    10130.603    -3171.588   -895.39662   -8305.1023    754.18931    78.459866 
   94800    430.12526   -114.69043   0.38918637   -114.30124    718.51193    4.2843804    4.2843804    4.2843804    718.51193   -14921.618    6276.7246    10800.429   -5847.4392   -1754.0055    6618.7459    78.643727 
   94900    454.79206   -114.71236   0.41150542   -114.30085    10076.823    4.2748563    4.2748563    4.2748563    10076.823   -219.88472     12574.88    17875.474    155.44537    1162.3624   -2470.1263    78.120416 
   95000    321.01092   -114.59289   0.29045742   -114.30243   -3121.5921     4.287919     4.287919     4.287919   -3121.5921   -11783.124   -7963.6986    10382.046    5398.0641   -9776.5646   -360.46711    78.838747 
   95100    474.39934   -114.72919   0.42924649   -114.29994   -7248.8262    4.2797885    4.2797885    4.2797885   -7248.8262   -7798.8691     -9262.29   -4685.3196   -2240.2126   -2477.0508    3493.8803     78.39113 
   95200    542.29439   -114.78939   0.49067936   -114.29871    360.84448     4.278877     4.278877     4.278877    360.84448   -2258.3298   -4242.3209    7583.1841   -6384.6825    3039.7712    481.51727    78.341054 
   95300    409.11791   -114.66985   0.37017848   -114.29967   -622.62966     4.286642     4.286642     4.286642   -622.62966   -16537.084    634.89113    14034.304   -30.558577   -1917.1817   -696.54641    78.768332 
   95400    239.72341   -114.51927   0.21690677   -114.30236     1689.431    4.2769396    4.2769396    4.2769396     1689.431   -9142.6095    14522.081   -311.17835   -359.31402   -10824.622    10323.367    78.234685 
   95500     423.0565   -114.68447   0.38279041   -114.30168   -4835.7216    4.2834788    4.2834788    4.2834788   -4835.7216   -10918.063    175.44728    -3764.549   -1273.1623   -2170.5074    4419.7969    78.594086 
   95600    586.98562    -114.8291   0.53111692   -114.29798   -4734.9147    4.2859595    4.2859595    4.2859595   -4734.9147   -7276.7631   -6572.4836   -355.49749     1206.021    257.06479   -4069.1112    78.730715 
   95700    445.94421   -114.70266    0.4034997   -114.29916    1712.8924    4.2748961    4.2748961    4.2748961    1712.8924    641.93629    1255.5828    3241.1581   -509.56268   -5502.0057   -3134.4691      78.1226 
   95800    218.05419   -114.50004   0.19730002   -114.30274   -1413.6111    4.2878045    4.2878045    4.2878045   -1413.6111   -15488.354    1459.9676     9787.553   -4644.0425   -308.64349    9474.1515    78.832434 
   95900    405.56176   -114.66715    0.3669608   -114.30019    8056.7672    4.2800185    4.2800185    4.2800185    8056.7672   -4788.8783    18769.127    10190.053   -4789.1763    6394.9586     6626.362    78.403767 
   96000    469.84734   -114.72412   0.42512775   -114.29899    9562.6895    4.2784012    4.2784012    4.2784012    9562.6895   -9890.1597    25785.806    12792.422     2944.156   -5395.2422    -647.2433    78.314923 
   96100    388.03973   -114.65152    0.3511065   -114.30041   -14745.632    4.2894996    4.2894996    4.2894996   -14745.632   -25309.423   -4474.3154   -14453.157   -715.82277   -8351.0239   -619.70314    78.925965 
   96200    374.88776   -114.63882   0.33920633   -114.29962   -4712.7808     4.275677     4.275677     4.275677   -4712.7808   -8715.8256   -2808.6488   -2613.8678   -1661.7613    4814.3308    4608.5166    78.165422 
   96300    439.13556    -114.6965   0.39733908   -114.29916   -2616.8524    4.2863595    4.2863595    4.2863595   -2616.8524    -15766.26    3085.4348    4830.2681     339.2078    3462.0624    1886.5047    78.752758 
   96400    380.78074    -114.6428   0.34453841   -114.29826    4188.5592    4.2814408    4.2814408    4.2814408    4188.5592   -15651.176    28554.313   -337.45954   -891.87023   -3656.3036    4018.3341    78.481958 
   96500    169.42448    -114.4551   0.15329883    -114.3018   -2129.4249    4.2812573    4.2812573    4.2812573   -2129.4249   -15485.201    19106.574   -10009.648   -8024.8041    1527.8846    8906.0942    78.471867 
   96600    361.34749   -114.62766    0.3269548    -114.3007   -3925.3585    4.2817361    4.2817361    4.2817361   -3925.3585   -9097.0496    16.648482   -2695.6745   -5070.2899    9233.0557    1147.9331      78.4982 
   96700    553.95428   -114.79864   0.50122947   -114.29741   -5833.8748    4.2860788    4.2860788    4.2860788   -5833.8748   -9515.5474   -6950.0931   -1035.9839    3445.5716   -4892.7834   -3024.4899    78.737288 
   96800    411.70677   -114.67097   0.37252094   -114.29845    2704.4833    4.2769739    4.2769739    4.2769739    2704.4833   -10639.235    14497.278    4255.4067    3179.0122   -6788.5388    369.28993    78.236569 
   96900    170.10589   -114.45615   0.15391538   -114.30223   -4335.7141    4.2875153    4.2875153    4.2875153   -4335.7141   -25863.458    12791.855    64.461103   -3008.2742    7747.2433    8944.0548    78.816483 
   97000    354.19353   -114.62142   0.32048175   -114.30094    10247.972    4.2762179    4.2762179    4.2762179    10247.972   -2340.8667    21819.971     11264.81   -2502.4062     3419.744    89.659704    78.195089 
   97100    579.80846   -114.82342   0.52462288    -114.2988   -2899.8792    4.2839881    4.2839881    4.2839881   -2899.8792    -11688.15   -821.42324     3809.936   -2190.7585   -517.37765    611.53643    78.622126 
   97200    358.92146   -114.62616   0.32475968    -114.3014   -8142.9644     4.283328     4.283328     4.283328   -8142.9644   -10094.819   -9118.4797   -5215.5945   -3839.1116    3587.2806    1576.1341    78.585786 
   97300    267.51422    -114.5449   0.24205248   -114.30285   -4196.5874    4.2792323    4.2792323    4.2792323   -4196.5874   -4759.6167    2480.0208   -10310.166    -1510.315    9590.6019    5438.2776    78.360571 
   97400    450.47357   -114.70854   0.40759796   -114.30095    4237.3667    4.2823141    4.2823141    4.2823141    4237.3667   -4852.3724    15366.232    2198.2409    4142.9337   -4902.3084   -1400.9173    78.529992 
   97500    419.04773   -114.67944   0.37916319   -114.30027    4032.6531    4.2825492    4.2825492    4.2825492    4032.6531   -13684.617    18345.773    7436.8038    2400.0955   -4245.4609    3984.2236    78.542927 
   97600     356.6271   -114.62534    0.3226837   -114.30265   -9211.2357    4.2799186    4.2799186    4.2799186   -9211.2357   -16189.322   -3244.4647   -8199.9201   -6250.9223    12761.282    6596.2976    78.398279 
   97700    415.06919   -114.67763   0.37556333   -114.30206   -4240.5651    4.2830162    4.2830162    4.2830162   -4240.5651     -9260.47    -10338.93     6877.705   -4055.9979    3527.0165   -2952.9205    78.568622 
   97800    644.30974   -114.88289     0.582985    -114.2999    1366.7195    4.2805782    4.2805782    4.2805782    1366.7195   -2820.1884     1398.374     5521.973    322.74856    232.33237   -2859.5744    78.434534 
   97900     364.0428   -114.63171   0.32939358   -114.30232     7637.688    4.2808728    4.2808728    4.2808728     7637.688   -9617.1384    16552.992    15977.211    1582.8843    1504.1602    6294.7262    78.450729 
   98000    221.83333   -114.50429   0.20071946   -114.30357    675.72951    4.2841368    4.2841368    4.2841368    675.72951   -12431.325    10985.925    3472.5891   -3545.8166    7075.4476    10153.646    78.630312 
   98100    511.71527   -114.76235   0.46301073   -114.29934    4320.8505    4.2779405    4.2779405    4.2779405    4320.8505    4825.9544    3436.8598    4699.7374    1574.2798   -2671.4086   -6502.4811    78.289628 
   98200    658.82551   -114.89364   0.59611917   -114.29752   -8798.2852    4.2854025    4.2854025    4.2854025   -8798.2852   -11063.659   -11462.909   -3868.2884    776.22144    98.863644   -3782.3268    78.700021 
   98300    357.98258   -114.62601   0.32391016    -114.3021    3112.5729    4.2773938    4.2773938    4.2773938    3112.5729   -2834.1552    7119.0575    5052.8166   -5066.3127    11375.735    6144.5803    78.259615 
   98400    335.54962   -114.60626   0.30361235   -114.30265   -2118.6976    4.2855143    4.2855143    4.2855143   -2118.6976   -12193.854    6303.7628   -466.00167   -3477.5882      2449.42    8139.1132    78.706185 
   98500    414.24453   -114.67351   0.37481716   -114.29869    10663.188    4.2809735    4.2809735    4.2809735    10663.188   -6564.2381    20213.999    18339.802    1646.8976   -2442.3512   -655.42859    78.456265 
   98600     485.5384   -114.73823   0.43932535    -114.2989    -1337.406    4.2809434    4.2809434    4.2809434    -1337.406   -7224.2408    6754.1096   -3542.0868    1766.3678    3738.8986    24.307494    78.454609 
   98700    385.13627   -114.64879   0.34847939   -114.30032     -5019.09    4.2820902    4.2820902    4.2820902     -5019.09   -8860.2536   -11877.829    5680.8127   -5556.5556    5456.0686    4247.7157    78.517676 
   98800    445.67506   -114.70366   0.40325616   -114.30041   -5047.8496    4.2831898    4.2831898    4.2831898   -5047.8496    -9194.414   -6468.3315    519.19666    -2170.525   -1002.8195   -4265.9382    78.578179 
   98900    428.66466   -114.68709   0.38786479   -114.29923    6551.1283    4.2791654    4.2791654    4.2791654    6551.1283    -9364.133    19052.131    9965.3866   -280.03722    1727.8466    1060.8164    78.356898 
   99000    237.79512   -114.51704   0.21516202   -114.30188     4354.877    4.2856695    4.2856695    4.2856695     4354.877   -18216.733    20061.807    11219.557   -4552.9959    5521.2456    8594.4962    78.714731 
   99100    373.23389   -114.63789   0.33770987   -114.30018   -501.91242    4.2770594    4.2770594    4.2770594   -501.91242   -8663.8251    6083.1597    1074.9281   -3397.2146    1844.0131    8353.9608    78.241259 
   99200    494.65764   -114.74688   0.44757663   -114.29931   -10433.288    4.2859333    4.2859333    4.2859333   -10433.288   -15051.223    -11562.16   -4686.4813    2732.3981   -3982.8291   -8707.3471    78.729271 
   99300    437.06065   -114.69486   0.39546166    -114.2994   -5263.7935      4.28136      4.28136      4.28136   -5263.7935   -18879.603    3143.2031   -54.980967   -1396.0991    6040.9228   -3365.7174    78.477516 
   99400     279.4547   -114.55378   0.25285648   -114.30092    6830.9031    4.2768763    4.2768763    4.2768763    6830.9031   -8992.7862    20636.125    8849.3709   -4092.0105    4466.0543     11364.31    78.231211 
   99500     281.4084   -114.55475   0.25462423   -114.30012   -992.55432    4.2882989    4.2882989    4.2882989   -992.55432   -16824.798    9825.2194    4021.9161   -3311.4583   -2870.4624    5742.5709    78.859702 
   99600    446.86702   -114.70188   0.40433467   -114.29754    2117.1318    4.2763901    4.2763901    4.2763901    2117.1318   -10201.116    12257.117    4295.3949    983.46719    4754.5665   -5336.5309    78.204535 
   99700    429.34242   -114.68737   0.38847804   -114.29889   -7832.3796    4.2831891    4.2831891    4.2831891   -7832.3796   -15713.981   -10927.055    3143.8976   -4399.4854    2693.0374   -615.68799    78.578142 
   99800    324.19259   -114.59389   0.29333627   -114.30056    653.84161    4.2819486    4.2819486    4.2819486    653.84161   -5602.7512     4115.175     3449.101   -2690.0595   -484.27235    10989.343    78.509887 
   99900     379.7837   -114.64471   0.34363627   -114.30107    2533.1943     4.278211     4.278211     4.278211    2533.1943   -9603.0665    18629.169   -1426.5193    3261.6407    -4456.869   -2356.8953    78.304478 
  100000    362.35741   -114.62926    0.3278686   -114.30139    5794.4717     4.281166     4.281166     4.281166    5794.4717   -14944.632    17947.715    14380.332    31.729872    3056.1878   -1597.1135    78.466846 
Loop time of 22.2906 on 1 procs for 100000 steps with 8 atoms

Pair  time (%) = 7.14197 (32.0402)
Kspce time (%) = 5.35262 (24.0128)
Neigh time (%) = 0 (0)
Comm  time (%) = 1.07679 (4.83067)
Outpt time (%) = 0.0254085 (0.113987)
Other time (%) = 8.69386 (39.0023)

Nlocal:    8 ave 8 max 8 min
Histogram: 1 0 0 0 0 0 0 0 0 0
Nghost:    2189 ave 2189 max 2189 min
Histogram: 1 0 0 0 0 0 0 0 0 0
Neighs:    2344 ave 2344 max 2344 min
Histogram: 1 0 0 0 0 0 0 0 0 0

Total # of neighbors = 2344
Ave neighs/atom = 293
Neighbor list builds = 0
Dangerous builds = 0
unfix 20
unfix 21
print "seeds:4799858"
seeds:4799858
