# ['Ni']

28 atoms
1 atom types

    0.0000     2.4722 xlo xhi
    0.0000     4.2820 ylo yhi
    0.0000    28.2597 zlo zhi

    0.0000     0.0000     0.0000 xy xz yz

Atoms

1 1     0.0000     0.0000     0.0000
2 1     1.2361     2.1410     0.0000
3 1     1.2361     0.7137     2.0186
4 1     0.0000     2.8547     2.0186
5 1     0.0000     1.4273     4.0371
6 1     1.2361     3.5683     4.0371
7 1     0.0000     0.0000     6.0557
8 1     1.2361     2.1410     6.0557
9 1     1.2361     0.7137     8.0742
10 1     0.0000     2.8547     8.0742
11 1     0.0000     1.4273    10.0928
12 1     1.2361     3.5683    10.0928
13 1     0.0000     0.0000    12.1113
14 1     1.2361     2.1410    12.1113
15 1     0.0000     1.4273    14.1299
16 1     1.2361     3.5683    14.1299
17 1     0.0000     0.0000    16.1484
18 1     1.2361     2.1410    16.1484
19 1     1.2361     0.7137    18.1670
20 1     0.0000     2.8547    18.1670
21 1     0.0000     1.4273    20.1855
22 1     1.2361     3.5683    20.1855
23 1     0.0000     0.0000    22.2041
24 1     1.2361     2.1410    22.2041
25 1     1.2361     0.7137    24.2226
26 1     0.0000     2.8547    24.2226
27 1     0.0000     1.4273    26.2412
28 1     1.2361     3.5683    26.2412
