LAMMPS (11 Aug 2017)
Reading data file ...
  triclinic box = (0 0 0) to (3.5167 3.5167 3.5167) with tilt (0 -0 0)
  1 by 1 by 1 MPI processor grid
  reading atoms ...
  4 atoms
4 atoms in group Ni
Neighbor list info ...
  update every 1 steps, delay 0 steps, check yes
  max neighbors/atom: 2000, page size: 100000
  master list distance cutoff = 5.64464
  ghost atom cutoff = 5.64464
  binsize = 2.82232, bins = 2 2 2
  1 neighbor lists, perpetual/occasional/extra = 1 0 0
  (1) pair eam/alloy, perpetual
      attributes: half, newton on
      pair build: half/bin/newton/tri
      stencil: half/bin/3d/newton/tri
      bin: standard
Setting up cg style minimization ...
  Unit style    : metal
  Current step  : 0
WARNING: Energy due to 3 extra global DOFs will be included in minimizer energies
Per MPI rank memory allocation (min/avg/max) = 4.211 | 4.211 | 4.211 Mbytes
Step PotEng Xhi Xlo Yhi Ylo Zhi Xy Xz Yz Press Pxx Pyy Pzz Pxy Pxz Pyz c_eatoms 
       0   -17.851051       3.5167            0       3.5167            0       3.5167            0           -0            0    6071.8387    6071.8387    6071.8387    6071.8387 3.5147735e-13 -1.2780994e-13 -7.9881215e-14   -17.851051 
      10   -17.851337    3.5186586 -0.0019585868    3.5186586 -0.0019585868    3.5186586            0           -0            0   -114.64361   -114.64361   -114.64361   -114.64361 1.9903719e-14 2.050083e-13 1.7316235e-13   -17.851337 
      20   -17.852308    3.5239696 -0.0072696069    3.5239696 -0.0072696069    3.5239696            0           -0            0   -15514.343   -15514.343   -15514.343   -15514.343 -2.646436e-10 -2.694722e-10 -2.3502508e-10   -17.852308 
      30   -18.232951    3.5393822 -0.022682224    3.5393822 -0.022682224    3.5393822            0           -0            0     150430.1     150430.1     150430.1     150430.1 -1.1245566e-08 -9.3866915e-09 -9.5696756e-09   -18.232951 
      40    -18.33593    3.5569657 -0.040265724    3.5569657 -0.040265724    3.5569657            0           -0            0    94317.408    94317.408    94317.408    94317.408 -1.6872785e-08 -1.4326554e-08 -1.3997341e-08    -18.33593 
      50   -18.402562    3.5745492 -0.057849224    3.5745492 -0.057849224    3.5745492            0           -0            0    48594.323    48594.323    48594.323    48594.323 -2.1739344e-08 -1.7909104e-08 -1.8098096e-08   -18.402562 
      60   -18.461992    3.5921327 -0.075432724    3.5921327 -0.075432724    3.5921327            0           -0            0    19321.778    19321.778    19321.778    19321.778 -1.9997609e-08 -1.6806883e-08 -1.6776161e-08   -18.461992 
      70   -18.555879    3.6097162 -0.093016224    3.6097162 -0.093016224    3.6097162            0           -0            0    14155.652    14155.652    14155.652    14155.652 -2.0397619e-08 -1.6684685e-08 -1.6922416e-08   -18.555879 
      80   -18.651339    3.6272997  -0.11059972    3.6272997  -0.11059972    3.6272997            0           -0            0    14315.065    14315.065    14315.065    14315.065 -1.5898695e-08 -1.3024217e-08 -1.3926764e-08   -18.651339 
      90   -18.736306    3.6448832  -0.12818322    3.6448832  -0.12818322    3.6448832            0           -0            0    14255.889    14255.889    14255.889    14255.889 -1.5543799e-08 -1.3076868e-08 -1.3084345e-08   -18.736306 
     100   -18.811513    3.6624667  -0.14576672    3.6624667  -0.14576672    3.6624667            0           -0            0    13913.815    13913.815    13913.815    13913.815 -1.5457938e-08 -1.2560115e-08 -1.2646646e-08   -18.811513 
     110   -18.878003    3.6800502  -0.16335022    3.6800502  -0.16335022    3.6800502            0           -0            0    13311.778    13311.778    13311.778    13311.778 -1.2269595e-08 -1.046454e-08 -1.0423492e-08   -18.878003 
     120   -18.936782    3.6976337  -0.18093372    3.6976337  -0.18093372    3.6976337            0           -0            0    12570.193    12570.193    12570.193    12570.193 -1.2241158e-08 -1.0197234e-08 -1.0585841e-08   -18.936782 
     130   -18.988714    3.7152172  -0.19851722    3.7152172  -0.19851722    3.7152172            0           -0            0    11760.214    11760.214    11760.214    11760.214 -7.9839879e-09 -6.4377996e-09 -6.3995274e-09   -18.988714 
     140   -19.034582    3.7328007  -0.21610072    3.7328007  -0.21610072    3.7328007            0           -0            0    10897.631    10897.631    10897.631    10897.631 -1.173555e-08 -9.9696501e-09 -1.0311975e-08   -19.034582 
     150   -19.075102    3.7503842  -0.23368422    3.7503842  -0.23368422    3.7503842            0           -0            0    10020.016    10020.016    10020.016    10020.016 -6.7630032e-09 -5.4440157e-09 -5.5814807e-09   -19.075102 
     160   -19.110856    3.7679677  -0.25126772    3.7679677  -0.25126772    3.7679677            0           -0            0    9072.0092    9072.0093    9072.0092    9072.0092 -9.5369578e-09 -7.9297429e-09 -8.2561643e-09   -19.110856 
     170   -19.142448    3.7855512  -0.26885122    3.7855512  -0.26885122    3.7855512            0           -0            0    8206.5056    8206.5056    8206.5056    8206.5056 -2.5694874e-10 6.8641992e-11 3.2181147e-10   -19.142448 
     180   -19.170319    3.8031347  -0.28643472    3.8031347  -0.28643472    3.8031347            0           -0            0    7412.1479    7412.1479    7412.1479    7412.1479 -9.5122508e-09 -8.1993516e-09 -7.9795124e-09   -19.170319 
     190   -19.194928    3.8207182  -0.30401822    3.8207182  -0.30401822    3.8207182            0           -0            0    6725.6892    6725.6892    6725.6891    6725.6891 -5.6026875e-09 -5.1480002e-09 -4.7494384e-09   -19.194928 
     200   -19.216635    3.8383017  -0.32160172    3.8383017  -0.32160172    3.8383017            0           -0            0    5944.3436    5944.3436    5944.3436    5944.3436 -1.6313354e-09 -1.7001177e-09 -1.4949243e-09   -19.216635 
     210    -19.23579    3.8558852  -0.33918522    3.8558852  -0.33918522    3.8558852            0           -0            0    5388.5514    5388.5514    5388.5513    5388.5514 9.5383419e-09 7.4206032e-09 7.6033903e-09    -19.23579 
     220   -19.252649    3.8734687  -0.35676872    3.8734687  -0.35676872    3.8734687            0           -0            0    4803.4271    4803.4272     4803.427     4803.427 8.7889034e-09 7.5066329e-09 7.7046955e-09   -19.252649 
     230   -19.267517    3.8910522  -0.37435222    3.8910522  -0.37435222    3.8910522            0           -0            0    4256.9795    4256.9797    4256.9794    4256.9794 8.988029e-09 7.906715e-09 7.7879068e-09   -19.267517 
     240   -19.280623    3.9086357  -0.39193572    3.9086357  -0.39193572    3.9086357            0           -0            0     3770.852    3770.8524    3770.8517    3770.8519 1.8574532e-08 1.557243e-08 1.6207037e-08   -19.280623 
     250    -19.29214    3.9262192  -0.40951922    3.9262192  -0.40951921    3.9262192            0           -0            0    3283.1066    3283.1076    3283.1059    3283.1063 2.2050698e-09 2.1940769e-09 2.2368998e-09    -19.29214 
     260   -19.302251    3.9438027  -0.42710272    3.9438027   -0.4271027    3.9438027            0           -0            0    2925.3425    2925.3451    2925.3407    2925.3417 6.6006901e-09 5.491158e-09 5.9558136e-09   -19.302251 
     270   -19.311188    3.9613862  -0.44468622    3.9613862  -0.44468615    3.9613862            0           -0            0    2577.9836    2577.9911    2577.9785    2577.9813 1.1600191e-08 9.9587227e-09 1.0412478e-08   -19.311188 
     280    -19.31899    3.9789697  -0.46226972    3.9789695  -0.46226949    3.9789695            0           -0            0    2261.0119    2261.0356    2260.9957    2261.0045 7.2884108e-10 6.6245247e-10 8.2255353e-10    -19.31899 
     290   -19.325888    3.9965532  -0.47985322    3.9965524  -0.47985236    3.9965526            0           -0            0    1984.6224    1984.7081    1984.5636    1984.5955 1.0312321e-08 9.0458749e-09 8.9344517e-09   -19.325888 
     300   -19.331897    4.0141367  -0.49743672    4.0141331  -0.49743308    4.0141339            0           -0            0    1736.6615    1737.0146    1736.4193    1736.5507 5.2124878e-09 4.4090633e-09 4.4257475e-09   -19.331897 
     310   -19.337184    4.0317202  -0.51502022    4.0317022  -0.51500218    4.0317062            0           -0            0    1500.2932    1502.0003     1499.122    1499.7573 -3.194753e-08 -2.6518447e-08 -2.6881576e-08   -19.337184 
     320   -19.341809    4.0493037  -0.53260372    4.0491978  -0.53249781    4.0492212            0           -0            0    1326.7339    1336.5216    1320.0205    1323.6596 8.4499195e-09 6.9378097e-09 6.9483628e-09   -19.341809 
     330   -19.345775    4.0668872  -0.55018722    4.0661635   -0.5494635    4.0663228            0           -0            0    1161.6039    1227.0434    1116.7973     1140.971 1.0306631e-08 8.6268108e-09 8.7544434e-09   -19.345775 
     340   -19.348909    4.0844707  -0.56777072    4.0796836  -0.56298357    4.0807199            0           -0            0    1029.9685    1458.6112    739.79347    891.50068 2.3474681e-09 2.1517905e-09 1.9150796e-09   -19.348909 
     350   -19.351324    4.1020542  -0.58535422    4.0838729  -0.56717295    4.0875908            0           -0            0    960.73139    2619.3787   -122.69588    385.51133 -4.6678794e-09 -3.5657855e-09 -4.2336852e-09   -19.351324 
     360   -19.354792    4.1196377  -0.60293772    4.0806865  -0.56398648    4.0879465            0           -0            0    947.97107    4654.7128   -1353.9825   -456.81717 3.2701555e-09 2.4865324e-09 3.6433598e-09   -19.354792 
     370    -19.36078    4.1372212  -0.62052122     4.074762  -0.55806198    4.0852176            0           -0            0    1032.7973    7269.8089   -2655.1259    -1516.291 6.6180759e-09 5.2835588e-09 9.3182522e-09    -19.36078 
     380   -19.370056    4.1548047  -0.63810472    4.0677572  -0.55105719    4.0807765            0           -0            0    1076.4088    10208.692   -4100.2487   -2879.2171 5.6904869e-09 4.1347776e-09 9.6083338e-09   -19.370056 
     390   -19.383042    4.1723882  -0.65568822     4.060378  -0.54367796    4.0753402            0           -0            0    1270.6254    13579.667   -5471.7053   -4296.0855 1.4911874e-08 1.132639e-08 2.8173667e-08   -19.383042 
     400   -19.400021    4.1899717  -0.67327172    4.0529029  -0.53620287    4.0692847            0           -0            0    1492.4611    17212.036   -6887.4778    -5847.175 7.1822053e-09 5.9169862e-09 1.7105325e-08   -19.400021 
     410   -19.421223    4.2075552  -0.69085522    4.0454155  -0.52871548    4.0627992            0           -0            0    1743.4381    21070.168   -8343.4884   -7496.3649 1.2320338e-08 9.5977509e-09 3.337167e-08   -19.421223 
     420   -19.446778    4.2251387  -0.70843872    4.0379805  -0.52128052     4.056039            0           -0            0    2080.4735    25156.164   -9768.0767   -9146.6673 -6.5141533e-10 4.6496551e-10 -2.8430921e-09   -19.446778 
     430   -19.476755    4.2427222  -0.72602222    4.0306209   -0.5139209    4.0491015            0           -0            0    2506.3447    29421.598   -11142.385   -10760.179 3.965359e-09 3.7690778e-09 1.1681359e-08   -19.476755 
     440   -19.511155    4.2603057  -0.74360572    4.0233492  -0.50664917    4.0420581            0           -0            0    2959.8916    33762.961   -12512.969   -12370.317 1.1673743e-08 9.396417e-09 4.4522989e-08   -19.511155 
     450   -19.549904    4.2778892  -0.76118922    4.0161745  -0.49947452    4.0349643            0           -0            0    3512.7111    38183.417   -13779.294    -13865.99 8.1256543e-09 7.0383388e-09 2.6732567e-08   -19.549904 
     460   -19.592866    4.2954727  -0.77877272    4.0091014  -0.49240143    4.0278603            0           -0            0    3970.3131    42480.319    -15133.55    -15435.83 2.718966e-09 3.3107553e-09 -1.2908412e-08   -19.592866 
     470   -19.639856    4.3130562  -0.79635622    4.0021286  -0.48542863    4.0207725            0           -0            0    4604.6081    46807.284    -16249.03    -16744.43 4.1846686e-09 4.3447712e-09 -1.6428453e-08   -19.639856 
     480   -19.690625    4.3306397  -0.81393972    3.9952588  -0.47855879    4.0137252            0           -0            0    5266.1347    50998.974    -17267.36    -17933.21 1.7538182e-08 1.4137437e-08 1.0001471e-07   -19.690625 
     490   -19.744883    4.3482232  -0.83152322    3.9884878  -0.47178782    4.0067304            0           -0            0    6075.6983    55087.743   -18025.525   -18835.123 9.5651717e-09 8.5573759e-09 7.1877575e-09   -19.744883 
     500   -19.802265    4.3658067  -0.84910672    3.9818317   -0.4651317    3.9998174            0           -0            0    6812.2646    58878.354   -18755.172   -19686.388 8.1041446e-09 7.5304512e-09 -3.3818051e-08   -19.802265 
     510   -19.862423    4.3833902  -0.86669022    3.9752807  -0.45858073    3.9929859            0           -0            0     7360.542    62282.058   -19582.777   -20617.655 7.9310936e-09 7.446649e-09 -7.4180607e-08   -19.862423 
     520    -19.92499    4.4009737  -0.88427372    3.9688278  -0.45212778    3.9862364            0           -0            0    8293.2942    65598.235   -19806.153     -20912.2 1.7834123e-08 1.4603368e-08 1.1129316e-07    -19.92499 
     530   -19.989476    4.4185572  -0.90185722    3.9625051  -0.44580515    3.9796075            0           -0            0    8921.1085    68403.212    -20237.52   -21402.366 1.6037941e-08 1.3418158e-08 5.422036e-08   -19.989476 
     540    -20.05554    4.4361407  -0.91944072    3.9562866  -0.43958663     3.973077            0           -0            0    9662.8802    70918.638   -20364.345   -21565.652 1.7502674e-08 1.4501707e-08 8.9526507e-08    -20.05554 
     550   -20.122735    4.4537242  -0.93702422    3.9501869  -0.43348693    3.9666634            0           -0            0    10515.282    73113.337   -20175.428   -21392.063 1.4005165e-08 1.1820392e-08 -6.8821549e-08   -20.122735 
     560   -20.190646    4.4713077  -0.95460772    3.9442164  -0.42751642    3.9603797            0           -0            0    10935.199    74744.617    -20354.61   -21584.409 1.8751239e-08 1.5293655e-08 1.2164045e-07   -20.190646 
     570   -20.258942    4.4888912  -0.97219122    3.9383533  -0.42165329    3.9542058            0           -0            0    11597.328    76117.475    -20052.06   -21273.431 1.2411293e-08 1.0615577e-08 -2.5306422e-07   -20.258942 
     580   -20.327261    4.5064747  -0.98977472    3.9326038  -0.41590382    3.9481493            0           -0            0    12326.516    77151.021   -19486.552   -20684.921 1.7238036e-08 1.4047372e-08 3.4804894e-08   -20.327261 
     590   -20.395216    4.5240582   -1.0073582    3.9269885  -0.41028851    3.9422323            0           -0            0    12812.273     77738.18   -19064.331    -20237.03 1.867857e-08 1.5056046e-08 1.7247821e-07   -20.395216 
     600   -20.462553    4.5416417   -1.0249417    3.9214889  -0.40478894    3.9364368            0           -0            0    13284.788    77989.232   -18498.215   -19636.655 1.7880937e-08 1.4432607e-08 1.2830092e-07   -20.462553 
     610   -20.529024    4.5592252   -1.0425252    3.9160966  -0.39939658    3.9307545            0           -0            0    13732.655    77921.864   -17813.218   -18910.682 1.6346863e-08 1.3318773e-08 -8.5979977e-08   -20.529024 
     620   -20.594334    4.5768087   -1.0601087    3.9108377  -0.39413771    3.9252126            0           -0            0    13547.722    77388.254   -17836.515   -18908.573 1.4183485e-08 1.1726913e-08 -4.5001425e-07   -20.594334 
     630    -20.65839    4.5943922   -1.0776922    3.9056696  -0.38896957    3.9197677            0           -0            0    13905.503    76744.553   -17002.597   -18025.446 1.6745093e-08 1.3611041e-08 9.6294761e-08    -20.65839 
     640   -20.720933    4.6119757   -1.0952757    3.9006252  -0.38392516    3.9144534            0           -0            0    14235.927    75840.468   -16081.143   -17051.545 1.6818666e-08 1.3721055e-08 2.4893081e-07   -20.720933 
     650   -20.781917    4.6295592   -1.1128592    3.8956632   -0.3789632    3.9092275            0           -0            0    14113.701    74632.987   -15680.494   -16611.391 1.3268556e-08 1.0978774e-08 -6.9934657e-07   -20.781917 
     660   -20.841202    4.6471427   -1.1304427    3.8908079  -0.37410794    3.9041149            0           -0            0    14164.267    73270.507   -14947.352   -15830.353 1.5342225e-08 1.2527575e-08 8.5699338e-08   -20.841202 
     670   -20.898751    4.6647262   -1.1480262     3.886027    -0.369327    3.8990822            0           -0            0    14426.201    71784.888   -13840.009   -14666.275 1.3076721e-08 1.0859668e-08 -6.0244477e-07   -20.898751 
     680   -20.954474    4.6823097   -1.1656097    3.8813556  -0.36465555    3.8941652            0           -0            0    14012.669    70039.446   -13604.635   -14396.803 1.3912069e-08 1.1720026e-08 1.6270168e-07   -20.954474 
     690    -21.00855    4.6998932   -1.1831932    3.8766748  -0.35997481    3.8892426            0           -0            0    13560.468    68213.398   -13386.261   -14145.733 1.3096352e-08 1.0952976e-08 -5.8967864e-08    -21.00855 
     700   -21.060912    4.7174767   -1.2007767    3.8720285  -0.35532852    3.8843587            0           -0            0    13903.422    66412.312   -12001.388    -12700.66 1.2351701e-08 1.0349127e-08 -1.5173345e-08   -21.060912 
     710   -21.111613    4.7350602   -1.2183602    3.8674027  -0.35070268    3.8794991            0           -0            0    13511.645    64452.902   -11626.352   -12291.614 1.1958046e-08 1.0024913e-08 3.5790327e-07   -21.111613 
     720   -21.160837    4.7526437   -1.2359437    3.8627198  -0.34601983    3.8745845            0           -0            0    12910.578    62452.906    -11540.78   -12180.393 1.0249147e-08 8.8286396e-09 -1.5413707e-06   -21.160837 
     730   -21.208684    4.7702272   -1.2535272    3.8579925  -0.34129254    3.8696277            0           -0            0    12161.453    60429.984   -11662.715    -12282.91 1.090216e-08 9.3155386e-09 1.3521491e-07   -21.208684 
     740   -21.255511    4.7878107   -1.2711107    3.8530791  -0.33637906     3.864484            0           -0            0    11413.433    58450.141   -11803.655   -12406.188 1.0312454e-08 8.8619411e-09 1.7581913e-07   -21.255511 
     750   -21.301673    4.8053942   -1.2886942    3.8479107  -0.33121073    3.8590833            0           -0            0    11046.181     56563.73   -11425.567   -11999.618 9.6718624e-09 8.4335049e-09 3.1002503e-07   -21.301673 
     760    -21.34748    4.8229777   -1.3062777    3.8424913  -0.32579131    3.8534292            0           -0            0    10087.007    54692.801   -11932.103   -12499.678 9.2212425e-09 8.1583009e-09 1.326418e-07    -21.34748 
     770   -21.394053    4.8405612   -1.3238612    3.8365076  -0.31980759    3.8472028            0           -0            0    8952.5482    52954.462   -12763.498   -13333.319 8.8393566e-09 7.8843876e-09 2.5290178e-07   -21.394053 
     780   -21.443266    4.8581447   -1.3414447    3.8295479  -0.31284787    3.8399849            0           -0            0    7022.3685    51405.836   -14868.238   -15470.492 8.757006e-09 7.8610913e-09 3.3458547e-07   -21.443266 
     790   -21.498456    4.8757282   -1.3590282    3.8210973  -0.30439731    3.8312519            0           -0            0    3822.0209    50137.081   -18995.076   -19675.941 8.6575785e-09 7.7527081e-09 -5.9454588e-07   -21.498456 
     800   -21.568458    4.8933117   -1.3766117    3.8099598  -0.29325983     3.819787            0           -0            0   -541.91107     49416.96   -25119.415   -25923.278 8.7376149e-09 7.9697119e-09 -4.1751601e-06   -21.568458 
     810   -21.676167    4.9104495   -1.3937495    3.7942334  -0.27753345    3.8036597            0           -0            0   -9011.1234    49624.295   -37794.135    -38863.53 1.0005097e-08 9.0714786e-09 2.8957528e-07   -21.676167 
     820   -21.826689    4.9223422   -1.4056422    3.7770334  -0.26033343    3.7860762            0           -0            0   -24404.674    50892.977   -61270.485   -62836.514 1.2200137e-08 1.1303564e-08 2.1291896e-07   -21.826689 
     830   -22.037848    4.9301355   -1.4134355    3.7598003  -0.24310033    3.7684927            0           -0            0   -45280.978        52891   -93249.341   -95484.593 1.5703304e-08 1.4409447e-08 -2.6805072e-08   -22.037848 
     840    -22.33863    4.9354721   -1.4187721    3.7425467  -0.22584666    3.7509092            0           -0            0   -72994.101     55388.55   -135630.59   -138740.27 2.0385728e-08 1.8777815e-08 -6.1989624e-06    -22.33863 
     850   -22.762992    4.9392983   -1.4225983    3.7252796  -0.20857959    3.7333257            0           -0            0    -111183.7    58210.895   -193735.35   -198026.64 2.7010213e-08 2.5120883e-08 1.1123003e-07   -22.762992 
     860   -23.350988    4.9421226   -1.4254226     3.708003  -0.19130296    3.7157422            0           -0            0   -161867.78    61307.399   -270540.63   -276370.11 3.5902484e-08 3.2874737e-08 -4.2072447e-08   -23.350988 
     870   -24.151014    4.9442694   -1.4275694    3.6907192  -0.17401924    3.6981587            0           -0            0   -224268.01    64711.243   -364913.59   -372601.69 4.6291956e-08 4.225649e-08 -1.0605099e-07   -24.151014 
     880   -25.225802    4.9459357   -1.4292357    3.6734299  -0.15672991    3.6805752            0           -0            0   -314879.28    68153.336   -501225.51   -511565.66 6.2295649e-08 5.6460789e-08 3.8533703e-07   -25.225802 
     890   -26.754337    4.9471569   -1.4304569    3.6561352  -0.13943518    3.6629917            0           -0            0   -461239.47    71311.051   -720235.11   -734794.33 8.6353096e-08 7.8373148e-08 5.7550634e-07   -26.754337 
     900   -28.897623    4.9480554   -1.4313554     3.638836  -0.12213599    3.6454082            0           -0            0    -642980.7    74681.389   -991960.64   -1011662.9 1.1881312e-07 1.1008954e-07 8.4911104e-07   -28.897623 
     910   -31.807428    4.9487415   -1.4320415    3.6215331  -0.10483313    3.6278247            0           -0            0    -867350.4    78245.979   -1327179.4   -1353117.8 1.6014261e-07 1.4716872e-07 1.2185705e-06   -31.807428 
     920   -35.668476    4.9492788   -1.4325788    3.6042271 -0.087527094    3.6102412            0           -0            0   -1142930.7    81997.266   -1738662.9   -1772126.4 2.0707556e-07 1.9557131e-07 1.7138839e-06   -35.668476 
     930   -40.705403    4.9497077   -1.4330077    3.5869182 -0.070218167    3.5926577            0           -0            0   -1479887.6    85932.596   -2241545.1   -2284050.4 2.7077642e-07 2.5363364e-07 2.3965964e-06   -40.705403 
     940    -47.19127     4.950055    -1.433355    3.5696065 -0.052906539    3.5750742            0           -0            0   -1890264.8    90052.159   -2853760.7   -2907085.8 3.4513285e-07 3.2421742e-07 3.3260736e-06    -47.19127 
     950   -55.458007    4.9503395   -1.4336395    3.5522923  -0.03559233    3.5574907            0           -0            0   -2388325.6    94357.924   -3596553.4   -3662781.5 4.3662283e-07 4.0951696e-07 4.5600014e-06   -55.458007 
     960   -65.909062    4.9505746   -1.4338746    3.5349756 -0.018275626    3.5399072            0           -0            0   -2990947.5    98853.001   -4495064.4     -4576631 5.5453029e-07 5.1937914e-07 6.2370631e-06   -65.909062 
     970   -79.035092    4.9507703   -1.4340703    3.5176565 -0.00095648283    3.5223237            0           -0            0   -3718095.5    103541.35   -5579040.1   -5678787.9 6.9817414e-07 6.5571853e-07 8.4915615e-06   -79.035092 
     980   -95.433397    4.9509343   -1.4342343    3.5003349  0.016365062    3.5047402            0           -0            0   -4593385.2     108427.6   -6883670.7   -7004912.5 8.6432368e-07 8.1891229e-07 1.1484337e-05   -95.433397 
     990   -115.83175    4.9510725   -1.4343725     3.483011  0.033688985    3.4871567            0           -0            0   -5644732.4    113516.87   -8450561.5   -8597152.4 1.071451e-06 1.0228134e-06 1.5592579e-05   -115.83175 
    1000   -141.11832    4.9511893   -1.4344893    3.4656847   0.05101527    3.4695732            0           -0            0     -6905136    118814.74    -10328901    -10505321 1.3353462e-06 1.273713e-06 2.0867169e-05   -141.11832 
    1010   -172.37937    4.9512885   -1.4345885    3.4483561  0.068343914    3.4519897            0           -0            0   -8413611.7    124327.22    -12576856    -12788306 1.6874018e-06 1.5716688e-06 2.7902622e-05   -172.37937 
    1020   -210.94613    4.9513731   -1.4346731    3.4310251  0.085674915    3.4344062            0           -0            0    -10216274    130060.68    -15263186    -15515696 2.0559111e-06 1.9141719e-06 3.7303076e-05   -210.94613 
    1030   -258.45485    4.9514453   -1.4347453    3.4136917   0.10300828    3.4168227            0           -0            0    -12367642    136021.84    -18469198    -18769749 2.5478256e-06 2.3424188e-06 4.9747292e-05   -258.45485 
    1040   -316.92398    4.9515071   -1.4348071     3.396356   0.12034401    3.3992392            0           -0            0    -14932210    142218.36    -22291088    -22647761 3.0997263e-06 2.8586951e-06 6.6430804e-05   -316.92398 
    1050   -388.85243    4.9515601   -1.4348601    3.3790179   0.13768213    3.3816557            0           -0            0    -17986262    148658.99    -26842655    -27264789 3.7331132e-06 3.4228461e-06 8.8413679e-05   -388.85243 
    1060   -477.34866    4.9516057   -1.4349057    3.3616774   0.15502264    3.3640722            0           -0            0    -21620095    155350.53    -32258628    -32757009 4.5798186e-06 4.1776615e-06 0.00011802762   -477.34866 
    1070   -586.30166     4.951645    -1.434945    3.3443344   0.17236556    3.3464887            0           -0            0    -25940678     162301.5    -38698631    -39285706 5.5646764e-06 5.1755824e-06 0.00015720476   -586.30166 
    1080   -720.60566    4.9516788   -1.4349788    3.3269891   0.18971092    3.3289052            0           -0            0    -31074733    169520.88    -46351798    -47041921 6.5087398e-06 6.1097701e-06 0.00020948002   -720.60566 
    1090   -886.46652     4.951708    -1.435008    3.3096413   0.20705873    3.3113217            0           -0            0    -37172493    177018.19    -55442394    -56252103 7.7824923e-06 7.7661323e-06 0.00027916685   -886.46652 
    1100   -1091.8248    4.9517333   -1.4350333     3.292291   0.22440902    3.2937382            0           -0            0    -44412234    184803.57    -66236585    -67184922 9.2246689e-06 9.169508e-06 0.00037232899   -1091.8248 
    1110    -1346.939    4.9517551   -1.4350551    3.2749382    0.2417618    3.2761547            0           -0            0    -53005393    192887.75    -79050099    -80158967 1.0709816e-05 1.0553912e-05 0.00049746939    -1346.939 
    1120   -1665.2246    4.9517739   -1.4350739    3.2575829    0.2591171    3.2585712            0           -0            0    -63202679    201282.17    -94257378    -95551940 1.2390561e-05 1.2321852e-05 0.00066549685   -1665.2246 
    1130   -2064.4866    4.9517902   -1.4350902     3.240225   0.27647496    3.2409877            0           -0            0    -75301164    210001.94 -1.1230218e+08 -1.1381131e+08 1.4388151e-05 1.4442426e-05 0.00089233418   -2064.4866 
    1140   -2568.7488    4.9518044   -1.4351044    3.2228646   0.29383539    3.2234042            0           -0            0    -89651263    219057.98 -1.3370806e+08 -1.3546479e+08 1.7365951e-05 1.7174984e-05 0.0011978353   -2568.7488 
    1150   -3211.1128    4.9518166   -1.4351166    3.2055016   0.31119844    3.2058207            0           -0            0 -1.0666339e+08    228464.27 -1.5908832e+08 -1.6113031e+08 2.0986341e-05 2.0958749e-05 0.0016082366   -3211.1128 
    1160   -4038.3974    4.9518272   -1.4351272    3.1881359   0.32856412    3.1882372            0           -0            0 -1.2681153e+08    238236.08 -1.8915147e+08 -1.9152137e+08 2.593342e-05 2.6262642e-05 0.0021628751   -4038.3974 
    1170   -5118.9305    4.9518364   -1.4351364    3.1707675   0.34593247    3.1706537            0           -0            0 -1.5062481e+08    248389.88 -2.246887e+08 -2.2743413e+08 2.9224396e-05 2.8264242e-05 0.0029021011   -5118.9305 
    1180   -6556.6277    4.9518444   -1.4351444    3.1533965   0.36330354    3.1530702            0           -0            0 -1.7865019e+08    258943.16 -2.6651836e+08 -2.6969116e+08 3.6032972e-05 3.6399833e-05 0.0038784404   -6556.6277 
    1190   -8518.4949    4.9518513   -1.4351513    3.1360226   0.38067735    3.1354867            0           -0            0 -2.1133504e+08     269914.4 -3.1531089e+08 -3.1896415e+08 4.4958893e-05 4.5772235e-05 0.0051071008   -8518.4949 
    1200     -11293.7    4.9518574   -1.4351574     3.118646   0.39805395    3.1179032            0           -0            0 -2.4866306e+08    281323.19 -3.7104567e+08 -3.7522484e+08 5.152789e-05 5.1749847e-05 0.0064689796     -11293.7 
    1210   -15441.831    4.9518627   -1.4351627    3.1012666    0.4154334    3.1003197            0           -0            0 -2.889603e+08     293189.1 -4.3122931e+08 -4.3594479e+08 5.6078395e-05 5.6685871e-05  0.007258046   -15441.831 
    1220   -22265.103    4.9518674   -1.4351674    3.0838842   0.43281575    3.0827362            0           -0            0 -3.2401787e+08    305537.64 -4.8361642e+08 -4.8874272e+08 6.6429734e-05 6.7113158e-05 0.0039523648   -22265.103 
    1230   -36178.446     4.951872    -1.435172    3.0664989   0.45020114    3.0651527            0           -0            0 -3.0524396e+08    318360.45 -4.5568936e+08 -4.6036089e+08 6.3177252e-05 5.7053152e-05 -0.028493462   -36178.446 
    1240    -54434.11    4.9518777   -1.4351777     3.056772   0.45992799    3.0553165            0           -0            0    324684.82     325646.7    322530.07    325877.69 8.3422389e-09 1.4028109e-08 -0.0078789538    -54434.11 
    1250    -54434.13    4.9522031   -1.4355031    3.0578041   0.45889586    3.0563605            0           -0            0    385536.17    324602.44    413887.84    418118.23 -8.6977206e-09 -7.0320569e-09 -0.0001820613    -54434.13 
    1260   -54434.216    4.9537048   -1.4370048    3.0625036   0.45419643    3.0611128            0           -0            0    382050.92    319870.28    411110.41    415172.06 -1.0944977e-08 -9.6139069e-09 0.00093847165   -54434.216 
    1270   -54434.375    4.9567404   -1.4400404    3.0716617   0.44503826    3.0703697            0           -0            0    231360.93    310736.21    190879.12    192467.48 2.584672e-08 8.0842785e-09   -0.0483175   -54434.375 
    1280    -54434.44    4.9580557   -1.4413557    3.0754511   0.44124894    3.0741977            0           -0            0    282156.76    306968.49    268602.02    270899.76 1.5595904e-09 1.1137909e-08 -0.019032268    -54434.44 
    1290   -54434.513    4.9596629   -1.4429629     3.079991   0.43670904    3.0787828            0           -0            0    222521.47    302483.49    181881.32     183199.6 -1.0167413e-09 -4.5710449e-09 -0.036454317   -54434.513 
    1300   -54434.545    4.9603659   -1.4436659    3.0819123    0.4347877    3.0807226            0           -0            0    371462.45    300578.67    405113.62    408695.07 -1.380962e-08 -7.1650483e-09  0.016444916   -54434.545 
    1310   -54434.617    4.9621141   -1.4454141       3.0866   0.43009999    3.0854542            0           -0            0    402302.95    295946.49     453473.9    457488.47 -1.2708355e-08 -2.0852042e-08  0.033864951   -54434.617 
    1320   -54434.662    4.9632191   -1.4465191    3.0894993   0.42720069    3.0883799            0           -0            0    295093.41    293092.17    294925.59    297262.47 -7.4376457e-09 -6.4856682e-09 -0.0048396888   -54434.662 
    1330   -54434.799    4.9669109   -1.4502109    3.0989791    0.4177209    3.0979439            0           -0            0     213081.4    283880.13    177180.68    178183.38 6.0082025e-09 1.6130479e-09  -0.10184029   -54434.799 
    1340   -54434.837    4.9680107   -1.4513107    3.1016478   0.41505217    3.1006347            0           -0            0    310813.06    281272.06    324324.41    326842.71 -1.1568306e-08 -8.8529907e-09   0.03805908   -54434.837 
    1350   -54434.933     4.970972    -1.454272    3.1088228   0.40787723    3.1078689            0           -0            0    266088.98    274387.74    261037.44    262841.76 -8.2617394e-09 -6.9105153e-09 -0.0026247376   -54434.933 
    1360   -54435.014    4.9737408   -1.4570408    3.1151346   0.40156536    3.1142289            0           -0            0    204749.88    268294.57    172557.42    173397.66 -3.7213472e-09 -1.2158985e-09 -0.082622448   -54435.014 
    1370   -54435.051    4.9750579   -1.4583579    3.1180289   0.39867107    3.1171443            0           -0            0    278912.31    265495.54    284613.05    286628.33 -1.0832157e-08 -9.7286912e-09  0.037754377   -54435.051 
    1380   -54435.094      4.97668     -1.45998    3.1215894   0.39511055    3.1207307            0           -0            0    233312.55    262094.16    218270.49    219572.99 -6.1660563e-09 -6.1848882e-09 -0.017851447   -54435.094 
    1390   -54435.186    4.9803668   -1.4636668     3.129371   0.38732904     3.128566            0           -0            0    190377.85    254666.81    157909.86    158556.89 -3.8729243e-09 -4.9361476e-09 -0.039656484   -54435.186 
    1400   -54435.262    4.9838986   -1.4671986    3.1365006   0.38019943    3.1357421            0           -0            0    75328.393    247895.19   -10376.784   -11533.228 3.1464283e-09 6.6129294e-09  -0.14111294   -54435.262 
    1410   -54435.303    4.9857098   -1.4690098    3.1400051   0.37669486    3.1392682            0           -0            0    278534.66    244557.81    294468.09    296578.09 -1.489446e-08 -1.4696481e-08  0.060078572   -54435.303 
    1420   -54435.341    4.9875567   -1.4708567    3.1435081   0.37319193    3.1427921            0           -0            0    195924.74    241230.89    172866.14     173677.2 -6.9332903e-09 -6.2532182e-09 -0.010379026   -54435.341 
    1430   -54435.378    4.9894418   -1.4727418    3.1470116   0.36968838    3.1463161            0           -0            0    191488.67    237912.62    167894.85    168658.54 -6.9230559e-09 -5.0420041e-09 -0.0095592583   -54435.378 
    1440   -54435.432    4.9924008   -1.4757008    3.1523645   0.36433547     3.151699            0           -0            0    165426.26    232855.25    131519.91    131903.62 -4.833682e-09 -8.7268208e-10 -0.024808942   -54435.432 
    1450   -54435.453    4.9937628   -1.4770628    3.1547659   0.36193408    3.1541134            0           -0            0    75725.583    230588.12   -1184.5395   -2226.8287 8.3514526e-09 1.3654569e-08 -0.093133798   -54435.453 
    1460   -54435.504    4.9966526   -1.4799526    3.1598175   0.35688247     3.159192            0           -0            0    240243.23    225870.24    246605.32    248254.14 -1.2821122e-08 -1.1810056e-08  0.048084825   -54435.504 
    1470   -54435.542    4.9991415   -1.4824415    3.1640347   0.35266527    3.1634308            0           -0            0    291557.42    221933.95    325111.49    327626.82 -1.7071745e-08 -1.0154284e-08  0.065001167   -54435.542 
    1480   -54435.559    5.0002002   -1.4835002    3.1657885   0.35091153    3.1651932            0           -0            0    100300.78    220294.78     40584.59     40022.98 4.9695819e-09 2.9312523e-09 -0.022909987   -54435.559 
    1490    -54435.59     5.002273    -1.485573    3.1692189   0.34748106    3.1686407            0           -0            0    253007.39    217123.64    269979.34    271919.18 -2.3318914e-08 -2.1415928e-08  0.023218941    -54435.59 
    1500   -54435.595     5.002543    -1.485843    3.1696535   0.34704654    3.1690772            0           -0            0    225706.42    216718.17    229449.68    230951.42 -1.8608394e-08 -1.4694931e-08  0.012845996   -54435.595 
    1510   -54435.647    5.0065138   -1.4898138    3.1760264   0.34067356    3.1754803            0           -0            0       321739    210850.79    375622.86    378743.35 -4.0109645e-08 -5.9939734e-08  0.036421583   -54435.647 
    1520    -54435.65    5.0065139   -1.4898139     3.176027   0.34067297    3.1754809            0           -0            0    257601.56     210850.4    279937.56    282016.73 -1.9897365e-08 -2.0759163e-08  0.021443308    -54435.65 
    1530   -54435.651     5.006514    -1.489814    3.1760274   0.34067261    3.1754813            0           -0            0    226213.17    210850.13     233109.9    234679.47 -2.0240449e-08 -1.2703912e-08  0.014119457   -54435.651 
    1540   -54435.674    5.0081764   -1.4914764    3.1786054   0.33809464    3.1780709            0           -0            0    207320.86    208471.52    206101.77    207389.28 -1.5834008e-08 -9.9372444e-09 0.0083203233   -54435.674 
    1550   -54435.723    5.0119932   -1.4952932    3.1844477   0.33225234    3.1839389            0           -0            0    190398.57    203138.02    183494.67    184563.01 -1.7160061e-08 -1.2931949e-08 0.0070411375   -54435.723 
    1560   -54435.766     5.015564    -1.498864    3.1897991    0.3269009    3.1893131            0           -0            0    149597.07    198309.84    125013.38    125467.99 -6.3229365e-09 -5.4547486e-09 -8.6089723e-05   -54435.766 
    1570   -54435.814    5.0198289   -1.5031289    3.1959464   0.32075357    3.1954852            0           -0            0    168752.81    192767.86     156331.7    157158.87 -1.3014071e-08 -1.2879348e-08 0.0037661675   -54435.814 
    1580   -54435.843    5.0227303   -1.5060303    3.1999804   0.31671963    3.1995344            0           -0            0    39747.096    189130.08   -34322.979   -35565.818 7.5772331e-09 4.8501771e-10 -0.021707347   -54435.843 
    1590   -54435.913    5.0295213   -1.5128213    3.2093624   0.30733759    3.2089516            0           -0            0    184095.17    180902.52    185086.13    186296.87 -1.4634595e-08 -1.5165991e-08  0.011073291   -54435.913 
    1600   -54435.951    5.0335739   -1.5168739    3.2146561   0.30204388    3.2142634            0           -0            0    105643.41    176246.04    70354.256    70329.925 -3.3648972e-09 -2.6003798e-09 -0.0049323947   -54435.951 
    1610   -54435.968    5.0354336   -1.5187336    3.2170237   0.29967634    3.2166387            0           -0            0    103024.84    174165.84    67476.462    67432.223 -2.4960663e-09 -3.0104952e-09 -0.0051413113   -54435.968 
    1620   -54436.001    5.0394189   -1.5227189      3.22204      0.29466    3.2216711            0           -0            0    158740.24    169805.15    152747.45    153668.12 -9.2926029e-09 -6.3752889e-09    0.0110229   -54436.001 
    1630   -54436.035    5.0435605   -1.5268605    3.2271317   0.28956826    3.2267786            0           -0            0    103784.41    165418.96    72934.219    73000.057 -4.3976693e-09 -4.7029532e-09 -0.0030489502   -54436.035 
    1640   -54436.075    5.0486743   -1.5319743     3.233287     0.283413    3.2329521            0           -0            0    94151.084    160190.43    61148.605     61114.22 -1.7208988e-09 -2.4656118e-09 -0.0043539351   -54436.075 
    1650     -54436.1    5.0521134   -1.5354134    3.2373003   0.27939967    3.2369767            0           -0            0       129114    156796.31    114982.65    115563.05 -8.9803591e-09 -9.7921721e-09 0.0043868765     -54436.1 
    1660   -54436.121    5.0551558   -1.5384558    3.2407891   0.27591088     3.240475            0           -0            0    104303.18    153867.33    79419.144    79623.059 -5.313809e-09 -4.762524e-09 0.00018221022   -54436.121 
    1670   -54436.145    5.0586502   -1.5419502    3.2447353   0.27196474    3.2444315            0           -0            0    95327.365    150583.62    67653.019    67745.461 -3.4128449e-09 -2.737777e-09 -0.00098260651   -54436.145 
    1680   -54436.192     5.066206    -1.549506      3.25312   0.26358003    3.2528376            0           -0            0    161422.83    143750.37    169627.97    170890.14 -2.6916002e-08 -3.1071643e-08  0.018569184   -54436.192 
    1690   -54436.211    5.0696014   -1.5529014    3.2567562   0.25994376    3.2564826            0           -0            0    207817.36    140807.47    240290.56    242354.04 -4.8397646e-08 -4.1297245e-08  0.035760603   -54436.211 
    1700   -54436.245    5.0747909   -1.5580909    3.2623135   0.25438652     3.262053            0           -0            0    81854.972    136424.46    54556.775    54583.683 -2.093448e-09 -1.8919743e-09 -0.0020715823   -54436.245 
    1710   -54436.277    5.0807142   -1.5640142    3.2684217   0.24827828    3.2681748            0           -0            0    99703.655     131630.7    83552.323    83927.943 -9.4495426e-09 -9.3565632e-09 0.0052164628   -54436.277 
    1720    -54436.31       5.0871      -1.5704    3.2748444   0.24185558    3.2746109            0           -0            0    53819.057    126678.14    17555.212    17223.815 4.7574758e-09 5.0995703e-09 -0.034661924    -54436.31 
    1730   -54436.338    5.0926623   -1.5759623    3.2803211   0.23637886    3.2800985            0           -0            0    70514.439    122534.71    44508.976    44499.635 -1.7001126e-09 -1.2555822e-09 -0.011129204   -54436.338 
    1740    -54436.37    5.0995124   -1.5828124    3.2869965   0.22970353    3.2867869            0           -0            0    87704.801    117626.34    72579.314    72908.749 -1.1221418e-08 -1.2004571e-08  0.025385338    -54436.37 
    1750   -54436.378    5.1012988   -1.5845988    3.2886728   0.22802719    3.2884662            0           -0            0    68257.959    116389.07    44182.659    44202.151 -2.223655e-09 -1.9009208e-09 -0.007333506   -54436.378 
    1760   -54436.392    5.1044252   -1.5877252    3.2915891   0.22511088    3.2913877            0           -0            0    64978.256    114257.17    40344.912    40332.684 -1.5418695e-09 -1.0578325e-09 -0.0098961943   -54436.392 
    1770   -54436.415    5.1100688   -1.5933688    3.2967996   0.21990043    3.2966071            0           -0            0    94010.276    110513.81    85503.167    86013.851 -1.6035202e-08 -1.4875201e-08  0.046725181   -54436.415 
    1780   -54436.425    5.1129768   -1.5962768    3.2994361   0.21726389     3.299248            0           -0            0    153917.47    108639.62    175792.57    177320.23 -3.7204312e-08 -3.4362399e-08   0.11877328   -54436.425 
    1790   -54436.434     5.114736    -1.598036    3.3010319   0.21566809    3.3008464            0           -0            0     64087.61    107520.74    42348.773     42393.32 -3.0007654e-09 -2.7667468e-09 -0.0016781013   -54436.434 
    1800   -54436.457    5.1205831   -1.6038831    3.3062589   0.21044114    3.3060817            0           -0            0    87360.649     103893.9    78858.851    79329.195 -1.3267952e-08 -1.3757825e-08  0.034528058   -54436.457 
    1810   -54436.464    5.1225914   -1.6058914     3.308024   0.20867602    3.3078495            0           -0            0    9261.3678    102680.39   -37039.315   -37856.976 1.8288096e-08 1.8911455e-08 -0.072262297   -54436.464 
    1820   -54436.488    5.1288998   -1.6121998    3.3135253   0.20317469    3.3133591            0           -0            0    71845.576    98964.051    58154.522    58418.154 -8.5517364e-09 -9.35207e-09  0.014831707   -54436.488 
    1830   -54436.503    5.1335953   -1.6168953    3.3175569   0.19914311    3.3173964            0           -0            0    113812.03    96292.134    122076.48    123067.48 -2.988554e-08 -3.224979e-08  0.061281606   -54436.503 
    1840   -54436.504    5.1335956   -1.6168956    3.3175574   0.19914264    3.3173969            0           -0            0    70137.589    96291.945    56928.921    57191.903 -7.5862455e-09 -8.7067274e-09  0.013954282   -54436.504 
    1850   -54436.514    5.1369705   -1.6202705     3.320419   0.19628099    3.3202625            0           -0            0    130724.78    94419.957     148230.9    149523.47 -3.8376006e-08 -3.979887e-08  0.086402302   -54436.514 
    1860   -54436.534    5.1424799   -1.6257799    3.3250909   0.19160915    3.3249408            0           -0            0     81937.05    91439.937    76930.604     77440.61 -1.5915668e-08 -1.3959628e-08  0.035516248   -54436.534 
    1870   -54436.534    5.1424799   -1.6257799     3.325091   0.19160904    3.3249409            0           -0            0    73101.418    91439.893    63750.863    64113.497 -1.2212988e-08 -1.1229942e-08  0.024320267   -54436.534 
    1880   -54436.534    5.1424804   -1.6257804    3.3250915   0.19160849    3.3249415            0           -0            0    46731.592    91439.611    24416.182    24338.985 -5.9534122e-10 3.4999281e-10 -0.0090511364   -54436.534 
    1890   -54436.552    5.1482242   -1.6315242    3.3298529   0.18684709     3.329709            0           -0            0    97667.575    88444.255    101877.58    102680.89 -2.4936246e-08 -2.1822487e-08  0.057981263   -54436.552 
    1900   -54436.552    5.1482242   -1.6315242    3.3298531   0.18684693    3.3297092            0           -0            0    81017.659    88444.199     77041.64    77567.137 -1.2491412e-08 -1.3666208e-08  0.036919027   -54436.552 
    1910   -54436.552    5.1482242   -1.6315242    3.3298531   0.18684691    3.3297092            0           -0            0    79292.945    88444.192    74468.963    74965.682 -1.0262823e-08 -1.1089378e-08  0.034727475   -54436.552 
    1920   -54436.552    5.1482242   -1.6315242    3.3298531    0.1868469    3.3297092            0           -0            0     78844.21     88444.19    73799.604    74288.837 -1.0422069e-08 -1.3377232e-08  0.034155151   -54436.552 
    1930   -54436.552    5.1482242   -1.6315242    3.3298531    0.1868469    3.3297092            0           -0            0    78706.841    88444.189    73594.697    74081.638 -1.4873353e-08 -1.5083255e-08  0.033981509   -54436.552 
    1940   -54436.552    5.1482242   -1.6315242    3.3298531    0.1868469    3.3297092            0           -0            0    78662.784    88444.189    73528.979    74015.184 -1.319151e-08 -1.2829506e-08  0.033920036   -54436.552 
    1950   -54436.552    5.1482242   -1.6315242    3.3298531    0.1868469    3.3297092            0           -0            0    78648.445    88444.189     73507.59    73993.556 -1.2860298e-08 -1.1571066e-08  0.033895891   -54436.552 
    1960   -54436.552    5.1482242   -1.6315242    3.3298531    0.1868469    3.3297092            0           -0            0    78643.756    88444.189    73500.596    73986.484 -1.0096877e-08 -1.0766113e-08  0.033883679   -54436.552 
    1970   -54436.552    5.1482242   -1.6315242    3.3298531    0.1868469    3.3297092            0           -0            0     78642.22    88444.189    73498.305    73984.167 -1.0936202e-08 -1.2381748e-08  0.033880891   -54436.552 
    1980   -54436.552    5.1482242   -1.6315242    3.3298531    0.1868469    3.3297092            0           -0            0    78641.717    88444.189    73497.555    73983.408 -1.2951957e-08 -1.1682008e-08  0.033883307   -54436.552 
    1990   -54436.552    5.1482242   -1.6315242    3.3298531    0.1868469    3.3297092            0           -0            0    78641.552    88444.189    73497.309     73983.16 -1.2485427e-08 -1.1299607e-08   0.03388484   -54436.552 
    2000   -54436.552    5.1482242   -1.6315242    3.3298531    0.1868469    3.3297092            0           -0            0    78641.498    88444.189    73497.228    73983.078 -1.1233364e-08 -1.2702116e-08  0.033881682   -54436.552 
    2008   -54436.552    5.1482242   -1.6315242    3.3298531    0.1868469    3.3297092            0           -0            0    78641.483    88444.189    73497.205    73983.055 -1.3820507e-08 -1.420782e-08  0.033879359   -54436.552 
Loop time of 0.0595982 on 1 procs for 2008 steps with 4 atoms

99.9% CPU use with 1 MPI tasks x no OpenMP threads

Minimization stats:
  Stopping criterion = energy tolerance
  Energy initial, next-to-last, final = 
        -17.8510508861     -54436.5520813     -54436.5520813
  Force two-norm initial, final = 0.285481 100.821
  Force max component initial, final = 0.164822 35.693
  Final line search alpha, max atom move = 2.25774e-06 8.05856e-05
  Iterations, force evaluations = 2008 5221

MPI task timing breakdown:
Section |  min time  |  avg time  |  max time  |%varavg| %total
---------------------------------------------------------------
Pair    | 0.030906   | 0.030906   | 0.030906   |   0.0 | 51.86
Neigh   | 0.00014448 | 0.00014448 | 0.00014448 |   0.0 |  0.24
Comm    | 0.0062764  | 0.0062764  | 0.0062764  |   0.0 | 10.53
Output  | 0.0020967  | 0.0020967  | 0.0020967  |   0.0 |  3.52
Modify  | 0          | 0          | 0          |   0.0 |  0.00
Other   |            | 0.02017    |            |       | 33.85

Nlocal:    4 ave 4 max 4 min
Histogram: 1 0 0 0 0 0 0 0 0 0
Nghost:    246 ave 246 max 246 min
Histogram: 1 0 0 0 0 0 0 0 0 0
Neighs:    90 ave 90 max 90 min
Histogram: 1 0 0 0 0 0 0 0 0 0

Total # of neighbors = 90
Ave neighs/atom = 22.5
Neighbor list builds = 13
Dangerous builds = 0
pypospack:output_section:begin
tot_energy = -54436.5520813443
num_atoms = 4
a11 = 6.77974847940302
a22 = 3.14300619854484
a33 = 3.1427184702297
a12 = 0
a13 = -0
a23 = 0
tot_press = 78641.4827117582
pxx = 88444.1888653983
pyy = 73497.2047241318
pzz = 73983.0545457445
pxy = -1.38205069084847e-08
pxz = -1.42078204487209e-08
pyz = 0.0338793594148832
pypospack:output_section:done
pypospack:lammps_sim:done
Total wall time: 0:00:00
