# ['Ni']

28 atoms
1 atom types

    0.0000     2.5663 xlo xhi
    0.0000     4.4449 ylo yhi
    0.0000    29.3351 zlo zhi

    0.0000     0.0000     0.0000 xy xz yz

Atoms

1 1     0.0000     0.0000     0.0000
2 1     1.2831     2.2225     0.0000
3 1     1.2831     0.7408     2.0954
4 1     0.0000     2.9633     2.0954
5 1     0.0000     1.4816     4.1907
6 1     1.2831     3.7041     4.1907
7 1     0.0000     0.0000     6.2861
8 1     1.2831     2.2225     6.2861
9 1     1.2831     0.7408     8.3815
10 1     0.0000     2.9633     8.3815
11 1     0.0000     1.4816    10.4768
12 1     1.2831     3.7041    10.4768
13 1     0.0000     0.0000    12.5722
14 1     1.2831     2.2225    12.5722
15 1     0.0000     1.4816    14.6676
16 1     1.2831     3.7041    14.6676
17 1     0.0000     0.0000    16.7629
18 1     1.2831     2.2225    16.7629
19 1     1.2831     0.7408    18.8583
20 1     0.0000     2.9633    18.8583
21 1     0.0000     1.4816    20.9537
22 1     1.2831     3.7041    20.9537
23 1     0.0000     0.0000    23.0490
24 1     1.2831     2.2225    23.0490
25 1     1.2831     0.7408    25.1444
26 1     0.0000     2.9633    25.1444
27 1     0.0000     1.4816    27.2398
28 1     1.2831     3.7041    27.2398
