LAMMPS (10 Feb 2015)
# ---- initialize simulations
clear
units metal
dimension 3
boundary p p p
atom_style charge
atom_modify map array
# ---- create atoms
read_data /Users/eugeneragasa/pyflamestk_git/pypospack/tests/tests_integration/workflow/WorkflowLammpsThermalExpansion/param_2632/MgO_NaCl_unit.npt.T900/lammps.structure
  triclinic box = (0 0 0) to (4.2565 4.2565 4.2565) with tilt (0 0 0)
  1 by 1 by 1 MPI processor grid
  reading atoms ...
  8 atoms
# ---- define interatomic potential
include potential.mod
mass 1 24.305
mass 2 15.999

group Mg type 1
4 atoms in group Mg
group O type 2
4 atoms in group O

set group Mg charge 1.63285961235
  4 settings made for charge
set group O charge -1.63285961235
  4 settings made for charge

variable R_cut equal 10.0

pair_style buck/coul/long ${R_cut}
pair_style buck/coul/long 10
pair_coeff 1 1 0.0 0.5 0.0 ${R_cut}
pair_coeff 1 1 0.0 0.5 0.0 10
pair_coeff 1 2 1437.07173936 0.281984725072 0.0 ${R_cut}
pair_coeff 1 2 1437.07173936 0.281984725072 0.0 10
pair_coeff 2 2 17907.6681412 0.158842179647 12.0518239093 ${R_cut}
pair_coeff 2 2 17907.6681412 0.158842179647 12.0518239093 10

kspace_style pppm 1.0e-5

neighbor 1.0 bin
neigh_modify every 1 delay 0 check yes
# ---- define settings
compute eng all pe/atom
compute eatoms all reduce sum c_eng
# ---- run minimization
reset_timestep 0
fix 1 all box/relax iso 0.0 vmax 0.001
thermo 10
thermo_style custom step pe lx ly lz xy xz yz press pxx pyy pzz pxy pxz pyz c_eatoms
min_style cg
minimize 1e-25 1e-25 5000 10000
PPPM initialization ...
  G vector (1/distance) = 0.352629
  grid = 8 8 8
  stencil order = 5
  estimated absolute RMS force accuracy = 3.86465e-05
  estimated relative force accuracy = 2.68385e-06
  using double precision FFTs
  3d grid and FFT values/proc = 3375 512
Neighbor list info ...
  1 neighbor list requests
  update every 1 steps, delay 0 steps, check yes
  master list distance cutoff = 11
Memory usage per processor = 4.06549 Mbytes
Step PotEng Lx Ly Lz Xy Xz Yz Press Pxx Pyy Pzz Pxy Pxz Pyz eatoms 
       0   -108.26668       4.2565       4.2565       4.2565            0            0            0     68174.25     68174.25     68174.25     68174.25 -1.8708973e-11 1.9918278e-11 -1.4539535e-10   -108.26668 
      10   -108.32672     4.299065     4.299065     4.299065            0            0            0    15974.818    15974.818    15974.818    15974.818 2.7247293e-10 7.4247233e-11 1.7340321e-10   -108.32672 
      14   -108.33064    4.3118345    4.3118345    4.3118345            0            0            0    1605.1095    1605.1095    1605.1095    1605.1095 -5.9694499e-11 -6.7982128e-11 4.9253128e-12   -108.33064 
Loop time of 0.0158188 on 1 procs for 14 steps with 8 atoms

Minimization stats:
  Stopping criterion = linesearch alpha is zero
  Energy initial, next-to-last, final = 
        -108.266678614      -108.33063925      -108.33063925
  Force two-norm initial, final = 9.8444 0.23785
  Force max component initial, final = 9.8444 0.237844
  Final line search alpha, max atom move = 1.28309e-07 3.05176e-08
  Iterations, force evaluations = 14 44

Pair  time (%) = 0.00421929 (26.6726)
Kspce time (%) = 0.00269127 (17.0131)
Neigh time (%) = 0 (0)
Comm  time (%) = 0.000492573 (3.11384)
Outpt time (%) = 2.09808e-05 (0.132632)
Other time (%) = 0.00839472 (53.0679)

Nlocal:    8 ave 8 max 8 min
Histogram: 1 0 0 0 0 0 0 0 0 0
Nghost:    2189 ave 2189 max 2189 min
Histogram: 1 0 0 0 0 0 0 0 0 0
Neighs:    2344 ave 2344 max 2344 min
Histogram: 1 0 0 0 0 0 0 0 0 0

Total # of neighbors = 2344
Ave neighs/atom = 293
Neighbor list builds = 0
Dangerous builds = 0
unfix 1
# ---- define output variables ----
variable natoms equal "count(all)"
variable tot_energy equal "c_eatoms"
variable length_x equal "lx"
variable length_y equal "ly"
variable length_z equal "lz"
variable tilt_xy equal "xy"
variable tilt_xz equal "xz"
variable tilt_yz equal "yz"
variable tot_press equal "press"
variable press_xx equal "pxx"
variable press_yy equal "pyy"
variable press_zz equal "pzz"
variable press_xy equal "pxy"
variable press_xz equal "pxz"
variable press_yz equal "pyz"

# ---- output ----
print "pypospack:output_section:begin"
pypospack:output_section:begin
print "tot_energy = ${tot_energy}"
tot_energy = -108.330639250266
print "num_atoms = ${natoms}"
num_atoms = 8
print "xx = ${length_x}"
xx = 4.3118345
print "yy = ${length_y}"
yy = 4.3118345
print "zz = ${length_z}"
zz = 4.3118345
print "xy = ${tilt_xy}"
xy = 0
print "xz = ${tilt_xz}"
xz = 0
print "yz = ${tilt_yz}"
yz = 0
print "tot_press = ${tot_press}"
tot_press = 1605.10951764203
print "pxx = ${press_xx}"
pxx = 1605.10951764176
print "pyy = ${press_yy}"
pyy = 1605.10951764198
print "pzz = ${press_zz}"
pzz = 1605.10951764233
print "pxy = ${press_xy}"
pxy = -5.96944985898881e-11
print "pxz = ${press_xz}"
pxz = -6.79821282837662e-11
print "pyz = ${press_yz}"
pyz = 4.92531279854496e-12
print "pypospack:output_section:done"
pypospack:output_section:done
print "pypospack:lammps_sim:done"
pypospack:lammps_sim:done
#------------------------------------------------------------------------------
# RUN THERMOSTAT
# running using an NPT Nose-Hoover style thermostat
#------------------------------------------------------------------------------
variable tempdamp equal 0.1
variable pressdamp equal 1.0
# set initial velocities
velocity all create 900 5293418 mom yes dist gaussian loop all
# fix for Nose-Hoover style thermostat
fix 20 all npt temp 900 900 0.1 aniso 0.0 0.0 1.0 drag 1.0 couple xyz
variable boxx equal lx
variable boxy equal ly
variable boxz equal lz
variable boxp equal press
variable boxt equal temp
# calculate averages every 10000 steps
reset_timestep 0
fix 21 all ave/time 10 10 100 v_boxx v_boxy v_boxz v_boxp v_boxt file lattice.out
thermo_style custom step temp pe ke etotal press lx ly lz press pxx pyy pzz pxy pxz pyz vol
thermo_modify flush yes
thermo 100
run 100000
PPPM initialization ...
  G vector (1/distance) = 0.352078
  grid = 8 8 8
  stencil order = 5
  estimated absolute RMS force accuracy = 3.96373e-05
  estimated relative force accuracy = 2.75266e-06
  using double precision FFTs
  3d grid and FFT values/proc = 3375 512
Memory usage per processor = 3.06549 Mbytes
Step Temp PotEng KinEng TotEng Press Lx Ly Lz Press Pxx Pyy Pzz Pxy Pxz Pyz Volume 
       0          900   -108.33065   0.81433891   -107.51631    12453.763    4.3118345    4.3118345    4.3118345    12453.763    10712.662    16234.999    10413.628    1584.7591    4078.6193   -1547.7091    80.165268 
     100    346.16729   -107.72089   0.31321944   -107.40767    2353.3917    4.3407649    4.3407649    4.3407649    2353.3917    -2475.079    7845.6058    1689.6483   -1449.9954    52.187125    5276.9062    81.789734 
     200    515.45953   -107.64905   0.46639861   -107.18266   -22717.239    4.3580099    4.3580099    4.3580099   -22717.239   -33086.351    -6655.486    -28409.88    5546.4352   -2682.5616     5005.923    82.768417 
     300    650.79491   -107.57597   0.58885291   -106.98712     17397.58    4.3412102    4.3412102    4.3412102     17397.58    11708.887    37694.392    2789.4603     2379.612     450.9751    6479.4389    81.814907 
     400    697.26339   -107.47267   0.63089857   -106.84178    8773.6139    4.3493044    4.3493044    4.3493044    8773.6139    11075.313    -2455.213    17700.742    1563.6036   -7978.1413    14100.443    82.273395 
     500    1161.3939   -107.78828    1.0508536   -106.73743   -10667.201    4.3666155    4.3666155    4.3666155   -10667.201    6923.3321   -18515.415   -20409.521    8747.1916   -12500.614   -9299.4362    83.259705 
     600    820.51775   -107.42604   0.74242171   -106.68362    1413.7948    4.3608622    4.3608622    4.3608622    1413.7948    5855.7873    939.21666   -2553.6197   -5863.3662   -3485.4217    6698.6684    82.931038 
     700    644.62008   -107.25191   0.58326579   -106.66865   -2329.0495    4.3477636    4.3477636    4.3477636   -2329.0495    6401.6412   -12175.511   -1213.2782    -4666.616    1022.9086    4827.8027    82.185985 
     800    1018.6225   -107.59933   0.92167106   -106.67766   -1224.4231    4.3645997    4.3645997    4.3645997   -1224.4231    -17300.62    19024.907   -5397.5564    339.69495    2224.5666   -5440.3376    83.144451 
     900    1045.9459   -107.62136   0.94639379   -106.67496   -21400.685    4.3724703    4.3724703    4.3724703   -21400.685   -21402.571   -36557.946   -6241.5385    -918.9468    4429.2628    24343.394    83.595059 
    1000    487.31375   -107.11281   0.44093173   -106.67188    22385.435     4.338312     4.338312     4.338312    22385.435      8483.87    43385.703    15286.731   -4528.0586    4771.1746    8451.9838    81.651159 
    1100    952.97121   -107.55187   0.86226838    -106.6896   -18999.005    4.3584956    4.3584956    4.3584956   -18999.005   -34327.012   -15739.471   -6930.5317   -2874.9565    2507.5307    1245.1549    82.796092 
    1200    555.94844   -107.18589   0.50303383   -106.68285   -12830.944    4.3743664    4.3743664    4.3743664   -12830.944   -6667.3932   -10141.991   -21683.448    4410.0375   -1434.7026    23558.644    83.703856 
    1300    1249.1663   -107.79991    1.1302719   -106.66964    14400.178    4.3352415    4.3352415    4.3352415    14400.178    19110.694    6925.4964    17164.345   -9183.1795    10258.385   -11125.265    81.477911 
    1400    1019.7016   -107.61694   0.92264743    -106.6943    6639.4946     4.351261     4.351261     4.351261    6639.4946    7451.9831    8554.2131    3912.2876   -3131.5471   -762.91262    10203.835    82.384482 
    1500    640.33248   -107.26315   0.57938628   -106.68376   -32398.404    4.3755672    4.3755672    4.3755672   -32398.404   -12061.394   -37942.654   -47191.165    2284.6864   -6380.0182    15510.716    83.772806 
    1600    1012.1279   -107.58527   0.91579455   -106.66947   -10520.244    4.3444656    4.3444656    4.3444656   -10520.244   -14751.071   -8856.1086   -7953.5526   -4623.4235    2282.0348   -11908.253    81.999098 
    1700    857.81977    -107.4598   0.77617335   -106.68362   -1590.2952    4.3534319    4.3534319    4.3534319   -1590.2952     -5749.65     4494.583   -3515.8186    1319.6792   -348.74601    21556.189     82.50785 
    1800    907.85535   -107.50501    0.8214466   -106.68356   -15666.536     4.366267     4.366267     4.366267   -15666.536   -11579.071   -37113.744    1693.2063   -5967.0968   -1647.2243    15333.421     83.23977 
    1900    954.87943   -107.54123   0.86399497   -106.67723    8405.6147    4.3463905    4.3463905    4.3463905    8405.6147   -17225.598    16966.423    25476.019    12101.499    6904.0908   -6995.0428    82.108144 
    2000    718.37724    -107.3367   0.65000282    -106.6867   -5842.1601    4.3551329    4.3551329    4.3551329   -5842.1601    12277.598   -9487.5762   -20316.502     -5255.52    4041.7189    17524.467    82.604601 
    2100     762.8248   -107.37372   0.69021991    -106.6835   -3238.4868    4.3655438    4.3655438    4.3655438   -3238.4868    18426.905   -17798.638   -10343.727    4818.0091    -1087.079    1632.2904    83.198414 
    2200     1248.589   -107.80433    1.1297496   -106.67458   -7913.8402    4.3573639    4.3573639    4.3573639   -7913.8402    2228.5656   -18184.547   -7785.5397    17465.298   -7061.2096   -2982.2273    82.731613 
    2300    786.30946   -107.39088   0.71146933   -106.67941    3697.0921    4.3546224    4.3546224    4.3546224    3697.0921    10032.337    -16308.23    17367.169   -594.01656   -5619.1369    12515.971    82.575555 
    2400    526.58706   -107.15601   0.47646704   -106.67954   -144.26737     4.363878     4.363878     4.363878   -144.26737     3522.534    6099.4239    -10054.76    12401.466    1085.1134   -849.34422     83.10321 
    2500     917.4881   -107.50259   0.83016251   -106.67243   -20115.418    4.3632715    4.3632715    4.3632715   -20115.418   -22867.696   -13813.035   -23665.523    6187.7946   -5516.2773    9600.5878    83.068567 
    2600    920.05754   -107.50454    0.8324874   -106.67205    7490.1204    4.3524674    4.3524674    4.3524674    7490.1204    1303.0722   -345.95748    21513.246     1004.019   -1141.6159    2386.2933    82.453023 
    2700    999.20981   -107.57768   0.90410603   -106.67358    4581.0627    4.3545576    4.3545576    4.3545576    4581.0627    5271.6884    14766.499   -6294.9992    2407.3976    8535.2723    2447.5027    82.571872 
    2800     921.8444   -107.51321   0.83410418    -106.6791   -20513.091    4.3624893    4.3624893    4.3624893   -20513.091   -35854.004   -25049.848    -635.4206   -9464.9052   -3163.4244    8855.3928      83.0239 
    2900    537.63746   -107.17006   0.48646567   -106.68359    10237.336    4.3538444    4.3538444    4.3538444    10237.336    34809.122    14414.703   -18511.817   -1529.8069    8539.6417   -4740.3507    82.531305 
    3000    1190.6079   -107.76142    1.0772871   -106.68413   -1551.8654    4.3496459    4.3496459    4.3496459   -1551.8654   -1865.3833     459.3742   -3249.5873   -4710.2728   -5529.0429    5891.6395    82.292774 
    3100    1089.6916   -107.67334   0.98597589   -106.68736   -13405.502     4.364087     4.364087     4.364087   -13405.502   -3163.8309   -20041.456    -17011.22   -5365.3227    4737.6402   -6828.2664     83.11515 
    3200    629.05294   -107.25059   0.56918032   -106.68141    12338.133    4.3505865    4.3505865    4.3505865    12338.133    18189.535    22007.859   -3182.9968    8372.6569    6553.1914    4822.0611    82.346175 
    3300    934.70372   -107.52964   0.84573957    -106.6839   -16283.507    4.3545029    4.3545029    4.3545029   -16283.507   -24517.859   -9252.9034    -15079.76     233.7602   -6244.8958   -747.60106    82.568758 
    3400    880.26306   -107.47926   0.79648052   -106.68278    -7514.369    4.3651598    4.3651598    4.3651598    -7514.369    5805.0869   -16608.509   -11739.685   -11259.942     7312.886   -5368.7119    83.176462 
    3500    1149.0453   -107.71682    1.0396803   -106.67714    18468.523    4.3432843    4.3432843    4.3432843    18468.523    2808.7596    1957.7119    50639.098    8490.3579    7551.7707    3214.3529    81.932229 
    3600    1034.7323   -107.62568   0.93624749   -106.68944    4806.2926    4.3522058    4.3522058    4.3522058    4806.2926    5195.4754   -21497.599    30721.001   -397.09194   -5081.4682   -3862.1861    82.438158 
    3700    680.52067   -107.30067    0.6157494   -106.68492   -16994.984    4.3695604    4.3695604    4.3695604   -16994.984   -14287.099   -20918.622    -15779.23   -6485.4223   -1483.8792   -154.61073     83.42827 
    3800    806.45524   -107.40616   0.72969765   -106.67646    11064.098    4.3435015    4.3435015    4.3435015    11064.098   -6513.0936    5840.5866    33864.802    8314.4395    7322.9888   -2879.4427    81.944524 
    3900    1160.1009   -107.73606    1.0496837   -106.68638   -3530.3938    4.3498555    4.3498555    4.3498555   -3530.3938    3383.2404   -21528.539    7554.1167   -1486.8408   -10900.932    7846.2626    82.304671 
    4000    844.79905   -107.44825   0.76439194   -106.68386    774.44856    4.3733644    4.3733644    4.3733644    774.44856   -19965.923   -27243.541    49532.809    3237.6164   -2847.4324    14574.735    83.646353 
    4100    787.80878   -107.38997   0.71282594   -106.67714   -1076.0736     4.353612     4.353612     4.353612   -1076.0736   -24087.578    18318.871    2540.4861   -2358.6318    11521.463    7551.7806     82.51809 
    4200    675.51534   -107.28765   0.61122047   -106.67643    20124.884    4.3396656    4.3396656    4.3396656    20124.884   -459.05309    13107.971    47725.735   -7731.6777   -1200.3934    2900.3539    81.727608 
    4300    826.16835   -107.43325   0.74753449   -106.68572   -8151.5516    4.3732282    4.3732282    4.3732282   -8151.5516   -32653.522    23470.695   -15271.828     3476.906    8519.6341    12072.819    83.638537 
    4400    1156.8708   -107.72238     1.046761   -106.67562   -16364.117    4.3630637    4.3630637    4.3630637   -16364.117   -39534.995   -6912.4347   -2644.9202   -15350.907    2918.4682   -7585.5025    83.056697 
    4500    1091.0894   -107.65338   0.98724066   -106.66614    19860.963    4.3336087    4.3336087    4.3336087    19860.963      14264.4    39153.021    6165.4672   -9454.4547    4941.5744   -1652.6109    81.385883 
    4600    510.97044   -107.15321   0.46233679   -106.69087   -5196.3809     4.364347     4.364347     4.364347   -5196.3809   -18694.757    18394.018   -15288.404    6891.2942     4100.803    6466.9319    83.130008 
    4700    1136.0799   -107.70675    1.0279489    -106.6788   -33730.063    4.3681009    4.3681009    4.3681009   -33730.063   -43158.005   -36896.775   -21135.409   -13011.891   -3380.7383   -2275.6683    83.344697 
    4800    1010.2885   -107.58699   0.91413029   -106.67286    36440.868    4.3381325    4.3381325    4.3381325    36440.868    17819.434    37790.093    53713.076    655.01589   -7591.9847    7337.0367    81.641021 
    4900    865.95107    -107.4804   0.78353072   -106.69687    -2466.948    4.3603448    4.3603448    4.3603448    -2466.948   -18680.825   -4831.2965    16111.278   -939.60716   -9198.4041    1353.3315    82.901522 
    5000    837.06588   -107.44282    0.7573948   -106.68542   -25105.207    4.3686285    4.3686285    4.3686285   -25105.207   -29015.251   -25488.657   -20811.713   -3672.0161   -7691.9101   -9719.1144    83.374904 
    5100    732.20548   -107.33369   0.66251491   -106.67117    28468.281    4.3416777    4.3416777    4.3416777    28468.281    23039.823    39969.602    22395.419   -1561.3014   -1385.1424    13943.208     81.84134 
    5200    964.66661   -107.56246   0.87285062   -106.68961    -20836.61    4.3634547    4.3634547    4.3634547    -20836.61   -15521.194   -16993.378   -29995.259   -10252.701    2101.6127   -4979.6377    83.079028 
    5300    1069.0584   -107.65153   0.96730651   -106.68423    1216.4927    4.3606626    4.3606626    4.3606626    1216.4927    -16637.54    1594.2604    18692.758    6623.0246    6403.5315    2062.6143    82.919648 
    5400    820.59196   -107.42591   0.74248885   -106.68342    1731.8736    4.3533033    4.3533033    4.3533033    1731.8736     4126.642    231.22692    837.75198    -2773.742    13453.884    2055.5136     82.50054 
    5500    602.92967   -107.23336   0.54554343   -106.68781   -20633.715    4.3612869    4.3612869    4.3612869   -20633.715    -29912.94   -33208.761    1220.5569   -15218.716   -2187.1071   -2869.7876    82.955271 
    5600    999.40079   -107.58843   0.90427884   -106.68416    21900.812    4.3457436    4.3457436    4.3457436    21900.812    341.58813    42943.051    22417.797    348.26381    6731.0146    15421.351    82.071485 
    5700    1057.8005   -107.65782   0.95712011    -106.7007   -11503.353    4.3626824    4.3626824    4.3626824   -11503.353    6317.1896   -28975.445   -11851.805    -5237.497    117.24078   -357.01455    83.034927 
    5800    808.38225   -107.42299   0.73144125   -106.69155   -4726.7239     4.360068     4.360068     4.360068   -4726.7239   -24660.108    29464.046    -18984.11    38.155877    -7190.025    6650.8535    82.885733 
    5900    720.60819   -107.33106   0.65202144   -106.67904      16770.8      4.34892      4.34892      4.34892      16770.8    25114.946    35016.012   -9818.5582    5189.7807    219.69828    12047.394    82.251579 
    6000    631.28489    -107.2555   0.57119984    -106.6843   -8263.0803    4.3668702    4.3668702    4.3668702   -8263.0803   -21305.894    14529.563    -18012.91    4201.2831   -2805.6549   -1271.9734    83.274272 
    6100    1185.9666   -107.75243    1.0730875   -106.67935   -3535.2018     4.353166     4.353166     4.353166   -3535.2018    5635.3774   -7971.1743   -8269.8086    6996.6892   -4767.4898     4614.255     82.49273 
    6200    1137.0769    -107.7159    1.0288511   -106.68705    7555.1677    4.3489805    4.3489805    4.3489805    7555.1677    21880.166     12368.18   -11582.842   -4472.6312   -1893.8283   -3134.4109    82.255012 
    6300     669.8877   -107.29888   0.60612847   -106.69275   -8270.2723    4.3683231    4.3683231    4.3683231   -8270.2723   -8809.7079    10806.233   -26807.342   -10517.491    -3492.369    2458.2664    83.357422 
    6400    980.14472   -107.57035   0.88685554   -106.68349   -7594.3119    4.3572794    4.3572794    4.3572794   -7594.3119   -16961.893    9395.1866   -15216.229   -4039.6903   -2724.5015    2244.0156      82.7268 
    6500     863.1074   -107.46285   0.78095771    -106.6819      19639.7    4.3484724    4.3484724    4.3484724      19639.7    22001.912    41961.868   -5044.6804    10535.082   -3404.1921      607.202    82.226186 
    6600    1144.2135    -107.7226    1.0353084    -106.6873   -16920.586    4.3618079    4.3618079    4.3618079   -16920.586   -4050.6309   -31248.474   -15462.653   -10430.436   -1956.4334   -4437.3528    82.985002 
    6700    589.34783   -107.22573   0.53325431   -106.69247    6334.9308    4.3539784    4.3539784    4.3539784    6334.9308    19047.024    23480.322   -23522.554    286.83046   -489.45491    5035.1824    82.538924 
    6800     833.6722   -107.44608   0.75432413   -106.69175    13776.923    4.3487242    4.3487242    4.3487242    13776.923    41462.899    35236.843   -35368.974    1945.0178   -5594.5456   -7190.4546     82.24047 
    6900    1077.6967   -107.66752   0.97512263    -106.6924   -17445.497    4.3702201    4.3702201    4.3702201   -17445.497    -19673.99   -15167.285   -17495.216   -536.25511    5851.5356    1709.0427    83.466061 
    7000    946.01178   -107.53804   0.85597134   -106.68207   -3500.1804    4.3620526    4.3620526    4.3620526   -3500.1804    90.370376    16152.454   -26743.365    6490.2565   -5530.5035    4067.7966    82.998966 
    7100    1083.0784   -107.65638   0.97999207   -106.67638   -296.89886    4.3422651    4.3422651    4.3422651   -296.89886    6587.6824     17089.44   -24567.819   -11866.744   -1099.5443   -725.70215    81.874564 
    7200    724.86896   -107.35009   0.65587666   -106.69422   -10241.697    4.3581878    4.3581878    4.3581878   -10241.697   -9798.2192   -550.93124    -20375.94    2839.1296    181.20469    4199.9256    82.778553 
    7300    926.61285   -107.52668   0.83841878   -106.68826    -6246.319    4.3699342    4.3699342    4.3699342    -6246.319    1524.6063     4508.109   -24771.672    1146.2017   -6648.1686    10438.271    83.449686 
    7400    1147.5132   -107.72135     1.038294   -106.68306    12131.058    4.3415079    4.3415079    4.3415079    12131.058    34831.664    7844.3422   -6282.8323   -3680.3496   -1848.3941   -3065.9727     81.83174 
    7500    601.98297   -107.24608   0.54468685   -106.70139    18016.363    4.3464312    4.3464312    4.3464312    18016.363    36611.012    27198.655   -9760.5783      175.076    1133.5695    3862.6307    82.110451 
    7600    1025.8342   -107.61433   0.92819638   -106.68613   -28105.778    4.3802146    4.3802146    4.3802146   -28105.778   -9322.5634   -33507.135   -41487.637   -42.621996    1428.1425   -494.57785    84.040023 
    7700    1062.3347   -107.63836   0.96122273   -106.67714    19008.804    4.3440603    4.3440603    4.3440603    19008.804    15432.157    40739.413    854.84142   -1944.4513      -519.06   -1102.6445    81.976151 
    7800    946.59872   -107.54246   0.85650241   -106.68596    7107.8254    4.3423755    4.3423755    4.3423755    7107.8254    11050.762     8646.395    1626.3192    10834.628    4980.0536    8261.6256    81.880811 
    7900    1041.7301   -107.62076   0.94257932   -106.67818   -25161.529    4.3784142    4.3784142    4.3784142   -25161.529   -14815.921   -3012.3027   -57656.363    1052.8185    2443.6074    3859.9159    83.936436 
    8000    783.15441   -107.38412   0.70861457   -106.67551    2755.5003    4.3555501    4.3555501    4.3555501    2755.5003   -6732.0564    24610.545   -9611.9875    48.530955    2783.0199    8898.4006    82.628345 
    8100    1124.2206   -107.69221    1.0172184   -106.67499     6268.463    4.3411619    4.3411619    4.3411619     6268.463     13785.38    2906.7637    2113.2449   -2560.4933     4828.282    1343.2406    81.812174 
    8200    1036.8653   -107.62106   0.93817753   -106.68288    416.63382    4.3629479    4.3629479    4.3629479    416.63382      16281.2     13909.63   -28940.929   -7643.1376    3764.2021   -3039.4719    83.050083 
    8300    467.11622   -107.11752   0.42265657   -106.69486   -4877.5113      4.35568      4.35568      4.35568   -4877.5113    14950.577   -324.47598   -29258.634    715.91699    3810.9006    2556.5608    82.635737 
    8400    1082.3525     -107.672   0.97933529   -106.69267   -4744.6483    4.3413843    4.3413843    4.3413843   -4744.6483    7904.8242    -11749.49   -10389.279    13810.431    5255.4272    5744.9663    81.824749 
    8500    1001.7777   -107.60371   0.90642955   -106.69728    20746.834    4.3537603    4.3537603    4.3537603    20746.834    19354.482     40673.78     2212.238   -15985.541    2599.5986   -35.781429    82.526524 
    8600     943.3337   -107.54876   0.85354816   -106.69522   -22835.901    4.3628108    4.3628108    4.3628108   -22835.901   -1973.5494   -37405.608   -29128.545    10171.244   -5040.7589   -212.58243    83.042257 
    8700    780.23584    -107.3934   0.70597379   -106.68743    7332.9932    4.3477692    4.3477692    4.3477692    7332.9932    12829.076    20944.603     -11774.7   -1633.2075    4437.6421   -3547.6382    82.186303 
    8800    853.67512   -107.46123   0.77242318   -106.68881    18033.682    4.3476814    4.3476814    4.3476814    18033.682    65416.589   -1332.7261   -9982.8154   -8614.8088   -907.55265    4928.8094    82.181325 
    8900    900.62583   -107.50893   0.81490518   -106.69402   -27645.995    4.3676703    4.3676703    4.3676703   -27645.995   -8490.6931   -43453.071   -30994.219    12993.318   -7654.6127   -7151.4115    83.320053 
    9000    914.47956   -107.50942   0.82744032   -106.68198    17235.876    4.3455305    4.3455305    4.3455305    17235.876    31056.772      6793.98    13856.876   -6930.5203    3763.4696   -6220.9804    82.059412 
    9100    1107.5023   -107.68676    1.0020913   -106.68467   -10996.311    4.3435762    4.3435762    4.3435762   -10996.311   -3243.5076    3064.6152   -32810.042      5870.89   -3169.9416    7516.5315    81.948749 
    9200    386.38465   -107.05054   0.34960895   -106.70093   -15433.806    4.3641356    4.3641356    4.3641356   -15433.806   -11849.422    11700.925   -46152.921   -3769.1422   -2159.7932   -14287.068    83.117929 
    9300     1292.846   -107.86418    1.1697943   -106.69439    2297.5627    4.3460631    4.3460631    4.3460631    2297.5627    28001.795   -22262.323    1153.2162   -1561.7699   -2276.9274    6817.5184    82.089591 
    9400       772.21   -107.40288   0.69871184   -106.70417    7922.0783    4.3539175    4.3539175    4.3539175    7922.0783    61736.316   -4605.3245   -33364.757    4191.0674   -3882.5877   -8352.5429     82.53546 
    9500    502.26751   -107.15116   0.45446219    -106.6967   -13489.237    4.3652529    4.3652529    4.3652529   -13489.237    24017.707   -17152.765   -47332.654    8397.3438    -2810.558   -7119.0964    83.181782 
    9600    1086.1101   -107.66179   0.98273526   -106.67905    3326.7673    4.3520417    4.3520417    4.3520417    3326.7673    19091.646    3160.1309   -12271.475   -7187.0838   -4364.0038    1480.9071     82.42883 
    9700    1079.8348   -107.65753   0.97705724   -106.68048     -11942.9    4.3605506    4.3605506    4.3605506     -11942.9   -19315.286   -9119.1068   -7394.3065    11224.098   -3440.1074   -10372.806    82.913258 
    9800    1120.7672   -107.69116    1.0140937   -106.67707    -6585.567    4.3531611    4.3531611    4.3531611    -6585.567    2858.1775   -13707.398   -8907.4811    7568.3822   -1205.9115    5130.3991    82.492456 
    9900    629.31832   -107.25419   0.56942044   -106.68477      19519.6    4.3517024    4.3517024    4.3517024      19519.6    34934.413    17441.643    6182.7454   -3839.6686   -777.01896    2591.5812    82.409557 
   10000     971.3271   -107.56516   0.87887717   -106.68628   -8240.5134    4.3597506    4.3597506    4.3597506   -8240.5134    20726.809   -27945.976   -17502.374    1522.1509   -546.50925   -1112.9866    82.867634 
   10100    771.75861   -107.38392   0.69830341   -106.68561    26945.495    4.3516846    4.3516846    4.3516846    26945.495    40128.941    27813.187    12894.359    8600.3426    1345.6975    5548.9377    82.408545 
   10200    1028.7587   -107.62221   0.93084245   -106.69136    5561.5527    4.3505036    4.3505036    4.3505036    5561.5527     7879.271   -10598.445    19403.832   -13378.811    13934.788   -10115.394    82.341469 
   10300    888.50168   -107.49869   0.80393499   -106.69475   -9596.2743    4.3592307    4.3592307    4.3592307   -9596.2743    5921.3374    2105.3361   -36815.496    9809.7145   -1003.4527    3302.7324     82.83799 
   10400    821.75908   -107.43579   0.74354488   -106.69224      958.691    4.3518627    4.3518627    4.3518627      958.691   -352.90065    12919.873    -9690.899   -3025.2479    2492.7472   -5587.8215    82.418663 
   10500    1238.1903   -107.81189    1.1203406   -106.69155   -2885.3207    4.3545162    4.3545162    4.3545162   -2885.3207     9914.601   -17201.686   -1368.8767    9836.9166   -282.61819   -4702.8566    82.569514 
   10600    972.74923   -107.56419   0.88016395   -106.68403   -6660.0013    4.3664978    4.3664978    4.3664978   -6660.0013    8128.0717   -11066.097   -17041.979    1227.8503   -6001.9035    4650.0291    83.252971 
   10700    665.55829    -107.2818   0.60221113   -106.67959    6762.5257    4.3512577    4.3512577    4.3512577    6762.5257    37536.913    -20317.13    3067.7941   -3296.0915    4957.6902   -4474.2059    82.384292 
   10800    684.32782   -107.30131   0.61919419   -106.68211      26297.5    4.3515784    4.3515784    4.3515784      26297.5    32800.174    32879.229    13213.098    14898.257    3512.0503   -3585.2215    82.402508 
   10900    1071.0245   -107.65344   0.96908547   -106.68436   -5316.1492    4.3597217    4.3597217    4.3597217   -5316.1492    11672.432   -39837.672    12216.792   -7621.4447    7341.5147    1372.3477    82.865985 
   11000    657.40623   -107.28023   0.59483497    -106.6854     27565.07    4.3540574    4.3540574    4.3540574     27565.07    20144.257    11507.737    51043.215    788.51017    1972.7983    4754.7199    82.543418 
   11100    1202.2306   -107.76777    1.0878035   -106.67997   -10904.359     4.358567     4.358567     4.358567   -10904.359   -4592.1079    -20796.83   -7324.1386    6078.1965    1528.5735   -7157.6643    82.800158 
   11200    515.48868   -107.15438   0.46642499   -106.68796   -1968.0758    4.3536076    4.3536076    4.3536076   -1968.0758   -17192.014    13395.613   -2107.8261   -6334.3391    -4963.082   -8331.8066    82.517841 
   11300    1108.0462    -107.6913    1.0025835   -106.68871   -8349.8993    4.3531339    4.3531339    4.3531339   -8349.8993   -3905.3146   -23496.688    2352.3045   -10089.698   -7044.8544   -1980.6634    82.490908 
   11400    1328.0315   -107.88631    1.2016309   -106.68468   -19684.881    4.3677967    4.3677967    4.3677967   -19684.881    -29597.59    -11766.19   -17690.862    1520.0868   -2287.6552    6509.0158    83.327287 
   11500    925.85958   -107.51848   0.83773721   -106.68074    -15618.32    4.3624039    4.3624039    4.3624039    -15618.32   -2498.4251   -39246.394    -5110.142   -10472.147   -5761.2432   -2607.2432    83.019024 
   11600    844.65754   -107.43633   0.76426389   -106.67207    12639.209    4.3518108    4.3518108    4.3518108    12639.209    13682.158    13159.259    11076.211   -5126.3834    3822.9013    874.58503    82.415713 
   11700    773.41877   -107.37909   0.69980555   -106.67929   -3408.3267    4.3665554    4.3665554    4.3665554   -3408.3267    5277.4237   -31562.695    16060.292   -2846.1793    11291.386    1094.6911    83.256264 
   11800    541.16552   -107.16927   0.48965793   -106.67961    16244.641    4.3671324    4.3671324    4.3671324    16244.641    28868.576    1577.1041    18288.243   -10806.747    8697.8903     4672.396    83.289272 
   11900    1079.8907   -107.64652   0.97710776   -106.66941    17065.644     4.348795     4.348795     4.348795    17065.644    45652.552   -23954.548    29498.927   -4287.6555    14224.783    -3295.569    82.244487 
   12000    453.05705   -107.10118   0.40993554   -106.69124    10052.406    4.3547183    4.3547183    4.3547183    10052.406    40997.295   -7823.9764   -3016.1012   -3663.2677    10262.301   -9988.8792    82.581013 
   12100     972.7834   -107.56827   0.88019486   -106.68807   -20071.261    4.3671319    4.3671319    4.3671319   -20071.261   -5205.8944   -37613.796   -17394.093    5746.4598   -536.51068   -3756.6578    83.289245 
   12200    930.29773   -107.52521   0.84175294   -106.68346     11240.46     4.351104     4.351104     4.351104     11240.46    17333.905   -3577.9348    19965.409   -10524.352    2240.3722    3132.2212    82.375564 
   12300    976.83371   -107.57359   0.88385967   -106.68973   -3748.3358    4.3531283    4.3531283    4.3531283   -3748.3358    13074.922   -10522.978   -13796.952    5564.1312   -5579.1862   -4278.6964    82.490586 
   12400    1176.3096   -107.74327    1.0643496   -106.67892   -18370.761    4.3696385    4.3696385    4.3696385   -18370.761    -6915.327   -16928.293   -31268.662    1488.6697   -501.87934    4035.6636    83.432742 
   12500    768.26891   -107.36864   0.69514586    -106.6735    9598.1201    4.3518504    4.3518504    4.3518504    9598.1201    50692.775   -18848.159   -3050.2556    -14637.61   -5304.0949   -10504.631    82.417965 
   12600    947.76282    -107.5346   0.85755571   -106.67704   -3841.9066    4.3557014    4.3557014    4.3557014   -3841.9066    1661.2398    -9738.913   -3448.0465    993.49555    10792.061       8123.5    82.636955 
   12700      944.585   -107.53423   0.85468036   -106.67955   -8265.9534    4.3677852    4.3677852    4.3677852   -8265.9534    -916.3389   -44312.195    20430.674   -3881.9395    10549.423    2013.3425    83.326629 
   12800    568.55161   -107.19759   0.51443744   -106.68316    14154.185    4.3579003    4.3579003    4.3579003    14154.185     7262.727   -1363.8961    36563.725   -2414.2621    12404.576   -12071.347    82.762168 
   12900    930.36723   -107.52348   0.84181583   -106.68166    2839.1792    4.3559615    4.3559615    4.3559615    2839.1792   -22368.107   -25630.472    56516.117   -1316.6017   -954.27873    6609.7039    82.651757 
   13000    929.36962   -107.52549   0.84091316   -106.68458   -13559.043    4.3680855    4.3680855    4.3680855   -13559.043   -26485.633   -17487.538    3296.0435   -3152.6315   -5674.5589     2745.736     83.34382 
   13100    1133.1138   -107.70256    1.0252652    -106.6773   -20778.596    4.3604072    4.3604072    4.3604072   -20778.596    674.69746   -38723.609   -24286.877    1526.3053   -5122.9956    2274.2728     82.90508 
   13200    1121.6569   -107.69064    1.0148987   -106.67575     4759.096    4.3525843    4.3525843    4.3525843     4759.096   -15772.018    12595.078    17454.228    410.20588    -14528.75   -406.42189    82.459667 
   13300    849.08923   -107.44993   0.76827378   -106.68166   -6704.3468    4.3656719    4.3656719    4.3656719   -6704.3468    4040.9953   -38043.882    13889.847   -4990.3046    1830.6977   -682.88073    83.205737 
   13400    459.45233   -107.09555   0.41572212   -106.67983    24138.382    4.3616066    4.3616066    4.3616066    24138.382   -802.75018    15048.146    58169.752    4926.3093   -838.16658      11645.9    82.973513 
   13500    1011.0714   -107.59101   0.91483864   -106.67617   -2794.5829    4.3599165    4.3599165    4.3599165   -2794.5829   -35823.341   -22561.112    50000.704   -6229.0956     12978.21   -4489.0215    82.877094 
   13600     983.7888   -107.57452   0.89015278   -106.68437    7200.1153    4.3517819    4.3517819    4.3517819    7200.1153     15083.93   -2821.6121    9338.0281   -328.88111    6447.8033   -4816.6839    82.414069 
   13700    1088.5076   -107.67646   0.98490455   -106.69156   -9992.9618     4.368736     4.368736     4.368736   -9992.9618   -1104.8053   -16255.257   -12618.823    9281.9213   -5077.4039    4202.9698    83.381056 
   13800    838.19839   -107.44604   0.75841952   -106.68762   -8575.6422    4.3639471    4.3639471    4.3639471   -8575.6422   -37639.029   -18873.604    30785.707   -4076.1895   -6090.2014   -9951.6875    83.107158 
   13900    608.06738   -107.23769   0.55019214    -106.6875    15574.428    4.3431194    4.3431194    4.3431194    15574.428    1845.1806   -15776.267    60654.369    4550.8208   -7912.3088   -6420.1207    81.922897 
   14000    916.25243   -107.52232   0.82904445   -106.69327    5962.9897    4.3610404    4.3610404    4.3610404    5962.9897   -1020.7914   -11644.261    30554.022    3546.7252   -7237.1139    6297.8762    82.941205 
   14100    1202.8811   -107.77382    1.0883921   -106.68543    -15395.11    4.3628931    4.3628931    4.3628931    -15395.11   -8082.0947   -16254.151   -21849.083    4243.1362    6413.1966   -3220.1919    83.046954 
   14200    754.89849   -107.36628   0.68304802   -106.68324   -12362.667    4.3567257    4.3567257    4.3567257   -12362.667   -11251.231   -14034.877   -11801.892    3981.0326    4424.4208    2092.2743    82.695269 
   14300    848.28636    -107.4447   0.76754733   -106.67715    6564.4766    4.3569036    4.3569036    4.3569036    6564.4766   -18688.609    7177.3001    31204.738   -934.18752    6788.9356    9401.2111    82.705396 
   14400     778.4325   -107.38451   0.70434209   -106.68017    3434.9564    4.3644597    4.3644597    4.3644597    3434.9564   -12272.866   -2526.3224    25104.057    8345.9406    9878.6898   -11452.998    83.136449 
   14500    882.92883   -107.47684   0.79889256   -106.67794    7405.9666    4.3567088    4.3567088    4.3567088    7405.9666   -2796.3169   -27344.962    52359.178   -3449.5511   -72.417117    2851.8611    82.694305 
   14600    1087.8709   -107.66333   0.98432847     -106.679   -6278.3174      4.35232      4.35232      4.35232   -6278.3174   -32622.087    8809.7164    4977.4189   -4068.1994    3947.1608   -3416.6772    82.444647 
   14700    676.48923   -107.30366   0.61210168   -106.69155    -15705.34    4.3591896    4.3591896    4.3591896    -15705.34   -20587.026   -12443.589   -14085.405    3740.3796   -4528.4397   -5043.7959     82.83565 
   14800    920.60205   -107.52543   0.83298008   -106.69245    1092.4849    4.3545278    4.3545278    4.3545278    1092.4849   -7303.4615   -28265.858    38846.774   -4143.5318   -1353.3091    13320.181    82.570177 
   14900     1076.519   -107.66833   0.97405703   -106.69428    3746.6908    4.3631507    4.3631507    4.3631507    3746.6908   -23108.688   -7613.0671    41961.827    1300.5481    5036.4317    116.69285    83.061667 
   15000    765.26129   -107.38368    0.6924245   -106.69126     7422.005      4.35847      4.35847      4.35847     7422.005    6117.7284   -12183.148    28331.434   -2387.1443    9079.0835    10715.365    82.794631 
   15100    909.01686   -107.50897   0.82249756   -106.68647   -2404.5027    4.3581237    4.3581237    4.3581237   -2404.5027    10084.489   -24600.096    7302.0989   -2659.6322   -2357.1198    2325.6455    82.774898 
   15200    1075.7912   -107.65457   0.97339844   -106.68117   -13549.853    4.3648165    4.3648165    4.3648165   -13549.853   -28322.332   -3954.3495   -8372.8791    2847.3179    934.75243   -4180.6849    83.156838 
   15300    655.47958   -107.27625    0.5930917   -106.68316    20305.487    4.3498087    4.3498087    4.3498087    20305.487    25084.601   -30127.936    65959.795   -6432.2769   -1691.2987    12320.657    82.302018 
   15400     1095.648   -107.67544   0.99136531   -106.68407    7194.0098    4.3563751    4.3563751    4.3563751    7194.0098    21858.726   -22555.866     22279.17    1934.5225   -8645.9138    7663.6841    82.675306 
   15500    764.00118   -107.37244   0.69128432   -106.68115    -10669.44    4.3719784    4.3719784    4.3719784    -10669.44    -31674.86   -40139.167    39805.709   -3020.3836    1526.0719    7747.9011    83.566849 
   15600    845.33532   -107.43564   0.76487716   -106.67076   -11496.097    4.3543409    4.3543409    4.3543409   -11496.097   -1318.9645   -23660.378   -9508.9492   -8668.9754    1334.2873    9716.1843    82.559543 
   15700     1202.831    -107.7587    1.0883468   -106.67036    4076.4558    4.3454963    4.3454963    4.3454963    4076.4558    17938.284   -10363.704    4654.7868    7849.4313     157.2643    616.08162    82.057477 
   15800    818.30986   -107.42803   0.74042395   -106.68761   -23514.693    4.3752292    4.3752292    4.3752292   -23514.693    -16672.18   -57386.901    3515.0012   -13923.077    3781.4577    12539.627    83.753397 
   15900    864.17805   -107.46436   0.78192646   -106.68244    7885.0828    4.3614786    4.3614786    4.3614786    7885.0828    16734.645    -11466.76    18387.363    1286.0346    -8022.929    7998.1912     82.96621 
   16000    958.60394   -107.54174   0.86736499   -106.67438     17166.61    4.3380662    4.3380662    4.3380662     17166.61    33425.152   -2825.8816    20900.559    363.80397   -5208.1798   -5307.9598    81.637277 
   16100    444.07044   -107.10105   0.40180426   -106.69924    3458.0576    4.3646236    4.3646236    4.3646236    3458.0576    30416.374   -24784.355    4742.1546   -15449.101   -1903.4432    6803.2729    83.145812 
   16200    1096.5575   -107.66846   0.99218824   -106.67627   -8828.3379    4.3740183    4.3740183    4.3740183   -8828.3379    8580.0289   -16617.211   -18447.831   -731.60675    397.91143   -6387.3398    83.683875 
   16300    963.28387   -107.54082   0.87159949   -106.66922    7365.3183    4.3499856    4.3499856    4.3499856    7365.3183    17947.556   -7303.7183    11452.117   -13416.481    4626.2286    70.287743    82.312055 
   16400    778.07317   -107.38811   0.70401696   -106.68409    10984.629    4.3531178    4.3531178    4.3531178    10984.629    -8878.235     28587.38    13244.742   -7179.0685    6325.0081    4111.6068     82.48999 
   16500    983.67252   -107.57258   0.89004756   -106.68253   -27770.314    4.3777638    4.3777638    4.3777638   -27770.314   -34011.281   -15708.439   -33591.222    5749.6528    847.21927    2807.7121    83.899035 
   16600    860.70509   -107.45882   0.77878406   -106.68003   -15312.886    4.3565981    4.3565981    4.3565981   -15312.886   -22088.324   -2781.5385   -21068.796   -6484.4962   -1398.8212    11914.268    82.688003 
   16700    1236.3189   -107.79724    1.1186473   -106.67859    4636.7368    4.3396665    4.3396665    4.3396665    4636.7368   -12077.095   -8069.1161    34056.422   -1820.4067   -1567.9011   -5575.8608     81.72766 
   16800    1000.9236   -107.59481   0.90565667   -106.68916   -25382.512    4.3740708    4.3740708    4.3740708   -25382.512   -36403.645   -5997.7475   -33746.142     6399.785    3410.3428     7192.178    83.686891 
   16900    847.40099   -107.43875   0.76674623   -106.67201   -34400.128     4.370789     4.370789     4.370789   -34400.128   -45018.928   -25590.004   -32591.452   -10030.454   -3273.8503    8207.1088    83.498666 
   17000    1019.1516   -107.57864   0.92214976   -106.65649    21220.246    4.3375422    4.3375422    4.3375422    21220.246    -4573.713    38045.474    30188.976    -1566.493   -4016.6164    -7254.376    81.607701 
   17100    1025.8212   -107.61226   0.92818462   -106.68407   -9891.2625     4.362208     4.362208     4.362208   -9891.2625    14130.257   -10256.368   -33547.676   -5533.8345    863.59054    13234.728    83.007842 
   17200    1088.7189   -107.66643   0.98509572   -106.68133   -17896.336    4.3719163    4.3719163    4.3719163   -17896.336   -14763.373   -22017.667   -16907.968   -3554.0929   -6610.5596    3589.7262    83.563285 
   17300    693.62777   -107.30572   0.62760898   -106.67811    7404.8715    4.3493173    4.3493173    4.3493173    7404.8715    12292.199    40408.937   -30486.521    12232.406     2934.228    5628.2075    82.274124 
   17400    771.95988   -107.38433   0.69848552   -106.68585    5229.3315    4.3475772    4.3475772    4.3475772    5229.3315    28728.894   -9593.4931   -3447.4066   -995.94666    3647.4702    2550.9277    82.175416 
   17500    888.36547   -107.48734   0.80381175   -106.68353   -2250.9564    4.3722674    4.3722674    4.3722674   -2250.9564   -7795.4995    2011.8249   -969.19462    4588.9762    3250.8322   -7517.8886    83.583421 
   17600    772.98439   -107.37437   0.69941252   -106.67495   -36.986198    4.3617832    4.3617832    4.3617832   -36.986198    17477.474   -24145.527    6557.0944     2718.367    6815.7467    4344.6923    82.983594 
   17700    667.92756   -107.27281    0.6043549   -106.66846    24589.504    4.3417792    4.3417792    4.3417792    24589.504    12988.731    12884.687    47895.095   -10690.985    7290.7324    6442.5237    81.847082 
   17800    700.04337   -107.31598   0.63341395   -106.68256    -5580.215    4.3654889    4.3654889    4.3654889    -5580.215   -14565.985    5467.8497   -7642.5096    14.591494    8586.4153   -1018.4823    83.195274 
   17900    890.51093   -107.48503   0.80575301   -106.67928   -11156.426    4.3657249    4.3657249    4.3657249   -11156.426   -1538.1433   -10805.196   -21125.939   -8058.4596    597.14712    15503.442    83.208772 
   18000    1019.3592    -107.5952   0.92233766   -106.67286    17234.497    4.3403032    4.3403032    4.3403032    17234.497    35150.829    16658.347   -105.68578   -15207.025    3844.4479   -1994.8661    81.763637 
   18100    850.76855   -107.46217   0.76979327   -106.69238   -9574.6932     4.357737     4.357737     4.357737   -9574.6932    3437.4113   -8346.2105   -23815.281    11345.022    373.66677    1447.2858    82.752867 
   18200    867.95496   -107.46584   0.78534389   -106.68049   -32546.196    4.3754475    4.3754475    4.3754475   -32546.196   -7082.5224   -36269.807   -54286.257   -1617.7754   -2065.5701    1949.1341    83.765933 
   18300    1092.3105   -107.66193   0.98834552   -106.67359    9384.1663    4.3399185    4.3399185    4.3399185    9384.1663   -6648.5496     11477.02    23324.028   -326.65966    201.47287   -4823.9006    81.741899 
   18400    1069.6381   -107.65364   0.96783103   -106.68581    1505.3807    4.3440894    4.3440894    4.3440894    1505.3807    13482.762    5302.2166   -14268.836     8185.338    2300.6331    13439.176    81.977802 
   18500    825.98124   -107.43284   0.74736518   -106.68547   -16509.936    4.3777682    4.3777682    4.3777682   -16509.936    8635.4929   -19943.073   -38222.229   -16497.879    4997.8296   -2452.9369    83.899291 
   18600    760.62589   -107.36948   0.68823029   -106.68125    18418.951    4.3470169    4.3470169    4.3470169    18418.951    39515.201    8131.9078    7609.7437    2830.8865   -4182.9248    7309.9514    82.143651 
   18700    770.02333   -107.38102   0.69673329   -106.68429     16448.32    4.3452601    4.3452601    4.3452601     16448.32    36085.296    3433.4797    9826.1841   -3659.7127     11746.19    11383.742    82.044096 
   18800    1244.3265   -107.80065    1.1258928   -106.67475   -19620.302    4.3719959    4.3719959    4.3719959   -19620.302   -30346.118   -19953.617   -8561.1713   -7084.9186   -3958.6389    -5016.661    83.567852 
   18900    619.65381   -107.23449   0.56067579   -106.67382    16844.071    4.3495612    4.3495612    4.3495612    16844.071    37967.624    21211.994   -8647.4065    11801.104   -6713.3897    13945.354     82.28797 
   19000    859.80296   -107.45764   0.77796779   -106.67968   -2718.9598    4.3500507    4.3500507    4.3500507   -2718.9598    22438.547   -13158.989   -17436.437    6526.2052   -3077.9643    1183.2892    82.315754 
   19100    792.55039   -107.39837   0.71711625   -106.68126    6356.8681    4.3622441    4.3622441    4.3622441    6356.8681    38829.067   -3747.7608   -16010.702    5649.7759   -6659.8014    3582.4267    83.009899 
   19200    911.02234   -107.50911   0.82431216    -106.6848   -663.37861    4.3517187    4.3517187    4.3517187   -663.37861    12357.027   -35121.365    20774.203    3279.5613   -6390.3273    7617.4321    82.410479 
   19300     947.6861   -107.54583    0.8574863   -106.68834    312.77544    4.3538848    4.3538848    4.3538848    312.77544     331.7506    12651.382   -12044.807   -3391.9439     7687.029   -8274.4934    82.533602 
   19400    886.93875   -107.48949   0.80252082   -106.68697    4112.3936    4.3561127    4.3561127    4.3561127    4112.3936    13208.133   -20903.318    20032.366    1912.4929    4221.5899    8011.9207    82.660365 
   19500    653.86752   -107.28202   0.59163307   -106.69039   -1916.0296    4.3648739    4.3648739    4.3648739   -1916.0296    26147.033   -8080.7221     -23814.4    9508.4789    7460.3161    -2804.629    83.160119 
   19600    1246.4353   -107.80581    1.1278008   -106.67801    8056.1969    4.3455368    4.3455368    4.3455368    8056.1969    30949.578   -2577.0177   -4203.9695    3291.6373   -5879.9977   -619.65188    82.059771 
   19700    567.55054    -107.2026   0.51353165   -106.68907     5447.535    4.3548933    4.3548933    4.3548933     5447.535     46775.72   -13844.357   -16588.758    13839.776    2057.4625    10614.449     82.59097 
   19800    1052.7909   -107.63436   0.95258733   -106.68177   -30555.128    4.3693811    4.3693811    4.3693811   -30555.128   -31142.266    -19531.58    -40991.54    5954.8445   -5638.7803   -6956.5558    83.417998 
   19900    1012.3861   -107.59794   0.91602824   -106.68191    17198.804     4.342208     4.342208     4.342208    17198.804    72009.418   -9149.9702   -11263.036   -6286.2186    797.64196    10836.031    81.871334 
   20000    827.90568   -107.44317   0.74910646   -106.69406    8118.1072    4.3565193    4.3565193    4.3565193    8118.1072     30765.51   -19758.655    13347.466    13909.533    5572.1226    2565.2822    82.683512 
   20100    949.50679   -107.54216    0.8591337   -106.68302    -14903.58    4.3681383    4.3681383    4.3681383    -14903.58    39408.116   -41191.165   -42927.689    2042.8019    3931.8801    2881.5433    83.346843 
   20200    874.31461    -107.4727   0.79109823    -106.6816    -3900.604    4.3427304    4.3427304    4.3427304    -3900.604     6839.978    8815.9477   -27357.738    4616.0858    8373.1472    8569.8047    81.900886 
   20300    1144.6536   -107.72301    1.0357066   -106.68731   -2531.6112    4.3544958    4.3544958    4.3544958   -2531.6112    19337.971   -29377.634    2444.8301    10705.133    -2376.518   -2374.1894    82.568352 
   20400    794.85088   -107.40473   0.71919778   -106.68553   -5078.9704    4.3665621    4.3665621    4.3665621   -5078.9704    45081.045   -25121.433   -35196.524   -8175.4336   -72.974186    11319.231     83.25665 
   20500    692.52727   -107.30403   0.62661323   -106.67742    24956.932    4.3395585    4.3395585    4.3395585    24956.932    74776.304    14428.266   -14333.775    6087.9177    3263.2851   -1558.4117    81.721556 
   20600    918.69901   -107.51734   0.83125817   -106.68608   -9343.7988    4.3539653    4.3539653    4.3539653   -9343.7988    12369.103   -6739.9474   -33660.552    5120.4391   -2673.3602    1211.3891     82.53818 
   20700    928.32628   -107.52358   0.83996913   -106.68361    -22376.92    4.3625332    4.3625332    4.3625332    -22376.92    -22833.39   -5865.8382   -38431.532   -10750.978    7210.6606    559.09955    83.026406 
   20800    1223.2561   -107.78331    1.1068278   -106.67648    7477.0809    4.3413524    4.3413524    4.3413524    7477.0809    18604.668    11073.136   -7246.5609    11857.393   -1789.9655   -2238.3083    81.822947 
   20900    531.95774   -107.17315   0.48132654   -106.69182   -223.22565    4.3569486    4.3569486    4.3569486   -223.22565    60452.468    -12329.56   -48792.585    976.75532   -584.18584    5718.4579    82.707962 
   21000     704.3244   -107.32754   0.63728752   -106.69025   -3360.6031    4.3574834    4.3574834    4.3574834   -3360.6031    54954.242   -26542.632    -38493.42   -8885.6989    1438.1113   -3481.9399    82.738422 
   21100    1199.6437   -107.76941    1.0854628   -106.68395     17429.28    4.3407032    4.3407032    4.3407032     17429.28    25037.789    17981.978    9268.0734    4973.3388   -968.00394    14671.123    81.786245 
   21200    1072.8977   -107.66278   0.97078038     -106.692   -31764.536     4.367712     4.367712     4.367712   -31764.536   -28340.217    -33394.14   -33559.253   -9271.7639   -4288.3295    3823.4472    83.322439 
   21300    862.59308   -107.46375   0.78049235   -106.68326   -4344.2418    4.3549636    4.3549636    4.3549636   -4344.2418    15359.235    3350.7477   -31742.708   -9615.4658      8866.65    -3663.635    82.594967 
   21400    763.88776   -107.36913    0.6911817   -106.67795    32826.927    4.3323005    4.3323005    4.3323005    32826.927    74201.103    3782.9308    20496.747   -3213.7264    417.07355    13331.487    81.312204 
   21500    845.39849   -107.46036   0.76493432   -106.69542   -8561.2938    4.3677875    4.3677875    4.3677875   -8561.2938    23258.415   -30748.705   -18193.591   -9212.6279    3977.8643   -11721.113    83.326762 
   21600    1003.1501    -107.5933   0.90767129   -106.68563    -11092.39    4.3562909    4.3562909    4.3562909    -11092.39    26972.812    -24719.19   -35530.792   -9413.7757    7244.3761    7184.5293    82.670508 
   21700     839.0509   -107.43143   0.75919088   -106.67224    21112.313    4.3277067    4.3277067    4.3277067    21112.313        20522    24763.038    18051.903    11202.327   -1801.9846   -1806.7552    81.053817 
   21800    849.28007   -107.45872   0.76844646   -106.69028   -22741.312    4.3652485    4.3652485    4.3652485   -22741.312   -33415.481   -13212.741   -21595.714   -10548.637    97.834757   -7557.9021     83.18153 
   21900    1084.8577   -107.66398   0.98160202   -106.68238   -9403.1551    4.3585398    4.3585398    4.3585398   -9403.1551   -7916.1283   -4189.9903   -16103.347    3558.3793   -6203.2231    6527.4601    82.798611 
   22000    973.19976   -107.55323    0.8805716   -106.67266    21313.664    4.3395374    4.3395374    4.3395374    21313.664    46634.945    3478.9922    13827.055   -4770.3035   -11494.548    -8139.609    81.720366 
   22100    595.23851   -107.22171   0.53858431   -106.68312   -5554.7201    4.3592091    4.3592091    4.3592091   -5554.7201    37668.654   -14848.203   -39484.611   -11766.887    6147.0943    11772.751    82.836758 
   22200    845.08791   -107.44452    0.7646533   -106.67987   -8784.2832    4.3564997    4.3564997    4.3564997   -8784.2832    39880.351   -20308.896   -45924.304    5563.6651   -1492.2358    -919.5826    82.682401 
   22300    1070.8973   -107.64787   0.96897036    -106.6789    -1907.422    4.3478481    4.3478481    4.3478481    -1907.422    16959.313   -17468.891   -5212.6873   -7301.2563    3426.6414    4913.8064    82.190776 
   22400    988.60201   -107.58266   0.89450788   -106.68815   -10722.262     4.351258     4.351258     4.351258   -10722.262   -9419.9501    10581.598   -33328.434   -8206.4712    13064.486    14033.896     82.38431 
   22500    1092.0115   -107.67569   0.98807495   -106.68761   -12320.428    4.3557546    4.3557546    4.3557546   -12320.428    21178.423   -12892.923   -45246.786    2418.2034    2890.8814   -3616.5499    82.639981 
   22600    777.09668   -107.39132   0.70313341   -106.68818    7101.5221    4.3484171    4.3484171    4.3484171    7101.5221     34020.56     11047.45   -23763.444   -8145.8048    5400.1237    8025.3686    82.223051 
   22700     613.9848   -107.24632   0.55554635   -106.69078    8736.3673    4.3562366    4.3562366    4.3562366    8736.3673    52328.975   -4645.8391   -21474.034   -10255.839   -1055.4752    5201.0703    82.667419 
   22800    1083.1166   -107.65937   0.98002667   -106.67935    4526.0862    4.3506775    4.3506775    4.3506775    4526.0862    25273.161   -6667.6708   -5027.2316   -2498.5403   -9217.8404   -4679.1749    82.351343 
   22900    966.38288   -107.55972   0.87440354   -106.68532   -14694.327    4.3499741    4.3499741    4.3499741   -14694.327   -5929.0865   -20612.227   -17541.666   -6329.6469     9534.707    5991.2825    82.311405 
   23000    1023.4116   -107.60737   0.92600429   -106.68136   -11480.116    4.3620706    4.3620706    4.3620706   -11480.116   -10089.163    5759.0338   -30110.218    236.43804     5482.087   -2629.4783    82.999995 
   23100    807.32004   -107.40887   0.73048014   -106.67839    2660.5234    4.3526706    4.3526706    4.3526706    2660.5234    32386.315   -21577.683   -2827.0626    2152.8688    4669.3517    3398.8583    82.464569 
   23200    610.32938   -107.23597   0.55223885   -106.68373    9407.8197    4.3477411    4.3477411    4.3477411    9407.8197    67339.477   -15498.163   -23617.854    -10875.34    16386.128    33.123187    82.184708 
   23300    959.78654   -107.55126   0.86843503   -106.68283    5357.5952    4.3557468    4.3557468    4.3557468    5357.5952    37376.801   -2523.5343   -18780.481    9657.2127    4772.5058   -6287.6985    82.639536 
   23400    943.64581   -107.53774   0.85383056   -106.68391   -17162.345    4.3600901    4.3600901    4.3600901   -17162.345    -22945.03   -18712.786   -9829.2194   -15616.251    3086.6047     11779.86    82.886996 
   23500    1138.0465   -107.70813    1.0297284    -106.6784   -1374.2682    4.3472986    4.3472986    4.3472986   -1374.2682    10874.396   -758.86216   -14238.339    904.08864   -2444.0274    -11389.98    82.159617 
   23600    856.28789   -107.45456   0.77478728   -106.67977    3888.3904    4.3483354    4.3483354    4.3483354    3888.3904    21512.254   -125.19914   -9721.8834    4849.1214   -12240.627    6622.2244    82.218417 
   23700    441.24056   -107.08355   0.39924373    -106.6843    5830.9856    4.3592663    4.3592663    4.3592663    5830.9856    31643.836   -6645.6781   -7505.2009   -10310.327    1609.3321    4201.6286    82.840023 
   23800    1122.9656    -107.6936    1.0160829   -106.67752    2560.4531    4.3481584    4.3481584    4.3481584    2560.4531    48319.533   -11353.417   -29284.757     14743.25   -1408.0889   -3539.8494    82.208374 
   23900    1044.4868   -107.62484   0.94507363   -106.67976   -5228.7942    4.3505647    4.3505647    4.3505647   -5228.7942    20215.894     -21801.3   -14100.977   -7605.7929     -2150.41     10173.29    82.344937 
   24000    1016.1243   -107.60041   0.91941063     -106.681   -26710.839    4.3607583    4.3607583    4.3607583   -26710.839   -23099.715     -37925.8   -19107.004   -11416.234    18031.797   -1358.4129     82.92511 
   24100    701.23438    -107.3207    0.6344916   -106.68621    6251.9648    4.3483446    4.3483446    4.3483446    6251.9648    50026.675    873.43697   -32144.217   -739.27075     8870.911    12120.224     82.21894 
   24200    950.55221   -107.54567   0.86007961   -106.68559    13581.339    4.3435496    4.3435496    4.3435496    13581.339    69678.631       -16649   -12285.613   -9872.1245    797.47136   -1242.0044    81.947247 
   24300    879.60459   -107.48819   0.79588472    -106.6923   -16438.393    4.3591125    4.3591125    4.3591125   -16438.393     2926.999   -19448.947   -32793.232    1915.1251    411.19721    9880.3618    82.831255 
   24400    1077.9667   -107.66169   0.97536693   -106.68633   -6248.2416    4.3501666    4.3501666    4.3501666   -6248.2416    19221.754   -19911.244   -18055.235   -2221.7898   -706.14559    12308.043    82.322331 
   24500    1021.1725   -107.61108   0.92397833    -106.6871    4948.6637    4.3421684    4.3421684    4.3421684    4948.6637    46312.401    -16628.92   -14837.489   -1859.4224    2268.8786    -19.91574    81.869097 
   24600    452.79082   -107.10845   0.40969465   -106.69876    1275.6532    4.3570945    4.3570945    4.3570945    1275.6532    55622.012   -8075.4512   -43719.601   -3809.0395    10366.712    16914.778    82.716268 
   24700    929.53342   -107.52716   0.84106138    -106.6861    10625.887    4.3506314    4.3506314    4.3506314    10625.887    36335.965   -9232.8873     4774.583   -1044.7187    991.08987   -2509.3424    82.348724 
   24800    1071.1894   -107.65458   0.96923468   -106.68535   -20173.599     4.349808     4.349808     4.349808   -20173.599    919.74563   -42509.164   -18931.379   -9627.2777    11337.169    14766.432    82.301976 
   24900    928.35608   -107.52899    0.8399961   -106.68899   -4750.7113    4.3536709    4.3536709    4.3536709   -4750.7113    38420.637   -20281.555   -32391.216    3190.1114    6287.9741    9102.9926     82.52144 
   25000    794.45487   -107.40558   0.71883946   -106.68674    25153.225     4.343608     4.343608     4.343608    25153.225     59582.22   -330.60121    16208.058    63.228243   -9565.4672   -5546.1089     81.95055 
   25100    605.02238   -107.24267   0.54743696   -106.69524   -4872.4935    4.3524707    4.3524707    4.3524707   -4872.4935    30353.915   -29345.932   -15625.464   -3545.7605     10249.01    16129.298    82.453209 
   25200    1151.9014   -107.72796    1.0422646   -106.68569   -24130.084    4.3540294    4.3540294    4.3540294   -24130.084   -13972.222   -31585.189   -26832.842    4573.4034    12518.884   -298.56108    82.541828 
   25300    1000.7712    -107.5904   0.90551878   -106.68488    30175.786    4.3345571    4.3345571    4.3345571    30175.786    37662.823    12788.795    40075.739   -3899.1827   -2053.5852    4748.7652    81.439326 
   25400    874.65423   -107.48614   0.79140553   -106.69473   -8466.0708    4.3613599    4.3613599    4.3613599   -8466.0708    40343.189   -23944.355   -41797.046    -3690.667    4609.4069    4702.0194    82.959436 
   25500    697.67526   -107.31732   0.63127124   -106.68605   -4358.1853    4.3529826    4.3529826    4.3529826   -4358.1853    31700.122   -27551.536   -17223.143    6806.9952   -7167.2116    758.99215    82.482305 
   25600     856.0326   -107.45468   0.77455629   -106.68012    17330.886    4.3327115    4.3327115    4.3327115    17330.886    20084.891   -4624.8503    36532.618   -2121.6296   -732.74184    10054.195    81.335348 
   25700    1193.0846    -107.7679     1.079528   -106.68837   -24476.897    4.3609558    4.3609558    4.3609558   -24476.897    -8908.802    -35208.15   -29313.737    10283.259    8541.0196    1710.2448    82.936378 
   25800    893.04562   -107.49787   0.80804644   -106.68982     4946.109     4.351411     4.351411     4.351411     4946.109    32293.789   -25295.809    7840.3475    7121.8661   -1674.1051    8142.3031    82.392998 
   25900     864.4453    -107.4663   0.78216827   -106.68413    26391.846    4.3338967    4.3338967    4.3338967    26391.846    69702.056    -11183.94    20657.423    977.42866    2325.2886    2919.4368    81.402111 
   26000    818.28274   -107.43628   0.74039942   -106.69588   -10553.781    4.3505698    4.3505698    4.3505698   -10553.781    11514.534   -33565.764   -9610.1127    5514.3283     8774.373    2471.0866    82.345224 
   26100    890.33646   -107.49944   0.80559514   -106.69385   -14147.629    4.3599421    4.3599421    4.3599421   -14147.629   -11463.834   -32570.737    1591.6838    2495.9152   -18034.137     6540.886    82.878553 
   26200    1326.2011   -107.88224    1.1999746   -106.68227    16803.062    4.3372936    4.3372936    4.3372936    16803.062    55100.975   -10075.945    5384.1555   -3622.0571    15042.056   -5375.0511    81.593668 
   26300    447.84144   -107.10269   0.40521635   -106.69747    1229.8766    4.3484788    4.3484788    4.3484788    1229.8766    42450.863   -45099.581    6338.3481    6605.0402     4390.004    9029.1306    82.226548 
   26400      852.789   -107.46237   0.77162141   -106.69075   -14594.128    4.3586715    4.3586715    4.3586715   -14594.128    25138.866   -48353.294   -20567.956   -1220.8857   -9179.8049    433.65321    82.806114 
   26500    1198.6349   -107.77101      1.08455   -106.68646   -875.70206    4.3442552    4.3442552    4.3442552   -875.70206   -6437.1413   -8955.6258    12765.661    1520.3257   -1231.9823   -4980.5572    81.987187 
   26600     779.8745   -107.40128   0.70564683   -106.69563   -8551.7775    4.3425848    4.3425848    4.3425848   -8551.7775   -11213.902    -20970.57      6529.14    14356.924   -7258.8444    20423.006    81.892649 
   26700    1092.0659   -107.67825   0.98812421   -106.69013    321.75737    4.3496238    4.3496238    4.3496238    321.75737    26753.563   -30557.442    4769.1514   -2881.2694   -2158.4397   -1380.4291    82.291522 
   26800    545.68601   -107.18582   0.49374817   -106.69207    2179.8815    4.3558352    4.3558352    4.3558352    2179.8815    18349.527   -33752.906    21943.024    5668.0824    8211.6857     8675.268     82.64457 
   26900     854.8267   -107.46473   0.77346516   -106.69126    7393.9237    4.3393365    4.3393365    4.3393365    7393.9237    55576.983   -7756.3299   -25638.882    6203.4769   -6040.7482    13560.535    81.709019 
   27000    1306.2903   -107.87661    1.1819589   -106.69465    5408.5919    4.3486913    4.3486913    4.3486913    5408.5919    6755.2679   -8673.8713    18144.379   -8157.2129   -12790.906    583.59531    82.238604 
   27100    807.79873   -107.42141   0.73091326   -106.69049   -21995.662    4.3642956    4.3642956    4.3642956   -21995.662    18140.824   -52199.545   -31928.266    4807.5181    5703.2474    14008.489    83.127069 
   27200     875.7443   -107.47493   0.79239184   -106.68254    8345.0584    4.3386401    4.3386401    4.3386401    8345.0584    45934.021   -21238.918    340.07255     -5929.58   -6732.3966   -2613.7737    81.669683 
   27300    859.13598   -107.46754   0.77736429   -106.69018    21987.243    4.3395088    4.3395088    4.3395088    21987.243    58094.052   -2118.2082    9985.8867   -5933.7186    9772.4214    11030.573    81.718751 
   27400    1159.8304   -107.73735     1.049439   -106.68791   -17955.116    4.3627128    4.3627128    4.3627128   -17955.116    3704.7676     -30448.8   -27121.315    12016.859    6725.2055    3908.5937    83.036661 
   27500    639.69901   -107.27426   0.57881311   -106.69545    1494.4249    4.3426158    4.3426158    4.3426158    1494.4249    20736.351   -23795.045    7541.9681   -3885.6521   -10998.371    1394.7917    81.894403 
   27600    817.83771   -107.43907   0.73999674   -106.69907    7126.8548    4.3355755    4.3355755    4.3355755    7126.8548    49608.629   -32330.499    4102.4345   -480.36504    -8249.225    14272.768    81.496742 
   27700    894.58979   -107.50278   0.80944364   -106.69333   -14768.964    4.3704207    4.3704207    4.3704207   -14768.964    19916.592   -21657.101   -42566.384    2711.2415   -712.81103   -3370.6817    83.477559 
   27800    972.95299   -107.56829   0.88034831   -106.68794    679.27956    4.3444076    4.3444076    4.3444076    679.27956    1405.8249   -15721.733    16353.747   -13299.772   -9761.6382    13753.987    81.995817 
   27900    976.48603   -107.57346   0.88354508   -106.68992    12907.841    4.3410469    4.3410469    4.3410469    12907.841    65556.588   -17833.816   -8999.2477   -2115.0902    6316.6242   -477.17993    81.805676 
   28000    1036.9407   -107.62685   0.93824578   -106.68861   -17977.187     4.358767     4.358767     4.358767   -17977.187   -1850.3661   -32520.398   -19560.796   -2212.9495    851.77822   -155.17609    82.811562 
   28100    555.11703   -107.19111   0.50228156   -106.68882    23561.833    4.3537953    4.3537953    4.3537953    23561.833    89640.352   -16789.186   -2165.6668   -11831.658   -7778.6521    10906.809    82.528513 
   28200     1408.546   -107.95798     1.274482   -106.68349   -12843.606    4.3532728    4.3532728    4.3532728   -12843.606    1706.0739   -17826.376   -22410.515    3734.9803   -4937.0151   -6098.6437    82.498804 
   28300    633.00306   -107.26517   0.57275447   -106.69242    27680.827    4.3424741    4.3424741    4.3424741    27680.827    97412.964   -21908.936    7538.4514    4430.5089    4390.8649    7735.5935    81.886386 
   28400    825.57057   -107.44472    0.7469936   -106.69773   -19638.366    4.3645382    4.3645382    4.3645382   -19638.366    6596.5278   -49436.133   -16075.492   -348.25731   -8126.9925   -1459.6783    83.140936 
   28500    1071.8562   -107.65921     0.969838   -106.68937    7620.9545    4.3463741    4.3463741    4.3463741    7620.9545    58019.212   -15860.682   -19295.667    3291.5272    14122.319    610.23086     82.10721 
   28600     779.3342   -107.40566   0.70515796    -106.7005    11097.046    4.3420166    4.3420166    4.3420166    11097.046    37474.608   -19742.254    15558.783   -10416.328   -10333.104    5269.5174    81.860507 
   28700    812.08791   -107.43431   0.73479421   -106.69951   -8886.4972    4.3605026    4.3605026    4.3605026   -8886.4972    32204.474   -44617.639   -14246.326   -7193.4859   -13576.424    -7526.097    82.910524 
   28800    813.49076   -107.43111   0.73606354   -106.69505   -7021.3454    4.3564462    4.3564462    4.3564462   -7021.3454    38800.732   -38935.127   -20929.642    4364.4703    1034.8089    7199.1765    82.679352 
   28900    850.39112   -107.46193   0.76945175   -106.69248    8288.9011    4.3464857    4.3464857    4.3464857    8288.9011    20237.704   -9217.4798    13846.479   -2942.1348   -16888.631   -5910.3933    82.113539 
   29000    1025.6485   -107.62338   0.92802833   -106.69535    1229.1966      4.34785      4.34785      4.34785    1229.1966    47735.278   -24942.691   -19104.997    6795.9317    3674.5656   -1653.1249    82.190888 
   29100    904.29205   -107.51243   0.81822245   -106.69421   -4346.1478    4.3606023    4.3606023    4.3606023   -4346.1478      26521.6   -43103.481    3543.4375     4911.728   -5728.3132     10239.96    82.916212 
   29200    825.39664   -107.43436   0.74683623   -106.68752   -1094.9874    4.3559199    4.3559199    4.3559199   -1094.9874    41107.656   -32889.659   -11502.959   -8479.8622   -376.91786   -10915.674    82.649389 
   29300    978.61675   -107.57382     0.885473   -106.68834   -681.77709    4.3482018    4.3482018    4.3482018   -681.77709    39541.174   -25278.152   -16308.353    2419.1465   -3501.2954     12095.23    82.210837 
   29400    966.52112   -107.56836   0.87452862   -106.69383    18191.695     4.351003     4.351003     4.351003    18191.695    60036.235   -20652.596    15191.445   -5092.2723    14004.376    4450.2972    82.369829 
   29500    566.53398   -107.21974   0.51261185   -106.70712   -5230.7684    4.3567984    4.3567984    4.3567984   -5230.7684    20806.167   -46715.308    10216.836   -2282.0782    -2212.925    539.72925    82.699404 
   29600    868.54278    -107.4867   0.78587576   -106.70083   -3569.0057    4.3495151    4.3495151    4.3495151   -3569.0057    2029.7684   -55061.283    42324.497     14389.38   -4933.9451    14012.682    82.285354 
   29700    929.57568   -107.53743   0.84109961   -106.69633     8587.586    4.3593724    4.3593724    4.3593724     8587.586    46496.423    -25141.78    4408.1149   -7534.6701   -7219.6336   -1621.7352    82.846068 
   29800    783.31821   -107.40333   0.70876278   -106.69456   -6971.1812    4.3551989    4.3551989    4.3551989   -6971.1812    13202.661   -37258.334    3142.1295   -758.98258   -4516.2177    9158.1356    82.608358 
   29900    820.29655   -107.43062   0.74222155    -106.6884    3899.8073    4.3534586    4.3534586    4.3534586    3899.8073    61023.758   -49395.401    71.065178    3889.8426     85.78986    3449.4937    82.509369 
   30000    1244.7797   -107.81205    1.1263029   -106.68574   -15441.618    4.3590993    4.3590993    4.3590993   -15441.618    4577.8998   -43102.478   -7800.2769   -4748.3761    6024.6046    3413.4686    82.830502 
   30100    967.78706   -107.56178   0.87567407    -106.6861   -5290.0408    4.3586131    4.3586131    4.3586131   -5290.0408    9535.4829   -31645.347    6239.7417    11499.274    7611.7178    4620.7578    82.802788 
   30200    1045.9469   -107.62696   0.94639469   -106.68056   -6898.8688    4.3598601    4.3598601    4.3598601   -6898.8688    14346.365   -36537.557    1494.5859   -5670.5312   -2882.8106   -7186.2138    82.873875 
   30300    635.60526   -107.25669     0.575109   -106.68158    32542.945    4.3370837    4.3370837    4.3370837    32542.945    69852.981   -37487.325    65263.179    4748.2335   -7074.9824    11212.443    81.581823 
   30400    971.96258   -107.58038   0.87945217   -106.70093   -19648.914    4.3627451    4.3627451    4.3627451   -19648.914   -19627.181   -50968.309    11648.748    5043.0194   -3044.4732    -2199.235    83.038504 
   30500    1061.3404   -107.65095   0.96032306   -106.69063    1257.2239    4.3569218    4.3569218    4.3569218    1257.2239    18009.724   -36269.113     22031.06   -11715.155    7139.8253   -529.35601    82.706432 
   30600    1040.3216   -107.62741   0.94130487    -106.6861     1230.003    4.3379125    4.3379125    4.3379125     1230.003    23847.286   -27558.395     7401.118    10322.501      6357.68    14333.903    81.628604 
   30700    538.29803   -107.18618   0.48706337   -106.69912   -6051.3632    4.3601684    4.3601684    4.3601684   -6051.3632    15201.654   -43729.465    10373.721    939.07673   -4371.2825   -4266.2197    82.891461 
   30800    964.36114   -107.56159   0.87257423   -106.68901    575.91571    4.3630297    4.3630297    4.3630297    575.91571    26567.249   -40066.465    15226.963   -2933.5257   -4737.8509     13103.39    83.054755 
   30900    1004.3293   -107.59639   0.90873827   -106.68766   -743.62595    4.3523538    4.3523538    4.3523538   -743.62595    23691.597   -39924.815     14002.34    2698.4096   -12591.949    3929.0538    82.446566 
   31000    684.36978   -107.31281   0.61923216   -106.69358    22496.645    4.3427806    4.3427806    4.3427806    22496.645    22445.427   -18869.339    63913.847   -11850.519    2404.7354    3022.0874    81.903727 
   31100    943.57498   -107.55283   0.85376647   -106.69907   -21044.385    4.3649304    4.3649304    4.3649304   -21044.385    3420.4182   -52582.272   -13971.302    54.615977   -980.14784    8629.9218    83.163346 
   31200    1014.1166   -107.61101   0.91759405   -106.69341   -6463.1148    4.3476786    4.3476786    4.3476786   -6463.1148    8883.5918   -33894.856    5621.9196   -14197.558    4300.0991    -3738.127    82.181165 
   31300    838.15518   -107.45233   0.75838042   -106.69394    16643.226     4.347345     4.347345     4.347345    16643.226     46332.62   -27284.255    30881.313   -9187.2601   -13335.498   -699.76678     82.16225 
   31400    790.37577   -107.40396   0.71514861   -106.68882   -10594.424    4.3653871    4.3653871    4.3653871   -10594.424   -15730.351    -51069.28    35016.359   -6407.6643   -6697.1643    8210.1655    83.189458 
   31500    735.10287   -107.34384   0.66513652    -106.6787     15831.61    4.3468794    4.3468794    4.3468794     15831.61    31696.917   -33283.202    49081.117   -12274.455   -5654.1013   -7087.1718    82.135854 
   31600    1106.6089   -107.68477     1.001283   -106.68349   -16733.894    4.3606183    4.3606183    4.3606183   -16733.894   -18633.854   -26040.681   -5527.1456   -1645.9343    12386.686    3567.9905     82.91712 
   31700    982.05286   -107.57019   0.88858207   -106.68161   -18061.068    4.3613043    4.3613043    4.3613043   -18061.068   -4783.8689   -29269.129   -20130.206   -10604.023    6138.2907   -3579.0143    82.956259 
   31800    1058.7987   -107.63873   0.95802327    -106.6807    7480.9514    4.3499547    4.3499547    4.3499547    7480.9514      27342.7   -33456.536    28556.691    3723.5907    2697.3149    1500.4278    82.310301 
   31900    812.85255   -107.42143   0.73548607   -106.68595    5341.8494    4.3568823    4.3568823    4.3568823    5341.8494    6258.9624   -30608.819    40375.405   -2601.8368   -6433.3426    8999.3297    82.704183 
   32000    757.36646   -107.38003   0.68528109   -106.69475    7961.1613    4.3584648    4.3584648    4.3584648    7961.1613    3765.2075   -29057.487    49175.764   -4171.1784   -6538.2817     2748.107    82.794339 
   32100    1206.6319   -107.78244    1.0917859   -106.69066   -4803.6583    4.3546907    4.3546907    4.3546907   -4803.6583   -3686.0637    -27295.27    16570.359    14106.201   -6953.4098    2721.7183    82.579443 
   32200    672.92346   -107.30616   0.60887528   -106.69729    3444.3692    4.3467803    4.3467803    4.3467803    3444.3692    6571.8319   -18444.254     22205.53   -11666.441     5144.367    2040.1204    82.130238 
   32300    856.00196   -107.47579   0.77452856   -106.70126   -2380.5575     4.359799     4.359799     4.359799   -2380.5575   -29710.111    -37861.01    60429.449     8868.006    1801.2057   -10926.464    82.870395 
   32400    1194.7683   -107.77704    1.0810514   -106.69599   -5344.4514    4.3585187    4.3585187    4.3585187   -5344.4514   -14834.668   -23573.648    22374.962    1290.0212    3219.9078   -7384.5849    82.797407 
   32500    561.60941   -107.20552     0.508156   -106.69737    16839.268     4.346475     4.346475     4.346475    16839.268    5126.6327   -13548.177    58939.347    -9823.161   -3353.2449   -4979.4757    82.112934 
   32600    1081.1303   -107.66806    0.9782294   -106.68983    -18479.24    4.3575819    4.3575819    4.3575819    -18479.24   -10232.407   -23220.759   -21984.553    2112.6692    12055.747   -873.38592    82.744029 
   32700    759.32356   -107.37289   0.68705191   -106.68584   -1909.0366    4.3610827    4.3610827    4.3610827   -1909.0366   -20936.246   -26913.826    42122.962   -7077.7731   -4106.8876    8104.0466    82.943618 
   32800    743.36208   -107.35906   0.67260963   -106.68645    4030.3626    4.3566981    4.3566981    4.3566981    4030.3626   -18656.295   -11609.281    42356.664    2673.0555    14973.599    10270.545    82.693695 
   32900    1036.7491   -107.62051   0.93807237   -106.68244    17431.052    4.3491908    4.3491908    4.3491908    17431.052    11334.315   -13402.499    54361.339   -9863.1046    1035.1021    8658.1611    82.266945 
   33000    962.20508   -107.56096   0.87062338   -106.69034   -21936.333    4.3600467    4.3600467    4.3600467   -21936.333   -23466.626   -28973.906   -13368.467   -34.208312   -4380.0465    555.58879    82.884521 
   33100    605.95632   -107.24123   0.54828201   -106.69294   -2833.8246    4.3624757    4.3624757    4.3624757   -2833.8246   -19252.522   -20683.153      31434.2    4665.2653    892.18581   -6222.7258    83.023121 
   33200     1034.731   -107.61753   0.93624632   -106.68128    11248.233    4.3455533    4.3455533    4.3455533    11248.233     12507.91    465.76746    20771.022   -4771.9943    2065.6139   -9040.4251    82.060708 
   33300    788.04421   -107.40408   0.71303896   -106.69104    2746.9172     4.356248     4.356248     4.356248    2746.9172   -28241.454   -21593.869    58076.075     2088.149    2388.6173   -7777.6048    82.668066 
   33400    950.42743   -107.54875   0.85996671   -106.68879   -21536.754    4.3644169    4.3644169    4.3644169   -21536.754   -20341.742   -7387.9138   -36880.608    1248.3234    17535.433   -7723.7942       83.134 
   33500    849.49206   -107.45321   0.76863827   -106.68457    13130.063    4.3425622    4.3425622    4.3425622    13130.063    12729.039   -10619.469     37280.62    9418.6211   -3475.4521     10724.81    81.891369 
   33600    863.22921   -107.47419   0.78106793   -106.69313   -8850.4562    4.3628138    4.3628138    4.3628138   -8850.4562   -18615.742   -18433.257    10497.631    4615.1293    12.235632    5188.1902    83.042427 
   33700     633.3939    -107.2586   0.57310812   -106.68549   -1704.2095    4.3661385    4.3661385    4.3661385   -1704.2095    -21511.06   -28094.814    44493.246    5564.6195    1136.7571    1294.4149    83.232422 
[...]
   91300    1019.2796   -107.62016   0.92226556   -106.69789   -14179.408    4.3483002    4.3483002    4.3483002   -14179.408    13130.344   -32084.698    -23583.87    10052.065    595.88147   -3428.9383    82.216418 
   91400    961.14963   -107.56654   0.86966838   -106.69687   -9528.9749    4.3437258    4.3437258    4.3437258   -9528.9749    28330.582   -33497.737    -23419.77   -16310.573     15196.67    12448.157     81.95722 
   91500      864.213   -107.47642   0.78195808   -106.69446      19556.4    4.3241487    4.3241487    4.3241487      19556.4    53998.546   -9230.7511    13901.405   -5186.9055    733.81844   -14413.031    80.854063 
   91600    714.31303   -107.35181   0.64632544   -106.70548    1009.5917    4.3397399    4.3397399    4.3397399    1009.5917    53310.959   -40931.167   -9351.0168    20228.276    4434.8065    9502.3396    81.731807 
   91700    1339.5997   -107.90364     1.212098   -106.69154   -17793.558    4.3521589    4.3521589    4.3521589   -17793.558    -7524.636   -25534.218   -20321.821   -8042.5025    3013.5182    3171.8903    82.435491 
   91800    757.08125   -107.38066   0.68502303   -106.69564    -4981.352    4.3372814    4.3372814    4.3372814    -4981.352    33028.309   -39694.278   -8278.0864    10848.375   -5756.5857   -9494.7347    81.592982 
   91900    687.87616   -107.31791   0.62240481    -106.6955    7775.5388    4.3322618    4.3322618    4.3322618    7775.5388     42876.08   -25136.916    5587.4519    14556.612   -5579.9903    17534.526    81.310024 
   92000    1106.3551   -107.68963    1.0010534   -106.68857   -235.32295    4.3473339    4.3473339    4.3473339   -235.32295    30295.267   -20391.156    -10610.08   -6944.5467     7366.194    -9290.612    82.161619 
   92100    644.23276   -107.27776   0.58291534   -106.69484   -10884.923    4.3429661    4.3429661    4.3429661   -10884.923    35685.877   -58989.387   -9351.2574    10102.566   -6369.7035    10355.373    81.914221 
   92200    947.04044   -107.54895   0.85690209   -106.69205   -9318.9392    4.3372618    4.3372618    4.3372618   -9318.9392   -10664.833   -13435.672   -3856.3126    11024.012    13693.514    7125.2839    81.591875 
   92300    1149.2163   -107.72905    1.0398351   -106.68922   -3774.8576    4.3356062    4.3356062    4.3356062   -3774.8576    22546.491   -11649.109   -22221.955    -4111.751    20425.613   -2570.1212    81.498476 
   92400     630.0144   -107.26846   0.57005027   -106.69841     -5232.94    4.3407474    4.3407474    4.3407474     -5232.94    58524.277   -54136.245   -20086.852    15589.545   -1591.6433    20975.788    81.788743 
   92500    821.16623   -107.43695   0.74300846   -106.69394    2837.3781    4.3434972    4.3434972    4.3434972    2837.3781    26126.901   -7285.6843   -10329.083   -3388.6856    18129.462   -4669.2629     81.94428 
   92600    959.01218   -107.56018   0.86773437   -106.69245   -3104.9393    4.3387462    4.3387462    4.3387462   -3104.9393    36763.055   -13228.423    -32849.45   -3397.6241   -2469.9828    18637.367    81.675675 
   92700    1081.4228   -107.66753   0.97849408   -106.68904   -10302.019    4.3412831    4.3412831    4.3412831   -10302.019    14023.176    -31362.04   -13567.193    9155.7817     768.3846    4184.9028    81.819031 
   92800    780.26539    -107.3959   0.70600052    -106.6899   -3422.5546    4.3393813    4.3393813    4.3393813   -3422.5546    3353.5558    2376.5913   -15997.811    -4624.635     6924.462    6171.0989    81.711551 
   92900    757.20601   -107.38107   0.68513591   -106.69593    4045.3613    4.3381654    4.3381654    4.3381654    4045.3613     68232.14   -22039.418   -34056.638    1416.4262   -8659.3868    23754.889    81.642883 
   93000    1373.8684   -107.93224     1.243105   -106.68914    15176.745    4.3312414    4.3312414    4.3312414    15176.745    39742.484   -8728.0931    14515.845    1193.2132    2173.2804   -10601.232    81.252579 
   93100    475.09342   -107.13401   0.42987451   -106.70414   -13240.216    4.3485695    4.3485695    4.3485695   -13240.216    12799.446    -16459.87   -36060.225   -5926.3516    10315.168    23473.225    82.231695 
   93200    1077.0778   -107.66633   0.97456267   -106.69177   -9476.5357    4.3445231    4.3445231    4.3445231   -9476.5357     6887.514   -12039.763   -23277.358    6818.8517   -12119.233      5384.79    82.002357 
   93300    1227.2347   -107.79413    1.1104277   -106.68371    17718.834    4.3225261    4.3225261    4.3225261    17718.834    47037.641   -792.80223    6911.6625   -3822.5504    19752.264    274.41318    80.763082 
   93400    354.38093   -107.02476   0.32065131   -106.70411    -3937.062    4.3470833    4.3470833    4.3470833    -3937.062    30546.541   -8709.1722   -33648.555   -7199.2973   -1507.8906    20603.937    82.147413 
   93500    1168.1539   -107.73777    1.0569702    -106.6808   -7344.3956    4.3497375    4.3497375    4.3497375   -7344.3956    8651.5255   -11929.041   -18755.671    4705.4826    3255.4221   -9095.2943    82.297974 
   93600    871.90819   -107.47081   0.78892085   -106.68188    784.26056    4.3260689    4.3260689    4.3260689    784.26056     36170.44   -15440.332   -18377.326   -3330.1076    18691.619    22243.569    80.961825 
   93700    809.76717   -107.42656   0.73269436   -106.69386    45.595445    4.3377608    4.3377608    4.3377608    45.595445    15362.564    474.53361   -15700.312    -11443.16   -3949.9991    5734.0593    81.620038 
   93800    1126.2432   -107.70524    1.0190485   -106.68619   -20294.769    4.3573691    4.3573691    4.3573691   -20294.769   -5604.8083   -39646.427   -15633.073    17499.803    2906.0303    80.904377    82.731912 
   93900     794.1747   -107.41123   0.71858596   -106.69265   -3545.9142    4.3345906    4.3345906    4.3345906   -3545.9142     29200.96   -20752.518   -19086.185   -3605.8904     9045.604    20375.065    81.441217 
   94000     861.7599   -107.46526   0.77973846   -106.68552    31999.982    4.3212795    4.3212795    4.3212795    31999.982    57086.222    16587.603    22326.121   -7145.5189   -13379.571   -5173.8998    80.693223 
   94100    767.43644   -107.38308   0.69439262   -106.68869   -30401.421    4.3595859    4.3595859    4.3595859   -30401.421   -26696.751   -54765.361   -9742.1509    27269.525    3390.6186    8952.8789    82.858244 
   94200    989.53037   -107.57815   0.89534787    -106.6828   -1324.5181    4.3363415    4.3363415    4.3363415   -1324.5181    11010.219   -13979.189   -1004.5846   -12121.682   -442.47797    8185.4665    81.539948 
   94300    950.10563    -107.5401   0.85967554   -106.68042    15802.792    4.3225232    4.3225232    4.3225232    15802.792    22819.598   -10770.659    35359.436    20376.954   -638.21887    13.536098    80.762917 
   94400    653.60925   -107.28284   0.59139939   -106.69144    -6811.518    4.3468692    4.3468692    4.3468692    -6811.518    19391.799   -44655.017    4828.6639    22018.956    11528.912    13932.008    82.135277 
   94500    1071.5471   -107.65256   0.96955833     -106.683   -923.16128    4.3445982    4.3445982    4.3445982   -923.16128    30671.694   -19111.763   -14329.415   -12004.762    7914.3882   -2854.0468    82.006609 
   94600    736.21816   -107.35528   0.66614566   -106.68914    -11339.86    4.3346066    4.3346066    4.3346066    -11339.86   -6793.1456   -47447.793    20221.359    35426.179   -2613.3637    7875.3643    81.442119 
   94700    957.97609   -107.55615   0.86679689   -106.68935     15111.21    4.3271792    4.3271792    4.3271792     15111.21    29687.932   -4546.2133    20191.913     1287.342    7133.7651    10150.336    81.024181 
   94800    1117.4143    -107.7056      1.01106   -106.69454   -7886.3281    4.3499174    4.3499174    4.3499174   -7886.3281    11362.085   -20918.066   -14103.003    4826.9159   -2333.6911   -9071.0631    82.308185 
   94900    758.86563   -107.38556   0.68663757   -106.69892    335.91007     4.337065     4.337065     4.337065    335.91007    29434.631   -46622.947    18196.046    21609.719   -8300.5673    13582.769    81.580768 
   95000    764.95863   -107.38337   0.69215064   -106.69122    35248.481    4.3239751    4.3239751    4.3239751    35248.481    68151.794    15672.925    21920.724   -8498.1251    10725.994   -2544.9487     80.84433 
   95100    1267.6977   -107.83327    1.1470395   -106.68623   -17035.463    4.3516512    4.3516512    4.3516512   -17035.463   -17862.385   -17876.609   -15367.394    15675.014   -2986.3847   -6925.5074    82.406647 
   95200    820.67086   -107.43306   0.74256024    -106.6905    4441.3693    4.3332893    4.3332893    4.3332893    4441.3693     32614.88   -37639.973    18349.202    11066.488    3560.3502     20084.78    81.367891 
   95300    824.58236   -107.44034   0.74609945   -106.69424    14948.474    4.3283824    4.3283824    4.3283824    14948.474    23177.225    10541.217     11126.98   -6378.9322    6200.9868   -18978.784    81.091786 
   95400     1209.431   -107.77975    1.0943186   -106.68543   -5709.2128    4.3499334    4.3499334    4.3499334   -5709.2128    10364.093   -13203.472    -14288.26    10037.273     10748.25    10652.272    82.309093 
   95500    636.20616   -107.26657    0.5756527   -106.69091    3210.9508     4.336786     4.336786     4.336786    3210.9508    40887.605   -39517.383    8262.6305   -2842.8816   -1831.6302    6506.6315    81.565028 
   95600    815.31933   -107.42979   0.73771807   -106.69208    7480.8157    4.3320056    4.3320056    4.3320056    7480.8157    13274.753    2886.2347    6281.4589   -10896.853    18554.072   -24515.335      81.2956 
   95700    1174.2635   -107.75087    1.0624983   -106.68837    10881.708    4.3368314    4.3368314    4.3368314    10881.708    31552.487   -1858.0045    2950.6415     3348.258   -4997.3167    19890.465    81.567586 
   95800    574.26473   -107.21834    0.5196068   -106.69874   -14787.014    4.3429697    4.3429697    4.3429697   -14787.014    5508.7361   -49092.265   -777.51337   -7725.2725     7856.513   -15112.454    81.914427 
   95900    912.08225   -107.51904   0.82527119   -106.69377    1193.3992    4.3336231    4.3336231    4.3336231    1193.3992    -10152.94    1338.0354    12395.102   -8049.3178    4538.1102   -10275.754    81.386694 
   96000    1284.4149   -107.85154    1.1621656   -106.68938    9393.9148    4.3301418    4.3301418    4.3301418    9393.9148    21587.684   -3170.6157    9764.6764   -3090.6554   -10749.203    11412.372    81.190715 
   96100    555.56116   -107.20507   0.50268341   -106.70239   -24257.498     4.344503     4.344503     4.344503   -24257.498   -10629.127   -49990.535   -12152.832   -9077.6511    9614.5745   -21022.179    82.001219 
   96200    937.49055    -107.5447   0.84826115   -106.69644    5041.1961    4.3357307    4.3357307    4.3357307    5041.1961   -5095.1701    3107.3832    17111.375   -8918.9637    3816.0757    2894.6531    81.505494 
   96300    1174.4053   -107.75374    1.0626266   -106.69111     9257.083    4.3336639    4.3336639    4.3336639     9257.083    51438.283   -20274.669   -3392.3657    3148.7756     2302.704   -7740.0496    81.388994 
   96400    538.07176    -107.1881   0.48685864   -106.70124   -2348.2949    4.3384247    4.3384247    4.3384247   -2348.2949    11306.125    -37768.02    19417.011   -15399.792    12095.386    -14592.54    81.657519 
   96500    1017.5661   -107.61223   0.92071523   -106.69151    2640.6436    4.3418352    4.3418352    4.3418352    2640.6436     9140.746   -11032.258    9813.4425     6870.562    20166.977     6762.762    81.850248 
   96600    998.43676   -107.59066   0.90340656   -106.68725    463.12162    4.3381839    4.3381839    4.3381839    463.12162     6757.479   -27616.004     22247.89   -5969.2879   -4491.0909   -19619.982    81.643925 
   96700     707.2676   -107.33092   0.63995058   -106.69097   -5471.7555    4.3380682    4.3380682    4.3380682   -5471.7555   -9806.6332   -25005.461    18396.828   -14755.704    5378.4721   -83.704328    81.637392 
   96800    1225.5087   -107.79183     1.108866   -106.68296   -11669.202    4.3438321    4.3438321    4.3438321   -11669.202   -6321.0108   -24117.601   -4568.9962    16162.604    3007.3268    919.47347    81.963235 
   96900    848.19899    -107.4555   0.76746827   -106.68804    13725.816    4.3288435    4.3288435    4.3288435    13725.816    26815.693   -13113.619    27475.374   -16901.405   -10174.117   -14810.908    81.117703 
   97000    671.16572   -107.30457   0.60728485   -106.69729   -10714.107    4.3414326    4.3414326    4.3414326   -10714.107   -3612.0274   -23102.467   -5427.8259   -8139.0596    10176.613    2904.6671    81.827485 
   97100    1212.7354    -107.7819    1.0973085   -106.68459   -14230.585     4.349103     4.349103     4.349103   -14230.585   -2091.0169   -28541.868   -12058.869    11171.085    4221.9936    4400.9528    82.261963 
   97200    733.56168   -107.35159   0.66374202   -106.68785    9264.6866    4.3236027    4.3236027    4.3236027    9264.6866   -7145.1868   -4022.9039     38962.15   -34246.846   -3132.3874   -8674.7354    80.823441 
   97300    737.53894   -107.36657   0.66734073   -106.69923   -12106.623    4.3366409    4.3366409    4.3366409   -12106.623   -28639.108    2424.3436   -10105.106    5078.4289    15320.373    13058.717     81.55684 
   97400    1109.4815   -107.68972    1.0038822   -106.68584   -12344.949    4.3471555    4.3471555    4.3471555   -12344.949   -16672.056   -21913.728    1550.9356   -674.17599   -5200.4049    17191.234    82.151504 
   97500    626.98259   -107.25399   0.56730702   -106.68668   -5978.3901    4.3389055    4.3389055    4.3389055   -5978.3901   -31713.619    6730.5777    7047.8711   -23914.414    -303.7262   -8752.4177    81.684674 
   97600    1029.2078   -107.61263   0.93124886   -106.68138   -12891.457    4.3358986    4.3358986    4.3358986   -12891.457   -8523.0007   -14434.093   -15717.278     20767.24    7375.5912     17858.45    81.514968 
   97700    1007.1894   -107.59629    0.9113261   -106.68497    1425.7821    4.3324212    4.3324212    4.3324212    1425.7821   -1694.1582   -3443.6304     9415.135   -18901.618   -7356.1102     85.18076    81.318998 
   97800    724.42284   -107.34822   0.65547301   -106.69275   -18391.686    4.3460124    4.3460124    4.3460124   -18391.686   -24047.122   -17345.487   -13782.448   -6405.1286    6935.3205   -5391.0095    82.086716 
   97900    914.45951   -107.51599   0.82742218   -106.68857   -7102.7088    4.3346264    4.3346264    4.3346264   -7102.7088    12645.404   -25195.382   -8758.1486    10920.749    6981.9233    22486.713    81.443235 
   98000    1071.3732   -107.65532   0.96940098   -106.68592    7838.7292    4.3296272    4.3296272    4.3296272    7838.7292   -1705.1512    6942.8126    18278.526   -22618.746   -6717.0577   -4510.5974    81.161768 
   98100    615.08224   -107.24755   0.55653934   -106.69101    -23786.98    4.3515897    4.3515897    4.3515897    -23786.98   -9643.2837   -29402.483   -32315.171    5257.9173    11342.141    10729.572     82.40315 
   98200    922.14612   -107.52196   0.83437719   -106.68759   -8397.5658    4.3300955    4.3300955    4.3300955   -8397.5658    12795.728   -32833.859   -5154.5663    9653.7158     3253.456    19972.954    81.188106 
   98300     1142.813   -107.71681    1.0340412   -106.68277    12395.588    4.3281085    4.3281085    4.3281085    12395.588    13043.365    2440.9198     21702.48    -15540.31   -4757.1685   -3308.5753    81.076393 
   98400    471.27341   -107.11945   0.42641809   -106.69303   -29434.386    4.3502369    4.3502369    4.3502369   -29434.386   -754.88524   -50654.796   -36893.477    11811.293    13226.162     22656.28    82.326326 
   98500    1095.1255   -107.68022    0.9908926   -106.68933    9145.4251     4.330745     4.330745     4.330745    9145.4251    34180.921   -26350.818    19606.173      4756.22   -5078.9113    1476.4384    81.224646 
   98600    1158.3573   -107.74051     1.048106   -106.69241    4016.6245    4.3337772    4.3337772    4.3337772    4016.6245    23777.415   -8837.9394   -2889.6023   -7237.0503    9343.5207     10355.44    81.395375 
   98700    370.90124   -107.03979   0.33559924   -106.70419   -12049.948    4.3412168    4.3412168    4.3412168   -12049.948    19609.025   -38040.945   -17717.925    8718.1889    14623.368    18396.766    81.815283 
   98800    1298.8617   -107.86428    1.1752374   -106.68904    6846.1341    4.3376551    4.3376551    4.3376551    6846.1341    15566.876   -15197.849    20169.375   -3416.3368   -3883.3378   -4421.6283    81.614075 
   98900     878.6642   -107.48911   0.79503383   -106.69408    263.78666    4.3373533    4.3373533    4.3373533    263.78666    404.34884   -893.34099    1280.3521   -1627.1837    1340.6909    23546.193    81.597041 
   99000    650.52444   -107.28542   0.58860819   -106.69681    7446.7254    4.3316867    4.3316867    4.3316867    7446.7254    29163.321    -16551.67    9728.5253    7906.5451     8974.605    6390.6678    81.277645 
   99100    1243.2198   -107.81336    1.1248914   -106.68847   -11082.549    4.3472392    4.3472392    4.3472392   -11082.549   -11831.481   -12150.394    -9265.772    1724.4166   -24951.439   -3547.8321    82.156249 
   99200    775.41131   -107.39206   0.70160845   -106.69046   -2973.9225    4.3385993    4.3385993    4.3385993   -2973.9225    7803.3469   -17515.069    789.95492   -5.0895725    3261.4248    19940.248     81.66738 
   99300    942.31891   -107.53885   0.85262995   -106.68622    7103.7089      4.32716      4.32716      4.32716    7103.7089    27403.212   -4959.0336   -1133.0516    9719.4078    150.65299    -2266.455    81.023103 
   99400    954.39632   -107.55112   0.86355784   -106.68756   -13052.741    4.3460642    4.3460642    4.3460642   -13052.741   -16092.192   -13829.854   -9236.1761   -5691.7442   -25701.768   -2581.2097    82.089651 
   99500    689.73098   -107.31124   0.62408308   -106.68715    6942.8207    4.3395565    4.3395565    4.3395565    6942.8207    30695.684   -7379.6215   -2487.6001    2295.6905     22257.03    22441.907    81.721446 
   99600    980.93511   -107.57279    0.8875707   -106.68522   -2403.9527    4.3298714    4.3298714    4.3298714   -2403.9527   -7565.7588    7690.3533   -7336.4527    6801.6282   -25763.065   -3392.3437    81.175503 
   99700    817.08922   -107.42891    0.7393195   -106.68959   -6306.2838    4.3376849    4.3376849    4.3376849   -6306.2838   -14985.324   -7493.6917    3560.1638   -11436.389   -9141.5172    8029.6526    81.615755 
   99800    944.95555   -107.54445   0.85501564   -106.68943   -11254.189    4.3408428    4.3408428    4.3408428   -11254.189    9091.2605   -12495.283   -30358.546     12162.23    11071.557    18563.651    81.794137 
   99900    738.69431   -107.36048   0.66838614    -106.6921   -8585.1943    4.3386726    4.3386726    4.3386726   -8585.1943   -20672.576    967.96461   -6050.9717   -2915.1124   -31699.668   -8609.6382    81.671522 
  100000    1135.4825   -107.71548    1.0274085   -106.68807    169.21558     4.330225     4.330225     4.330225    169.21558    8820.7296   -15241.554    6928.4711    -3503.549    5136.1522    11320.212    81.195393 
Loop time of 21.5308 on 1 procs for 100000 steps with 8 atoms

Pair  time (%) = 6.6934 (31.0875)
Kspce time (%) = 5.2312 (24.2963)
Neigh time (%) = 0 (0)
Comm  time (%) = 1.03949 (4.82793)
Outpt time (%) = 0.0214081 (0.09943)
Other time (%) = 8.54532 (39.6888)

Nlocal:    8 ave 8 max 8 min
Histogram: 1 0 0 0 0 0 0 0 0 0
Nghost:    2189 ave 2189 max 2189 min
Histogram: 1 0 0 0 0 0 0 0 0 0
Neighs:    2344 ave 2344 max 2344 min
Histogram: 1 0 0 0 0 0 0 0 0 0

Total # of neighbors = 2344
Ave neighs/atom = 293
Neighbor list builds = 0
Dangerous builds = 0
unfix 20
unfix 21
print "seeds:5293418"
seeds:5293418
