# ['Ni']

107 atoms
1 atom types

    0.0000    10.5493 xlo xhi
    0.0000    10.5493 ylo yhi
    0.0000    10.5493 zlo zhi

    0.0000    -0.0000    -0.0000 xy xz yz

Atoms

1 1     1.7582     1.7582     0.0000
2 1     1.7582     0.0000     1.7582
3 1     0.0000     1.7582     1.7582
4 1     0.0000     0.0000     3.5164
5 1     1.7582     1.7582     3.5164
6 1     1.7582     0.0000     5.2746
7 1     0.0000     1.7582     5.2746
8 1     0.0000     0.0000     7.0329
9 1     1.7582     1.7582     7.0329
10 1     1.7582     0.0000     8.7911
11 1     0.0000     1.7582     8.7911
12 1     0.0000     3.5164     0.0000
13 1     1.7582     5.2746     0.0000
14 1     1.7582     3.5164     1.7582
15 1     0.0000     5.2746     1.7582
16 1     0.0000     3.5164     3.5164
17 1     1.7582     5.2746     3.5164
18 1     1.7582     3.5164     5.2746
19 1     0.0000     5.2746     5.2746
20 1     0.0000     3.5164     7.0329
21 1     1.7582     5.2746     7.0329
22 1     1.7582     3.5164     8.7911
23 1     0.0000     5.2746     8.7911
24 1     0.0000     7.0329     0.0000
25 1     1.7582     8.7911     0.0000
26 1     1.7582     7.0329     1.7582
27 1     0.0000     8.7911     1.7582
28 1     0.0000     7.0329     3.5164
29 1     1.7582     8.7911     3.5164
30 1     1.7582     7.0329     5.2746
31 1     0.0000     8.7911     5.2746
32 1     0.0000     7.0329     7.0329
33 1     1.7582     8.7911     7.0329
34 1     1.7582     7.0329     8.7911
35 1     0.0000     8.7911     8.7911
36 1     3.5164     0.0000     0.0000
37 1     5.2746     1.7582     0.0000
38 1     5.2746     0.0000     1.7582
39 1     3.5164     1.7582     1.7582
40 1     3.5164     0.0000     3.5164
41 1     5.2746     1.7582     3.5164
42 1     5.2746     0.0000     5.2746
43 1     3.5164     1.7582     5.2746
44 1     3.5164     0.0000     7.0329
45 1     5.2746     1.7582     7.0329
46 1     5.2746     0.0000     8.7911
47 1     3.5164     1.7582     8.7911
48 1     3.5164     3.5164     0.0000
49 1     5.2746     5.2746     0.0000
50 1     5.2746     3.5164     1.7582
51 1     3.5164     5.2746     1.7582
52 1     3.5164     3.5164     3.5164
53 1     5.2746     5.2746     3.5164
54 1     5.2746     3.5164     5.2746
55 1     3.5164     5.2746     5.2746
56 1     3.5164     3.5164     7.0329
57 1     5.2746     5.2746     7.0329
58 1     5.2746     3.5164     8.7911
59 1     3.5164     5.2746     8.7911
60 1     3.5164     7.0329     0.0000
61 1     5.2746     8.7911     0.0000
62 1     5.2746     7.0329     1.7582
63 1     3.5164     8.7911     1.7582
64 1     3.5164     7.0329     3.5164
65 1     5.2746     8.7911     3.5164
66 1     5.2746     7.0329     5.2746
67 1     3.5164     8.7911     5.2746
68 1     3.5164     7.0329     7.0329
69 1     5.2746     8.7911     7.0329
70 1     5.2746     7.0329     8.7911
71 1     3.5164     8.7911     8.7911
72 1     7.0329     0.0000     0.0000
73 1     8.7911     1.7582     0.0000
74 1     8.7911     0.0000     1.7582
75 1     7.0329     1.7582     1.7582
76 1     7.0329     0.0000     3.5164
77 1     8.7911     1.7582     3.5164
78 1     8.7911     0.0000     5.2746
79 1     7.0329     1.7582     5.2746
80 1     7.0329     0.0000     7.0329
81 1     8.7911     1.7582     7.0329
82 1     8.7911     0.0000     8.7911
83 1     7.0329     1.7582     8.7911
84 1     7.0329     3.5164     0.0000
85 1     8.7911     5.2746     0.0000
86 1     8.7911     3.5164     1.7582
87 1     7.0329     5.2746     1.7582
88 1     7.0329     3.5164     3.5164
89 1     8.7911     5.2746     3.5164
90 1     8.7911     3.5164     5.2746
91 1     7.0329     5.2746     5.2746
92 1     7.0329     3.5164     7.0329
93 1     8.7911     5.2746     7.0329
94 1     8.7911     3.5164     8.7911
95 1     7.0329     5.2746     8.7911
96 1     7.0329     7.0329     0.0000
97 1     8.7911     8.7911     0.0000
98 1     8.7911     7.0329     1.7582
99 1     7.0329     8.7911     1.7582
100 1     7.0329     7.0329     3.5164
101 1     8.7911     8.7911     3.5164
102 1     8.7911     7.0329     5.2746
103 1     7.0329     8.7911     5.2746
104 1     7.0329     7.0329     7.0329
105 1     8.7911     8.7911     7.0329
106 1     8.7911     7.0329     8.7911
107 1     7.0329     8.7911     8.7911
