LAMMPS (11 Aug 2017)
# ---- initialize simulations
clear
units metal
dimension 3
boundary p p p
atom_style atomic
atom_modify map array
# ---- create atoms
read_data /home/eragasa/repos/pypospack/examples/Ni__eam__born_exp_rose/preconditioning_3.5NN/rank_114/Ni_fcc.lmps_min_all/lammps.structure
  triclinic box = (0 0 0) to (3.5167 3.5167 3.5167) with tilt (0 -0 0)
  1 by 1 by 1 MPI processor grid
  reading atoms ...
  4 atoms
# ---- define interatomic potential
include potential.mod
mass 1 58.6934

group Ni type 1
4 atoms in group Ni

pair_style eam/alloy
pair_coeff * * /home/eragasa/repos/pypospack/examples/Ni__eam__born_exp_rose/preconditioning_3.5NN/rank_114/Ni_fcc.lmps_min_all/Ni.eam.alloy Ni

neighbor 1.0 bin
neigh_modify every 1 delay 0 check yes
# ---- define settings
compute eng all pe/atom
compute eatoms all reduce sum c_eng
# ---- run minimization
reset_timestep 0
fix 1 all box/relax aniso 0.0 vmax 0.001
thermo 10
thermo_style custom step pe xhi xlo yhi ylo zhi xy xz yz press pxx pyy pzz pxy pxz pyz c_eatoms
min_style cg
minimize 1e-25 1e-25 5000 10000
Neighbor list info ...
  update every 1 steps, delay 0 steps, check yes
  max neighbors/atom: 2000, page size: 100000
  master list distance cutoff = 5.64464
  ghost atom cutoff = 5.64464
  binsize = 2.82232, bins = 2 2 2
  1 neighbor lists, perpetual/occasional/extra = 1 0 0
  (1) pair eam/alloy, perpetual
      attributes: half, newton on
      pair build: half/bin/newton/tri
      stencil: half/bin/3d/newton/tri
      bin: standard
Per MPI rank memory allocation (min/avg/max) = 4.211 | 4.211 | 4.211 Mbytes
Step PotEng Xhi Xlo Yhi Ylo Zhi Xy Xz Yz Press Pxx Pyy Pzz Pxy Pxz Pyz c_eatoms 
       0   -17.821297       3.5167            0       3.5167            0       3.5167            0           -0            0    8318.1642    8318.1642    8318.1642    8318.1642 9.9691756e-12 7.9242165e-12 8.9466961e-12   -17.821297 
      10   -17.934854    3.5248059 -0.0081059239    3.5248059 -0.0081059239    3.5248059            0           -0            0   -12252.975   -12252.975   -12252.975   -12252.975 5.6852393e-10 7.0441501e-10 7.7601625e-10   -17.934854 
      20   -22.157624     3.535355 -0.018654987     3.535355 -0.018654987     3.535355            0           -0            0    161648.76    161648.76    161648.76    161648.76 2.8762491e-09 3.8074267e-09 3.7737458e-09   -22.157624 
      30   -22.758669    3.5529385 -0.036238487    3.5529385 -0.036238487    3.5529385            0           -0            0     127722.5     127722.5     127722.5     127722.5 3.2527417e-09 5.2796942e-09 4.6059669e-09   -22.758669 
      40   -23.455415     3.570522 -0.053821987     3.570522 -0.053821987     3.570522            0           -0            0    108941.89    108941.89    108941.89    108941.89 7.9427353e-09 1.3389209e-08 1.2565373e-08   -23.455415 
      50   -24.217704    3.5881055 -0.071405487    3.5881055 -0.071405487    3.5881055            0           -0            0    97722.323    97722.323    97722.323    97722.323 6.0621802e-09 8.6375647e-09 7.5161224e-09   -24.217704 
      60   -24.982397     3.605689 -0.088988987     3.605689 -0.088988987     3.605689            0           -0            0    93368.125    93368.125    93368.125    93368.125 8.3298869e-09 1.4742005e-08 1.1675244e-08   -24.982397 
      70   -25.696801    3.6232725  -0.10657249    3.6232725  -0.10657249    3.6232725            0           -0            0    91191.655    91191.655    91191.655    91191.655 6.3298567e-09 1.1259378e-08 9.6911486e-09   -25.696801 
      80   -26.339667     3.640856  -0.12415599     3.640856  -0.12415599     3.640856            0           -0            0    89420.697    89420.697    89420.697    89420.697 -4.0511327e-09 -7.94062e-09 -7.3207017e-09   -26.339667 
      90   -26.905778    3.6584395  -0.14173949    3.6584395  -0.14173949    3.6584395            0           -0            0    88510.349    88510.349    88510.349    88510.349 1.0858085e-08 1.9674202e-08 1.9246766e-08   -26.905778 
     100   -27.405123     3.676023  -0.15932299     3.676023  -0.15932299     3.676023            0           -0            0    87212.409    87212.409    87212.409    87212.409 7.615773e-09 1.584951e-08 1.504592e-08   -27.405123 
     110   -27.848149    3.6936065  -0.17690649    3.6936065  -0.17690649    3.6936065            0           -0            0    84871.465    84871.465    84871.465    84871.465 -5.2918083e-10 -9.0881056e-10 -9.3392747e-10   -27.848149 
     120   -28.245048      3.71119  -0.19448999      3.71119  -0.19448999      3.71119            0           -0            0    82222.277    82222.277    82222.277    82222.277 6.3951405e-09 1.3624008e-08 1.2546955e-08   -28.245048 
     130   -28.600161    3.7287735  -0.21207349    3.7287735  -0.21207349    3.7287735            0           -0            0    78520.163    78520.163    78520.163    78520.163 1.0986103e-09 2.7726832e-09 2.5176486e-09   -28.600161 
     140   -28.919877     3.746357  -0.22965699     3.746357  -0.22965699     3.746357            0           -0            0    74563.392    74563.392    74563.392    74563.392 4.4734241e-09 1.236612e-08 1.0061136e-08   -28.919877 
     150   -29.209261    3.7639405  -0.24724049    3.7639405  -0.24724049    3.7639405            0           -0            0     70190.16     70190.16     70190.16     70190.16 2.3737395e-09 6.7946139e-09 5.5445249e-09   -29.209261 
     160   -29.471267     3.781524  -0.26482399     3.781524  -0.26482399     3.781524            0           -0            0    66437.291    66437.291    66437.291    66437.291 4.1018823e-09 1.2669453e-08 1.0211244e-08   -29.471267 
     170   -29.709333    3.7991075  -0.28240749    3.7991075  -0.28240749    3.7991075            0           -0            0    62246.566    62246.566    62246.566    62246.566 5.0183577e-09 1.6732328e-08 1.2718231e-08   -29.709333 
     180   -29.926068     3.816691  -0.29999099     3.816691  -0.29999099     3.816691            0           -0            0    57696.864    57696.864    57696.864    57696.864 6.0461494e-09 1.9658351e-08  1.52564e-08   -29.926068 
     190   -30.123437    3.8342745  -0.31757449    3.8342745  -0.31757449    3.8342745            0           -0            0    53867.134    53867.134    53867.134    53867.134 4.8042743e-09 1.4440784e-08 1.2440271e-08   -30.123437 
     200   -30.303563     3.851858  -0.33515799     3.851858  -0.33515799     3.851858            0           -0            0    50219.439    50219.439    50219.439    50219.439 1.7293257e-09 5.6181123e-09 4.6153215e-09   -30.303563 
     210    -30.46802    3.8694415  -0.35274149    3.8694415  -0.35274149    3.8694415            0           -0            0    46501.992    46501.992    46501.992    46501.992 -1.0842881e-09 -4.0358381e-09 -3.3338793e-09    -30.46802 
     220   -30.617805     3.887025  -0.37032499     3.887025  -0.37032499     3.887025            0           -0            0    43308.609    43308.609    43308.609    43308.609 -1.0870307e-09 -4.2415086e-09 -3.4120804e-09   -30.617805 
     230   -30.754466    3.9046085  -0.38790849    3.9046085  -0.38790849    3.9046085            0           -0            0    40323.884    40323.884    40323.884    40323.884 4.3070672e-09 1.8259986e-08 1.4351233e-08   -30.754466 
     240   -30.879712     3.922192  -0.40549199     3.922192  -0.40549199     3.922192            0           -0            0    37260.647    37260.647    37260.647    37260.647 -7.1385992e-09 -3.1867958e-08 -2.415561e-08   -30.879712 
     250   -30.994439    3.9397755  -0.42307549    3.9397755  -0.42307549    3.9397755            0           -0            0    34572.809    34572.809    34572.809    34572.809 2.3089558e-09 1.1394909e-08 8.630421e-09   -30.994439 
     260   -31.099586     3.957359  -0.44065899     3.957359  -0.44065899     3.957359            0           -0            0    31929.941    31929.941    31929.941    31929.941 1.5741148e-09 7.2993449e-09 5.4536316e-09   -31.099586 
     270   -31.195854    3.9749425  -0.45824249    3.9749425  -0.45824249    3.9749425            0           -0            0    29345.838    29345.838    29345.838    29345.838 -4.1952557e-09 -1.9738488e-08 -1.5244647e-08   -31.195854 
     280    -31.28389     3.992526  -0.47582599     3.992526  -0.47582599     3.992526            0           -0            0    26767.281    26767.281    26767.281    26767.281 1.7156837e-09 7.2456662e-09 5.681261e-09    -31.28389 
     290   -31.364516    4.0101095  -0.49340949    4.0101095  -0.49340949    4.0101095            0           -0            0    24681.221    24681.221    24681.221    24681.221 2.1480593e-09 8.9677892e-09 6.7319124e-09   -31.364516 
     300   -31.438105     4.027693  -0.51099299     4.027693  -0.51099299     4.027693            0           -0            0    22505.402    22505.402    22505.402    22505.402 5.5662803e-09 2.2103555e-08 1.6931804e-08   -31.438105 
     310   -31.505324    4.0452765  -0.52857649    4.0452765  -0.52857649    4.0452765            0           -0            0    20287.807    20287.807    20287.807    20287.807 -4.424728e-09 -1.7781622e-08 -1.3914631e-08   -31.505324 
     320   -31.566563      4.06286  -0.54615999      4.06286  -0.54615999      4.06286            0           -0            0     18795.26     18795.26     18795.26     18795.26 1.1781345e-08 4.808575e-08 3.7073729e-08   -31.566563 
     330   -31.622306    4.0804435  -0.56374349    4.0804435  -0.56374349    4.0804435            0           -0            0    17126.072    17126.072    17126.072    17126.072 7.0396738e-09 2.8813961e-08 2.1652202e-08   -31.622306 
     340   -31.673396     4.098027  -0.58132699     4.098027  -0.58132699     4.098027            0           -0            0    16044.884    16044.884    16044.884    16044.884 5.0041717e-09 2.0009743e-08 1.508977e-08   -31.673396 
     350   -31.720595    4.1156105  -0.59891049    4.1156105  -0.59891049    4.1156105            0           -0            0    14684.075    14684.075    14684.075    14684.075 1.0915301e-08 4.3525406e-08 3.2940691e-08   -31.720595 
     360   -31.764178     4.133194  -0.61649399     4.133194  -0.61649399     4.133194            0           -0            0    13442.314    13442.314    13442.314    13442.313 1.5576814e-08 5.9498424e-08 4.4597672e-08   -31.764178 
     370   -31.804582    4.1507775  -0.63407749    4.1507775  -0.63407749    4.1507775            0           -0            0    12439.593    12439.593    12439.593    12439.592 7.7910703e-09 2.9261268e-08 2.2050276e-08   -31.804582 
     380   -31.842036     4.168361  -0.65166099     4.168361  -0.65166099     4.168361            0           -0            0    11431.932    11431.933    11431.933    11431.932 5.7865246e-09 2.1852306e-08 1.6513526e-08   -31.842036 
     390   -31.876362    4.1859445  -0.66924449    4.1859445  -0.66924448    4.1859445            0           -0            0    10423.219     10423.22    10423.219    10423.217 1.792517e-08 6.7285248e-08 5.091426e-08   -31.876362 
     400    -31.90823     4.203528  -0.68682799     4.203528  -0.68682798     4.203528            0           -0            0    9500.4038    9500.4061    9500.4043    9500.4011 5.2686457e-08 2.0181513e-07 1.523564e-07    -31.90823 
     410    -31.93744    4.2211115  -0.70441149    4.2211115  -0.70441148    4.2211115            0           -0            0    8902.3392    8902.3435      8902.34     8902.334 1.3974697e-08 5.3463521e-08 4.0199792e-08    -31.93744 
     420   -31.964508     4.238695  -0.72199499     4.238695  -0.72199497    4.2386949            0           -0            0    8148.9291    8148.9376    8148.9307    8148.9191 1.5118679e-08 5.772295e-08 4.3522619e-08   -31.964508 
     430   -31.989172    4.2562785  -0.73957849    4.2562784  -0.73957845    4.2562784            0           -0            0    7450.1428    7450.1601    7450.1461    7450.1223 1.8522302e-08 7.0831652e-08 5.3421177e-08   -31.989172 
     440   -32.011922     4.273862  -0.75716199    4.2738619   -0.7571619    4.2738617            0           -0            0    6637.3572    6637.3944    6637.3644    6637.3129 7.8690982e-08 3.0001802e-07 2.2620364e-07   -32.011922 
     450   -32.032749    4.2914455  -0.77474549    4.2914453  -0.77474528    4.2914449            0           -0            0    6157.0817    6157.1666     6157.098    6156.9806 4.1819648e-08 1.5895997e-07 1.1990174e-07   -32.032749 
     460   -32.051761     4.309029  -0.79232899    4.3090285  -0.79232846    4.3090276            0           -0            0    5602.2153    5602.4212    5602.2548    5601.9699 1.6577072e-08 6.3177005e-08 4.760601e-08   -32.051761 
     470   -32.069066    4.3266125  -0.80991249    4.3266111   -0.8099111    4.3266087            0           -0            0     5076.282    5076.8163    5076.3846    5075.6453 4.0862717e-09 1.5497841e-08   1.1679e-08   -32.069066 
     480   -32.084913     4.344196  -0.82749599     4.344192  -0.82749198    4.3441851            0           -0            0    4601.2865    4602.7931    4601.5756    4599.4907 -1.8744028e-07 -7.158303e-07 -5.406552e-07   -32.084913 
     490   -32.099134    4.3617795  -0.84507949    4.3617671  -0.84506706    4.3617458            0           -0            0    4130.9005    4135.4761     4131.778    4125.4472 2.2213144e-08 8.5067274e-08 6.422101e-08   -32.099134 
     500   -32.112035     4.379363  -0.86266299    4.3793204  -0.86262044    4.3792476            0           -0            0    3660.6482    3675.9892    3663.5851    3642.3703 2.0332882e-07 7.7985033e-07 5.8999596e-07   -32.112035 
     510   -32.123682    4.3969465  -0.88024649    4.3967839  -0.88008394    4.3965062            0           -0            0    3315.1806    3372.5768    3326.0899    3246.8753 2.6630951e-08 1.0108264e-07 7.6050168e-08   -32.123682 
     520   -32.133825      4.41453  -0.89782999    4.4138585  -0.89715853    4.4127192            0           -0            0    2932.2765    3164.2338    2975.0298    2657.5659 2.9349633e-07 1.1304059e-06 8.5726797e-07   -32.133825 
     530   -32.142239    4.4321135  -0.91541349     4.429406  -0.91270596    4.4249359            0           -0            0    2585.8244    3496.5621    2733.2267    1527.6844 -2.8351477e-07 -1.1412646e-06 -8.882968e-07   -32.142239 
     540   -32.149997     4.449697  -0.93299699    4.4412942  -0.92459417     4.428412            0           -0            0    2467.0639    5192.4001    2747.8865   -539.09484 3.7372629e-07 1.4701396e-06 1.1296341e-06   -32.149997 
     550   -32.161482    4.4672805  -0.95058049    4.4488305   -0.9321305    4.4237677            0           -0            0    2470.4095     8216.261     2544.069   -3349.1014 2.1511389e-07 8.3464308e-07 6.2609655e-07   -32.161482 
     560   -32.180349     4.484864  -0.96816399    4.4528833  -0.93618329     4.415322            0           -0            0    2513.7698     12129.77    1688.4255    -6276.886 2.6848771e-07 1.1313812e-06 8.9389056e-07   -32.180349 
     570   -32.207774    4.5024475  -0.98574749    4.4543903   -0.9376903    4.4059038            0           -0            0    2844.4859    16912.946    358.00998   -8737.4981 1.3134762e-07 4.1760309e-07 9.0791961e-08   -32.207774 
     580   -32.244352     4.520031    -1.003331    4.4539057  -0.93720565    4.3965112            0           -0            0    3144.5073    22163.372   -1695.3326   -11034.517 3.7203973e-07 1.8868923e-06 1.8332393e-06   -32.244352 
     590   -32.290558    4.5376145   -1.0209145    4.4518933  -0.93519334    4.3875465            0           -0            0    3694.0842    28059.864   -4051.0744   -12926.537 6.3160826e-08 1.7247038e-08 -9.0095135e-07   -32.290558 
     600   -32.346753     4.555198    -1.038498    4.4487663  -0.93206633    4.3791734            0           -0            0    4199.3858    34235.135   -6864.4943   -14772.483 3.026343e-07 1.680038e-06 1.7892588e-06   -32.346753 
     610   -32.413368    4.5727815   -1.0560815    4.4447927  -0.92809269     4.371351            0           -0            0     5111.003    40998.597   -9520.2368   -16145.351 6.355612e-08  1.09874e-07 -1.4996698e-06   -32.413368 
     620   -32.490456     4.590365    -1.073665    4.4402422  -0.92354223    4.3640751            0           -0            0    5928.1019     47803.33   -12427.923   -17591.102 2.4977708e-07 1.5271776e-06 1.8843583e-06   -32.490456 
     630   -32.578021    4.6079485   -1.0912485    4.4352772  -0.91857718    4.3572666            0           -0            0    7048.8669    54882.503   -15043.417   -18692.485 8.4861155e-08 4.1727013e-07 -1.398172e-06   -32.578021 
     640   -32.675699     4.625532    -1.108832    4.4300567   -0.9133567    4.3508902            0           -0            0    8361.5317    62023.826    -17386.37   -19552.861 4.6067112e-08 2.1240514e-07 -2.4792638e-06   -32.675699 
     650   -32.782943    4.6431155   -1.1264155    4.4246988  -0.90799882    4.3449072            0           -0            0    9677.1403    68984.161   -19595.793   -20356.948 3.8481287e-08 2.348356e-07 -2.6367137e-06   -32.782943 
     660   -32.899012     4.660699    -1.143999    4.4192965  -0.90259646    4.3392859            0           -0            0    11156.649     75786.69   -21415.199   -20901.543 3.006747e-09 4.3013765e-08 -3.9853699e-06   -32.899012 
     670   -33.023121    4.6782825   -1.1615825    4.4139011  -0.89720114     4.333981            0           -0            0    12873.735     82394.77   -22698.048   -21075.517 5.5230762e-08 4.9939159e-07 -8.3503753e-07   -33.023121 
     680   -33.154237     4.695866    -1.179166     4.408585  -0.89188504    4.3289875            0           -0            0    14467.219    88502.624   -23846.073   -21254.893 1.8757005e-08 2.8532124e-07 -2.0929979e-06   -33.154237 
     690   -33.291334    4.7134495   -1.1967495    4.4033905  -0.88669051    4.3242877            0           -0            0    16164.525    94199.594   -24547.673   -21158.347 -7.6783939e-09 1.3911627e-07 -3.0617521e-06   -33.291334 
     700   -33.433397     4.731033    -1.214333    4.3983453  -0.88164534    4.3198629            0           -0            0    17926.378    99419.881   -24831.697   -20809.052 -6.5294029e-09 1.8763302e-07 -1.764658e-06   -33.433397 
     710   -33.579413    4.7486165   -1.2319165    4.3934724  -0.87677236    4.3156999            0           -0            0    19590.328    104056.14   -24903.231   -20381.924 -3.7521461e-08 -6.0311399e-09 -3.7836377e-06   -33.579413 
     720    -33.72837       4.7662      -1.2495    4.3887962  -0.87209617    4.3117942            0           -0            0    21406.852    108212.44   -24423.964   -19567.925 -5.1746096e-08 -8.4420234e-08 -3.9791704e-06    -33.72837 
     730   -33.879324    4.7837835   -1.2670835    4.3843356  -0.86763558    4.3081423            0           -0            0    22888.318    111669.87   -24060.468   -18944.447 -3.5175889e-08 5.2726995e-08 -1.3729988e-07   -33.879324 
     740   -34.031442     4.801367    -1.284667    4.3800986  -0.86339856    4.3047352            0           -0            0    24530.033    114652.24   -23147.609   -17914.531 -6.5926839e-08 -1.5414745e-07 -3.1272052e-06   -34.031442 
     750   -34.183966    4.8189505   -1.3022505    4.3760899  -0.85938988    4.3015646            0           -0            0     26133.42    117089.16   -21970.244   -16718.655 -7.553462e-08 -2.1281432e-07 -3.7133567e-06   -34.183966 
     760    -34.33624     4.836534    -1.319834    4.3723112  -0.85561124    4.2986225            0           -0            0    27505.122     118941.5   -20822.448   -15603.689 -5.8945503e-08 -9.4631807e-08 1.0494094e-06    -34.33624 
     770   -34.487678    4.8541175   -1.3374175    4.3687683   -0.8520683    4.2959065            0           -0            0    28716.806    120269.83   -19627.021   -14492.397 -4.6835138e-08 -1.3028287e-08 6.1345739e-06   -34.487678 
     780   -34.637961     4.871701    -1.355001    4.3654328  -0.84873282    4.2933855            0           -0            0    29623.329    121082.85   -18625.899   -13586.967 -8.6883825e-08 -2.8816975e-07 -3.7901592e-06   -34.637961 
     790   -34.786669    4.8892845   -1.3725845    4.3622962   -0.8455962    4.2910476            0           -0            0    30608.767    121525.44   -17284.515   -12414.625 -8.7453365e-08 -2.9530479e-07 -3.69975e-06   -34.786669 
     800   -34.933386     4.906868    -1.390168    4.3593693  -0.84266935    4.2888991            0           -0            0    31429.108     121559.2   -15976.712   -11295.169 -7.4588777e-08 -2.1473519e-07 3.2435407e-06   -34.933386 
     810   -35.077828    4.9244515   -1.4077515    4.3566441  -0.83994406    4.2869303            0           -0            0    32104.566    121227.93    -14696.27   -10217.964 -8.8761667e-08 -3.17005e-07 -3.0157241e-06   -35.077828 
     820   -35.219722     4.942035    -1.425335    4.3541238  -0.83742381    4.2851422            0           -0            0    32650.146    120567.53   -13440.617   -9176.4763 -8.8348123e-08 -3.2089882e-07 -2.5275091e-06   -35.219722 
     830   -35.358884    4.9596185   -1.4429185    4.3517992  -0.83509915     4.283525            0           -0            0    33111.845    119646.59   -12173.653   -8137.4034 -8.1784585e-08 -2.9207749e-07 2.8489452e-07   -35.358884 
     840    -35.49514     4.977202    -1.460502    4.3496698  -0.83296977     4.282077            0           -0            0    33314.215    118457.94   -11175.529   -7339.7671 -8.2095086e-08 -2.9875309e-07 -2.2751889e-07    -35.49514 
     850   -35.628403    4.9947855   -1.4780855    4.3477193  -0.83101928    4.2807831            0           -0            0    33698.908    117116.77   -9801.4647   -6218.5814 -8.258324e-08 -3.1008818e-07 -1.8382029e-06   -35.628403 
     860   -35.758563     5.012369    -1.495669    4.3459462  -0.82924622    4.2796416            0           -0            0    33878.476    115556.98   -8637.8746   -5283.6742 -8.1073362e-08 -3.0859789e-07 -1.931336e-06   -35.758563 
     870   -35.885576    5.0299525   -1.5132525    4.3443425  -0.82764251    4.2786451            0           -0            0    33864.177    113810.39   -7684.4952   -4533.3662 -7.8846058e-08 -3.0243972e-07 -1.6417917e-06   -35.885576 
     880   -36.009432     5.047536    -1.530836    4.3428911  -0.82619111    4.2777783            0           -0            0    33810.037    111923.95   -6719.9236   -3773.9144 -7.5884476e-08 -2.9212717e-07 -1.0864312e-06   -36.009432 
     890   -36.130108    5.0651195   -1.5484195    4.3415858  -0.82488581    4.2770356            0           -0            0    33562.534    109902.06   -5993.2704   -3221.1917 -7.3292074e-08 -2.8432663e-07 -8.9469219e-07   -36.130108 
     900   -36.247606     5.082703    -1.566003    4.3404153  -0.82371526     4.276407            0           -0            0    33264.092    107781.57   -5296.1222   -2693.1749 -7.0421905e-08 -2.7474129e-07 -6.2068965e-07   -36.247606 
     910   -36.361938    5.1002865   -1.5835865    4.3393684  -0.82266843    4.2758827            0           -0            0    33058.734    105592.38   -4413.8602   -2002.3215 -6.7506365e-08 -2.6374524e-07 -3.9738502e-07   -36.361938 
     920   -36.473131      5.11787     -1.60117    4.3384342  -0.82173417    4.2754531            0           -0            0     32618.42    103322.77   -3866.3735   -1601.1322 -6.4807115e-08 -2.5431918e-07 -3.9528598e-07   -36.473131 
     930   -36.581199    5.1354535   -1.6187535    4.3376119  -0.82091192    4.2751177            0           -0            0     32148.88    101003.42    -3340.345   -1216.4315 -6.2172002e-08 -2.4493425e-07 -4.4163643e-07   -36.581199 
     940   -36.686175     5.153037    -1.636337    4.3368917  -0.82019172    4.2748678            0           -0            0    31717.633    98651.558   -2736.9128   -761.74533 -5.9243497e-08 -2.3424512e-07 -3.4407929e-07   -36.686175 
     950   -36.788094    5.1706205   -1.6539205    4.3362739  -0.81957389    4.2747041            0           -0            0      30914.2    96252.102   -2705.6679   -803.83305 -5.5961228e-08 -2.1908338e-07 7.0938276e-07   -36.788094 
     960   -36.887025     5.188204    -1.671504    4.3357243   -0.8190243    4.2745962            0           -0            0    30355.578    93858.391   -2286.6802   -504.97809 -5.4557053e-08 -2.1619679e-07 -2.9415325e-07   -36.887025 
     970   -36.982986    5.2057875   -1.6890875    4.3352611  -0.81856114    4.2745607            0           -0            0     29804.02    91458.496   -1854.5336   -191.90157 -5.1605886e-08 -2.0459058e-07 -4.2696323e-08   -36.982986 
     980   -37.076043     5.223371    -1.706671     4.334863  -0.81816297    4.2745785            0           -0            0    29232.483    89061.785   -1457.5412    93.205709 -4.8873643e-08 -1.9312848e-07 2.0244016e-07   -37.076043 
     990    -37.16624    5.2409545   -1.7242545    4.3345311  -0.81783111    4.2746512            0           -0            0    28745.882    86677.799   -932.87594    492.72159 -4.6305618e-08 -1.8324924e-07 1.2103539e-07    -37.16624 
    1000   -37.253637     5.258538    -1.741838    4.3342538  -0.81755382    4.2747684            0           -0            0    28054.094    84302.329   -742.54848    602.49995 -4.4408889e-08 -1.7595926e-07 -9.0930539e-08   -37.253637 
    1010   -37.338275    5.2761215   -1.7594215    4.3340442   -0.8173442    4.2749422            0           -0            0     27392.41    81946.951   -516.11985    746.39914 -4.2243383e-08 -1.6697455e-07 -6.2415038e-08   -37.338275 
    1020    -37.42021     5.293705    -1.777005    4.3339039  -0.81720386    4.2751742            0           -0            0    26603.748    79610.374   -504.11095    704.98106 -4.0226647e-08 -1.5909469e-07 -3.7582047e-08    -37.42021 
    1030   -37.499525    5.3112885   -1.7945885    4.3337932   -0.8170932    4.2754291            0           -0            0    26013.534    77312.052   -196.39876     924.9484 -3.8029026e-08 -1.4989985e-07 1.1712118e-08   -37.499525 
    1040   -37.576268     5.328872    -1.812172    4.3337232  -0.81702325     4.275717            0           -0            0    25230.199     75041.65   -213.56453    862.51086 -3.6239279e-08 -1.4313475e-07 -3.1808642e-08   -37.576268 
    1050   -37.650475    5.3464555   -1.8297555    4.3337369  -0.81703686    4.2760767            0           -0            0    24659.897    72805.271    90.483275    1083.9379 -3.4048335e-08 -1.3426573e-07 2.2114529e-08   -37.650475 
    1060   -37.722257     5.364039    -1.847339    4.3337385  -0.81703848    4.2764226            0           -0            0    23868.521    70609.175    18.631716    977.75693 -3.2577215e-08 -1.2808211e-07 -5.1229325e-11   -37.722257 
    1070   -37.791619    5.3816225   -1.8649225    4.3338402   -0.8171402    4.2768554            0           -0            0    23343.635    68449.672    353.16434    1228.0679 -2.9711275e-08 -1.2001587e-07 1.0492593e-08   -37.791619 
    1080   -37.858685     5.399206    -1.882506    4.3339069  -0.81720685    4.2772502            0           -0            0     22672.84    66344.941    432.94024    1240.6379 -2.8186269e-08 -1.1374266e-07 -5.3012553e-09   -37.858685 
    1090    -37.92346    5.4167895   -1.9000895      4.33409  -0.81738999    4.2777399            0           -0            0    22056.502    64273.153    580.88861    1315.4636 -2.6596477e-08 -1.0721032e-07 -1.1749191e-08    -37.92346 
    1100   -37.986059     5.434373    -1.917673    4.3342455  -0.81754555    4.2781951            0           -0            0    21339.933    62252.572    538.78085    1228.4461 -2.5334689e-08 -9.8210272e-08 -5.0248178e-09   -37.986059 
    1110   -38.046502    5.4519565   -1.9352565    4.3345016  -0.81780163    4.2787358            0           -0            0    20830.891    60278.038    792.35955    1422.2754 -2.3736663e-08  -9.1755e-08 1.333911e-10   -38.046502 
    1120   -38.104881      5.46954     -1.95284     4.334771  -0.81807104    4.2792878            0           -0            0    20037.437    58347.203     567.9745    1197.1322 -2.274191e-08 -8.7669915e-08 -3.353879e-09   -38.104881 
    1130   -38.161255    5.4871235   -1.9704235    4.3350466  -0.81834662    4.2798448            0           -0            0    19512.117    56467.231     743.7378    1325.3826 -2.1370334e-08 -8.2035266e-08 -2.7331781e-09   -38.161255 
    1140   -38.215654     5.504707    -1.988007    4.3354511  -0.81875114    4.2805174            0           -0            0    19031.349    54622.308      971.196    1500.5446 -1.9951188e-08 -7.6345261e-08 1.0637559e-10   -38.215654 
    1150   -38.268154    5.5222905   -2.0055905     4.335902  -0.81920205    4.2812317            0           -0            0    17963.465    52816.609    240.66156    833.12519 -1.9695878e-08 -7.492798e-08 1.4932159e-08   -38.268154 
    1160   -38.318844     5.539874    -2.023174    4.3362371  -0.81953705    4.2818417            0           -0            0    17825.448    51078.292    956.78696    1441.2667 -1.7950584e-08 -6.7781318e-08 2.2153446e-09   -38.318844 
    1170   -38.367728    5.5574575   -2.0407575    4.3366951  -0.81999506    4.2825627            0           -0            0    17216.641    49371.998     904.4491    1373.4758 -1.6963176e-08 -6.3982545e-08 6.0572576e-09   -38.367728 
    1180   -38.414873     5.575041    -2.058341     4.337236  -0.82053601    4.2833589            0           -0            0    16750.246    47706.648    1056.8524    1487.2385 -1.5855154e-08 -5.9626221e-08 2.0499568e-09   -38.414873 
    1190    -38.46036    5.5926245   -2.0759245    4.3376935  -0.82099351    4.2840807            0           -0            0    16119.979    46094.668    919.14619    1346.1243 -1.5095525e-08 -5.6544992e-08 9.9838687e-10    -38.46036 
    1200   -38.504211     5.610208    -2.093508    4.3382491  -0.82154913    4.2848916            0           -0            0    15675.379    44521.519    1056.2448    1448.3735 -1.4084871e-08 -5.2602308e-08 -2.2261439e-10   -38.504211 
    1210   -38.546481    5.6277915   -2.1110915    4.3388798  -0.82217976    4.2857713            0           -0            0    15135.319    42987.633    1019.8963    1398.4269 -1.3353599e-08 -4.9504778e-08 7.7883969e-10   -38.546481 
    1220   -38.587224     5.645375    -2.128675    4.3395621  -0.82286208    4.2866988            0           -0            0    14717.536     41495.61    1155.6871    1501.3103 -1.244495e-08 -4.5935464e-08 -1.9449565e-09   -38.587224 
    1230   -38.626496    5.6629585   -2.1462585    4.3402295  -0.82352952    4.2876144            0           -0            0    13965.211    40048.045    734.57611    1113.0127 -1.217826e-08 -4.4581441e-08 -1.3835575e-09   -38.626496 
    1240   -38.664351     5.680542    -2.163842    4.3408453  -0.82414534     4.288485            0           -0            0    13705.718    38649.503    1072.0073    1395.6452 -1.1162894e-08 -4.0534392e-08 -3.6341508e-10   -38.664351 
    1250    -38.70081    5.6981255   -2.1814255    4.3416182  -0.82491819    4.2894992            0           -0            0    13289.597    37282.178    1143.0227    1443.5909 -1.0392467e-08 -3.7648924e-08 -2.6914283e-09    -38.70081 
    1260   -38.735928     5.715709    -2.199009    4.3424611  -0.82576111    4.2905786            0           -0            0    12851.217    35952.489    1158.2685     1442.893 -9.7034355e-09 -3.5121161e-08 -1.1964073e-09   -38.735928 
    1270    -38.76975    5.7332925   -2.2165925     4.343337  -0.82663698    4.2916901            0           -0            0    12389.354     34662.29    1114.8544    1390.9185 -9.1622768e-09 -3.3028037e-08 1.5951756e-10    -38.76975 
    1280    -38.80233     5.750876    -2.234176    4.3441463  -0.82744635    4.2927438            0           -0            0    11721.332     33416.34     719.5541    1028.1026 -8.9521706e-09 -3.227502e-08 -3.4036434e-09    -38.80233 
    1290    -38.83371    5.7684595   -2.2517595    4.3449536  -0.82825355    4.2937983            0           -0            0    11571.222     32211.02    1126.6581    1375.9878 -8.0418484e-09 -2.8744998e-08 3.7415547e-09    -38.83371 
    1300   -38.863909     5.786043    -2.269343    4.3459235  -0.82922351    4.2950024            0           -0            0     11143.93    31034.564    1077.0776    1320.1489 -7.6134258e-09 -2.6971346e-08 -2.7397126e-10   -38.863909 
    1310   -38.892984    5.8036265   -2.2869265    4.3468507  -0.83015071    4.2961709            0           -0            0    10779.095    29898.546    1105.1531     1333.585 -7.1035857e-09 -2.5061033e-08 2.9524234e-09   -38.892984 
    1320   -38.920964      5.82121     -2.30451    4.3479044  -0.83120436    4.2974567            0           -0            0    10423.436     28793.03    1131.4177    1345.8601 -6.6127152e-09 -2.3268884e-08 -9.1649347e-10   -38.920964 
    1330   -38.947889    5.8387935   -2.3220935    4.3490078  -0.83230776    4.2987909            0           -0            0    10059.845    27721.465    1126.8367    1331.2345 -6.22163e-09 -2.170119e-08 1.2078755e-09   -38.947889 
    1340   -38.973795     5.856377    -2.339677    4.3501459  -0.83344586    4.3001599            0           -0            0     9699.854     26683.84    1109.7747    1305.9475 -5.8373087e-09 -2.0251089e-08 1.3699417e-09   -38.973795 
    1350   -38.998719    5.8739605   -2.3572605     4.351323  -0.83462296    4.3015678            0           -0            0    9364.7296    25679.165    1114.5882    1300.4359 -5.4807615e-09 -1.8872376e-08 3.7294165e-09   -38.998719 
    1360   -39.022692     5.891544    -2.374844    4.3525596  -0.83585955    4.3030334            0           -0            0    9030.5964     24705.74    1104.2292    1281.8202 -5.1612401e-09 -1.758235e-08 6.2146552e-10   -39.022692 
    1370    -39.04577    5.9091275   -2.3924275    4.3536318  -0.83693177    4.3043543            0           -0            0    8559.5374    23771.926    855.02706    1051.6592 -5.0378108e-09 -1.7160589e-08 4.0001719e-09    -39.04577 
    1380   -39.067951     5.926711    -2.410011    4.3548672  -0.83816716    4.3058269            0           -0            0    8395.7967    22863.443    1080.7344    1243.2129 -4.499749e-09 -1.5260781e-08 -8.1882348e-10   -39.067951 
    1390   -39.089277    5.9442945   -2.4275945    4.3562175  -0.83951747    4.3074078            0           -0            0    8086.6635     21981.56    1061.1098    1217.3209 -4.2306424e-09 -1.4231651e-08 -2.8585625e-10   -39.089277 
    1400   -39.109779     5.961878    -2.445178    4.3576041  -0.84090413    4.3090261            0           -0            0    7779.9897    21128.819    1029.8114    1181.3386 -3.9883229e-09 -1.3298698e-08 -1.7805663e-09   -39.109779 
    1410   -39.129488    5.9794615   -2.4627615    4.3590067  -0.84230666    4.3106634            0           -0            0    7512.2694    20305.165    1044.8538    1186.7897 -3.7153589e-09 -1.2273992e-08 7.9069607e-10   -39.129488 
    1420    -39.14843     5.997045    -2.480345    4.3604967  -0.84379669    4.3123847            0           -0            0    7237.3628    19507.331    1034.6796    1170.0778 -3.50477e-09 -1.1389935e-08 2.2532426e-09    -39.14843 
    1430   -39.166633    6.0146285   -2.4979285     4.362039  -0.84533899    4.3141582            0           -0            0    6971.2637    18735.893    1024.3966    1153.5018 -3.2759072e-09 -1.0576635e-08 1.1231247e-09   -39.166633 
    1440   -39.184123     6.032212    -2.515512     4.363634  -0.84693399    4.3159845            0           -0            0    6712.6144    17990.139    1012.2321    1135.4723 -3.0582787e-09 -9.8127643e-09 9.8892786e-10   -39.184123 
    1450   -39.200926    6.0497955   -2.5330955    4.3652829  -0.84858288    4.3178648            0           -0            0    6463.7458    17269.348    1002.2762    1119.6132 -2.8421713e-09 -9.0799618e-09 1.8441792e-10   -39.200926 
    1460   -39.217065     6.067379    -2.550679    4.3669852  -0.85028519    4.3197989            0           -0            0    6217.3342    16572.854    983.25907    1095.8895 -2.6654819e-09 -8.4361398e-09 5.571227e-10   -39.217065 
    1470   -39.232567    6.0849625   -2.5682625    4.3686724  -0.85197237    4.3217247            0           -0            0    5821.0648    15901.771    712.79086    848.63232 -2.7124786e-09 -8.5809711e-09 -2.9729452e-08   -39.232567 
    1480   -39.247468     6.102546    -2.585846    4.3702773  -0.85357729    4.3235816            0           -0            0    5758.7604    15257.071    958.40489    1060.8049 -2.3543714e-09 -7.2104026e-09 -2.2511023e-10   -39.247468 
    1490   -39.261762    6.1201295   -2.6034295    4.3721405  -0.85544054    4.3256783            0           -0            0    5538.6714    14629.205    944.58418    1042.2252 -2.2120593e-09 -6.6817094e-09 -2.8078638e-10   -39.261762 
    1500   -39.275484     6.137713    -2.621013    4.3740613  -0.85736134    4.3278329            0           -0            0    5325.5223    14022.933    930.27124    1023.3626 -2.0647781e-09 -6.1821061e-09 1.1618243e-09   -39.275484 
    1510   -39.288654    6.1552965   -2.6385965    4.3760406  -0.85934062    4.3300465            0           -0            0    5118.5509    13437.618    914.59875    1003.4363 -1.9377979e-09 -5.7128771e-09 3.2544676e-10   -39.288654 
    1520   -39.301292      6.17288     -2.65618    4.3780753  -0.86137526    4.3323163            0           -0            0    4916.9711    12872.721     896.6077    981.58514 -1.7951377e-09 -5.2877036e-09 -1.500422e-10   -39.301292 
    1530   -39.313417    6.1904635   -2.6737635    4.3801665  -0.86346646    4.3346435            0           -0            0    4724.6998    12327.615    882.84757     963.6369 -1.6918116e-09 -4.9098094e-09 -2.2327865e-10   -39.313417 
    1540   -39.325048     6.208047    -2.691347     4.382325  -0.86562504    4.3370379            0           -0            0    4538.0564      11801.5    867.90732    944.76168 -1.5681729e-09 -4.5219283e-09 1.4428151e-10   -39.325048 
    1550   -39.336203    6.2256305   -2.7089305    4.3845447  -0.86784465     4.339494            0           -0            0     4356.054    11293.945    850.45204    923.76527 -1.4718186e-09 -4.1686537e-09 6.8552091e-10   -39.336203 
    1560   -39.346899     6.243214    -2.726514    4.3868242   -0.8701242    4.3420107            0           -0            0    4180.6515    10804.413    833.87477    903.66718 -1.3952744e-09 -3.8842285e-09 5.7950883e-10   -39.346899 
    1570   -39.357154    6.2607975   -2.7440975     4.389129  -0.87242903    4.3445567            0           -0            0    4007.7814    10332.945    811.70013    878.69859 -1.3063562e-09 -3.5912206e-09 -3.8432647e-09   -39.357154 
    1580   -39.366983     6.278381    -2.761681    4.3915486  -0.87484864    4.3472133            0           -0            0    3848.9739    9877.4758      803.321    866.12482 -1.2170684e-09 -3.2920288e-09 -6.4646329e-10   -39.366983 
    1590   -39.376402    6.2959645   -2.7792645      4.39399  -0.87728995     4.349896            0           -0            0    3644.5846    9439.0383    713.61742    781.09794 -1.1999767e-09 -3.2356283e-09 1.8392648e-08   -39.376402 
    1600   -39.385424     6.313548    -2.796848    4.3965234  -0.87982344    4.3526688            0           -0            0     3536.567    9016.0086    768.50416    825.18836  -1.0861e-09 -2.8272967e-09 -8.1034611e-10   -39.385424 
    1610   -39.394066    6.3311315   -2.8144315    4.3991426  -0.88244256    4.3555258            0           -0            0    3388.3433    8608.0284    751.65179    805.34983 -1.0221483e-09 -2.6124742e-09 -3.4477038e-10   -39.394066 
    1620   -39.402339     6.348715    -2.832015     4.401833    -0.885133     4.358454            0           -0            0    3244.7951     8214.852    734.34077     785.1924 -9.6024607e-10 -2.4030927e-09 -1.9067061e-10   -39.402339 
    1630   -39.410259    6.3662985   -2.8495985    4.4045946   -0.8878946    4.3614532            0           -0            0    3105.9508    7836.0207    716.85999    764.97156 -9.0522941e-10 -2.2333356e-09 -5.9795533e-10   -39.410259 
    1640   -39.417836     6.383882    -2.867182    4.4074246  -0.89072457    4.3645209            0           -0            0     2971.282    7471.1174    698.59324    744.13539 -8.5650936e-10 -2.0679811e-09 4.5074172e-10   -39.417836 
    1650   -39.425085    6.4014655   -2.8847655     4.410331  -0.89363099    4.3676644            0           -0            0    2842.0885    7119.6014    681.88749    724.77653 -7.9235158e-10 -1.9020417e-09 -8.5638589e-12   -39.425085 
    1660   -39.432016     6.419049    -2.902349    4.4133133  -0.89661327    4.3708831            0           -0            0    2716.6355    6781.0571    664.21445    704.63489 -7.4092752e-10 -1.7660865e-09 9.0109786e-10   -39.432016 
    1670   -39.438642    6.4366325   -2.9199325    4.4163705  -0.89967048    4.3741761            0           -0            0    2595.2282    6455.0804    646.27169    684.33244 -6.9043883e-10 -1.6443048e-09 1.0696867e-09   -39.438642 
    1680   -39.444972     6.454216    -2.937516    4.4195024  -0.90280242    4.3775431            0           -0            0    2482.3267    6141.2681    635.33682    670.37519 -6.4306608e-10 -1.5140457e-09 3.8370359e-08   -39.444972 
    1690   -39.451027    6.4717995   -2.9550995    4.4225271  -0.90582705    4.3808188            0           -0            0    2378.3503    5840.9803    631.33073    662.73989 -5.9913615e-10 -1.3883349e-09 -2.9087516e-10   -39.451027 
    1700   -39.456799     6.489383    -2.972683    4.4258016   -0.9091016    4.3843274            0           -0            0    2294.4476    5550.3081     654.0157    679.01894 -5.2960645e-10 -1.2040113e-09 -5.1776007e-10   -39.456799 
    1710   -39.462307    6.5069665   -2.9902665    4.4291609   -0.9124609    4.3879188            0           -0            0    2176.7966    5270.5496     617.4581    642.38196 -5.1171941e-10 -1.1563221e-09 -2.5130734e-10   -39.462307 
    1720   -39.467559      6.52455     -3.00785    4.4326027  -0.91590265    4.3915908            0           -0            0    2061.3599    5001.3708    578.78733    603.92141 -4.8923309e-10 -1.1240437e-09 4.1375307e-10   -39.467559 
    1730   -39.472565    6.5421335   -3.0254335    4.4361282   -0.9194282    4.3953444            0           -0            0    1945.8085    4742.4127    534.50686    560.50596 -4.8145144e-10 -1.110181e-09 -6.6682444e-10   -39.472565 
    1740   -39.477336     6.559717    -3.043017    4.4396088  -0.92290876    4.3990624            0           -0            0    1844.4082    4494.3029    506.85376    532.06787 -4.6283715e-10 -1.0659255e-09 -3.2121654e-10   -39.477336 
    1750   -39.481875    6.5773005   -3.0606005    4.4432695  -0.92656953    4.4029493            0           -0            0    1758.7108    4254.9701    499.39783    521.76435 -4.2885487e-10 -9.8755008e-10 7.4724189e-10   -39.481875 
    1760   -39.486192     6.594884    -3.078184    4.4470104  -0.93031037    4.4069139            0           -0            0    1669.3256    4024.8733    481.19243    501.91116 -4.1181942e-10 -9.3471891e-10 1.9320994e-10   -39.486192 
    1770   -39.490295    6.6124675   -3.0957675    4.4508233  -0.93412332    4.4109485            0           -0            0    1582.1654    3803.7486    461.73519    481.01226 -3.9052408e-10 -8.8546851e-10 -6.8504558e-11   -39.490295 
    1780   -39.494191     6.630051    -3.113351    4.4547078  -0.93800782    4.4150525            0           -0            0    1499.5039    3591.2858    444.78816    462.43785 -3.7527084e-10 -8.5152713e-10 1.9926308e-10   -39.494191 
    1790   -39.497887    6.6476345   -3.1309345     4.458678  -0.94197798    4.4192384            0           -0            0    1419.0368    3387.0975     426.9101    443.10274 -3.5905789e-10 -8.1542572e-10 6.3225754e-10   -39.497887 
    1800    -39.50139     6.665218    -3.148518    4.4627249  -0.94602486    4.4234977            0           -0            0    1341.1901    3190.9487    408.89841    423.72307 -3.4503412e-10 -7.859438e-10 3.6483793e-10    -39.50139 
    1810   -39.504706    6.6828015   -3.1661015    4.4668465  -0.95014646    4.4278283            0           -0            0    1265.8119    3002.5658    390.65696    404.21307 -3.3466238e-10 -7.663142e-10 2.2125498e-09   -39.504706 
    1820    -39.50784     6.700385    -3.183685    4.4710988  -0.95439883    4.4322808            0           -0            0    1132.0555    2821.3975    276.24114    298.52795 -3.7100493e-10 -9.2393622e-10 5.9648429e-10    -39.50784 
    1830   -39.510793    6.7179685   -3.2012685    4.4754844  -0.95878445     4.436857            0           -0            0    1013.9229    2647.2057    182.83874    211.72444 -3.9589341e-10 -1.038609e-09 1.2100101e-09   -39.510793 
    1840   -39.513591     6.735552    -3.218852    4.4795352   -0.9628352    4.4411306            0           -0            0    1211.3476     2481.824    583.74937    568.46939 -1.7604475e-10 -2.7032028e-10 4.6740014e-10   -39.513591 
    1850   -39.516221    6.7531355   -3.2364355    4.4839474  -0.96724744    4.4457348            0           -0            0    1129.5466    2321.8199    540.21075    526.60924 -1.8394766e-10 -3.1329313e-10 -1.1576234e-09   -39.516221 
    1860   -39.518674     6.770719    -3.254019    4.4882439   -0.9715439    4.4502347            0           -0            0    976.69002     2169.018    380.48145    380.57059 -2.4547813e-10 -5.5837644e-10 1.5793376e-09   -39.518674 
    1870      -39.521    6.7883025   -3.2716025    4.4932334  -0.97653338    4.4553659            0           -0            0    705.36423    2020.0838    31.450604    64.558263 -3.9948974e-10 -1.1142488e-09 -6.1407909e-08      -39.521 
    1880   -39.523165     6.805886    -3.289186    4.4973986  -0.98069865     4.459747            0           -0            0    906.95374    1880.4495    425.06041    415.35129 -1.9273111e-10 -4.1852204e-10 5.1535851e-07   -39.523165 
    1890   -39.525193    6.8234695   -3.3067695    4.5020506  -0.98535063    4.4645705            0           -0            0    830.91518    1745.0467    377.52023    370.17861 -2.0189785e-10 -4.6834833e-10 3.8772698e-05   -39.525193 
    1900   -39.527091     6.841053    -3.324353    4.5071341  -0.99043406    4.4697856            0           -0            0    511.91659    1614.0826   -56.371643   -21.961213 -3.8435597e-10 -1.1287648e-09 0.0024656779   -39.527091 
    1910   -39.528843    6.8586365   -3.3419365    4.5119107  -0.99521068    4.4747194            0           -0            0    433.08964    1489.6892   -114.15592   -76.264311 -3.9719017e-10 -1.1837932e-09 -0.0050114908   -39.528843 
    1920   -39.530446      6.87622     -3.35952    4.5168716   -1.0001716    4.4798182            0           -0            0    294.61514    1370.1183   -268.76577   -217.50711 -4.4481171e-10 -1.3761746e-09  0.025538187   -39.530446 
    1930    -39.53189    6.8929546   -3.3762546    4.5208295   -1.0041295    4.4839722            0           -0            0    636.73919    1263.0638    329.29825    317.85555 -1.7899728e-10 -4.5937753e-10   0.22425261    -39.53189 
    1940   -39.533193    6.9094873   -3.3927873    4.5253919   -1.0086919    4.4886663            0           -0            0    625.59147    1159.9041    367.03782    349.83248 -1.5548631e-10 -3.9197869e-10  -0.68128426   -39.533193 
    1950   -39.534365    6.9256232   -3.4089232    4.5298957   -1.0131957    4.4932893            0           -0            0    577.20299    1063.1194    342.51798    325.97155 -2.7566809e-10 -4.4793072e-10   -78.219997   -39.534365 
    1960   -39.535473    6.9423673   -3.4256673    4.5345176   -1.0178176    4.4980341            0           -0            0    625.85851    966.83066    471.02461    439.72026 -1.0280537e-10 -2.3980724e-10   -1.8178126   -39.535473 
    1970   -39.536499    6.9592508   -3.4425508    4.5393404   -1.0226404    4.5029597            0           -0            0    462.91872    873.39731    263.76431    251.59455 -4.4636687e-10 -5.7820672e-10   -190.27811   -39.536499 
    1980   -39.537343    6.9746413   -3.4579413    4.5441546   -1.0274546     4.507824            0           -0            0    191.15341     790.8118   -121.14714   -96.204428 -6.7297887e-11 -9.1809292e-10    174.73481   -39.537343 
    1990   -39.538141    6.9913075   -3.4746075    4.5489156   -1.0322156    4.5126708            0           -0            0    145.25208    705.76628   -148.00166   -122.00838 1.8292427e-10 -8.6231596e-10    369.96975   -39.538141 
    2000   -39.538835    7.0065584   -3.4898584    4.5530134   -1.0363134    4.5168609            0           -0            0    203.39088    631.40286   -16.312139   -4.9180842 1.5832058e-10 -7.0944795e-10     323.4009   -39.538835 
    2010   -39.539398    7.0205252   -3.5038252    4.5564904   -1.0397904    4.5204391            0           -0            0    326.72449    566.13584    213.39385    200.64378 -8.4315282e-11 -5.2792673e-10    73.195788   -39.539398 
    2020   -39.539974    7.0369509   -3.5202509    4.5612372   -1.0445372    4.5252361            0           -0            0    181.81685    491.18997     24.76059    29.499982 -4.4448262e-10 -8.0994629e-10   -181.98848   -39.539974 
    2030   -39.540345    7.0495781   -3.5328781    4.5643429   -1.0476429    4.5284197            0           -0            0    382.61244    436.36097    371.07654    340.39979 -2.3242057e-10 -4.2606389e-10   -101.49146   -39.540345 
    2040   -39.540633    7.0594164   -3.5427164    4.5674716   -1.0507716    4.5315407            0           -0            0    116.98654    393.84011   -25.458572     -17.4219 -6.7430158e-11 -7.4027844e-10    156.60244   -39.540633 
    2050   -39.540824    7.0685083   -3.5518083    4.5699151   -1.0532151    4.5340117            0           -0            0    79.767182    356.03456   -63.978847   -52.754171 4.172917e-12 -7.4689975e-10    237.96822   -39.540824 
    2060   -39.541071    7.0782048   -3.5615048    4.5722766   -1.0555766     4.536419            0           -0            0    103.79252    316.91433    -5.147989  -0.38876872 -2.7423712e-10 -7.6676456e-10   -52.337005   -39.541071 
    2070   -39.541185     7.083876    -3.567176     4.573715    -1.057015    4.5378768            0           -0            0    123.95953    294.37773    38.718909    38.781949 -1.9798507e-10 -7.0631633e-10    12.534121   -39.541185 
    2080   -39.541345    7.0928358   -3.5761358    4.5759345   -1.0592345    4.5401282            0           -0            0    155.79358    259.44073    107.60312    100.33689 -1.3369588e-10 -6.3233756e-10    60.688919   -39.541345 
    2090   -39.541432    7.0981252   -3.5814252     4.577277    -1.060577    4.5414847            0           -0            0    138.92857    239.12021    91.830884    85.834621 -1.3920564e-10 -6.4311495e-10    58.465543   -39.541432 
    2100   -39.541571      7.10818     -3.59148    4.5796986   -1.0629986    4.5439419            0           -0            0    52.348448    201.31778   -24.616737   -19.655703 -1.7010985e-10 -7.2448933e-10    54.496813   -39.541571 
    2110   -39.541664    7.1161551   -3.5994551    4.5814196   -1.0647196    4.5457057            0           -0            0    185.05172    172.13357    200.26903    182.75258 -2.4302668e-10 -6.0031925e-10   -111.64403   -39.541664 
    2120   -39.541743    7.1238731   -3.6071731    4.5831843   -1.0664843     4.547503            0           -0            0    147.29181    144.27332    155.51191    142.09021 -8.8334159e-11 -5.8068516e-10    118.85523   -39.541743 
    2130   -39.541803    7.1305839   -3.6138839    4.5848491   -1.0681491    4.5491867            0           -0            0    120.18509    120.31194    125.48745    114.75588 -1.8560927e-10 -6.2337832e-10     -22.5667   -39.541803 
    2140    -39.54184    7.1354318   -3.6187318     4.585959    -1.069259    4.5503212            0           -0            0    47.236343    103.28516    19.478916    18.944955 -1.0895357e-10 -6.4395671e-10    140.28845    -39.54184 
    2150   -39.541871     7.140903    -3.624203    4.5868546   -1.0701546    4.5512823            0           -0            0    106.18022     84.58866    122.32886    111.62312 -1.7742706e-10 -6.1338395e-10   -18.926823   -39.541871 
    2160   -39.541893    7.1453718   -3.6286718     4.587766    -1.071066    4.5522398            0           -0            0   -13.730365    69.300534   -58.632875   -51.858754 -2.1685615e-10 -6.8341066e-10   -59.478366   -39.541893 
    2170   -39.541906     7.148664    -3.631964    4.5882876   -1.0715876    4.5528168            0           -0            0      33.2936    58.234084    21.357098    20.289617 -1.9173702e-10 -6.3677787e-10   -41.369537   -39.541906 
    2180   -39.541927     7.155234    -3.638534    4.5894375   -1.0727375    4.5540951            0           -0            0    30.258292    36.244698    28.191826    26.338353 -1.6171998e-10 -5.9875403e-10    24.671842   -39.541927 
    2190   -39.541929    7.1558174   -3.6391174    4.5895297   -1.0728297    4.5542052            0           -0            0    9.4017413    34.305408    -3.653598   -2.4465857 -1.7026848e-10 -6.0663354e-10  -0.25441512   -39.541929 
    2200   -39.541938    7.1622327   -3.6455327     4.590223    -1.073523    4.5552166            0           -0            0    6.1513454    16.014916    1.0330312    1.4060887 4.5294033e-12 -5.4171334e-10   -42.889436   -39.541938 
    2210   -39.541942    7.1695797   -3.6528797     4.590321    -1.073621    4.5557996            0           -0            0   -30.689942    3.8065741   -50.393397   -45.483003 2.4937212e-12 -3.7142978e-10   -8.7196236   -39.541942 
    2219   -39.541943    7.1713407   -3.6546407    4.5902947   -1.0735947       4.5559            0           -0            0   -0.3118414   0.87716009  -0.96909128  -0.84359302 2.8292976e-13 -4.3645461e-10 -0.0006441185   -39.541943 
Loop time of 0.0182509 on 1 procs for 2219 steps with 4 atoms

100.0% CPU use with 1 MPI tasks x no OpenMP threads

Minimization stats:
  Stopping criterion = linesearch alpha is zero
  Energy initial, next-to-last, final = 
        -17.8212966542      -39.541942763      -39.541942763
  Force two-norm initial, final = 0.391117 0.000260893
  Force max component initial, final = 0.2258 0.000128844
  Final line search alpha, max atom move = 0.125 1.61055e-05
  Iterations, force evaluations = 2219 2658

MPI task timing breakdown:
Section |  min time  |  avg time  |  max time  |%varavg| %total
---------------------------------------------------------------
Pair    | 0.0070255  | 0.0070255  | 0.0070255  |   0.0 | 38.49
Neigh   | 0.00012946 | 0.00012946 | 0.00012946 |   0.0 |  0.71
Comm    | 0.0018575  | 0.0018575  | 0.0018575  |   0.0 | 10.18
Output  | 0.0024056  | 0.0024056  | 0.0024056  |   0.0 | 13.18
Modify  | 0          | 0          | 0          |   0.0 |  0.00
Other   |            | 0.006833   |            |       | 37.44

Nlocal:    4 ave 4 max 4 min
Histogram: 1 0 0 0 0 0 0 0 0 0
Nghost:    68 ave 68 max 68 min
Histogram: 1 0 0 0 0 0 0 0 0 0
Neighs:    18 ave 18 max 18 min
Histogram: 1 0 0 0 0 0 0 0 0 0

Total # of neighbors = 18
Ave neighs/atom = 4.5
Neighbor list builds = 16
Dangerous builds = 0
# ---- define output variables ----
variable natoms equal "count(all)"
variable tot_energy equal "c_eatoms"
variable a11 equal "xhi-xlo"
variable a22 equal "yhi-ylo"
variable a33 equal "zhi-zlo"
variable tilt_xy equal "xy"
variable tilt_xz equal "xz"
variable tilt_yz equal "yz"
variable tot_press equal "press"
variable press_xx equal "pxx"
variable press_yy equal "pyy"
variable press_zz equal "pzz"
variable press_xy equal "pxy"
variable press_xz equal "pxz"
variable press_yz equal "pyz"

# ---- output ----
print "pypospack:output_section:begin"
pypospack:output_section:begin
print "tot_energy = ${tot_energy}"
tot_energy = -39.5419427629978
print "num_atoms = ${natoms}"
num_atoms = 4
print "a11 = ${a11}"
a11 = 10.8259813848034
print "a22 = ${a22}"
a22 = 5.66388949888985
print "a33 = ${a33}"
a33 = 5.59509992049562
print "a12 = ${tilt_xy}"
a12 = 0
print "a13 = ${tilt_xz}"
a13 = -0
print "a23 = ${tilt_yz}"
a23 = 0
print "tot_press = ${tot_press}"
tot_press = -0.311841403844751
print "pxx = ${press_xx}"
pxx = 0.877160091511901
print "pyy = ${press_yy}"
pyy = -0.969091279828107
print "pzz = ${press_zz}"
pzz = -0.843593023218045
print "pxy = ${press_xy}"
pxy = 2.82929761073855e-13
print "pxz = ${press_xz}"
pxz = -4.36454613162655e-10
print "pyz = ${press_yz}"
pyz = -0.000644118495133771
print "pypospack:output_section:done"
pypospack:output_section:done
print "pypospack:lammps_sim:done"
pypospack:lammps_sim:done
Total wall time: 0:00:00
