# ['Ni']

107 atoms
1 atom types

    0.0000     9.9990 xlo xhi
    0.0000     9.9990 ylo yhi
    0.0000     9.9990 zlo zhi

    0.0000    -0.0000    -0.0000 xy xz yz

Atoms

1 1     1.6665     1.6665     0.0000
2 1     1.6665     0.0000     1.6665
3 1     0.0000     1.6665     1.6665
4 1     0.0000     0.0000     3.3330
5 1     1.6665     1.6665     3.3330
6 1     1.6665     0.0000     4.9995
7 1     0.0000     1.6665     4.9995
8 1     0.0000     0.0000     6.6660
9 1     1.6665     1.6665     6.6660
10 1     1.6665     0.0000     8.3325
11 1     0.0000     1.6665     8.3325
12 1     0.0000     3.3330     0.0000
13 1     1.6665     4.9995     0.0000
14 1     1.6665     3.3330     1.6665
15 1     0.0000     4.9995     1.6665
16 1     0.0000     3.3330     3.3330
17 1     1.6665     4.9995     3.3330
18 1     1.6665     3.3330     4.9995
19 1     0.0000     4.9995     4.9995
20 1     0.0000     3.3330     6.6660
21 1     1.6665     4.9995     6.6660
22 1     1.6665     3.3330     8.3325
23 1     0.0000     4.9995     8.3325
24 1     0.0000     6.6660     0.0000
25 1     1.6665     8.3325     0.0000
26 1     1.6665     6.6660     1.6665
27 1     0.0000     8.3325     1.6665
28 1     0.0000     6.6660     3.3330
29 1     1.6665     8.3325     3.3330
30 1     1.6665     6.6660     4.9995
31 1     0.0000     8.3325     4.9995
32 1     0.0000     6.6660     6.6660
33 1     1.6665     8.3325     6.6660
34 1     1.6665     6.6660     8.3325
35 1     0.0000     8.3325     8.3325
36 1     3.3330     0.0000     0.0000
37 1     4.9995     1.6665     0.0000
38 1     4.9995     0.0000     1.6665
39 1     3.3330     1.6665     1.6665
40 1     3.3330     0.0000     3.3330
41 1     4.9995     1.6665     3.3330
42 1     4.9995     0.0000     4.9995
43 1     3.3330     1.6665     4.9995
44 1     3.3330     0.0000     6.6660
45 1     4.9995     1.6665     6.6660
46 1     4.9995     0.0000     8.3325
47 1     3.3330     1.6665     8.3325
48 1     3.3330     3.3330     0.0000
49 1     4.9995     4.9995     0.0000
50 1     4.9995     3.3330     1.6665
51 1     3.3330     4.9995     1.6665
52 1     3.3330     3.3330     3.3330
53 1     4.9995     4.9995     3.3330
54 1     4.9995     3.3330     4.9995
55 1     3.3330     4.9995     4.9995
56 1     3.3330     3.3330     6.6660
57 1     4.9995     4.9995     6.6660
58 1     4.9995     3.3330     8.3325
59 1     3.3330     4.9995     8.3325
60 1     3.3330     6.6660     0.0000
61 1     4.9995     8.3325     0.0000
62 1     4.9995     6.6660     1.6665
63 1     3.3330     8.3325     1.6665
64 1     3.3330     6.6660     3.3330
65 1     4.9995     8.3325     3.3330
66 1     4.9995     6.6660     4.9995
67 1     3.3330     8.3325     4.9995
68 1     3.3330     6.6660     6.6660
69 1     4.9995     8.3325     6.6660
70 1     4.9995     6.6660     8.3325
71 1     3.3330     8.3325     8.3325
72 1     6.6660     0.0000     0.0000
73 1     8.3325     1.6665     0.0000
74 1     8.3325     0.0000     1.6665
75 1     6.6660     1.6665     1.6665
76 1     6.6660     0.0000     3.3330
77 1     8.3325     1.6665     3.3330
78 1     8.3325     0.0000     4.9995
79 1     6.6660     1.6665     4.9995
80 1     6.6660     0.0000     6.6660
81 1     8.3325     1.6665     6.6660
82 1     8.3325     0.0000     8.3325
83 1     6.6660     1.6665     8.3325
84 1     6.6660     3.3330     0.0000
85 1     8.3325     4.9995     0.0000
86 1     8.3325     3.3330     1.6665
87 1     6.6660     4.9995     1.6665
88 1     6.6660     3.3330     3.3330
89 1     8.3325     4.9995     3.3330
90 1     8.3325     3.3330     4.9995
91 1     6.6660     4.9995     4.9995
92 1     6.6660     3.3330     6.6660
93 1     8.3325     4.9995     6.6660
94 1     8.3325     3.3330     8.3325
95 1     6.6660     4.9995     8.3325
96 1     6.6660     6.6660     0.0000
97 1     8.3325     8.3325     0.0000
98 1     8.3325     6.6660     1.6665
99 1     6.6660     8.3325     1.6665
100 1     6.6660     6.6660     3.3330
101 1     8.3325     8.3325     3.3330
102 1     8.3325     6.6660     4.9995
103 1     6.6660     8.3325     4.9995
104 1     6.6660     6.6660     6.6660
105 1     8.3325     8.3325     6.6660
106 1     8.3325     6.6660     8.3325
107 1     6.6660     8.3325     8.3325
