# ['Ni']

28 atoms
1 atom types

    0.0000     2.5950 xlo xhi
    0.0000     4.4947 ylo yhi
    0.0000    29.6634 zlo zhi

    0.0000     0.0000     0.0000 xy xz yz

Atoms

1 1     0.0000     0.0000     0.0000
2 1     1.2975     2.2473     0.0000
3 1     1.2975     0.7491     2.1188
4 1     0.0000     2.9965     2.1188
5 1     0.0000     1.4982     4.2376
6 1     1.2975     3.7456     4.2376
7 1     0.0000     0.0000     6.3565
8 1     1.2975     2.2473     6.3565
9 1     1.2975     0.7491     8.4753
10 1     0.0000     2.9965     8.4753
11 1     0.0000     1.4982    10.5941
12 1     1.2975     3.7456    10.5941
13 1     0.0000     0.0000    12.7129
14 1     1.2975     2.2473    12.7129
15 1     0.0000     1.4982    14.8317
16 1     1.2975     3.7456    14.8317
17 1     0.0000     0.0000    16.9505
18 1     1.2975     2.2473    16.9505
19 1     1.2975     0.7491    19.0693
20 1     0.0000     2.9965    19.0693
21 1     0.0000     1.4982    21.1882
22 1     1.2975     3.7456    21.1882
23 1     0.0000     0.0000    23.3070
24 1     1.2975     2.2473    23.3070
25 1     1.2975     0.7491    25.4258
26 1     0.0000     2.9965    25.4258
27 1     0.0000     1.4982    27.5446
28 1     1.2975     3.7456    27.5446
