# ['Ni']

20 atoms
1 atom types

    0.0000     3.5204 xlo xhi
    0.0000     3.5204 ylo yhi
    0.0000    35.2042 zlo zhi

    0.0000    -0.0000     0.0000 xy xz yz

Atoms

1 1     0.0000     0.0000     0.0000
2 1     1.7602     1.7602     0.0000
3 1     1.7602     0.0000     1.7602
4 1     0.0000     1.7602     1.7602
5 1     0.0000     0.0000     3.5204
6 1     1.7602     1.7602     3.5204
7 1     1.7602     0.0000     5.2806
8 1     0.0000     1.7602     5.2806
9 1     0.0000     0.0000     7.0408
10 1     1.7602     1.7602     7.0408
11 1     1.7602     0.0000     8.8011
12 1     0.0000     1.7602     8.8011
13 1     0.0000     0.0000    10.5613
14 1     1.7602     1.7602    10.5613
15 1     1.7602     0.0000    12.3215
16 1     0.0000     1.7602    12.3215
17 1     0.0000     0.0000    14.0817
18 1     1.7602     1.7602    14.0817
19 1     1.7602     0.0000    15.8419
20 1     0.0000     1.7602    15.8419
