# ['Ni']

20 atoms
1 atom types

    0.0000     3.5083 xlo xhi
    0.0000     3.5083 ylo yhi
    0.0000    35.0835 zlo zhi

    0.0000    -0.0000     0.0000 xy xz yz

Atoms

1 1     0.0000     0.0000     0.0000
2 1     1.7542     1.7542     0.0000
3 1     1.7542     0.0000     1.7542
4 1     0.0000     1.7542     1.7542
5 1     0.0000     0.0000     3.5083
6 1     1.7542     1.7542     3.5083
7 1     1.7542     0.0000     5.2625
8 1     0.0000     1.7542     5.2625
9 1     0.0000     0.0000     7.0167
10 1     1.7542     1.7542     7.0167
11 1     1.7542     0.0000     8.7709
12 1     0.0000     1.7542     8.7709
13 1     0.0000     0.0000    10.5250
14 1     1.7542     1.7542    10.5250
15 1     1.7542     0.0000    12.2792
16 1     0.0000     1.7542    12.2792
17 1     0.0000     0.0000    14.0334
18 1     1.7542     1.7542    14.0334
19 1     1.7542     0.0000    15.7876
20 1     0.0000     1.7542    15.7876
