# ['Ni']

10 atoms
1 atom types

    0.0000     3.5067 xlo xhi
    0.0000     2.5103 ylo yhi
    0.0000    25.1028 zlo zhi

    0.0000     0.0000     0.0000 xy xz yz

Atoms

1 1     0.0000     0.0000     0.0000
2 1     1.7534     1.2551     1.2551
3 1     0.0000     0.0000     2.5103
4 1     1.7534     1.2551     3.7654
5 1     0.0000     0.0000     5.0206
6 1     1.7534     1.2551     6.2757
7 1     0.0000     0.0000     7.5308
8 1     1.7534     1.2551     8.7860
9 1     0.0000     0.0000    10.0411
10 1     1.7534     1.2551    11.2963
