# ['Ni']

28 atoms
1 atom types

    0.0000     2.3522 xlo xhi
    0.0000     4.0741 ylo yhi
    0.0000    26.8879 zlo zhi

    0.0000     0.0000     0.0000 xy xz yz

Atoms

1 1     0.0000     0.0000     0.0000
2 1     1.1761     2.0371     0.0000
3 1     1.1761     0.6790     1.9206
4 1     0.0000     2.7161     1.9206
5 1     0.0000     1.3580     3.8411
6 1     1.1761     3.3951     3.8411
7 1     0.0000     0.0000     5.7617
8 1     1.1761     2.0371     5.7617
9 1     1.1761     0.6790     7.6823
10 1     0.0000     2.7161     7.6823
11 1     0.0000     1.3580     9.6028
12 1     1.1761     3.3951     9.6028
13 1     0.0000     0.0000    11.5234
14 1     1.1761     2.0371    11.5234
15 1     0.0000     1.3580    13.4440
16 1     1.1761     3.3951    13.4440
17 1     0.0000     0.0000    15.3646
18 1     1.1761     2.0371    15.3646
19 1     1.1761     0.6790    17.2851
20 1     0.0000     2.7161    17.2851
21 1     0.0000     1.3580    19.2057
22 1     1.1761     3.3951    19.2057
23 1     0.0000     0.0000    21.1262
24 1     1.1761     2.0371    21.1262
25 1     1.1761     0.6790    23.0468
26 1     0.0000     2.7161    23.0468
27 1     0.0000     1.3580    24.9674
28 1     1.1761     3.3951    24.9674
