LAMMPS (10 Feb 2015)
Reading data file ...
  triclinic box = (0 0 0) to (4.2565 4.2565 4.2565) with tilt (0 0 0)
  1 by 1 by 1 MPI processor grid
  reading atoms ...
  8 atoms
4 atoms in group Mg
4 atoms in group O
Setting atom values ...
  4 settings made for charge
Setting atom values ...
  4 settings made for charge
PPPM initialization ...
  G vector (1/distance) = 0.352901
  grid = 8 8 8
  stencil order = 5
  estimated absolute RMS force accuracy = 3.98348e-05
  estimated relative force accuracy = 2.76637e-06
  using double precision FFTs
  3d grid and FFT values/proc = 3375 512
Neighbor list info ...
  1 neighbor list requests
  update every 1 steps, delay 0 steps, check yes
  master list distance cutoff = 11
Setting up minimization ...
Memory usage per processor = 4.06549 Mbytes
Step PotEng Lx Ly Lz Xy Xz Yz Press Pxx Pyy Pzz Pxy Pxz Pyz eatoms 
       0    -112.5899       4.2565       4.2565       4.2565            0            0            0    58061.201    58061.201    58061.201    58061.201 6.8070985e-11 -1.221979e-10 1.2952011e-11    -112.5899 
      10   -112.63526     4.299065     4.299065     4.299065            0            0            0    6762.9013    6762.9013    6762.9013    6762.9013 -3.6532134e-11 6.5076144e-11 2.4224675e-10   -112.63526 
      13     -112.636    4.3051131    4.3051131    4.3051131            0            0            0   -6.5125139   -6.5125139   -6.5125139   -6.5125139 2.4815902e-11 -1.1583773e-10 3.0521581e-11     -112.636 
Loop time of 0.0103979 on 1 procs for 13 steps with 8 atoms

Minimization stats:
  Stopping criterion = linesearch alpha is zero
  Energy initial, next-to-last, final = 
        -112.589903458     -112.636003249     -112.636003249
  Force two-norm initial, final = 8.38407 0.00186563
  Force max component initial, final = 8.38407 0.000962014
  Final line search alpha, max atom move = 0.00390625 3.75787e-06
  Iterations, force evaluations = 13 30

Pair  time (%) = 0.00283217 (27.2379)
Kspce time (%) = 0.00162816 (15.6585)
Neigh time (%) = 0 (0)
Comm  time (%) = 0.000328064 (3.15509)
Outpt time (%) = 1.28746e-05 (0.123819)
Other time (%) = 0.00559664 (53.8246)

Nlocal:    8 ave 8 max 8 min
Histogram: 1 0 0 0 0 0 0 0 0 0
Nghost:    2189 ave 2189 max 2189 min
Histogram: 1 0 0 0 0 0 0 0 0 0
Neighs:    2344 ave 2344 max 2344 min
Histogram: 1 0 0 0 0 0 0 0 0 0

Total # of neighbors = 2344
Ave neighs/atom = 293
Neighbor list builds = 0
Dangerous builds = 0
pypospack:output_section:begin
tot_energy = -112.63600324896
num_atoms = 8
xx = 4.30511307073731
yy = 4.30511307073731
zz = 4.30511307073731
xy = 0
xz = 0
yz = 0
tot_press = -6.51251387968517
pxx = -6.51251387980119
pyy = -6.51251387961014
pzz = -6.51251387964418
pxy = 2.48159019880152e-11
pxz = -1.15837732664817e-10
pyz = 3.05215812050655e-11
pypospack:output_section:done
pypospack:lammps_sim:done
PPPM initialization ...
  G vector (1/distance) = 0.352409
  grid = 8 8 8
  stencil order = 5
  estimated absolute RMS force accuracy = 4.075e-05
  estimated relative force accuracy = 2.82993e-06
  using double precision FFTs
  3d grid and FFT values/proc = 3375 512
Setting up run ...
Memory usage per processor = 3.06549 Mbytes
Step Temp PotEng KinEng TotEng Press Lx Ly Lz Press Pxx Pyy Pzz Pxy Pxz Pyz Volume 
       0          800   -112.63601   0.72385681   -111.91216    9681.8807    4.3051131    4.3051131    4.3051131    9681.8807    7686.4771    16377.049     4982.116   -2190.5978   -4947.7286    4091.8749    79.790959 
     100    182.47482   -111.98559   0.16510705   -111.82048    7507.3017    4.3407885    4.3407885    4.3407885    7507.3017     12224.18    25749.354   -15451.628    1915.7418   -972.90927   -4653.9802    81.791067 
     200    723.12619   -112.27448   0.65429978   -111.62018   -26755.373    4.3538672    4.3538672    4.3538672   -26755.373   -24495.673   -18757.199   -37013.247   -725.58721    2605.2899     3848.555    82.532604 
     300    599.97378   -111.99154   0.54286888   -111.44867    18915.291    4.3300205    4.3300205    4.3300205    18915.291    6796.2163    59821.835   -9872.1784    2709.3171   -893.01394   -4734.3725    81.183891 
     400     381.8646    -111.6666   0.34551911   -111.32109    8524.0489    4.3533948    4.3533948    4.3533948    8524.0489    16795.193    41540.993   -32764.039   -8823.5411   -2526.6427     6640.082    82.505738 
     500    871.50995   -112.02131   0.78856052   -111.23274   -13759.292    4.3641693    4.3641693    4.3641693   -13759.292   -23956.613    16233.344   -33554.607    9524.5494    3884.8941   -305.33162    83.119852 
     600    1174.9975   -112.25825    1.0631624   -111.19508    6442.8631    4.3369737    4.3369737    4.3369737    6442.8631    11977.679    13900.829   -6549.9188   -1750.3503    4820.8207    976.16554    81.575618 
     700    1014.9176    -112.1221   0.91831874   -111.20378   -17043.949    4.3541057    4.3541057    4.3541057   -17043.949    -2914.805   -8158.6411   -40058.401    3851.3974   -469.30148     60.78657    82.546167 
     800     372.4449   -111.53675   0.33699598   -111.19975   -6534.0368    4.3675885    4.3675885    4.3675885   -6534.0368    -20588.85    43002.376   -42015.636    434.99573   -2041.1135    1684.6263    83.315374 
     900    870.11342   -111.97341   0.78729691   -111.18612    14692.875    4.3400302    4.3400302    4.3400302    14692.875    5598.3309    48343.941   -9863.6466   -5120.8339    2027.0221    -3591.236    81.748212 
    1000    959.27898   -112.06145   0.86797578   -111.19347     -3806.93    4.3557972    4.3557972    4.3557972     -3806.93    12257.701    62.721938   -23741.213    6894.6033   -597.16303   -368.80146    82.642406 
    1100    1254.5335   -112.32907    1.1351283   -111.19395   -24790.643    4.3592981    4.3592981    4.3592981   -24790.643   -32607.803   -4526.2725   -37237.852   -8308.5229   -3489.5374    6985.6217    82.841832 
    1200    672.41564    -111.8153    0.6084158   -111.20688    22579.567    4.3393069    4.3393069    4.3393069    22579.567    8462.6245    66803.433   -7527.3567    10836.439   -490.05573    1899.0758    81.707347 
    1300    346.68043   -111.53176   0.31368374   -111.21808    23951.182    4.3521153    4.3521153    4.3521153    23951.182    12270.123    80640.235   -21056.811    -2690.295   -255.75488   -8611.1616    82.433015 
    1400    1020.1922   -112.12839   0.92309131    -111.2053   -34647.641    4.3614715    4.3614715    4.3614715   -34647.641   -34209.602   -29126.405   -40606.917    827.96466   -894.98175   -1198.1709    82.965803 
    1500    927.07378    -112.0282   0.83883583   -111.18937    3102.5006    4.3407247    4.3407247    4.3407247    3102.5006    20246.288     -6491.28   -4447.5065   -1616.4832   -5471.3718    1927.3311     81.78746 
    1600    644.85014     -111.776   0.58347396   -111.19253    8608.5744    4.3549558    4.3549558    4.3549558    8608.5744    6250.5599    45281.573    -25706.41    7793.2547    4488.2533   -2772.1515    82.594523 
    1700    658.72177   -111.79294    0.5960253   -111.19692    4566.0772    4.3532008    4.3532008    4.3532008    4566.0772   -9651.5297    67491.241    -44141.48   -11380.993    4822.9131   -7435.8132    82.494709 
    1800     901.1693   -112.01222   0.81539692   -111.19682    10734.737    4.3327718    4.3327718    4.3327718    10734.737    25614.084     25578.17   -18988.041    4532.6877   -5722.9832   -703.12456    81.338741 
    1900    885.57692   -112.00839   0.80128861    -111.2071   -18116.237    4.3572147    4.3572147    4.3572147   -18116.237   -27419.032    3160.5371   -30090.218   -2023.1275    4424.1374   -2623.8078    82.723117 
    2000    560.27592   -111.69777   0.50694943   -111.19082    4549.6969    4.3551338    4.3551338    4.3551338    4549.6969    -12872.15    57499.738   -30978.497    508.54561    8510.7653    945.31489    82.604652 
    2100      1033.76    -112.1127   0.93536775   -111.17733    6077.6506    4.3293372    4.3293372    4.3293372    6077.6506    23736.991   -3827.5034   -1676.5357    6681.4035   -1009.9004   -8128.4711    81.145464 
    2200    862.22222   -111.97533   0.78015679   -111.19518    -14571.58    4.3569518    4.3569518    4.3569518    -14571.58   -5867.4115   -5186.0827   -32661.247   -5618.6366   -925.43007    3721.7929     82.70814 
    2300    651.95833   -111.77196    0.5899056   -111.18206    405.70233    4.3576933    4.3576933    4.3576933    405.70233     7724.845    34888.767   -41396.505   -2197.7649    -1246.683   -920.54606    82.750376 
    2400    1074.7555   -112.14331   0.97246132   -111.17085    -7721.687    4.3345404    4.3345404    4.3345404    -7721.687    205.29651   -2943.3215   -20427.036   -3828.0452   -5512.8205    8341.0888    81.438386 
    2500    345.49344   -111.50365   0.31260972   -111.19104    28612.927    4.3465551    4.3465551    4.3465551    28612.927    7704.6092    86489.943    -8355.771    566.21141    2273.3949    719.49017    82.117472 
    2600    944.76405   -112.03981   0.85484237   -111.18497   -36418.166     4.365306     4.365306     4.365306   -36418.166   -26412.335   -45578.325   -37263.839    85.238133   -1225.9329   -1738.1897     83.18482 
    2700    968.98003   -112.05173    0.8767535   -111.17497   -2108.5968    4.3363866    4.3363866    4.3363866   -2108.5968    5773.4759    4288.9915   -16388.258    3154.5069   -5613.5081    239.34439    81.542491 
    2800    644.30398   -111.76806   0.58297978   -111.18508    18036.764    4.3407169    4.3407169    4.3407169    18036.764   -2089.0382    69123.233   -12923.904   -1200.3904    5454.7654     10102.99    81.787023 
    2900     919.3998   -112.02089   0.83189226     -111.189    -13487.68    4.3600596    4.3600596    4.3600596    -13487.68    -24965.33     15499.02   -30996.729    7209.9614   -943.40821   -8792.4952    82.885254 
    3000    856.34796   -111.95971   0.77484163   -111.18487    8897.0589    4.3403221    4.3403221    4.3403221    8897.0589    26753.284     25354.51   -25416.617   -600.74173   -2209.0554   -447.19064    81.764708 
    3100    614.06056   -111.74875    0.5556149   -111.19314    6523.8221    4.3419773    4.3419773    4.3419773    6523.8221   -1372.9643    36563.214   -15618.784    -10990.53    -684.2062    1904.1997    81.858284 
    3200    591.12229   -111.73146   0.53485987    -111.1966     8064.742    4.3505006    4.3505006    4.3505006     8064.742    2679.8587    40908.532   -19394.164     7676.713    -3160.463    8494.6321    82.341296 
    3300    984.39169   -112.08146   0.89069829   -111.19077   -2840.4818    4.3406089    4.3406089    4.3406089   -2840.4818    15548.943    2893.8965   -26964.285   -9748.1646    3104.5755   -7521.3035    81.780915 
    3400    846.78648    -111.9617    0.7661902   -111.19551   -9637.0025    4.3485544    4.3485544    4.3485544   -9637.0025    -25673.38    32342.891   -35580.518   -931.12969   -959.08678   -501.91242    82.230839 
    3500    698.67971   -111.82347   0.63218009   -111.19129    3818.0947    4.3452856    4.3452856    4.3452856    3818.0947   -4659.1662    36607.017   -20493.567    2637.2827   -5608.0926    -1684.678    82.045542 
    3600    1011.0141   -112.10607   0.91478682   -111.19129    1821.2134    4.3384427    4.3384427    4.3384427    1821.2134    -11619.65    26383.058   -9299.7674    4534.5682    -1401.458    8533.4318    81.658539 
    3700    1033.0252   -112.13134    0.9347029   -111.19664   -23001.665    4.3540903    4.3540903    4.3540903   -23001.665   -18548.469   -11215.332   -39241.193    1044.5784   -1692.2828   -2977.7795    82.545287 
    3800    690.59785   -111.82559   0.62486744   -111.20072    5472.7866    4.3387635    4.3387635    4.3387635    5472.7866     15852.01    17279.374   -16713.024    3552.1938   -1817.0091   -1861.7989    81.676656 
    3900    513.54468   -111.66607   0.46466602   -111.20141    25504.555    4.3357076    4.3357076    4.3357076    25504.555    18325.028    66524.656   -8336.0182     1895.476   -790.59417   -2653.2585    81.504197 
    4000    956.47753   -112.05837   0.86544097   -111.19293   -28019.682    4.3638798    4.3638798    4.3638798   -28019.682   -17740.408   -25878.107   -40440.532    974.50941   -2312.9165     -2201.31    83.103311 
    4100    691.62891   -111.80497   0.62580037   -111.17917    34403.113    4.3302858    4.3302858    4.3302858    34403.113    35820.316    75731.026   -8342.0036    684.82927   -2353.5489    3886.3024    81.198814 
    4200    900.66406   -111.99769   0.81493977   -111.18275   -6855.9642    4.3383136    4.3383136    4.3383136   -6855.9642   -1537.6547   -2371.0294   -16659.209   -4044.2748   -5332.2023   -340.08394    81.651249 
    4300    880.72358   -111.97466    0.7968972   -111.17777   -31960.522    4.3645389    4.3645389    4.3645389   -31960.522   -26052.201   -30157.042   -39672.322    2972.2181      390.677    1740.0646    83.140972 
    4400     633.8342    -111.7558    0.5735065   -111.18229    15561.544    4.3304938    4.3304938    4.3304938    15561.544    9190.4831    50580.915   -13086.767    1931.7651   -5906.5925    3680.7185    81.210516 
    4500    1050.3643   -112.13912   0.95039171   -111.18872    1804.8961    4.3324809    4.3324809    4.3324809    1804.8961    1813.7137    20932.025   -17331.051    2257.8502   -3110.1849    8849.1172    81.322359 
    4600    908.10495   -112.00984   0.82167245   -111.18817   -14401.448    4.3620135    4.3620135    4.3620135   -14401.448    3168.1486   -6977.6307    -39394.86   -8634.1591    1426.4215   -5811.5139    82.996738 
    4700    423.25753   -111.57508   0.38297231    -111.1921    22503.279    4.3330895    4.3330895    4.3330895    22503.279    30600.089    59413.229    -22503.48    5110.8774   -11831.477    2152.1963    81.356635 
    4800    885.29936    -111.9979   0.80103747   -111.19686    13816.989     4.333349     4.333349     4.333349    13816.989    7608.3782    56242.496   -22399.908   -6966.4457   -4056.1061   -4751.2711    81.371255 
    4900    1080.7503   -112.17143   0.97788559   -111.19355   -33366.664    4.3636686    4.3636686    4.3636686   -33366.664   -20905.675   -27097.131   -52097.187    8768.9547   -1733.2347    4471.4699     83.09125 
    5000    598.49394   -111.73703   0.54152989    -111.1955   -95.803937    4.3367359    4.3367359    4.3367359   -95.803937   -19623.277    38159.848   -18823.983   -2024.4691   -9451.5478    2291.1357    81.562198 
    5100    648.36011    -111.7839   0.58664985   -111.19725    26513.725    4.3319379    4.3319379    4.3319379    26513.725   -1007.6438    95488.383   -14939.563    4553.6644    1214.7245    2117.3242    81.291787 
    5200    920.26241   -112.03268   0.83267277   -111.20001   -25637.729    4.3640149    4.3640149    4.3640149   -25637.729   -40284.854    15405.707   -52034.041    5820.5701   -2262.0452   -6628.1532    83.111032 
    5300    1164.9762   -112.25483     1.054095   -111.20074   -8439.8143    4.3316435    4.3316435    4.3316435   -8439.8143   -7298.6086    6972.7943   -24993.629   -5048.6029   -7924.4532    480.21852    81.275216 
    5400    986.97834   -112.10792   0.89303874   -111.21488    8205.2102    4.3340584    4.3340584    4.3340584    8205.2102    15222.069    20941.664   -11548.102    8216.3525    5582.2697    5502.4048    81.411224 
    5500    688.84374    -111.8324   0.62328029   -111.20912   -11492.934    4.3616873    4.3616873    4.3616873   -11492.934   -37707.668    49631.699   -46402.834   -10987.462   -2896.0606    115.77966    82.978117 
    5600     374.6132    -111.5466    0.3389579   -111.20764    26956.585    4.3312778    4.3312778    4.3312778    26956.585    6699.8003    84867.783   -10697.829    5436.0495   -1780.6741    6237.5569     81.25463 
    5700    771.54685   -111.91117    0.6981118   -111.21306      14238.4     4.332265     4.332265     4.332265      14238.4   -10866.248    63240.425   -9658.9763   -9563.8094    6885.3284   -5670.2415    81.310202 
    5800    1075.1231   -112.18453   0.97279398   -111.21173   -27277.482    4.3602593    4.3602593    4.3602593   -27277.482   -21104.618   -8447.4462   -52280.383    7635.8918   -4725.3826   -983.59756    82.896642 
    5900    1052.1104   -112.16165   0.95197158   -111.20968    6449.6612    4.3276814    4.3276814    4.3276814    6449.6612    18397.798    25087.855   -24136.669    1131.3546    5421.4435    10276.794    81.052396 
    6000    836.50649    -111.9749   0.75688865   -111.21801    4073.7833    4.3390783    4.3390783    4.3390783    4073.7833   -837.51784    34694.277   -21635.409    1662.1334    2908.5005    2640.6457    81.694433 
    6100    608.01846   -111.74802   0.55014788   -111.19787    1775.2486    4.3536101    4.3536101    4.3536101    1775.2486   -22253.079    60686.352   -33107.527    7263.1848   -3829.1998   -2673.1891    82.517979 
    6200    733.89154   -111.85293   0.66404049   -111.18889   -7950.7421    4.3296462    4.3296462    4.3296462   -7950.7421   -13979.457    10117.678   -19990.447    -5495.206    5241.6644    5446.1179    81.162837 
    6300    964.95789   -112.06775   0.87311418   -111.19464   -12651.794    4.3393922    4.3393922    4.3393922   -12651.794   -23418.152    11554.036   -26091.267    12236.728   -1130.1229   -1884.9463    81.712163 
    6400    784.83361   -111.89665   0.71013395   -111.18652    4554.4847    4.3529875    4.3529875    4.3529875    4554.4847   -6523.8928    50587.951   -30400.604   -5507.0252    1048.6715    416.14321    82.482582 
    6500    1156.9322    -112.2316    1.0468165   -111.18479   -10303.218     4.333956     4.333956     4.333956   -10303.218    5805.9093   -2216.7971   -34498.766    2791.2932    1867.1827    6731.4228    81.405452 
    6600    772.96248   -111.89514    0.6993927   -111.19575    20414.634    4.3357811    4.3357811    4.3357811    20414.634    14040.971    61421.307   -14218.375   -4193.4488   -2885.6565     1106.238    81.508338 
    6700    668.20363   -111.79372   0.60460468   -111.18911   -20919.454    4.3581906    4.3581906    4.3581906   -20919.454   -19709.524   -4699.4513   -38349.388   -4588.9597    97.610745    8379.9843    82.778711 
    6800     599.0805   -111.72129   0.54206063   -111.17923   -10645.426     4.336437     4.336437     4.336437   -10645.426   -5423.9052    695.56264   -27207.935    2288.6674    2014.2338    4418.0813    81.545336 
    6900    629.88295   -111.74995   0.56993133   -111.18002    28942.731    4.3340512    4.3340512    4.3340512    28942.731    7711.5439    92658.391   -13541.742   -4227.2616    344.07238   -1546.8366    81.410819 
    7000     1172.493   -112.23846    1.0608963   -111.17757   -22732.722    4.3561547    4.3561547    4.3561547   -22732.722   -2785.3444   -16265.062    -49147.76    2781.0129    175.61019    324.45037    82.662755 
    7100     653.7186   -111.76917   0.59149833   -111.17768    16649.693    4.3396258    4.3396258    4.3396258    16649.693   -840.76428    75319.538   -24529.693   -32.913583    4068.8543     2894.015    81.725362 
    7200    1062.3099   -112.13862   0.96120031   -111.17742   -2017.8435    4.3327985    4.3327985    4.3327985   -2017.8435   -3604.4246    13021.792   -15470.898     3569.421   -2275.3053   -12724.003    81.340244 
    7300    761.05405   -111.87458    0.6886177   -111.18596   -31231.305    4.3523924    4.3523924    4.3523924   -31231.305   -48108.621   -8463.1207   -37122.175    2026.5529    729.25401    11801.827    82.448761 
    7400    418.41476   -111.56549   0.37859047    -111.1869    2994.9709     4.342384     4.342384     4.342384    2994.9709    -38882.74    73264.477   -25396.824    4565.7641   -193.39421    1027.6676    81.881292 
    7500    719.71634   -111.84676   0.65121447   -111.19555    18017.681     4.327975     4.327975     4.327975    18017.681    8001.8516    69758.456   -23707.264    359.61218   -1707.8805   -1132.1381    81.068893 
    7600    1126.6169    -112.2279    1.0193867   -111.20851   -18670.689    4.3462319    4.3462319    4.3462319   -18670.689   -17330.192    3739.9107   -42421.786   -12191.663   -3530.1028    6414.2029    82.099155 
    7700    1122.5951    -112.2229    1.0157477   -111.20716   -25683.445    4.3488479    4.3488479    4.3488479   -25683.445   -20104.754    -11137.08   -45808.501    266.40638   -4034.1531   -9086.1374    82.247489 
    7800    676.14235   -111.81131   0.61178781   -111.19952    24148.921    4.3219234    4.3219234    4.3219234    24148.921    12976.031    68327.361   -8856.6288    8764.5352   -3919.5993   -2055.2435      80.7293 
    7900    364.68634   -111.53403   0.32997587   -111.20406   -5523.8813    4.3462996    4.3462996    4.3462996   -5523.8813   -25278.591    41389.266   -32682.318   -2153.9474   -3667.1583    3512.8517    82.102992 
    8000    900.08551   -112.00458   0.81441628   -111.19016   -22289.782    4.3496291    4.3496291    4.3496291   -22289.782   -19559.855   -9869.1428   -37440.349    5497.0897    1431.2748    1416.5184    82.291822 
    8100    794.65847   -111.90401   0.71902368   -111.18498    22230.037    4.3273019    4.3273019    4.3273019    22230.037    7500.8217    72497.149   -13307.861   -12458.605   -8221.3407   -1220.9964     81.03107 
    8200    743.99836   -111.86715   0.67318535   -111.19397    16974.938     4.336351     4.336351     4.336351    16974.938    8691.9758    69175.841   -26943.004    11320.521   -2387.1054    2930.6082    81.540484 
    8300    914.34019   -112.02459   0.82731422   -111.19728   -13251.272    4.3471818    4.3471818    4.3471818   -13251.272   -14375.699    3057.8427    -28435.96   -2743.3078    941.23877   -7357.7877    82.152995 
    8400    775.01157   -111.89926   0.70124676   -111.19801     4230.919    4.3266361    4.3266361    4.3266361     4230.919    1543.1153    27435.063   -16285.421   -6793.0977   -3755.3777     1314.785    80.993675 
    8500    615.66863   -111.75877   0.55706991    -111.2017   -4052.8962    4.3371429    4.3371429    4.3371429   -4052.8962   -25872.277    44098.727   -30385.139    1849.0175    3012.9012    10883.247    81.585166 
    8600    644.67111   -111.77825   0.58331197   -111.19494   -6488.9728    4.3414488    4.3414488    4.3414488   -6488.9728   -19740.808    17531.242   -17257.353   -4439.0479   -4180.9064   -2259.5833      81.8284 
    8700    1123.1929   -112.20657    1.0162885   -111.19029   -1539.1058    4.3322941    4.3322941    4.3322941   -1539.1058   -14000.341    22135.602   -12752.579    6068.6755     355.1844    1586.8515    81.311843 
    8800    967.18186   -112.06252   0.87512647    -111.1874    2071.0499    4.3421339    4.3421339    4.3421339    2071.0499   -18910.832    46444.018   -21320.036   -1430.2849    3623.0855   -550.85568    81.867142 
    8900    785.12132   -111.89415   0.71039427   -111.18375    4988.7125    4.3362382    4.3362382    4.3362382    4988.7125   -19933.297     44376.41    -9476.975    1555.8353   -3608.2396   -3911.1129    81.534121 
    9000    791.00369   -111.89859   0.71571676   -111.18287   -9648.7632    4.3375758    4.3375758    4.3375758   -9648.7632   -25830.191     12890.01   -16006.108   -12454.142     1228.768   -5100.2086    81.609595 
    9100    829.43227   -111.93714   0.75048775   -111.18666   -15788.269    4.3409916    4.3409916    4.3409916   -15788.269   -29767.633    11839.702   -29436.874    4423.5126    1257.0745    5636.8498    81.802548 
    9200    534.45967   -111.68126   0.48359034   -111.19767    19300.885    4.3376867    4.3376867    4.3376867    19300.885   -20736.193    92576.029   -13937.182   -7008.7001   -100.35704   -4391.5062    81.615857 
    9300    1049.3178   -112.15177   0.94944478   -111.20233   -4585.3175    4.3415274    4.3415274    4.3415274   -4585.3175   -20474.575    28251.649   -21533.026   -7391.6904    1055.3327   -5991.1178    81.832842 
    9400    1023.9671   -112.13128   0.92650698   -111.20477   -3239.1883    4.3355065    4.3355065    4.3355065   -3239.1883   -12253.373    28087.033   -25551.225    8229.8056   -1602.7306    6961.6746    81.492853 
    9500    867.31348   -111.99429   0.78476347   -111.20953   -20666.188    4.3444774    4.3444774    4.3444774   -20666.188   -32388.616     12049.06   -41659.009   -7374.7839     2794.553   -10953.654    81.999771 
    9600     479.2192   -111.63541   0.43360761    -111.2018    16315.051      4.34505      4.34505      4.34505    16315.051    -13953.56    77921.662   -15022.947   -3438.1899    1557.3217    2110.4237    82.032196 
    9700    985.51084   -112.08271   0.89171092     -111.191   -12328.398    4.3410255    4.3410255    4.3410255   -12328.398   -15360.574    9944.2146   -31568.835    935.49672    706.36095    1929.6561    81.804464 
    9800    1000.4864    -112.0947   0.90526108   -111.18943   -8537.1696    4.3429887    4.3429887    4.3429887   -8537.1696   -5343.9842    6495.8079   -26763.333    -914.8615    1839.6095   -4453.4056    81.915503 
    9900    725.00617   -111.84162   0.65600082   -111.18562    13481.871    4.3491548    4.3491548    4.3491548    13481.871   -21319.935    80754.654   -18989.105    3054.4959    2603.9563    3683.3303    82.264906 
   10000    535.18426   -111.67665   0.48424597    -111.1924    6836.4869    4.3402733    4.3402733    4.3402733    6836.4869   -18954.032    71166.672    -31703.18    3018.9947   -1313.1496   -10484.026     81.76195 
   10100    842.30645    -111.9674   0.76213658   -111.20527   -6187.7451    4.3378223    4.3378223    4.3378223   -6187.7451   -18262.441    30922.077   -31222.872    2923.8857     1783.718   -5329.5236     81.62351 
   10200    1037.1655   -112.15572   0.93844917   -111.21727   -11955.258    4.3513562    4.3513562    4.3513562   -11955.258   -24319.254      25897.3   -37443.819   -4782.3708     386.6887    9661.5132    82.389889 
   10300    1015.3521   -112.13469   0.91871193   -111.21598   -18622.167    4.3475201    4.3475201    4.3475201   -18622.167   -8316.7398    921.70413   -48471.465    3795.7179   -3506.1662   -11373.853    82.172178 
   10400    618.30992   -111.76979   0.55945981   -111.21033     18590.09    4.3347323    4.3347323    4.3347323     18590.09    9637.3611     60201.49    -14068.58    300.71923     3157.789   -3943.2255    81.449207 
   10500    501.49964   -111.66545   0.45376742   -111.21168    12649.764    4.3488622    4.3488622    4.3488622    12649.764   -6084.4898    74968.309   -30934.529   -4613.1864    577.95069    4296.6588    82.248303 
   10600    745.66553   -111.88059   0.67469384   -111.20589   -8614.5736    4.3511241    4.3511241    4.3511241   -8614.5736   -17454.179    35284.844   -43674.386    4203.8993   -186.57213   -11931.454    82.376705 
   10700     1131.026   -112.22396    1.0233761   -111.20058   -9269.9032    4.3379973    4.3379973    4.3379973   -9269.9032   -10341.626    3340.6711   -20808.755   -8477.5645    2306.8667    156.28737     81.63339 
   10800    998.89067   -112.11899   0.90381727   -111.21517    423.05856    4.3436811    4.3436811    4.3436811    423.05856   -4323.7868    40805.079   -35212.117   -992.25575   -2594.5072    7470.1423    81.954687 
   10900    685.74214   -111.83911    0.6204739   -111.21863   -5328.2674    4.3510855    4.3510855    4.3510855   -5328.2674   -11431.439     36948.77   -41502.133    3383.0984    3277.5203   -16323.301    82.374509 
   11000    500.02883   -111.66367   0.45243659   -111.21123    18107.703    4.3409995    4.3409995    4.3409995    18107.703    2463.7018    66745.267   -14885.859   -1884.7051   -1218.5243    1094.5331    81.802995 
   11100    1040.9388   -112.14377   0.94186331   -111.20191   -17027.264    4.3483807    4.3483807    4.3483807   -17027.264   -16425.705    4799.8568   -39455.945     474.6674   -427.79682   -8443.5329    82.220988 
   11200    731.56988   -111.85658    0.6619398   -111.19464   -9909.6457    4.3533808    4.3533808    4.3533808   -9909.6457   -33078.941    40549.881   -37199.878    3504.1964    1506.2668    -5285.785    82.504943 
   11300    794.61345   -111.90822   0.71898295   -111.18924    9887.9534    4.3422695    4.3422695    4.3422695    9887.9534   -14814.319    68351.658   -23873.479   -4632.1572   -94.923821    5267.8492    81.874814 
   11400    618.04229   -111.76157   0.55921765   -111.20235      922.455    4.3496033    4.3496033    4.3496033      922.455   -1246.9956    51267.854   -47253.493    6646.8895    1729.6092   -5773.1618    82.290359 
   11500    1094.5112   -112.19589   0.99033674   -111.20556   -13101.309    4.3415393    4.3415393    4.3415393   -13101.309   -14603.817    7757.3137   -32457.423    938.05118    2002.4799   -4924.1418    81.833518 
   11600    910.30419   -112.03542   0.82366236   -111.21176   -7251.9761     4.349104     4.349104     4.349104   -7251.9761   -3875.7732    16275.404   -34155.559    8494.0674    2766.2694    1403.4834     82.26202 
   11700    569.30486   -111.72545   0.51511901   -111.21033    6880.7822    4.3477109    4.3477109    4.3477109    6880.7822     10159.73    47509.986    -37027.37   -15237.106    2853.3775   -4749.7193    82.182996 
   11800     659.9529    -111.8029   0.59713925   -111.20576     15730.46    4.3351433    4.3351433    4.3351433     15730.46    7949.5885    61456.197   -22214.405    6776.2549    4113.2434    -5660.956    81.472375 
   11900    1017.4086   -112.12611   0.92057266   -111.20553   -8362.6973     4.349225     4.349225     4.349225   -8362.6973    5473.5766    5142.9258   -35704.594    3326.7585    933.77837    8076.0612    82.268888 
   12000    631.40944    -111.7642   0.57131253   -111.19288    7506.0954     4.353044     4.353044     4.353044    7506.0954     5101.423    57422.999   -40006.136   -1872.6615    4266.8881   -10601.039    82.485794 
   12100    813.05032   -111.91317   0.73566502    -111.1775   -2590.8046    4.3389849    4.3389849    4.3389849   -2590.8046    1817.5611    12973.073   -22563.048   -2039.8439   -1062.6574    6095.9125    81.689156 
   12200    965.06906   -112.05632   0.87321477    -111.1831   -19469.218    4.3484307    4.3484307    4.3484307   -19469.218   -17483.958   -11098.244   -29825.452    771.88016    1423.8156   -8332.1478    82.223822 
   12300     587.1271   -111.71336   0.53124494   -111.18211    7390.5693    4.3520884    4.3520884    4.3520884    7390.5693   -21585.548    73198.236    -29440.98   -632.25202    3225.6701   -6356.4703    82.431484 
   12400     1063.852   -112.14634   0.96259563   -111.18375   -5960.5818    4.3425001    4.3425001    4.3425001   -5960.5818   -21701.076    35035.615   -31216.285   -992.54827   -1313.0502    7547.6557    81.887859 
   12500    1094.7077   -112.18146   0.99051452   -111.19095   -8783.9386    4.3407398    4.3407398    4.3407398   -8783.9386   -11258.956    14194.394   -29287.254    5383.7766    1436.2327   -332.38324    81.788313 
   12600    910.54754   -112.03008   0.82388255    -111.2062   -11925.286    4.3490498    4.3490498    4.3490498   -11925.286   -5835.1019    6743.5156   -36684.271   -12730.624    1402.7326   -4504.9591    82.258946 
   12700    515.50809   -111.67212   0.46644256   -111.20567    11520.152    4.3417255    4.3417255    4.3417255    11520.152   -8384.0512     70968.27   -28023.763    5744.5212    2111.9104    6408.1547    81.844044 
   12800    545.92685   -111.69874   0.49396609   -111.20477    1414.0838    4.3415945    4.3415945    4.3415945    1414.0838    11157.219    13459.288   -20374.255    -8811.182   -1785.7916   -3599.9395     81.83664 
   12900    945.60235    -112.0494   0.85560088    -111.1938   -10362.312    4.3495794    4.3495794    4.3495794   -10362.312    20584.285   -11090.727   -40580.494   -4871.4101    651.52501   -1909.3812    82.289003 
   13000    776.89385   -111.89099   0.70294988   -111.18804    8939.9973    4.3443253    4.3443253    4.3443253    8939.9973     4277.561    50544.741    -28002.31    11893.653    42.391009    8213.7907    81.991155 
   13100    878.20516   -111.97988   0.79461848   -111.18526    8489.0029    4.3384754    4.3384754    4.3384754    8489.0029     20486.48    34793.366   -29812.837    6961.2632   -1118.7688   -8750.9124    81.660383 
   13200    880.68243   -111.98318   0.79685997   -111.18632   -7652.3992    4.3501135    4.3501135    4.3501135   -7652.3992   -18157.334    30149.044   -34948.907   -2397.3463   -191.69285     8645.929    82.319316 
   13300    543.50781   -111.67724   0.49177728   -111.18546   -14591.457    4.3524426    4.3524426    4.3524426   -14591.457   -22815.073    13760.296   -34719.594   -3739.6515   -1845.2404    2598.5602    82.451614 
   13400    936.92906    -112.0281    0.8477531   -111.18035    3259.0005    4.3320882    4.3320882    4.3320882    3259.0005    7132.5409    24645.671    -22001.21   -2081.7588   -164.50094   -3489.3067    81.300248 
   13500    930.46751   -112.03089   0.84190655   -111.18898   -3115.4815    4.3493494    4.3493494    4.3493494   -3115.4815    -13594.05    47373.783   -43126.177    2116.0131   -3527.1414    4766.1938    82.275949 
   13600    842.28193   -111.95145   0.76211439   -111.18933    6043.5301     4.348294     4.348294     4.348294    6043.5301    8696.6452    47012.712   -37578.767    8988.3607    1598.3378     -2287.68    82.216067 
   13700    1126.2412   -112.20332    1.0190467   -111.18428    2602.3906    4.3306103    4.3306103    4.3306103    2602.3906    10901.193    19619.656   -22713.677    2151.6371   -2866.9258     -5312.36    81.217068 
   13800    405.32333    -111.5607   0.36674507   -111.19396   -6922.6411    4.3551112    4.3551112    4.3551112   -6922.6411    12138.949    3871.5275     -36778.4   -5455.5789    1574.9785    11586.822    82.603365 
   13900     795.6401   -111.89796   0.71991188   -111.17805    380.69742    4.3460223    4.3460223    4.3460223    380.69742    778.91653    25627.817   -25264.641    5239.1087    86.367189   -2635.0936    82.087278 
   14000    738.26845   -111.84595   0.66800081   -111.17795    5266.6679    4.3375577    4.3375577    4.3375577    5266.6679    6869.1928    31942.529   -23011.719    1430.1887    -1562.977    3568.3939    81.608572 
   14100    703.64873   -111.82509   0.63667615   -111.18841    561.72439    4.3431485    4.3431485    4.3431485    561.72439    8546.7678    25120.691   -31982.285    12020.318   -465.19788    10110.143    81.924545 
   14200    1105.5205   -112.18944    1.0002982   -111.18914   -6540.4594    4.3510126    4.3510126    4.3510126   -6540.4594    -14459.88     27532.23   -32693.729   -8641.4094   -127.72999   -1827.4711    82.370369 
   14300    998.76958   -112.09457   0.90370771   -111.19086   -13843.985    4.3424162    4.3424162    4.3424162   -13843.985   -13446.523    1740.9459   -29826.378   -1068.7581   -1348.7871     3819.134    81.883114 
   14400    474.78363    -111.6208   0.42959421   -111.19121    17554.888    4.3382931    4.3382931    4.3382931    17554.888   -4247.0263    79900.551   -22988.862   -8016.7844     1019.616    6029.9928    81.650093 
   14500    1006.0573   -112.09807   0.91030177   -111.18777    -22828.17    4.3544473    4.3544473    4.3544473    -22828.17   -38290.076     11638.45   -41832.885   -1831.4393     2898.106   -4446.9727    82.565593 
   14600    908.91998   -112.01509    0.8224099   -111.19268    778.56996    4.3368527    4.3368527    4.3368527    778.56996    12350.658    16666.089   -26681.037    5638.6459   -3881.5546    6646.0028     81.56879 
   14700    606.75808   -111.75609   0.54900746   -111.20708    -1959.451    4.3420628    4.3420628    4.3420628    -1959.451   -8466.7323    39662.498   -37074.119    2534.2326    6019.3619    9011.8508    81.863121 
   14800    1086.5545   -112.18458   0.98313732   -111.20145    1785.2029    4.3435061    4.3435061    4.3435061    1785.2029   -1335.8195    34266.285   -27574.857   -8465.7713    166.45783   -4427.2466    81.944781 
   14900    808.75678   -111.92613   0.73178013   -111.19435   -10674.465    4.3485899    4.3485899    4.3485899   -10674.465   -1830.2997    6856.1512   -37049.247    11023.591    1885.6945    8978.8867    82.232851 
   15000    694.30434   -111.81194   0.62822116   -111.18372   -4863.3622    4.3331045    4.3331045    4.3331045   -4863.3622   -8712.6179    9329.1797   -15206.648   -2932.4977    3613.3476    1853.9738    81.357482 
   15100    611.04178   -111.74359   0.55288344    -111.1907    12220.565    4.3422929    4.3422929    4.3422929    12220.565   -1393.0002    59442.977   -21388.282    6308.1189    2470.6762   -3510.5842    81.876139 
   15200    756.84082    -111.8791   0.68480548   -111.19429   -5823.9198    4.3518308    4.3518308    4.3518308   -5823.9198   -17961.623    33782.857   -33292.994   -8695.6332    1116.0096    6681.1745     82.41685 
   15300    1047.9642   -112.14167   0.94822006   -111.19345    2748.2348     4.335896     4.335896     4.335896    2748.2348    3891.3551    24771.274   -20417.924   -4824.7743   -756.14909    1832.2996    81.514822 
   15400    1053.2435   -112.15284   0.95299688   -111.19984   -17106.954    4.3481537    4.3481537    4.3481537   -17106.954   -30927.001    10482.444   -30876.305    3004.5081   -1618.9058   -5118.4317    82.208108 
   15500    480.88767   -111.63297   0.43511727   -111.19785    18226.436    4.3498865    4.3498865    4.3498865    18226.436    2119.9223    72985.666    -20426.28   -64.346822    838.15296    3965.9101    82.306434 
   15600    865.78572    -111.9704   0.78338112   -111.18702   -16394.296    4.3465212    4.3465212    4.3465212   -16394.296   -9262.5195   -20243.947   -19676.422    8107.9533    694.39526   -7080.7948    82.115551 
   15700    730.05064   -111.84317   0.66056516   -111.18261   -5423.1525    4.3442549    4.3442549    4.3442549   -5423.1525   -12626.224    13867.268   -17510.502   -5009.1397   -915.51603    2310.7005    81.987169 
   15800    676.74658   -111.79553   0.61233453   -111.18319    12967.129    4.3500531    4.3500531    4.3500531    12967.129   -618.74143    63184.709   -23664.581    15953.997    3185.1303    4946.1208    82.315888 
   15900    739.90392   -111.86273   0.66948061   -111.19325    14323.414    4.3430829    4.3430829    4.3430829    14323.414    9785.0858    54703.548   -21518.393    -9884.759   -1272.6604   -4480.0929    81.920835 
   16000     1173.634   -112.26197    1.0619287   -111.20004   -22202.579     4.343012     4.343012     4.343012   -22202.579   -30247.879   -2766.4025   -33593.456    3733.8744    2721.9874      785.956    81.916821 
   16100    844.09271   -111.97052   0.76375283   -111.20677   -13122.658    4.3520758    4.3520758    4.3520758   -13122.658   -28574.766    26458.513    -37251.72    -6801.432   -2895.5027   -831.46403     82.43077 
   16200    350.96236    -111.5255   0.31755811   -111.20794    18575.206    4.3427605    4.3427605    4.3427605    18575.206    13175.518    58901.018   -16350.917    7450.8329   -3276.1511   -8405.6432    81.902591 
   16300    773.49735   -111.90588   0.69987666     -111.206   -1295.5346    4.3470077    4.3470077    4.3470077   -1295.5346   -18843.624    32975.694   -18018.673   -905.82159    4757.9405    431.10064    82.143129 
   16400    1202.2878   -112.28294    1.0878553   -111.19508   -14479.617    4.3490985    4.3490985    4.3490985   -14479.617    3837.4448   -14308.408   -32967.889   -303.10962    2847.0682    3049.6866    82.261712 
   16500    383.48415   -111.53983   0.34698452   -111.19285     15507.45    4.3481863    4.3481863    4.3481863     15507.45   -11345.598    76325.073   -18457.125   -3762.3465   -1411.7837   -6059.8445    82.209961 
   16600     757.3275   -111.87472   0.68524584   -111.18948    1151.8885    4.3461514    4.3461514    4.3461514    1151.8885   -26928.799    49776.973   -19392.509    4519.6392    5424.6279    6451.7539    82.094593 
   16700     850.0304   -111.96193   0.76912537    -111.1928    9885.0638    4.3422662    4.3422662    4.3422662    9885.0638    15530.834    30130.702   -16006.344    566.01325    6522.4197   -7197.7583    81.874627 
   16800     975.2882   -112.08557   0.88246126   -111.20311   -26824.946    4.3591322    4.3591322    4.3591322   -26824.946   -32937.441   -20470.201   -27067.196   -1734.7812   -311.69303   -4523.0892    82.832376 
   16900    626.21374   -111.76448   0.56661135   -111.19786    31059.468    4.3401642    4.3401642    4.3401642    31059.468     26871.49    88878.099   -22571.184   -3592.1029    -569.9819     5364.761    81.755783 
   17000     711.1487   -111.84655   0.64346229   -111.20309    12005.652    4.3400955    4.3400955    4.3400955    12005.652   -5011.3626    56105.385   -15077.065    -2671.952    2867.7787   -8137.4907    81.751899 
   17100    793.71372   -111.91733   0.71816886   -111.19916   -27195.367    4.3618732    4.3618732    4.3618732   -27195.367   -26299.712   -17715.557    -37570.83   -6368.6494   -4856.5467   -1003.5357     82.98873 
   17200     603.5956   -111.73113   0.54614599   -111.18498    17849.557    4.3412846    4.3412846    4.3412846    17849.557    14054.256    50951.398   -11456.982   -1411.1856   -6246.0897    -2702.162    81.819117 
   17300    944.99039   -112.03635   0.85504716    -111.1813    2642.8966    4.3373241    4.3373241    4.3373241    2642.8966    4457.5984     16986.65   -13515.558    851.01115    2544.7747   -4466.4765    81.595393 
   17400     674.6018   -111.79306   0.61039388   -111.18267    -4062.347    4.3632841    4.3632841    4.3632841    -4062.347    4897.6604     20407.95   -37492.651   -2545.6539   -4996.8408   -2253.4132    83.069284 
   17500    1120.6171   -112.18618    1.0139579   -111.17223   -7888.8218     4.344685     4.344685     4.344685   -7888.8218   -10933.566    9692.9447   -22425.844     7052.249    3979.3836   -3983.7131    82.011526 
   17600    743.14729   -111.84513   0.67241528   -111.17271    5623.3223    4.3346417    4.3346417    4.3346417    5623.3223     8311.086    27360.636   -18801.755    1994.7399     3144.875   -2406.9832    81.444095 
   17700    638.47973   -111.76005   0.57770988   -111.18234   -14871.196    4.3602089    4.3602089    4.3602089   -14871.196   -29824.251    18038.577   -32827.915    2867.8912    269.93927   -4910.3983    82.893772 
   17800    688.73455   -111.80995    0.6231815   -111.18677    12538.341    4.3462927    4.3462927    4.3462927    12538.341   -4411.7937    65433.804   -23406.987     2393.583    226.62947   -1864.5644    82.102598 
   17900    1062.4103   -112.15016   0.96129115   -111.18886   -5371.4304    4.3358258    4.3358258    4.3358258   -5371.4304     25212.68   -8245.5405   -33081.431   -9889.9271    4995.5569   -3279.9415    81.510858 
   18000     818.3124   -111.93905   0.74042626   -111.19862    2351.4812    4.3511172    4.3511172    4.3511172    2351.4812    3034.4584    36009.071   -31989.085    5583.3346   -1154.8518   -1759.1984    82.376312 
   18100    832.98541   -111.94427    0.7537027   -111.19057   -13558.479    4.3535927    4.3535927    4.3535927   -13558.479   -24768.633    26131.453   -42038.258    396.00902     77.06113   -4607.2629    82.516994 
   18200    724.09506   -111.83909   0.65517643   -111.18392    3635.1398     4.335012     4.335012     4.335012    3635.1398    7942.6101    19816.026   -16853.217    459.99976    3403.2393   -7903.2854    81.464971 
   18300    864.78339   -111.97426   0.78247418   -111.19178   -7288.9498      4.34833      4.34833      4.34833   -7288.9498    -19728.23    23193.534   -25332.154    5771.4871   -495.53011    6036.2885    82.218111 
   18400    761.17453   -111.87755   0.68872671   -111.18882   -12129.689    4.3563745    4.3563745    4.3563745   -12129.689    6933.0379    1801.6011   -45123.705   -6145.0253    463.72997   -5825.7806    82.675273 
   18500    1032.4814   -112.11321   0.93421083     -111.179    4049.2852    4.3389552    4.3389552    4.3389552    4049.2852     15146.37     9856.118   -12854.632   -6446.5905   -3293.4856   -144.39257    81.687481 
   18600    720.83543   -111.83719   0.65222704   -111.18496    1336.0361    4.3501975    4.3501975    4.3501975    1336.0361   -11493.399    45907.676   -30406.168    11912.586    1573.9353   -515.06348    82.324087 
   18700    820.71727   -111.92456   0.74260223   -111.18196   -13561.207    4.3498868    4.3498868    4.3498868   -13561.207   -26857.754    14904.378   -28730.245    1098.9654    -401.6432   -2753.7507     82.30645 
   18800    958.81496   -112.05003   0.86755592   -111.18247   -1836.6778    4.3429374    4.3429374    4.3429374   -1836.6778   -6983.1023    21403.961   -19930.892    974.96764   -195.94762    -4216.353    81.912601 
   18900    494.50476   -111.64523    0.4474383   -111.19779    -987.1171    4.3497203    4.3497203    4.3497203    -987.1171   -18796.915    41840.124    -26004.56    4945.0303    867.64283    3206.9048    82.296996 
   19000    851.43643    -111.9754   0.77039757     -111.205    9446.7071    4.3410379    4.3410379    4.3410379    9446.7071     448.1987    50360.304   -22468.382    978.66554    1550.0536   -6092.2225    81.805166 
   19100    982.98644   -112.09041   0.88942679   -111.20099   -10461.096    4.3491783    4.3491783    4.3491783   -10461.096    1268.8434   -8068.9574   -24583.174    14034.652   -3285.8764    3612.4329    82.266239 
   19200    622.71735   -111.75634   0.56344774    -111.1929   -5360.4317    4.3452337    4.3452337    4.3452337   -5360.4317   -28497.687    22689.419   -10273.027   -3279.2645    1228.8106   -3150.8895    82.042602 
   19300    693.47003   -111.81336   0.62746625   -111.18589    5176.2616    4.3450284    4.3450284    4.3450284    5176.2616   -14678.309    56514.158   -26307.064    391.39788   -1586.9075   -783.06699    82.030972 
   19400    694.52695   -111.81896   0.62842258   -111.19054    14394.455    4.3470979    4.3470979    4.3470979    14394.455    13109.748    37288.712   -7215.0959   -7311.5019     249.2555    1810.8582    82.148242 
   19500    1146.2965   -112.23221    1.0371932   -111.19502   -19643.195    4.3493187    4.3493187    4.3493187   -19643.195   -21624.889   -7143.4284   -30161.268    16435.272    1077.4303   -4834.1281    82.274208 
   19600    803.22047   -111.92092   0.72677076   -111.19415    9810.1868    4.3429897    4.3429897    4.3429897    9810.1868    16281.116    34385.716   -21236.271   -11526.298    1742.6908   -2644.6699    81.915557 
   19700    700.69298    -111.8278   0.63400174    -111.1938    13127.363    4.3405337    4.3405337    4.3405337    13127.363   -8301.6359    60737.255   -13053.529    1631.1196   -2033.3239    8469.5333    81.776663 
   19800    813.09024    -111.9232   0.73570114    -111.1875    -33080.11    4.3599692    4.3599692    4.3599692    -33080.11   -53193.507   -9790.7669   -36256.057    4217.1989   -2679.4049   -6003.4515      82.8801 
   19900    659.50265   -111.77324   0.59673186   -111.17651    13100.289    4.3394759    4.3394759    4.3394759    13100.289   -9964.7484     58996.49   -9730.8731   -2015.0526    4419.3937    161.11201    81.716892 
   20000    823.37335   -111.92448   0.74500551   -111.17947    9668.3575    4.3397379    4.3397379    4.3397379    9668.3575    19873.252    27537.134   -18405.314    2301.6356   -2437.5334    6683.9572    81.731696 
   20100     971.0426    -112.0619   0.87861975   -111.18328   -13347.145     4.359508     4.359508     4.359508   -13347.145   -23489.852     8286.178   -24837.762    4557.9752    825.56249   -6976.7058    82.853804 
   20200    855.61987    -111.9558   0.77418284   -111.18161    14236.139    4.3402804    4.3402804    4.3402804    14236.139    15911.528     50179.83    -23382.94   -7466.0219   -4359.3794    5264.8529    81.762351 
   20300    608.52145   -111.74327     0.550603   -111.19267   -7113.1506    4.3400187    4.3400187    4.3400187   -7113.1506   -35009.122    22016.216   -8346.5459    1454.8434    931.50682     2690.554     81.74756 
   20400    791.55044   -111.90926   0.71621147   -111.19305   -19638.647    4.3516255    4.3516255    4.3516255   -19638.647   -37037.856   -2866.5993   -19011.487    498.92403   -1332.2382   -4807.8149    82.405183 
   20500    678.43138   -111.80111   0.61385897   -111.18725    6010.1738    4.3505818    4.3505818    4.3505818    6010.1738   -2358.3131    51186.689   -30797.855   -1292.7978   -6136.8519    8824.9438    82.345908 
   20600    1063.7343   -112.14604   0.96248912   -111.18356   -6927.3617    4.3389003    4.3389003    4.3389003   -6927.3617    8383.6042    -12267.28    -16898.41    12794.414   -1674.0353   -5258.0689    81.684379 
   20700    878.13419   -111.98705   0.79455427   -111.19249    4912.9322    4.3470732    4.3470732    4.3470732    4912.9322    2387.5803    33740.201   -21388.985    206.53557   -4075.4979     1592.091     82.14684 
   20800    747.91817    -111.8608   0.67673208   -111.18407    772.14265    4.3533662    4.3533662    4.3533662    772.14265    3458.3421    14891.615   -16033.529   -6029.5202    318.23764    3226.1564    82.504116 
   20900    560.53054   -111.68472   0.50717981   -111.17754    4016.8866     4.339064     4.339064     4.339064    4016.8866   -15160.419    44297.868   -17086.789    4112.1079    110.17832   -4313.7731    81.693624 
   21000     1031.718   -112.11554   0.93352011   -111.18202   -17116.124    4.3484888    4.3484888    4.3484888   -17116.124   -35499.655   -6586.1684   -9262.5484    -6164.012    3376.8782     4122.261    82.227118 
   21100    569.23617   -111.70269   0.51505685   -111.18763    20037.495    4.3489659    4.3489659    4.3489659    20037.495    35309.782    62405.563   -37602.858    11273.603   -116.19749   -4970.4458    82.254186 
   21200    1077.4097   -112.16863   0.97486298   -111.19377   -13131.015    4.3431152    4.3431152    4.3431152   -13131.015    -14501.42    -2198.042   -22693.582    6941.9725    4101.8595   -749.75079    81.922661 
   21300    808.21058   -111.93047   0.73128592   -111.19918    6633.9042    4.3400053    4.3400053    4.3400053    6633.9042     15504.92    20751.698   -16354.906    8.9443503    197.36782   -2819.9947    81.746802 
   21400    617.39484   -111.75953   0.55863183    -111.2009   -15657.772    4.3527864    4.3527864    4.3527864   -15657.772    -34698.15    19966.935   -32242.102    576.63361    1624.8344   -3801.4616    82.471155 
   21500    722.55712   -111.84433   0.65378486   -111.19055   -13975.298     4.346222     4.346222     4.346222   -13975.298   -33390.752    9735.8792   -18271.023    4904.8909   -2292.6588   -981.74052    82.098594 
   21600    889.60047   -111.98687    0.8049292   -111.18194     15186.53    4.3385719    4.3385719    4.3385719     15186.53    31903.087    30640.327   -16983.826   -9938.7271   -857.15033    1190.2818    81.665835 
   21700    927.30337    -112.0193   0.83904358   -111.18026   -13560.041    4.3582378    4.3582378    4.3582378   -13560.041   -11964.408    11306.528   -40022.242    11238.825   -819.12385   -4224.3662    82.781402 
   21800    797.51346   -111.89795   0.72160694   -111.17635    17456.931    4.3391138    4.3391138    4.3391138    17456.931      24687.9     44239.76   -16556.866    2931.5489   -2499.7784    522.47198    81.696439 
   21900    962.29061   -112.05888   0.87070076   -111.18818   -11357.932    4.3417488    4.3417488    4.3417488   -11357.932   -14237.169   -2413.5886   -17423.038   -2958.8143   -397.76315   -112.08736    81.845362 
   22000    537.62212    -111.6825   0.48645179   -111.19605   -9383.5986    4.3535895    4.3535895    4.3535895   -9383.5986   -24846.074    28820.193   -32124.914   -4226.6849    282.15238   -7088.6452    82.516811 
   22100    1012.2005    -112.1041   0.91586025   -111.18824   -2752.6448    4.3419793    4.3419793    4.3419793   -2752.6448   -5552.3938    15432.939   -18138.479    1120.6015    3676.8364    1792.0465    81.858399 
   22200    709.59778   -111.83121   0.64205899   -111.18915    2063.6909     4.348015     4.348015     4.348015    2063.6909    13614.247    20531.857   -27955.031   -13548.904   -3208.0881   -2136.0276    82.200243 
   22300    1081.3646   -112.16382    0.9784414   -111.18538   -4967.6961    4.3470057    4.3470057    4.3470057   -4967.6961    6042.5058     10568.76   -31514.354    14112.311    605.33806   -2998.9223    82.143014 
   22400    679.54775   -111.80394   0.61486908   -111.18907   -2395.0317     4.347773     4.347773     4.347773   -2395.0317   -13070.819     26357.29   -20471.565   -15070.027   -3470.5975    2466.1927     82.18652 
   22500    665.86938   -111.78885   0.60249261   -111.18635   -5731.8698    4.3396078    4.3396078    4.3396078   -5731.8698   -22648.391    19167.942    -13715.16    4674.1858    1902.2583   -6995.8552    81.724342 
   22600    767.44785   -111.88262   0.69440294   -111.18822   -707.47375    4.3524074    4.3524074    4.3524074   -707.47375   -8838.4263    31436.758   -24720.752   -9700.1681   -1332.0372    78.869821    82.449614 
   22700    1059.8308    -112.1439   0.95895715   -111.18494   -2423.0785    4.3467658    4.3467658    4.3467658   -2423.0785    6711.2781    9213.3359   -23193.849   -1760.9233    2216.1825   -210.34492    82.129414 
   22800    823.37961   -111.94081   0.74501117    -111.1958    14114.146    4.3368012    4.3368012    4.3368012    14114.146     48878.56    13077.177   -19613.299    1977.2873     425.9305   -8290.4403    81.565883 
   22900    883.06886   -111.99656   0.79901926   -111.19754    -12532.73    4.3548617    4.3548617    4.3548617    -12532.73   -23868.919    10801.785   -24531.055    10986.516    4465.7275    5696.5339     82.58917 
   23000    705.78371   -111.82466   0.63860793   -111.18605    -4546.695    4.3433937    4.3433937    4.3433937    -4546.695   -13984.385    20957.156   -20612.856   -10893.616     -3328.71    134.27755    81.938419 
   23100    588.72349   -111.71549   0.53268938    -111.1828    1840.3135    4.3438127    4.3438127    4.3438127    1840.3135    14698.696    4305.2328   -13482.989    4159.5962    3308.1668   -8991.7049    81.962136 
   23200    880.97888   -111.97105    0.7971282   -111.17393    3874.9618    4.3502181    4.3502181    4.3502181    3874.9618    20444.609    19328.894   -28148.618   -9027.6405   -2857.1915    2019.8475    82.325259 
   23300    923.06646   -112.01151   0.83520994    -111.1763     -3774.63    4.3475086    4.3475086    4.3475086     -3774.63    24916.346   -8212.0792   -28028.157   -9637.0603   -36.079402   -5896.2136    82.171526 
   23400    821.23865   -111.92494   0.74307399   -111.18187   -2142.3487    4.3430826    4.3430826    4.3430826   -2142.3487    21434.194    1938.9694   -29800.209    5609.8456   -2322.3536   -8597.9845    81.920814 
   23500    826.83698   -111.93345   0.74813947   -111.18531   -2207.8452    4.3455966    4.3455966    4.3455966   -2207.8452   -8197.7349    18592.886   -17018.687    2724.0614    -7320.218    459.01753    82.063155 
   23600    802.69752   -111.91499   0.72629758   -111.18869   -24193.042    4.3510224    4.3510224    4.3510224   -24193.042   -37906.208   -8689.7797   -25983.137    4136.0635   -966.57516   -7577.2602    82.370925 
   23700    579.92672   -111.71253   0.52472989    -111.1878    18033.151    4.3395387    4.3395387    4.3395387    18033.151    38722.624    30716.679   -15339.849   -74.486011   -76.644856   -4372.0127     81.72044 
   23800    1011.6862   -112.10019   0.91539496   -111.18479   -3605.6218    4.3517674    4.3517674    4.3517674   -3605.6218   -4210.4511    13089.551   -19695.966    2941.3486    1139.3105    7647.9313    82.413248 
   23900      930.158   -112.01932   0.84162651    -111.1777   -5119.9207    4.3503996    4.3503996    4.3503996   -5119.9207    17845.766    3567.6776   -36773.206    -7394.363    1678.6841   -6839.9877    82.335559 
   24000    709.10181   -111.81522   0.64161022   -111.17361     10022.57     4.342357     4.342357     4.342357     10022.57    28.939794    36560.356   -6521.5856    11133.809    3588.2487    1109.4491    81.879763 
   24100    920.88583   -112.00646   0.83323686   -111.17322   -16461.446    4.3498607    4.3498607    4.3498607   -16461.446   -20695.813   -4178.3659   -24510.158   -7056.2062   -5162.6865    2069.2215    82.304966 
   24200    482.93739   -111.61614    0.4369719   -111.17916    10855.153    4.3492876    4.3492876    4.3492876    10855.153    25723.208    21089.803   -14247.551    7870.1927   -1572.5912   -10549.203    82.272439 
   24300    1060.6463   -112.13863   0.95969505   -111.17893   -15169.306     4.348714     4.348714     4.348714   -15169.306   -441.96468   -23259.429   -21806.523    1468.3956   -3655.6432   -74.152428    82.239896 
   24400    881.43439   -111.97836   0.79754036   -111.18082    8080.4485    4.3408456    4.3408456    4.3408456    8080.4485    24187.541    19738.788   -19684.983   -4538.5057    10886.995   -481.45037    81.794294 
   24500    700.46484   -111.82132   0.63379531   -111.18753    3462.1347    4.3510402    4.3510402    4.3510402    3462.1347    32442.015   -5881.2134   -16174.398     9188.752   -3851.7308     -10839.5    82.371938 
   24600    1029.9128   -112.11395   0.93188675   -111.18206   -15788.322    4.3503068    4.3503068    4.3503068   -15788.322   -30896.446     5066.107   -21534.628   -3329.3056     1770.992    11681.389    82.330295 
   24700     343.8364     -111.499    0.3111104   -111.18789    22924.432    4.3397924    4.3397924    4.3397924    22924.432    41472.953    30715.991   -3415.6481    6998.4872    5449.1085   -8270.1634    81.734772 
   24800    967.80563   -112.06136   0.87569087   -111.18566   -24749.589    4.3526946    4.3526946    4.3526946   -24749.589   -36756.704   -10929.379   -26562.684     422.3625     225.6949   -699.09867    82.465935 
   24900    752.57286   -111.85906   0.68094374   -111.17812    9577.9429    4.3490703    4.3490703    4.3490703    9577.9429    18239.581    21528.061   -11033.813   -1209.9492   -2500.9131    5244.4412    82.260109 
   25000    865.78469   -111.95705   0.78338018   -111.17367   -938.97223    4.3437364    4.3437364    4.3437364   -938.97223    13033.476     1612.167    -17462.56   -322.21154     3348.143   -12993.563    81.957819 
   25100    926.84115   -112.01081   0.83862535   -111.17218   -6347.0077     4.350556     4.350556     4.350556   -6347.0077   -15632.039    8104.3794   -11513.363   -5500.9064     -9458.38   -961.40241    82.344444 
   25200    461.67928   -111.59215   0.41773712   -111.17441    8157.3145    4.3525586    4.3525586    4.3525586    8157.3145    25274.604    25490.338   -26292.999    1672.1562    272.24876   -2475.7196    82.458207 
   25300    921.75731   -112.01153   0.83402539   -111.17751    -7032.071    4.3362172    4.3362172    4.3362172    -7032.071   -11859.484   -2498.4784   -6738.2503   -6313.1413    3494.9864   -11580.776    81.532937 
   25400      654.606   -111.78984   0.59230127   -111.19754    19369.954    4.3443161    4.3443161    4.3443161    19369.954    11985.796    55481.791   -9357.7246    9348.5338    20.126623    4234.7695    81.990636 
   25500    1057.5997   -112.14892   0.95693839   -111.19198   -19046.256    4.3554299    4.3554299    4.3554299   -19046.256   -9752.1151   -12540.579   -34846.073    8120.4079    6083.0706   -3908.5086    82.621502 
   25600    802.36816    -111.9078   0.72599957    -111.1818    18638.408     4.331205     4.331205     4.331205    18638.408    20103.614    37666.487   -1854.8763   -3138.0627   -541.82351    472.31996    81.250533 
   25700      767.307   -111.88409    0.6942755   -111.18981    2783.6494    4.3519501    4.3519501    4.3519501    2783.6494    5925.5502    15682.057   -13256.659   -994.25319    3815.0145    2156.8938    82.423629 
   25800    680.89206   -111.79374   0.61608545   -111.17765   -17193.065    4.3579477    4.3579477    4.3579477   -17193.065   -24187.133    2496.2205   -29888.281   -4146.9759    6763.8623   -5976.3851    82.764871 
   25900    909.23953   -111.98869   0.82269904   -111.16599    10623.484    4.3292974    4.3292974    4.3292974    10623.484    7118.1461    24231.519    520.78612     1717.294   -3698.5629   -6507.5732    81.143226 
   26000    727.23923   -111.84342   0.65802134    -111.1854   -2573.5024    4.3492966    4.3492966    4.3492966   -2573.5024   -16144.919    33747.949   -25323.536   -4990.7122    4315.4084    4701.5621     82.27295 
   26100    794.64994   -111.90607   0.71901597   -111.18706   -15096.806    4.3494292    4.3494292    4.3494292   -15096.806    6865.2703   -17693.061   -34462.627     4455.461    9792.5553   -3666.7157    82.280474 
   26200    1027.4208    -112.1111   0.92963192   -111.18147   -1935.7667    4.3363946    4.3363946    4.3363946   -1935.7667   -18342.217    20989.468   -8454.5505   -6424.2954   -7832.4762   -1107.4979    81.542942 
   26300    420.24472   -111.56701   0.38024625   -111.18677    3992.6139    4.3517406    4.3517406    4.3517406    3992.6139    5630.1133    26577.243   -20229.514    4798.9356    7839.4083    5001.1645    82.411725 
   26400    939.62173   -112.02937   0.85018948   -111.17918    -11562.21    4.3437532    4.3437532    4.3437532    -11562.21   -26409.482    11390.475   -19667.623   -8274.2755   -706.83834   -898.17723    81.958767 
   26500    983.84128   -112.07235   0.89020026   -111.18215    1596.6807    4.3428867    4.3428867    4.3428867    1596.6807    15717.499     11377.78   -22305.237    1290.8919    6954.2138   -1351.6756    81.909729 
   26600    686.07998   -111.80689   0.62077958   -111.18611   -1427.4321    4.3488777    4.3488777    4.3488777   -1427.4321   -3488.0258        27093   -27887.271    4500.3407     12125.36   -3043.3488    82.249182 
   26700    977.33124   -112.06699   0.88430984   -111.18268   -10046.183    4.3472068    4.3472068    4.3472068   -10046.183    -5002.231   -14139.188    -10997.13   -8888.2586   -4546.4897   -3720.1052    82.154412 
   26800    543.28545   -111.67725   0.49157609   -111.18567    250.21077    4.3496237    4.3496237    4.3496237    250.21077    13173.629     27999.51   -40422.507    2611.6013    2413.7324    11213.882    82.291516 
   26900    737.86617   -111.85569   0.66763682   -111.18805    4511.8551    4.3349886    4.3349886    4.3349886    4511.8551    3432.9706    26783.812   -16681.217    1706.8167    7744.7213     985.1464    81.463651 
   27000    1063.0166   -112.15728   0.96183977   -111.19544   -15780.541    4.3523634    4.3523634    4.3523634   -15780.541   -2384.5129   -18723.049   -26234.061   -7560.8364   -7078.8602    615.96804    82.447112 
   27100    706.61633   -111.82718   0.63936131   -111.18782   -4058.2719    4.3545078    4.3545078    4.3545078   -4058.2719    6433.4523    3820.5762   -22428.844    7901.7612    6731.6902    6102.8638    82.569038 
   27200    993.81382   -112.07272   0.89922363   -111.17349    2121.1139    4.3346072    4.3346072    4.3346072    2121.1139    30041.201   -786.70192   -22891.158   -1314.7045    2628.7271    1305.9864    81.442151 
   27300    825.67586   -111.92662   0.74708887   -111.17954    2788.4618    4.3495957    4.3495957    4.3495957    2788.4618    13507.296    13625.991   -18767.902   -2902.1731   -1695.8899   -2784.7214    82.289927 
   27400    517.44491   -111.65148   0.46819503   -111.18328    934.10008    4.3529161    4.3529161    4.3529161    934.10008   -15168.566    38775.086   -20804.219   -4276.3871    9249.9424    893.20023    82.478526 
   27500    1040.5078   -112.12343   0.94147331   -111.18196   -8823.2826    4.3381561    4.3381561    4.3381561   -8823.2826    1824.6617   -10035.741   -18258.769    4153.2387   -2238.7687   -6383.0371    81.642353 
   27600    822.97909   -111.93851   0.74464877   -111.19386    9092.1649    4.3417884    4.3417884    4.3417884    9092.1649    35210.662    14517.307   -22451.474   -10203.367    -3063.663    383.36077    81.847605 
   27700    776.82188   -111.90195   0.70288476   -111.19906   -2107.7727    4.3505865    4.3505865    4.3505865   -2107.7727    4499.7329    17287.589    -28110.64    1569.4428    3274.3233     4589.773    82.346176 
   27800    923.54094   -112.02134   0.83563925    -111.1857   -3136.4872    4.3434755    4.3434755    4.3434755   -3136.4872    14785.545   -3977.0927   -20217.914   -8425.1959    -7302.509   -3777.8724    81.943052 
   27900     549.5263   -111.67918   0.49722294   -111.18196   -2365.8247    4.3420114    4.3420114    4.3420114   -2365.8247   -1913.6983    6299.2621   -11483.038    518.77575    2140.6543     3670.402    81.860214 
   28000    869.55615   -111.96765   0.78679268   -111.18086   -15557.962    4.3455643    4.3455643    4.3455643   -15557.962   -12093.672   -1594.1747   -32986.038    2393.6108    8108.5131    2032.3531    82.061329 
   28100    867.23034   -111.96691   0.78468823   -111.18223   -54.530103    4.3460797    4.3460797    4.3460797   -54.530103    15281.791    1366.6335   -16812.015   -3747.0416   -3728.6021   -8231.5145    82.090531 
   28200    704.76362   -111.82846   0.63768493   -111.19078     6370.893    4.3439603    4.3439603    4.3439603     6370.893    25927.342    27728.502   -34543.166    4833.7706    8774.8136    5473.9091     81.97049 
   28300    1103.2139   -112.18645    0.9982111   -111.18824   -15546.076    4.3422807    4.3422807    4.3422807   -15546.076    -2825.728   -7425.6882   -36386.811   -8763.1823    4629.1289   -1511.3921    81.875446 
   28400    587.52749   -111.72183   0.53160722   -111.19023    8037.7416    4.3424577    4.3424577    4.3424577    8037.7416   -4086.9037    50076.741   -21876.612   -28.697078   -4525.5936    -2003.343    81.885458 
   28500     685.4432     -111.808   0.62020341    -111.1878     -14509.5    4.3494073    4.3494073    4.3494073     -14509.5   -17184.955     92.59807   -26436.143   -1890.7421    5164.6657     6810.671    82.279233 
   28600    761.28368   -111.86651   0.68882547   -111.17769    13725.997    4.3366538    4.3366538    4.3366538    13725.997    32389.916    31034.743   -22246.669   -4177.9469     1282.539   -4963.7056    81.557566 
   28700     809.8229   -111.91378   0.73274478   -111.18104    298.13177    4.3481785    4.3481785    4.3481785    298.13177    11663.519    21392.976     -32162.1     1795.229     -6962.65    3852.0158    82.209516 
   28800    993.21199   -112.07591   0.89867908   -111.17723   -16008.188    4.3481878    4.3481878    4.3481878   -16008.188   -3211.1854   -15432.732   -29380.647    11293.133    9325.8222    7091.3724    82.210043 
   28900    660.64317   -111.77434   0.59776382   -111.17657    27502.406     4.332122     4.332122     4.332122    27502.406    41232.703    50346.826    -9072.311    -3672.338   -4977.3808   -10512.346    81.302149 
   29000    905.02953   -112.00413   0.81888974   -111.18524   -17653.742    4.3482688    4.3482688    4.3482688   -17653.742   -20346.866   -7984.6263   -24629.733   -1954.4024    4121.9887    8264.5072    82.214638 
   29100     507.8885   -111.64467   0.45954818   -111.18512    12887.545    4.3390613    4.3390613    4.3390613    12887.545    46579.125    13874.381    -21790.87    3605.5492    4493.9023    7992.6164    81.693471 
   29200    868.35997   -111.96955   0.78571035   -111.18384    -4996.787    4.3440126    4.3440126    4.3440126    -4996.787    -12959.04    13025.222   -15056.543   -13358.562    4361.5557   -8405.0797    81.973453 
   29300    820.37176   -111.92275   0.74228961   -111.18046   -5196.5492    4.3479057    4.3479057    4.3479057   -5196.5492    16562.906   -1112.8314   -31039.722    2022.8651   -746.80706    12788.626    82.194043 
   29400    974.12935   -112.05555   0.88141271   -111.17414    2073.2694    4.3367099    4.3367099    4.3367099    2073.2694    15828.264    6050.0054   -15658.462    723.82787    2001.5533    2110.6478    81.560734 
   29500    809.42401   -111.90904   0.73238385   -111.17666   -12934.586    4.3518241    4.3518241    4.3518241   -12934.586    -16703.07    9154.1568   -31254.844    5525.5483   -5730.9621   -2913.2489    82.416467 
   29600      696.324   -111.80821   0.63004859   -111.17816    -3405.634    4.3394461    4.3394461    4.3394461    -3405.634    28692.214   -16967.847   -21941.269   -6548.1794   -3048.4516    15513.122    81.715206 
   29700    736.19102   -111.85153   0.66612111   -111.18541    8552.0052    4.3374545    4.3374545    4.3374545    8552.0052    11318.001    16475.721   -2137.7067    9232.0765    549.83161   -916.21111    81.602752 
   29800    913.18059   -112.00809   0.82626498   -111.18182   -10146.712     4.351937     4.351937     4.351937   -10146.712    14342.464   -7836.2894    -36946.31   -68.154608   -1638.3577    -2571.518    82.422882 
   29900    930.77987    -112.0202   0.84218919   -111.17801    8546.6292    4.3339363    4.3339363    4.3339363    8546.6292    14887.987    27241.012   -16489.111   -1179.4471    2568.2737    11839.971     81.40434 
   30000    831.06022   -111.93792   0.75196075   -111.18596    1646.0886    4.3473172    4.3473172    4.3473172    1646.0886    28419.963   -2775.3256   -20706.371    5094.8646    10623.467   -3053.0208    82.160673 
   30100    789.47942   -111.89621   0.71433757   -111.18187    -616.7847    4.3483372    4.3483372    4.3483372    -616.7847    15684.553    9363.1036   -26898.011    837.27031    3217.9034     4031.887    82.218517 
   30200    690.23741   -111.80512   0.62454131   -111.18058    5001.7517    4.3349793    4.3349793    4.3349793    5001.7517     18682.01    17649.015   -21325.771   -2698.9353    3819.0126     6468.099    81.463128 
   30300    928.33317   -112.02198   0.83997536   -111.18201   -8569.5725    4.3477717    4.3477717    4.3477717   -8569.5725   -3788.8857   -5185.6659   -16734.166    -2453.068    2306.7942   -2971.2784    82.186445 
   30400    910.64887   -111.99955   0.82397423   -111.17557    5399.4784     4.345904     4.345904     4.345904    5399.4784    21800.684    26423.503   -32025.752   -622.18712   -7215.5669    5134.2458    82.080576 
   30500    851.89064   -111.94663   0.77080855   -111.17582    2655.2624    4.3418382    4.3418382    4.3418382    2655.2624     35206.05    1802.7581   -29043.021   -7730.1672    4018.8132    2676.1317    81.850419 
   30600    829.06974   -111.92852   0.75015972   -111.17836    9595.9507    4.3411513    4.3411513    4.3411513    9595.9507    20399.693     27684.04   -19295.881    6532.4149   -2991.9507   -4112.2291     81.81158 
   30700    674.66881   -111.79544   0.61045452   -111.18498   -4319.2288     4.346154     4.346154     4.346154   -4319.2288    32708.687   -8284.0839   -37382.289    2054.2278   -57.854187    12327.378    82.094739 
   30800    512.86496   -111.65174   0.46405099   -111.18768   -1.2728214    4.3447588    4.3447588    4.3447588   -1.2728214    10171.644    17777.461   -27952.924    4136.3736    3691.3514    1138.0036    82.015704 
   30900    1224.7747   -112.29185    1.1082019   -111.18365   -5361.6148    4.3365264    4.3365264    4.3365264   -5361.6148     5174.807   -3037.6518       -18222   -4448.2115   -638.70305    2210.3461    81.550379 
   31000    555.86051   -111.69582   0.50295427   -111.19286   -3469.4453    4.3484963    4.3484963    4.3484963   -3469.4453    20233.373    20184.013   -50825.722    8282.8788    7214.8847     14505.63    82.227542 
   31100    977.89078   -112.06999   0.88481613   -111.18517    -3261.527    4.3394517    4.3394517    4.3394517    -3261.527    15449.848   -1469.3467   -23765.082   -13506.911    10806.322   -2864.1959    81.715528 
   31200     620.9164   -111.74557    0.5618182   -111.18375    2332.9886    4.3460195    4.3460195    4.3460195    2332.9886    10484.799    20461.418   -23947.251    11925.708   -6483.0855    4693.1774    82.087116 
   31300    724.91065   -111.83518   0.65591439   -111.17927   -22269.414    4.3458475    4.3458475    4.3458475   -22269.414   -17637.738   -9231.4807   -39939.022   -1138.4955    10537.839    10934.846    82.077371 
   31400    860.47182   -111.95924   0.77857298   -111.18066    15578.258    4.3347009    4.3347009    4.3347009    15578.258   -4349.1241    68088.542   -17004.645    581.38946   -5051.6434   -2201.5959    81.447435 
   31500    848.15414   -111.95565   0.76742769   -111.18823   -8748.1988    4.3513882    4.3513882    4.3513882   -8748.1988    19458.731    -13261.21   -32442.117    337.02937    4472.3737    7115.3618    82.391703 
   31600    822.39552   -111.92634   0.74412075   -111.18222   -8184.7867    4.3458464    4.3458464    4.3458464   -8184.7867   -14466.376    20659.699   -30747.683     2688.468    3365.5223    3075.7048    82.077312 
   31700    737.29493   -111.84249   0.66711995   -111.17537    26457.655    4.3362216    4.3362216    4.3362216    26457.655    52762.482    32230.267    -5619.783    860.73046   -3929.8375    688.65499    81.533185 
   31800    669.88029   -111.78779   0.60612177   -111.18167   -15784.202    4.3496908    4.3496908    4.3496908   -15784.202   -25206.551    16858.447   -39004.502   -2893.6881    5325.6527     8676.641    82.295323 
   31900    756.29888   -111.86448   0.68431512   -111.18017   -1684.0312    4.3437347    4.3437347    4.3437347   -1684.0312    9326.0261    4471.6541   -18849.774    2800.5367   -715.07844   -668.84317    81.957723 
   32000    965.58993   -112.05511   0.87368606   -111.18142    12512.586    4.3351914    4.3351914    4.3351914    12512.586    23016.524    34599.021   -20077.787   -12062.411    10571.975    1521.8805    81.475086 
   32100    891.21543   -111.99812   0.80639045   -111.19173   -17695.755     4.351636     4.351636     4.351636   -17695.755   -16988.452    3818.5843   -39917.396    7890.6152    8948.4559    7213.4028    82.405782 
   32200    818.80233   -111.92672   0.74086955   -111.18585    17530.464    4.3421304    4.3421304    4.3421304    17530.464    57217.528    18266.453   -22892.588    472.50201   -2066.1664   -4268.9836    81.866947 
   32300    696.32923   -111.81978   0.63005332   -111.18973   -12276.221    4.3396536    4.3396536    4.3396536   -12276.221   -20075.949    5440.7749   -22193.488   -7935.2304    384.82061     6441.921    81.726929 
   32400    769.43051    -111.8868   0.69619689    -111.1906   -17376.212     4.341176     4.341176     4.341176   -17376.212   -11516.928   -18578.951   -22032.758    -2467.649     4238.896    7185.8875    81.812973 
   32500    708.29148   -111.82806   0.64087701   -111.18718    20673.536    4.3447542    4.3447542    4.3447542    20673.536     51847.01    29828.985   -19655.387    2621.9581   -2329.3613    -7189.994    82.015442 
   32600    1008.3381   -112.10082   0.91236552   -111.18846   -28140.829    4.3502971    4.3502971    4.3502971   -28140.829   -12756.935   -22382.358   -49283.193   -3571.0474    3552.6853    9689.5343    82.329744 
   32700     646.7314   -111.76565   0.58517616   -111.18047    25499.803     4.335084     4.335084     4.335084    25499.803    49232.214    45563.328   -18296.133   -2516.7432    9963.0023    1786.8293    81.469031 
   32800    923.06709   -112.01111    0.8352105    -111.1759   -10077.274    4.3461703    4.3461703    4.3461703   -10077.274   -4514.4832   -9956.8402     -15760.5    2684.7856   -1946.4375    -762.0139    82.095662 
   32900    637.57507    -111.7541   0.57689132   -111.17721    -27119.28    4.3502112    4.3502112    4.3502112    -27119.28   -36938.307   -7403.9952   -37015.538   -2230.3556    2560.0891    11699.485    82.324864 
   33000    615.62317    -111.7314   0.55702878   -111.17437    32805.928    4.3332946    4.3332946    4.3332946    32805.928     84973.99    20299.841   -6856.0472   -2224.5271    2953.7767   -7028.7173    81.368187 
   33100    1105.6361   -112.18098    1.0004028   -111.18058   -24149.068    4.3522703    4.3522703    4.3522703   -24149.068   -11196.917   -28497.449   -32752.839     4285.935   -4540.1646    7314.8839    82.441823 
   33200     810.3618   -111.91312   0.73323239   -111.17989     4400.434    4.3417897    4.3417897    4.3417897     4400.434    32428.846    783.94035   -20011.484    4824.0872    4508.6046    8321.9151    81.847676 
   33300    901.87641   -111.99315   0.81603673   -111.17711    10893.273    4.3375779    4.3375779    4.3375779    10893.273    28936.363    15529.073   -11785.616   -3796.5404   -4300.9105   -1288.9011    81.609713 
   33400    802.82524   -111.90856   0.72641315   -111.18215    -25408.96    4.3542111    4.3542111    4.3542111    -25408.96   -4388.6547   -28974.922   -42863.302   -1295.6562    511.50703    10152.779    82.552162 
   33500    644.23792   -111.76229   0.58292001   -111.17937     16733.09    4.3365558    4.3365558    4.3365558     16733.09    39521.813    18690.998    -8013.539   -7416.3101    3466.4562   -1672.9851    81.552038 
   33600    749.33266   -111.85922   0.67801194   -111.18121   -1989.5535    4.3467774    4.3467774    4.3467774   -1989.5535    12131.593   -812.93347    -17287.32   -6506.4467    2690.6423    2626.0222    82.130072 
   33700    697.67684   -111.80799   0.63127266   -111.17672   -13156.472     4.349125     4.349125     4.349125   -13156.472    22165.134   -26824.565   -34809.984    1355.8659    2874.0525    11011.582    82.263216 
   33800    1049.8266   -112.11985   0.94990514   -111.16995    9358.6182    4.3312656    4.3312656    4.3312656    9358.6182    24986.129    13780.748   -10691.022   -4187.3602      4763.35    -735.7133    81.253942 
   33900    834.79723   -111.93438   0.75534208   -111.17904   -17746.652    4.3547001    4.3547001    4.3547001   -17746.652    14297.283   -40043.636   -27493.602    13923.115    1073.5124    4769.9694    82.579974 
   34000    583.50679   -111.70856    0.5279692   -111.18059    7787.5771     4.340969     4.340969     4.340969    7787.5771    54146.982   -9332.3368   -21451.914   -2631.1134    631.61839    3853.0803    81.801271 
   34100    851.39994   -111.94998   0.77036456   -111.17961   -109.16793    4.3361978    4.3361978    4.3361978   -109.16793    1088.0171    3240.6015   -4656.1223   -1.3255464   -2213.6431    -2202.336     81.53184 
   34200     778.8359   -111.88461   0.70470709    -111.1799   -21690.724    4.3525483    4.3525483    4.3525483   -21690.724   -15981.309   -22277.434   -26813.429    4008.7249   -606.82525    14683.401    82.457619 
   34300    765.31609   -111.86717   0.69247408    -111.1747    10101.057    4.3382537    4.3382537    4.3382537    10101.057    38788.495   -3571.1149   -4914.2079   -49.741224    4167.6401   -3528.6718    81.647866 
   34400    762.04866   -111.86581   0.68951764   -111.17629   -800.00694     4.348748     4.348748     4.348748   -800.00694    10738.666    2829.1427    -15967.83   -440.14093    13202.565     2063.493    82.241824 
   34500    665.44177   -111.77642    0.6021057   -111.17432    1407.3763     4.346649     4.346649     4.346649    1407.3763    58929.277   -30033.801   -24673.347    2479.0245    8658.9461    17460.368    82.122791 
   34600    848.56897   -111.94186   0.76780304   -111.17406    8393.1351    4.3344947    4.3344947    4.3344947    8393.1351    10844.109    12896.541    1438.7557    -10374.96    10589.764   -1047.2781     81.43581 
   34700    723.38843   -111.83321   0.65453705   -111.17868   -15711.399    4.3559573    4.3559573    4.3559573   -15711.399   -21471.768   -5337.5747   -20324.855     266.2416    6660.4927    10383.484    82.651517 
   34800    805.98412   -111.89783   0.72927137   -111.16856     -13008.6    4.3462315    4.3462315    4.3462315     -13008.6   -10040.401   -33371.555    4386.1552    9555.4976    2280.7327    8789.5075    82.099129 
   34900     746.8016   -111.83654   0.67572178   -111.16082     21437.31    4.3289024    4.3289024    4.3289024     21437.31    40969.267    2111.8289    21230.833    -3073.248   -4206.1681    4363.6924    81.121019 
   35000     640.6698   -111.75434    0.5796915   -111.17465   -5359.2493    4.3623692    4.3623692    4.3623692   -5359.2493    16054.422   -18410.345   -13721.825    10333.019   -11060.506    13170.149     83.01704 
[...]
   91200    627.17174   -111.74869   0.56747817   -111.18121   -3574.0371    4.3195964    4.3195964    4.3195964   -3574.0371    5869.2234   -35008.314    18416.979    1408.4276   -3118.4133    5112.7101    80.598974 
   91300    641.39866   -111.76428   0.58035099   -111.18393   -4583.2393    4.3161407    4.3161407    4.3161407   -4583.2393   -8903.6899   -19167.221    14321.193    12004.865   -911.68922    4491.6713    80.405692 
   91400    988.45408   -112.07625   0.89437402   -111.18188    5632.4475    4.3150882    4.3150882    4.3150882    5632.4475   -1624.1649    9592.9987    8928.5087    972.54241     14820.93     801.5282    80.346884 
   91500    1003.2168   -112.08904   0.90773166   -111.18131     2402.739    4.3212131    4.3212131    4.3212131     2402.739    2069.1581   -12005.001     17144.06    1421.7777   -2614.8838    4400.4906    80.689505 
   91600    748.40402   -111.86204   0.67717169   -111.18487   -4485.2571    4.3169284    4.3169284    4.3169284   -4485.2571   -9841.1738   -4418.5356    803.93819    4995.5854    3497.8166   -2461.9496    80.449722 
   91700    813.21496   -111.91719   0.73581398   -111.18138    7375.9234    4.3115315    4.3115315    4.3115315    7375.9234    15566.184    4348.1408    2213.4452   -2336.8006    10433.106   -2996.1584    80.148367 
   91800    768.52584   -111.87715   0.69537833   -111.18177   -7574.6334    4.3228914    4.3228914    4.3228914   -7574.6334   -1991.4604   -40532.499    19800.059     9343.569   -1772.7636    1590.5449    80.783555 
   91900    482.89339   -111.62268   0.43693209   -111.18575   -6911.0754    4.3207222    4.3207222    4.3207222   -6911.0754    -6201.041   -24196.998    9664.8124    5198.2029    3671.9738   -2088.9119    80.662011 
   92000    962.61765    -112.0507   0.87099668   -111.17971    12556.683    4.3066015    4.3066015    4.3066015    12556.683    17878.084     10328.87    9463.0943    2289.9704    6846.1764   -6117.3927    79.873747 
   92100    970.90538   -112.06127   0.87849559   -111.18278    -548.4859    4.3224555    4.3224555    4.3224555    -548.4859    -2059.738   -17266.689    17680.969    17833.082   -1256.3932    2693.4986    80.759125 
   92200    771.72606   -111.88275   0.69827396   -111.18448   -3044.9074    4.3216082    4.3216082    4.3216082   -3044.9074   -5499.2954   -2883.1643   -752.26239    446.27854    1717.7345    48.635023     80.71164 
   92300    951.52626   -112.03898   0.86096095   -111.17802    7626.7146    4.3066687    4.3066687    4.3066687    7626.7146    18419.673    4604.3365   -143.86548   -4080.5872    6896.1853   -8410.8364    79.877484 
   92400    564.55709   -111.69435   0.51082312   -111.18353    -9491.939    4.3225406    4.3225406    4.3225406    -9491.939   -1079.2304   -45375.765    17979.179    18462.743   -3301.2076    6083.4339    80.763893 
   92500    658.27338   -111.77715   0.59561959   -111.18153   -7255.0015    4.3193901    4.3193901    4.3193901   -7255.0015   -5673.3906   -26285.739    10194.125   -4167.7184    1776.3501   -338.13562    80.587427 
   92600    880.95713   -111.97629   0.79710853   -111.17918    9083.7474    4.3100428    4.3100428    4.3100428    9083.7474      31798.9   -7229.6258    2681.9679    2818.7857    5135.7975   -5278.1937    80.065378 
   92700    760.87154   -111.87381   0.68845256   -111.18535   -8003.5761    4.3208542    4.3208542    4.3208542   -8003.5761   -8377.6532   -30679.182    15046.107    26711.008   -1933.6141    5682.0427    80.669403 
   92800    1059.2135   -112.14064   0.95839867   -111.18224    1496.7525    4.3169177    4.3169177    4.3169177    1496.7525    1615.1429    4864.3964   -1989.2818   -5458.8111   -1914.6819     657.1964    80.449123 
   92900    973.44768   -112.06128   0.88079592   -111.18049   -612.00667    4.3172178    4.3172178    4.3172178   -612.00667    11679.889   -6534.4353   -6981.4741    10372.827    398.41106   -1044.4394    80.465903 
   93000     485.6426    -111.6247   0.43941963   -111.18528   -8548.6787    4.3162528    4.3162528    4.3162528   -8548.6787   -5053.2822   -40531.896    19939.143    17554.463   -749.17751    3858.2225    80.411954 
   93100    643.87939   -111.76589    0.5825956   -111.18329    4556.7006    4.3151933    4.3151933    4.3151933    4556.7006    26631.011   -19367.644    6406.7349   -20337.187   -4996.4395   -923.59481    80.352755 
   93200    881.81163   -111.97913   0.79788169   -111.18125    -10195.08    4.3220758    4.3220758    4.3220758    -10195.08    2818.8827   -29779.208   -3624.9145    15045.948    1156.7679   -252.39963    80.737842 
   93300    678.67499   -111.79958   0.61407939    -111.1855     3666.634    4.3127411    4.3127411    4.3127411     3666.634    15970.133   -19636.988    14666.757    15052.337   -458.17431    6360.5071    80.215845 
   93400    1163.6076   -112.23521    1.0528566   -111.18236    303.10832    4.3159243    4.3159243    4.3159243    303.10832   -1664.5151    2386.3947    187.44541   -19111.621   -4947.0767   -2270.3435    80.393597 
   93500    969.73269   -112.05912   0.87743452   -111.18168   -3103.6355    4.3218469    4.3218469    4.3218469   -3103.6355    9428.1576   -14813.275   -3925.7893    25598.045     2321.637    108.31934    80.725017 
   93600    507.96504   -111.64467   0.45961744   -111.18505   -1555.1247    4.3135978    4.3135978    4.3135978   -1555.1247     13068.31   -35693.197    17959.513    5393.3383    1227.1051    9140.8162     80.26366 
   93700    651.46474   -111.77239   0.58945899   -111.18293   -1339.4767    4.3151758    4.3151758    4.3151758   -1339.4767    10231.829   -25969.318    11719.058   -28006.246   -2403.1182   -1098.0447    80.351775 
   93800    802.73005   -111.90713   0.72632702   -111.18081   -4322.4099    4.3199085    4.3199085    4.3199085   -4322.4099    11709.665   -23980.482   -696.41236    25501.364    2485.5251    178.53906    80.616444 
   93900    790.26903   -111.89837   0.71505202   -111.18331    -10824.86    4.3184457    4.3184457    4.3184457    -10824.86   -15613.557   -24342.551    7481.5267   -7046.2662    29.158301    6959.3635    80.534579 
   94000    919.25017   -112.01374   0.83175687   -111.18199    4582.5084    4.3140023    4.3140023    4.3140023    4582.5084    15506.524   -1445.0776   -313.92131   -26038.749   -3098.6636    -1865.439    80.286237 
   94100    1054.2542   -112.13361   0.95391134    -111.1797   -3645.4837     4.317056     4.317056     4.317056   -3645.4837    2874.8075   -14403.396    592.13751    29385.271   -1631.0702   -1148.1091    80.456853 
   94200    566.99587   -111.69778   0.51302978   -111.18475   -8783.0498    4.3199692    4.3199692    4.3199692   -8783.0498   -2818.8923   -36449.037     12918.78    -13871.97    289.53758    2857.9897    80.619845 
   94300      619.414   -111.74405    0.5604588   -111.18359   -688.42723    4.3147014    4.3147014    4.3147014   -688.42723    18861.281   -27032.155    6105.5931   -22509.477    -3335.448   -5914.8037     80.32528 
   94400     944.9383   -112.03548   0.85500004   -111.18048   -3313.2357     4.315952     4.315952     4.315952   -3313.2357    2567.4755   -14701.705    2194.5222    22802.062   -2632.1115   -2126.6944    80.395146 
   94500    702.70112   -111.82058   0.63581874   -111.18476   -7361.1078    4.3198078    4.3198078    4.3198078   -7361.1078   -4739.2589   -20618.908    3274.8431   -20161.575    1266.1065    4796.8633    80.610805 
   94600    854.51275   -111.95639   0.77318109   -111.18321   -4089.8151    4.3165433    4.3165433    4.3165433   -4089.8151    9905.6291   -10150.808   -12024.266   -17831.083   -6722.4413   -10507.199    80.428194 
   94700    993.09573   -112.07808   0.89857388   -111.17951    4369.0817    4.3140589    4.3140589    4.3140589    4369.0817    15089.266   -2413.4375    431.41666    8872.1918   -3057.2315   -2378.7126    80.289399 
   94800    654.03132   -111.77572   0.59178128   -111.18394   -8575.3716    4.3200121    4.3200121    4.3200121   -8575.3716   -5191.8912   -36710.955    16176.731   -22612.058     1048.319    1468.2457    80.622246 
   94900    666.53528   -111.78656   0.60309513   -111.18347   -9833.9528    4.3195055    4.3195055    4.3195055   -9833.9528    14192.789   -38069.566   -5625.0816   -7377.4158   -10072.935   -12083.948    80.593884 
   95000    889.73136   -111.98482   0.80504764   -111.17977    6956.4265    4.3098122    4.3098122    4.3098122    6956.4265    16865.587    -3605.243    7608.9353    1078.0851   -2062.2836   -1641.7627    80.052526 
   95100    801.53697   -111.90943   0.72524749   -111.18418    -6849.026    4.3195603    4.3195603    4.3195603    -6849.026   -7409.0335   -19046.787    5908.7424   -18932.257    1662.5148   -1613.9368     80.59695 
   95200     784.7736   -111.89403   0.71007964   -111.18395   -6740.3545    4.3226265    4.3226265    4.3226265   -6740.3545    15315.159   -7581.7724    -27954.45    2346.3627    -10709.81     -11904.2    80.768705 
   95300    926.92458   -112.01894   0.83870084   -111.18024    10290.816     4.306616     4.306616     4.306616    10290.816    11577.588     12009.77     7285.091   -9413.7845   -4028.6254   -608.15349    79.874554 
   95400    749.48532   -111.86238   0.67815007   -111.18423   -8437.4222    4.3200754    4.3200754    4.3200754   -8437.4222    -3712.045   -35104.754    13504.533   -22920.773    7782.4186    841.39074    80.625791 
   95500    668.16273   -111.78708   0.60456768   -111.18251   -14657.051    4.3240859    4.3240859    4.3240859   -14657.051    3664.5698   -33310.376   -14325.346    4450.8909   -15285.971   -10156.704    80.850542 
   95600    766.71411    -111.8738   0.69373904   -111.18006    10666.893    4.3043185    4.3043185    4.3043185    10666.893    15456.756   -829.51834    17373.443   -10667.319   -6441.7704    1497.3496    79.746786 
   95700     865.2709   -111.96619   0.78291529   -111.18327   -5384.9568    4.3209938    4.3209938    4.3209938   -5384.9568   -1374.0852   -18811.127    4030.3413   -18857.001    7928.5807   -660.09442    80.677222 
   95800    884.96591   -111.98407   0.80073575   -111.18334     -7099.35    4.3222907    4.3222907    4.3222907     -7099.35     -6561.78    8381.8281   -23118.098     12738.37   -16639.658   -7664.4693    80.749883 
   95900     823.2714   -111.92551   0.74491326    -111.1806    14063.839     4.306242     4.306242     4.306242    14063.839    14385.814    18654.819    9150.8844   -6773.0358   -5965.3238    2643.0608    79.853746 
   96000    850.49613   -111.95027   0.76954677   -111.18073   -9370.6815     4.322232     4.322232     4.322232   -9370.6815   -11714.425   -17630.317    1232.6972   -16837.761     9555.793   -3957.6187    80.746598 
   96100    616.48769   -111.74124   0.55781102   -111.18343   -6110.8572    4.3185824    4.3185824    4.3185824   -6110.8572    1535.1627   -9078.2117   -10789.523    7399.0864   -16315.328   -6828.9352    80.542227 
   96200    733.02441   -111.84442   0.66325589   -111.18117    5073.9705    4.3099777    4.3099777    4.3099777    5073.9705    21363.527   -16384.334    10242.719   -9227.7255   -7147.3344    4288.7415    80.061751 
   96300    944.18775   -112.03456   0.85432092   -111.18024   -4997.1665    4.3210487    4.3210487    4.3210487   -4997.1665    -6998.063   -2597.2434   -5396.1931   -11454.524    12016.323   -1085.7555    80.680294 
   96400    781.64127   -111.89183   0.70724545   -111.18458    1482.8449     4.316486     4.316486     4.316486    1482.8449    4102.9428     21015.91   -20670.318    3487.8883   -20073.041   -7290.8854     80.42499 
   96500     1002.944   -112.08897   0.90748476   -111.18148    7936.0562     4.313763     4.313763     4.313763    7936.0562    10563.958    10801.607    2442.6037   -3085.7639   -5457.6129    3222.1543    80.272878 
   96600    877.25037   -111.97571   0.79375457   -111.18196    4430.7429    4.3178105    4.3178105    4.3178105    4430.7429   -2430.0335    18806.864   -3084.6022   -3412.5109    12930.237    3456.3837    80.499047 
   96700    464.06592   -111.60828    0.4198966   -111.18839   -513.03874    4.3153359    4.3153359    4.3153359   -513.03874    11262.859   -1750.4974   -11051.478    7265.8351   -22860.207   -6754.3004    80.360718 
   96800    841.72886   -111.94459   0.76161396   -111.18297    4733.6319    4.3179748    4.3179748    4.3179748    4733.6319    15760.402   -10150.342    8590.8357   -3112.7177   -2204.4804   -939.84545    80.508235 
   96900    860.76773   -111.96122   0.77884073   -111.18238    5841.9351    4.3154807    4.3154807    4.3154807    5841.9351    9749.9649    16549.614   -8773.7731   -3824.6956    11282.059    1075.3137    80.368809 
   97000    602.50203   -111.73402    0.5451565   -111.18886   -7274.6261    4.3159357    4.3159357    4.3159357   -7274.6261   -7044.7689    4134.9036   -18914.013    11546.431   -22566.328   -7082.7978    80.394234 
   97100    1080.8447   -112.16003   0.97797102   -111.18206    6185.5558    4.3181501    4.3181501    4.3181501    6185.5558   -3385.1103    18092.626    3849.1521    4973.3482    -696.6853   -3953.4822    80.518043 
   97200    974.15394   -112.06469   0.88143496   -111.18326    4567.9034    4.3150687    4.3150687    4.3150687    4567.9034    1962.6785    28049.372    -16308.34   -2127.0372    5113.1811   -1266.5563    80.345792 
   97300    471.17836   -111.61615   0.42633208   -111.18982   -10785.586     4.317987     4.317987     4.317987   -10785.586   -15359.111    2525.7785   -19523.425     12311.59   -21764.981   -11530.795    80.508919 
   97400    904.49848   -112.00055   0.81840923   -111.18214    7142.5731    4.3169526    4.3169526    4.3169526    7142.5731    12710.326   -548.30946    9265.7031    10395.712    1578.5905    657.68677    80.451073 
   97500    937.87453   -112.03158   0.84860858   -111.18297   -3034.3183    4.3150565    4.3150565    4.3150565   -3034.3183    2552.7755    1994.7203   -13650.451   -8308.6992   -3893.6285    1300.9791     80.34511 
   97600    369.48261   -111.52583   0.33431563   -111.19152   -11905.389    4.3171057    4.3171057    4.3171057   -11905.389   -24575.251   -280.75794   -10860.159    8878.3704   -17786.114   -13357.099    80.459631 
   97700     939.5201   -112.03422   0.85009753   -111.18412    930.97354     4.317244     4.317244     4.317244    930.97354   -4322.5386   -1256.9931    8372.4523    9749.2617    4469.3585     632.6387    80.467366 
   97800     1064.395   -112.14453   0.96308693   -111.18144   -3829.7094    4.3175497    4.3175497    4.3175497   -3829.7094   -8562.2754    16617.966   -19544.819   -7881.1298   -11328.951    2588.0079     80.48446 
   97900    567.75191   -111.70286   0.51371386   -111.18914   -2341.9541     4.313957     4.313957     4.313957   -2341.9541   -5296.5566    9124.5997   -10853.905    17564.637   -12575.362   -12178.783    80.283711 
   98000    968.69506   -112.06107   0.87649565   -111.18457   -870.17352    4.3187824    4.3187824    4.3187824   -870.17352    16702.474   -19880.668    567.67326    11305.326    4049.6936   -840.37443     80.55342 
   98100    961.89995   -112.05198   0.87034729   -111.18163   -1297.8487    4.3177475    4.3177475    4.3177475   -1297.8487    2167.4968    9820.9057   -15881.949   -5713.1672   -11153.962    -280.8216    80.495522 
   98200    424.05146   -111.57068   0.38369067   -111.18699   -3965.3172    4.3123237    4.3123237    4.3123237   -3965.3172    971.57752   -9897.5122    -2970.017    18335.558    -7599.798   -11811.241    80.192558 
   98300    688.12045   -111.80771   0.62262585   -111.18508   -6222.5384    4.3217716    4.3217716    4.3217716   -6222.5384   -9612.2566   -11044.985    1989.6265    4488.9698    2958.7951    3203.7021    80.720797 
   98400    1090.2554   -112.16684   0.98648599   -111.18036    2394.9276    4.3155793    4.3155793    4.3155793    2394.9276    488.57495    16993.014   -10296.806    -7643.589   -6053.7191   -1689.2468    80.374319 
   98500    722.79869   -111.84145   0.65400345   -111.18745    4173.1539    4.3101838    4.3101838    4.3101838    4173.1539    22294.385    -6334.184   -3440.7389    16952.156   -5080.7029   -13330.217    80.073232 
   98600     909.4917    -112.0089    0.8229272   -111.18597   -8690.3098    4.3246393    4.3246393    4.3246393   -8690.3098   -6971.0823   -10985.665    -8114.182     1080.526    4253.4987    2379.9493    80.881587 
   98700    1096.3223   -112.17203   0.99197545   -111.18005    5667.4824    4.3141628    4.3141628    4.3141628    5667.4824    14197.918    8678.7011   -5874.1722   -6144.0399   -1275.9151   -2600.6707      80.2952 
   98800    444.32656   -111.58941   0.40203601   -111.18738   -2101.0584    4.3111906    4.3111906    4.3111906   -2101.0584   -19.200953   -11511.692    5227.7173    25040.057   -5198.2186   -12878.558     80.12936 
   98900    548.63618   -111.68242   0.49641754   -111.18601    -17713.32     4.323202     4.323202     4.323202    -17713.32   -38316.018   -11220.929   -3603.0137   -3989.9917    8629.8889    626.25087    80.800973 
   99000    972.94173   -112.05984   0.88033813   -111.17951    1346.8537    4.3138366    4.3138366    4.3138366    1346.8537    1627.8986     5248.205   -2835.5423   -2836.3078    7049.5443     -2842.09    80.276991 
   99100    785.48668   -111.89599   0.71072485   -111.18526   -7655.9791    4.3156045    4.3156045    4.3156045   -7655.9791   -112.72949    -19970.26    -2884.948    25245.383   -4156.6377   -11423.435    80.375724 
   99200    902.81576   -112.00134   0.81688667   -111.18446   -6982.0703    4.3187027    4.3187027    4.3187027   -6982.0703   -13460.683    5085.8259   -12571.353   -10064.754    12170.408    6557.3226     80.54896 
   99300    1015.4125   -112.09983   0.91876658   -111.18106    2027.0719    4.3140541    4.3140541    4.3140541    2027.0719     5871.893    9281.0445   -9071.7218    1288.3898    10100.738   -3089.5205     80.28913 
   99400    622.01057   -111.74694   0.56280823   -111.18413   -6150.2505    4.3174525    4.3174525    4.3174525   -6150.2505   -6341.8453    -11902.08   -206.82571    21837.582   -3738.5469   -9238.5843    80.479022 
   99500    496.32795   -111.63362   0.44908796   -111.18454   -11862.527    4.3145663    4.3145663    4.3145663   -11862.527   -34268.242     9136.753   -10456.092   -7711.8832    13522.524    4528.9912    80.317733 
   99600    742.44335   -111.85515   0.67177834   -111.18337   -6668.7966    4.3183677    4.3183677    4.3183677   -6668.7966   -3080.1275   -3605.8473   -13320.415   -1088.8067     6519.817   -3336.8845    80.530214 
   99700     1077.341   -112.15524   0.97480077   -111.18044    383.83352     4.317133     4.317133     4.317133    383.83352    18756.951    -12710.77   -4894.6811    13034.085   -1876.1744    -6971.016     80.46116 
   99800    845.08303   -111.95027   0.76464888   -111.18562    1313.4953    4.3106103    4.3106103    4.3106103    1313.4953    5576.4941    18943.699   -20579.707   -9414.6969     15635.45    1791.9465    80.097006 
   99900     852.7599   -111.95784   0.77159508   -111.18624   -4924.7639     4.322879     4.322879     4.322879   -4924.7639    6922.3063    1846.3443   -23542.942   -1345.6521    1387.5333   -3923.3764    80.782863 
  100000    1064.5091   -112.14301   0.96319021   -111.17982    5614.0554    4.3141709    4.3141709    4.3141709    5614.0554    8573.8842    7504.4458    763.83609    6801.8082   -1447.4716   -1896.3256    80.295655 
Loop time of 22.5044 on 1 procs for 100000 steps with 8 atoms

Pair  time (%) = 7.18396 (31.9224)
Kspce time (%) = 5.41573 (24.0651)
Neigh time (%) = 0 (0)
Comm  time (%) = 1.10281 (4.90043)
Outpt time (%) = 0.0257397 (0.114376)
Other time (%) = 8.7762 (38.9976)

Nlocal:    8 ave 8 max 8 min
Histogram: 1 0 0 0 0 0 0 0 0 0
Nghost:    2189 ave 2189 max 2189 min
Histogram: 1 0 0 0 0 0 0 0 0 0
Neighs:    2344 ave 2344 max 2344 min
Histogram: 1 0 0 0 0 0 0 0 0 0

Total # of neighbors = 2344
Ave neighs/atom = 293
Neighbor list builds = 0
Dangerous builds = 0
seeds:2169332
