# ['Ni']

2 atoms
1 atom types

    0.0000     3.4851 xlo xhi
    0.0000     2.4947 ylo yhi
    0.0000     2.4947 zlo zhi

    0.0000     0.0000     0.0000 xy xz yz

Atoms

1 1     0.0000     0.0000     0.0000
2 1     1.7425     1.2474     1.2474
