LAMMPS (11 Aug 2017)
Reading data file ...
  triclinic box = (0 0 0) to (2.6015 4.506 38.2285) with tilt (0 0 -0.0004)
  1 by 1 by 1 MPI processor grid
  reading atoms ...
  18 atoms
18 atoms in group Ni
Neighbor list info ...
  update every 1 steps, delay 0 steps, check yes
  max neighbors/atom: 2000, page size: 100000
  master list distance cutoff = 5.64464
  ghost atom cutoff = 5.64464
  binsize = 2.82232, bins = 1 2 14
  1 neighbor lists, perpetual/occasional/extra = 1 0 0
  (1) pair eam/alloy, perpetual
      attributes: half, newton on
      pair build: half/bin/newton/tri
      stencil: half/bin/3d/newton/tri
      bin: standard
Setting up cg style minimization ...
  Unit style    : metal
  Current step  : 0
Per MPI rank memory allocation (min/avg/max) = 4.217 | 4.217 | 4.217 Mbytes
Step PotEng Lx Ly Lz Xy Xz Yz Press Pxx Pyy Pzz Pxy Pxz Pyz c_eatoms 
       0   -36.806153       2.6015        4.506      38.2285            0            0      -0.0004   -3163.3686   -3519.2938   -3523.9771   -2446.8349 2.0839036e-12 -3.0514302e-12   0.95231382   -36.806153 
       1   -36.810851       2.6015        4.506      38.2285            0            0      -0.0004    -2630.221    -3168.183   -3172.8542   -1549.6259 4.093382e-12 -3.9693401e-13   0.95163537   -36.810851 
       2   -36.811705       2.6015        4.506      38.2285            0            0      -0.0004   -2257.4279   -2923.1413   -2927.7751   -921.36751 -4.490316e-12 1.9350533e-12   0.92980702   -36.811705 
       3   -36.811887       2.6015        4.506      38.2285            0            0      -0.0004   -2141.1716   -2848.0121   -2852.6023   -722.90052 -3.101047e-12 -2.1335203e-12   0.89898005   -36.811887 
       4   -36.811915       2.6015        4.506      38.2285            0            0      -0.0004   -2092.3577   -2817.0638   -2821.6032   -638.40608 2.5304543e-12 7.2440457e-12    0.8616124   -36.811915 
       5   -36.812027       2.6015        4.506      38.2285            0            0      -0.0004   -1712.5844   -2572.0294   -2576.2818    10.557996 5.7059264e-13 -5.9540102e-13    0.6524733   -36.812027 
       6    -36.81204       2.6015        4.506      38.2285            0            0      -0.0004   -1707.3845   -2569.5093   -2573.7309    21.086622 -4.3910825e-12 -3.5227893e-12   0.62970691    -36.81204 
       7   -36.812042       2.6015        4.506      38.2285            0            0      -0.0004   -1710.1325   -2571.3589   -2575.5801    16.541515 -6.6238363e-12 -6.1276688e-12   0.62989685   -36.812042 
       8   -36.812042       2.6015        4.506      38.2285            0            0      -0.0004    -1710.636   -2571.6813    -2575.902    15.675406 7.4425127e-14 1.6869695e-12   0.62973685   -36.812042 
       9   -36.812042       2.6015        4.506      38.2285            0            0      -0.0004   -1713.5008   -2573.5555   -2577.7723    10.825501 3.0762386e-12 -7.9386802e-13   0.62721587   -36.812042 
      10   -36.812042       2.6015        4.506      38.2285            0            0      -0.0004    -1716.682   -2575.6029   -2579.7978    5.3547959 6.2020939e-12 5.0361003e-12   0.61199061   -36.812042 
      11   -36.812042       2.6015        4.506      38.2285            0            0      -0.0004   -1720.0895   -2577.8173   -2581.9587  -0.49254261 -2.4312208e-12 2.2327538e-12   0.57284477   -36.812042 
      12   -36.812042       2.6015        4.506      38.2285            0            0      -0.0004   -1720.0854   -2577.8199   -2581.9479  -0.48828683 5.3338008e-12 1.0915685e-12   0.56264653   -36.812042 
      13   -36.812042       2.6015        4.506      38.2285            0            0      -0.0004   -1719.9747   -2577.7547   -2581.8664  -0.30315554 -9.5016079e-12 -1.3396523e-12   0.55036901   -36.812042 
      14   -36.812042       2.6015        4.506      38.2285            0            0      -0.0004   -1719.9446   -2577.7498   -2581.8328  -0.25105731 2.6544962e-12 -1.2156104e-12   0.52858876   -36.812042 
      15   -36.812042       2.6015        4.506      38.2285            0            0      -0.0004    -1719.849   -2577.7283   -2581.7304 -0.088375463 7.6161713e-12 4.7880165e-12   0.46764357   -36.812042 
      16   -36.812042       2.6015        4.506      38.2285            0            0      -0.0004   -1719.8372   -2577.7596   -2581.6857 -0.066254549 -3.3491307e-12 8.9558236e-12    0.4109591   -36.812042 
      17   -36.812042       2.6015        4.506      38.2285            0            0      -0.0004   -1719.8151   -2577.7869    -2581.632  -0.02633977 -2.4312208e-12 1.9846701e-12   0.35072332   -36.812042 
      18   -36.812042       2.6015        4.506      38.2285            0            0      -0.0004   -1719.6258   -2577.7287   -2581.4437   0.29494465 -2.7289213e-12 2.0342868e-12   0.25436841   -36.812042 
      19   -36.812042       2.6015        4.506      38.2285            0            0      -0.0004   -1719.5598   -2577.7245    -2581.363   0.40810434 -8.3604226e-12 -6.5246028e-12   0.19779994   -36.812042 
      20   -36.812042       2.6015        4.506      38.2285            0            0      -0.0004   -1719.5716   -2577.7486   -2581.3547   0.38842629 -4.0437652e-12 -9.972967e-12   0.17369603   -36.812042 
      21   -36.812042       2.6015        4.506      38.2285            0            0      -0.0004   -1719.5866   -2577.7795    -2581.342   0.36159086 1.6125444e-12 -4.1429987e-12   0.14127751   -36.812042 
      22   -36.812042       2.6015        4.506      38.2285            0            0      -0.0004   -1719.7213   -2577.9068   -2581.3894   0.13220044 4.5151244e-12            0  0.081762218   -36.812042 
      23   -36.812042       2.6015        4.506      38.2285            0            0      -0.0004   -1719.7718   -2577.9552   -2581.4064  0.046182736 6.1772855e-12 1.2156104e-12  0.058536829   -36.812042 
      24   -36.812042       2.6015        4.506      38.2285            0            0      -0.0004   -1719.7825   -2577.9755   -2581.3987  0.026667244 -7.3184708e-12 -2.9770051e-13  0.037788151   -36.812042 
      25   -36.812042       2.6015        4.506      38.2285            0            0      -0.0004   -1719.7876   -2577.9803   -2581.4002  0.017875416 5.0112919e-12 3.4483642e-12  0.035305339   -36.812042 
      26   -36.812042       2.6015        4.506      38.2285            0            0      -0.0004   -1719.7967   -2577.9874   -2581.4052 0.0024938612 3.9197234e-12 5.6066929e-12  0.033697587   -36.812042 
      27   -36.812042       2.6015        4.506      38.2285            0            0      -0.0004   -1719.7995   -2577.9904   -2581.4059 -0.0021820057 -2.7041129e-12 -6.7230698e-12  0.032045745   -36.812042 
      28   -36.812042       2.6015        4.506      38.2285            0            0      -0.0004   -1719.7972   -2577.9924   -2581.4007 0.0015482839 -4.0437652e-12 -2.1335203e-12  0.026655728   -36.812042 
      29   -36.812042       2.6015        4.506      38.2285            0            0      -0.0004   -1719.7992   -2577.9966   -2581.3992 -0.0018899713 1.4885025e-13 -1.6125444e-12  0.022389305   -36.812042 
      30   -36.812042       2.6015        4.506      38.2285            0            0      -0.0004   -1719.8001   -2577.9989   -2581.3981 -0.0034747744 4.2670406e-12 -1.0667602e-12  0.019825935   -36.812042 
      31   -36.812042       2.6015        4.506      38.2285            0            0      -0.0004   -1719.8036   -2578.0037   -2581.3978 -0.009260154 -1.175917e-11 -1.4165582e-11   0.01605019   -36.812042 
      32   -36.812042       2.6015        4.506      38.2285            0            0      -0.0004   -1719.8029   -2578.0052   -2581.3954 -0.0080507517 -6.078052e-12 -4.9616751e-13   0.01312769   -36.812042 
      33   -36.812042       2.6015        4.506      38.2285            0            0      -0.0004    -1719.797   -2578.0056   -2581.3874 0.0017699037 -6.2020939e-12 2.7289213e-12 0.0069154239   -36.812042 
      34   -36.812042       2.6015        4.506      38.2285            0            0      -0.0004   -1719.7982   -2578.0086   -2581.3859 -0.0001296483 -1.3396523e-12 1.389269e-11 0.0036158779   -36.812042 
      35   -36.812042       2.6015        4.506      38.2285            0            0      -0.0004   -1719.7984   -2578.0095   -2581.3853 -0.00052369475 8.782165e-12 7.2936624e-12 0.0024704942   -36.812042 
      36   -36.812042       2.6015        4.506      38.2285            0            0      -0.0004   -1719.7983   -2578.0096    -2581.385 -0.00020087494 2.0839036e-12 1.2627463e-11 0.0021388375   -36.812042 
      37   -36.812042       2.6015        4.506      38.2285            0            0      -0.0004   -1719.7986   -2578.0099   -2581.3851 -0.00078247892 6.2269023e-12 9.9233503e-14 0.0020017889   -36.812042 
      38   -36.812042       2.6015        4.506      38.2285            0            0      -0.0004   -1719.7984   -2578.0099   -2581.3849 -0.00040385666 -1.587736e-12 -8.4348477e-13  0.001862067   -36.812042 
      39   -36.812042       2.6015        4.506      38.2285            0            0      -0.0004   -1719.7982   -2578.0098   -2581.3847 -6.7133159e-05 1.6869695e-12 1.5381193e-12 0.0017851285   -36.812042 
      40   -36.812042       2.6015        4.506      38.2285            0            0      -0.0004   -1719.7982   -2578.0098   -2581.3847 -6.7133159e-05 1.6869695e-12 1.5381193e-12 0.0017851285   -36.812042 
Loop time of 0.025964 on 1 procs for 40 steps with 18 atoms

11.3% CPU use with 1 MPI tasks x no OpenMP threads

Minimization stats:
  Stopping criterion = linesearch alpha is zero
  Energy initial, next-to-last, final = 
        -36.8061533621     -36.8120420677     -36.8120420677
  Force two-norm initial, final = 0.231491 3.90943e-08
  Force max component initial, final = 0.081941 9.75116e-09
  Final line search alpha, max atom move = 0.5 4.87558e-09
  Iterations, force evaluations = 40 79

MPI task timing breakdown:
Section |  min time  |  avg time  |  max time  |%varavg| %total
---------------------------------------------------------------
Pair    | 0.0021899  | 0.0021899  | 0.0021899  |   0.0 |  8.43
Neigh   | 0          | 0          | 0          |   0.0 |  0.00
Comm    | 0.00016832 | 0.00016832 | 0.00016832 |   0.0 |  0.65
Output  | 0.023502   | 0.023502   | 0.023502   |   0.0 | 90.52
Modify  | 0          | 0          | 0          |   0.0 |  0.00
Other   |            | 0.0001042  |            |       |  0.40

Nlocal:    18 ave 18 max 18 min
Histogram: 1 0 0 0 0 0 0 0 0 0
Nghost:    442 ave 442 max 442 min
Histogram: 1 0 0 0 0 0 0 0 0 0
Neighs:    438 ave 438 max 438 min
Histogram: 1 0 0 0 0 0 0 0 0 0

Total # of neighbors = 438
Ave neighs/atom = 24.3333
Neighbor list builds = 0
Dangerous builds = 0
pypospack:output_section:begin
tot_energy = -36.8120420677161
num_atoms = 18
a11 = 2.6015
a22 = 4.506
a33 = 38.2285
a12 = 0
a13 = 0
a23 = -0.0004
tot_press = -1719.79817754111
pxx = -2578.0097850006
pyy = -2581.38468048957
pzz = -6.71331594067697e-05
pxy = 1.6869695439398e-12
pxz = 1.53811929006276e-12
pyz = 0.00178512848147067
pypospack:output_section:done
pypospack:lammps_sim:done
Total wall time: 0:00:00
