   2   2   0   0
  0.9563318E+01  0.3001819E-09  0.3001820E-09  0.3001819E-09  0.5000000E-15
  1.000000000000000E-004
  CAR 
 automatically generated by pyflamestk   
     44.10807390    -16.50861770  301      3.72220312      1.00000000
    -16.509  0.0000E+00  0.0000E+00
    -16.307  0.0000E+00  0.0000E+00
    -16.105  0.0000E+00  0.0000E+00
    -15.902  0.0000E+00  0.0000E+00
    -15.700  0.0000E+00  0.0000E+00
    -15.498  0.0000E+00  0.0000E+00
    -15.296  0.0000E+00  0.0000E+00
    -15.094  0.0000E+00  0.0000E+00
    -14.892  0.0000E+00  0.0000E+00
    -14.690  0.0000E+00  0.0000E+00
    -14.488  0.0000E+00  0.0000E+00
    -14.286  0.0000E+00  0.0000E+00
    -14.084  0.0000E+00  0.0000E+00
    -13.882  0.4269E-04  0.8626E-05
    -13.680  0.3034E+00  0.6132E-01
    -13.478  0.1431E-01  0.6421E-01
    -13.276  0.9191E+00  0.2499E+00
    -13.074  0.7793E+00  0.4074E+00
    -12.872  0.9365E+00  0.5966E+00
    -12.670  0.2755E+01  0.1153E+01
    -12.468  0.3229E+01  0.1806E+01
    -12.265  0.9614E+00  0.2000E+01
    -12.063  0.0000E+00  0.2000E+01
    -11.861  0.0000E+00  0.2000E+01
    -11.659  0.0000E+00  0.2000E+01
    -11.457  0.0000E+00  0.2000E+01
    -11.255  0.0000E+00  0.2000E+01
    -11.053  0.0000E+00  0.2000E+01
    -10.851  0.0000E+00  0.2000E+01
    -10.649  0.0000E+00  0.2000E+01
    -10.447  0.0000E+00  0.2000E+01
    -10.245  0.0000E+00  0.2000E+01
    -10.043  0.0000E+00  0.2000E+01
     -9.841  0.0000E+00  0.2000E+01
     -9.639  0.0000E+00  0.2000E+01
     -9.437  0.0000E+00  0.2000E+01
     -9.235  0.0000E+00  0.2000E+01
     -9.033  0.0000E+00  0.2000E+01
     -8.831  0.0000E+00  0.2000E+01
     -8.628  0.0000E+00  0.2000E+01
     -8.426  0.0000E+00  0.2000E+01
     -8.224  0.0000E+00  0.2000E+01
     -8.022  0.0000E+00  0.2000E+01
     -7.820  0.0000E+00  0.2000E+01
     -7.618  0.0000E+00  0.2000E+01
     -7.416  0.0000E+00  0.2000E+01
     -7.214  0.0000E+00  0.2000E+01
     -7.012  0.0000E+00  0.2000E+01
     -6.810  0.0000E+00  0.2000E+01
     -6.608  0.0000E+00  0.2000E+01
     -6.406  0.0000E+00  0.2000E+01
     -6.204  0.0000E+00  0.2000E+01
     -6.002  0.0000E+00  0.2000E+01
     -5.800  0.0000E+00  0.2000E+01
     -5.598  0.0000E+00  0.2000E+01
     -5.396  0.0000E+00  0.2000E+01
     -5.194  0.0000E+00  0.2000E+01
     -4.991  0.0000E+00  0.2000E+01
     -4.789  0.0000E+00  0.2000E+01
     -4.587  0.0000E+00  0.2000E+01
     -4.385  0.0000E+00  0.2000E+01
     -4.183  0.0000E+00  0.2000E+01
     -3.981  0.0000E+00  0.2000E+01
     -3.779  0.0000E+00  0.2000E+01
     -3.577  0.0000E+00  0.2000E+01
     -3.375  0.0000E+00  0.2000E+01
     -3.173  0.0000E+00  0.2000E+01
     -2.971  0.0000E+00  0.2000E+01
     -2.769  0.0000E+00  0.2000E+01
     -2.567  0.0000E+00  0.2000E+01
     -2.365  0.0000E+00  0.2000E+01
     -2.163  0.0000E+00  0.2000E+01
     -1.961  0.0000E+00  0.2000E+01
     -1.759  0.0000E+00  0.2000E+01
     -1.557  0.0000E+00  0.2000E+01
     -1.354  0.0000E+00  0.2000E+01
     -1.152  0.0000E+00  0.2000E+01
     -0.950  0.5623E-04  0.2000E+01
     -0.748  0.8995E+00  0.2182E+01
     -0.546  0.1914E+00  0.2220E+01
     -0.344  0.6942E+00  0.2361E+01
     -0.142  0.2990E+01  0.2965E+01
      0.060  0.1715E+01  0.3311E+01
      0.262  0.1281E+01  0.3570E+01
      0.464  0.8899E+00  0.3750E+01
      0.666  0.3246E-04  0.3750E+01
      0.868  0.1785E-05  0.3750E+01
      1.070  0.1565E+01  0.4066E+01
      1.272  0.2140E+01  0.4498E+01
      1.474  0.7446E-02  0.4500E+01
      1.676  0.6332E-02  0.4501E+01
      1.878  0.2771E+01  0.5061E+01
      2.081  0.2348E+00  0.5109E+01
      2.283  0.2702E+01  0.5655E+01
      2.485  0.2294E+01  0.6118E+01
      2.687  0.4663E+01  0.7060E+01
      2.889  0.7665E+00  0.7215E+01
      3.091  0.3119E+01  0.7845E+01
      3.293  0.1483E+00  0.7875E+01
      3.495  0.6159E+00  0.8000E+01
      3.697  0.9826E-03  0.8000E+01
      3.899  0.0000E+00  0.8000E+01
      4.101  0.0000E+00  0.8000E+01
      4.303  0.0000E+00  0.8000E+01
      4.505  0.0000E+00  0.8000E+01
      4.707  0.0000E+00  0.8000E+01
      4.909  0.0000E+00  0.8000E+01
      5.111  0.0000E+00  0.8000E+01
      5.313  0.0000E+00  0.8000E+01
      5.515  0.0000E+00  0.8000E+01
      5.718  0.0000E+00  0.8000E+01
      5.920  0.0000E+00  0.8000E+01
      6.122  0.0000E+00  0.8000E+01
      6.324  0.0000E+00  0.8000E+01
      6.526  0.0000E+00  0.8000E+01
      6.728  0.0000E+00  0.8000E+01
      6.930  0.0000E+00  0.8000E+01
      7.132  0.0000E+00  0.8000E+01
      7.334  0.0000E+00  0.8000E+01
      7.536  0.0000E+00  0.8000E+01
      7.738  0.0000E+00  0.8000E+01
      7.940  0.0000E+00  0.8000E+01
      8.142  0.0000E+00  0.8000E+01
      8.344  0.0000E+00  0.8000E+01
      8.546  0.4120E-10  0.8000E+01
      8.748  0.8461E-01  0.8017E+01
      8.950  0.2247E+00  0.8062E+01
      9.152  0.4908E-07  0.8062E+01
      9.355  0.0000E+00  0.8062E+01
      9.557  0.0000E+00  0.8062E+01
      9.759  0.0000E+00  0.8062E+01
      9.961  0.0000E+00  0.8062E+01
     10.163  0.2916E-09  0.8063E+01
     10.365  0.2968E+00  0.8122E+01
     10.567  0.6312E+00  0.8250E+01
     10.769  0.7178E-07  0.8250E+01
     10.971  0.4435E-01  0.8259E+01
     11.173  0.3158E+00  0.8323E+01
     11.375  0.8771E+00  0.8500E+01
     11.577  0.1795E-04  0.8500E+01
     11.779  0.1784E+00  0.8536E+01
     11.981  0.7496E+00  0.8687E+01
     12.183  0.1984E-05  0.8688E+01
     12.385  0.7906E+00  0.8847E+01
     12.587  0.1379E+00  0.8875E+01
     12.789  0.1835E+01  0.9246E+01
     12.992  0.8683E+00  0.9421E+01
     13.194  0.5810E+00  0.9539E+01
     13.396  0.4275E+00  0.9625E+01
     13.598  0.1591E+00  0.9657E+01
     13.800  0.7824E+00  0.9815E+01
     14.002  0.2236E+01  0.1027E+02
     14.204  0.5339E+00  0.1037E+02
     14.406  0.1506E-07  0.1038E+02
     14.608  0.0000E+00  0.1038E+02
     14.810  0.3575E-04  0.1038E+02
     15.012  0.3349E+01  0.1105E+02
     15.214  0.3630E+00  0.1113E+02
     15.416  0.9411E+00  0.1132E+02
     15.618  0.1794E+01  0.1168E+02
     15.820  0.3113E+01  0.1231E+02
     16.022  0.2959E-01  0.1231E+02
     16.224  0.5536E+00  0.1242E+02
     16.426  0.1302E+01  0.1269E+02
     16.629  0.2042E-03  0.1269E+02
     16.831  0.2308E-13  0.1269E+02
     17.033  0.5238E-01  0.1270E+02
     17.235  0.1806E+01  0.1306E+02
     17.437  0.1131E+01  0.1329E+02
     17.639  0.1041E+00  0.1331E+02
     17.841  0.9225E-10  0.1331E+02
     18.043  0.2401E+00  0.1336E+02
     18.245  0.6879E+00  0.1350E+02
     18.447  0.1868E-06  0.1350E+02
     18.649  0.5511E-04  0.1350E+02
     18.851  0.8991E+00  0.1368E+02
     19.053  0.2876E-01  0.1369E+02
     19.255  0.1129E-06  0.1369E+02
     19.457  0.4554E+00  0.1378E+02
     19.659  0.1394E+01  0.1406E+02
     19.861  0.2430E+01  0.1455E+02
     20.063  0.1187E+01  0.1479E+02
     20.266  0.6911E+00  0.1493E+02
     20.468  0.2306E+01  0.1540E+02
     20.670  0.1075E+01  0.1561E+02
     20.872  0.5210E-01  0.1563E+02
     21.074  0.9236E+00  0.1581E+02
     21.276  0.8525E+00  0.1598E+02
     21.478  0.8870E+00  0.1616E+02
     21.680  0.6291E+00  0.1629E+02
     21.882  0.1346E+01  0.1656E+02
     22.084  0.1614E-05  0.1656E+02
     22.286  0.6870E+00  0.1670E+02
     22.488  0.2410E+00  0.1675E+02
     22.690  0.7890E+00  0.1691E+02
     22.892  0.1602E+01  0.1723E+02
     23.094  0.3982E+00  0.1731E+02
     23.296  0.1848E+01  0.1769E+02
     23.498  0.2880E-02  0.1769E+02
     23.700  0.3765E+00  0.1776E+02
     23.903  0.9749E+00  0.1796E+02
     24.105  0.1952E+00  0.1800E+02
     24.307  0.2666E+00  0.1805E+02
     24.509  0.5104E+00  0.1816E+02
     24.711  0.1074E+01  0.1837E+02
     24.913  0.4725E-02  0.1838E+02
     25.115  0.1130E+01  0.1860E+02
     25.317  0.1076E+00  0.1863E+02
     25.519  0.5904E+00  0.1874E+02
     25.721  0.1887E+01  0.1913E+02
     25.923  0.3062E+00  0.1919E+02
     26.125  0.2668E+00  0.1924E+02
     26.327  0.1588E+01  0.1956E+02
     26.529  0.8717E-02  0.1956E+02
     26.731  0.2771E+01  0.2012E+02
     26.933  0.4646E-02  0.2013E+02
     27.135  0.8874E+00  0.2030E+02
     27.337  0.9544E+00  0.2050E+02
     27.540  0.3144E+00  0.2056E+02
     27.742  0.8981E-02  0.2056E+02
     27.944  0.0000E+00  0.2056E+02
     28.146  0.0000E+00  0.2056E+02
     28.348  0.0000E+00  0.2056E+02
     28.550  0.0000E+00  0.2056E+02
     28.752  0.1597E-06  0.2056E+02
     28.954  0.4691E+00  0.2066E+02
     29.156  0.2822E+01  0.2123E+02
     29.358  0.1008E+01  0.2143E+02
     29.560  0.2485E+00  0.2148E+02
     29.762  0.7108E+00  0.2162E+02
     29.964  0.2812E-06  0.2163E+02
     30.166  0.7331E+00  0.2177E+02
     30.368  0.2576E+01  0.2229E+02
     30.570  0.1347E+01  0.2257E+02
     30.772  0.9115E+00  0.2275E+02
     30.974  0.1359E-03  0.2275E+02
     31.177  0.2154E-01  0.2275E+02
     31.379  0.1824E+01  0.2312E+02
     31.581  0.2099E-01  0.2313E+02
     31.783  0.1851E+01  0.2350E+02
     31.985  0.2749E+01  0.2406E+02
     32.187  0.1126E+01  0.2428E+02
     32.389  0.1098E+01  0.2451E+02
     32.591  0.3757E+01  0.2527E+02
     32.793  0.8780E+00  0.2544E+02
     32.995  0.2758E+01  0.2600E+02
     33.197  0.8550E+00  0.2617E+02
     33.399  0.4025E+00  0.2625E+02
     33.601  0.2145E+01  0.2669E+02
     33.803  0.1704E-02  0.2669E+02
     34.005  0.0000E+00  0.2669E+02
     34.207  0.0000E+00  0.2669E+02
     34.409  0.0000E+00  0.2669E+02
     34.611  0.0000E+00  0.2669E+02
     34.814  0.5914E-10  0.2669E+02
     35.016  0.2256E+00  0.2673E+02
     35.218  0.2555E+01  0.2725E+02
     35.420  0.2866E-02  0.2725E+02
     35.622  0.5874E+00  0.2737E+02
     35.824  0.2930E+01  0.2796E+02
     36.026  0.3998E+00  0.2804E+02
     36.228  0.7222E+00  0.2819E+02
     36.430  0.3449E-03  0.2819E+02
     36.632  0.1854E+01  0.2856E+02
     36.834  0.9297E+00  0.2875E+02
     37.036  0.1995E+00  0.2879E+02
     37.238  0.4192E+00  0.2887E+02
     37.440  0.5657E+00  0.2899E+02
     37.642  0.1293E+01  0.2925E+02
     37.844  0.9239E+00  0.2944E+02
     38.046  0.7663E+00  0.2959E+02
     38.248  0.1091E+01  0.2981E+02
     38.451  0.8722E+00  0.2999E+02
     38.653  0.5575E-01  0.3000E+02
     38.855  0.1942E-13  0.3000E+02
     39.057  0.6576E-01  0.3001E+02
     39.259  0.3460E+01  0.3071E+02
     39.461  0.4956E+00  0.3081E+02
     39.663  0.0000E+00  0.3081E+02
     39.865  0.0000E+00  0.3081E+02
     40.067  0.6697E-15  0.3081E+02
     40.269  0.1090E-01  0.3081E+02
     40.471  0.9168E+00  0.3100E+02
     40.673  0.2604E-03  0.3100E+02
     40.875  0.0000E+00  0.3100E+02
     41.077  0.5654E-04  0.3100E+02
     41.279  0.1967E+01  0.3140E+02
     41.481  0.2982E+01  0.3200E+02
     41.683  0.2608E-03  0.3200E+02
     41.885  0.0000E+00  0.3200E+02
     42.088  0.0000E+00  0.3200E+02
     42.290  0.0000E+00  0.3200E+02
     42.492  0.0000E+00  0.3200E+02
     42.694  0.0000E+00  0.3200E+02
     42.896  0.0000E+00  0.3200E+02
     43.098  0.0000E+00  0.3200E+02
     43.300  0.0000E+00  0.3200E+02
     43.502  0.0000E+00  0.3200E+02
     43.704  0.0000E+00  0.3200E+02
     43.906  0.0000E+00  0.3200E+02
     44.108  0.0000E+00  0.3200E+02
