LAMMPS (10 Feb 2015)
Reading data file ...
  triclinic box = (0 0 0) to (4.2565 4.2565 4.2565) with tilt (0 0 0)
  1 by 1 by 1 MPI processor grid
  reading atoms ...
  8 atoms
4 atoms in group Mg
4 atoms in group O
Setting atom values ...
  4 settings made for charge
Setting atom values ...
  4 settings made for charge
PPPM initialization ...
  G vector (1/distance) = 0.354854
  grid = 8 8 8
  stencil order = 5
  estimated absolute RMS force accuracy = 5.34408e-05
  estimated relative force accuracy = 3.71126e-06
  using double precision FFTs
  3d grid and FFT values/proc = 3375 512
Neighbor list info ...
  1 neighbor list requests
  update every 1 steps, delay 0 steps, check yes
  master list distance cutoff = 11
Setting up minimization ...
Memory usage per processor = 4.06549 Mbytes
Step PotEng Lx Ly Lz Xy Xz Yz Press Pxx Pyy Pzz Pxy Pxz Pyz eatoms 
       0   -162.12848       4.2565       4.2565       4.2565            0            0            0    -64012.53    -64012.53    -64012.53    -64012.53 -3.8759874e-11 -1.4292379e-10 -3.6687737e-10   -162.12848 
      10   -162.17871     4.213935     4.213935     4.213935            0            0            0   -4821.7526   -4821.7526   -4821.7526   -4821.7526 8.9106085e-11 8.5332225e-11 -4.2335946e-10   -162.17871 
      14   -162.17896    4.2106915    4.2106915    4.2106915            0            0            0    -1.347652    -1.347652    -1.347652    -1.347652 2.5597609e-11 1.0162971e-11 2.8091283e-10   -162.17896 
Loop time of 0.115296 on 1 procs for 14 steps with 8 atoms

Minimization stats:
  Stopping criterion = linesearch alpha is zero
  Energy initial, next-to-last, final = 
        -162.128476026     -162.178964554     -162.178964554
  Force two-norm initial, final = 9.24344 0.000276677
  Force max component initial, final = 9.24344 0.000190436
  Final line search alpha, max atom move = 0.125 2.38044e-05
  Iterations, force evaluations = 14 33

Pair  time (%) = 0.0216994 (18.8206)
Kspce time (%) = 0.0256059 (22.2089)
Neigh time (%) = 0 (0)
Comm  time (%) = 0.000894308 (0.775663)
Outpt time (%) = 3.40939e-05 (0.0295707)
Other time (%) = 0.0670621 (58.1652)

Nlocal:    8 ave 8 max 8 min
Histogram: 1 0 0 0 0 0 0 0 0 0
Nghost:    2189 ave 2189 max 2189 min
Histogram: 1 0 0 0 0 0 0 0 0 0
Neighs:    2344 ave 2344 max 2344 min
Histogram: 1 0 0 0 0 0 0 0 0 0

Total # of neighbors = 2344
Ave neighs/atom = 293
Neighbor list builds = 0
Dangerous builds = 0
pypospack:output_section:begin
tot_energy = -162.17896455406
num_atoms = 8
xx = 4.21069146013408
yy = 4.21069146013408
zz = 4.21069146013408
xy = 0
xz = 0
yz = 0
tot_press = -1.34765197939399
pxx = -1.34765197919426
pyy = -1.3476519793348
pzz = -1.34765197965291
pxy = 2.55976090046832e-11
pxz = 1.01629705561986e-11
pyz = 2.80912827691917e-10
pypospack:output_section:done
pypospack:lammps_sim:done
PPPM initialization ...
  G vector (1/distance) = 0.355384
  grid = 8 8 8
  stencil order = 5
  estimated absolute RMS force accuracy = 5.2136e-05
  estimated relative force accuracy = 3.62065e-06
  using double precision FFTs
  3d grid and FFT values/proc = 3375 512
Setting up run ...
Memory usage per processor = 3.06549 Mbytes
Step Temp PotEng KinEng TotEng Press Lx Ly Lz Press Pxx Pyy Pzz Pxy Pxz Pyz Volume 
       0         1400   -162.17896    1.2667494   -160.91221    18123.319    4.2106915    4.2106915    4.2106915    18123.319    13924.029    15320.855    25125.072     5170.484   -9124.7246   -9627.6391    74.655234 
     100     712.9935   -161.39962   0.64513151   -160.75449   -7673.4985    4.2513202    4.2513202    4.2513202   -7673.4985   -1476.4768   -7684.9493   -13859.069    2056.3712    3884.5086    14657.242    76.837183 
     200    977.40993   -161.29841   0.88438105   -160.41403   -45702.348    4.2780814    4.2780814    4.2780814   -45702.348   -38882.194   -38197.251   -60027.598   -4505.4531    11212.714     8166.193    78.297362 
     300    1591.9459    -161.5619    1.4404261   -160.12147    43785.596     4.226231     4.226231     4.226231    43785.596    38063.053    44696.302    48597.434   -2183.2196    499.00849   -6615.2115    75.484835 
     400    1587.3679    -161.3151    1.4362838   -159.87882     54882.57    4.2186917    4.2186917    4.2186917     54882.57    59621.681     50902.18     54123.85   -6567.2805    4138.1897    12483.903    75.081573 
     500    1559.9485   -161.17281    1.4114741   -159.76134   -59876.073    4.2976301    4.2976301    4.2976301   -59876.073   -42189.649   -54479.229    -82959.34    -6947.636    811.14477   -2908.5585    79.375615 
     600    1850.1593   -161.27423     1.674063   -159.60017   -77433.823    4.3251244    4.3251244    4.3251244   -77433.823   -82873.911   -81607.152   -67820.405   -416.19884   -16482.689    -2692.564    80.908809 
     700     1466.674   -160.88238    1.3270775   -159.55531    3322.9936    4.2611306    4.2611306    4.2611306    3322.9936    9086.4103    1093.9153   -211.34474   -4919.4236    8096.1877    1436.8355    77.370343 
     800    1356.7437   -160.75977    1.2276102   -159.53216    31980.894    4.2243707    4.2243707    4.2243707    31980.894    74981.488    26608.295   -5647.1024    4747.2048    17821.856    3026.1133    75.385193 
     900    1094.7808   -160.59699   0.99058067   -159.60641    18467.958    4.2565558    4.2565558    4.2565558    18467.958    56735.785   -11535.874    10203.962     7048.219   -6976.2371   -6952.0978    77.121416 
    1000    1412.1588   -160.88179     1.277751   -159.60404   -8332.6888    4.2825445    4.2825445    4.2825445   -8332.6888   -8847.3454   -7328.9169   -8821.8041    9094.0185    4697.0749     4159.088    78.542668 
    1100    1267.5157   -160.73881    1.1468748   -159.59194    321.58019    4.2785256    4.2785256    4.2785256    321.58019   -9584.0857     52691.38   -42142.553   -435.84341    434.92897    22461.359    78.321755 
    1200    1254.5895   -160.72879     1.135179   -159.59361   -1613.9251    4.2624639    4.2624639    4.2624639   -1613.9251   -16665.213    39183.338   -27359.901    21758.777    17526.274    28914.986    77.442995 
    1300    1396.4635   -160.85561    1.2635495   -159.59206    9053.3584    4.2380736    4.2380736    4.2380736    9053.3584   -8077.4669    32215.191    3022.3516    12640.959   -13593.243      45094.2    76.121177 
    1400    1143.7439   -160.65259    1.0348835    -159.6177    40956.654    4.2413316    4.2413316    4.2413316    40956.654    61032.228    57828.781     4008.954    2984.9231    7144.6216    19734.386    76.296864 
    1500    1409.9628   -160.91935     1.275764   -159.64359    2344.4971    4.2814759    4.2814759    4.2814759    2344.4971   -26433.984    50735.172   -17267.696    18101.495   -781.40133    6046.0348     78.48389 
    1600    964.31108   -160.48939   0.87252893   -159.61686    11027.887     4.294473     4.294473     4.294473    11027.887   -68793.217    97147.647    4729.2302    1200.7748   -7578.2087    16874.783    79.200814 
    1700    1253.3821   -160.73152    1.1340864   -159.59744    6390.3718    4.2625318    4.2625318    4.2625318    6390.3718   -31818.259    76699.355    -25709.98    17970.047    14317.345    505.88381    77.446694 
    1800    1582.3328   -161.02135     1.431728   -159.58963    16025.544    4.2391898    4.2391898    4.2391898    16025.544   -4690.6145    74316.202   -21548.955    12388.436     9527.065    -21172.13    76.181338 
    1900     1209.691   -160.72846    1.0945538   -159.63391    18036.188    4.2653811    4.2653811    4.2653811    18036.188   -42173.472    94367.443    1914.5943    4176.3227   -1041.4358   -22885.594    77.602108 
    2000    931.19103   -160.46751   0.84256121   -159.62495    6351.8537    4.2914285    4.2914285    4.2914285    6351.8537   -33456.464    84314.064   -31802.039    12617.129   -6593.6864   -15508.366    79.032485 
    2100    1571.4515   -161.01675    1.4218824   -159.59486   -2798.7484    4.2752212    4.2752212    4.2752212   -2798.7484    -20680.47    37425.498   -25141.273   -5366.8735    2272.0516    6737.2767    78.140424 
    2200    1332.5247   -160.78263    1.2056964   -159.57693    -1645.532    4.2492239    4.2492239    4.2492239    -1645.532    -8458.451   -9401.0176    12922.873   -16332.671   -16065.586   -5328.5381     76.72358 
    2300     1193.812   -160.67712    1.0801862   -159.59694   -19144.282    4.2492711    4.2492711    4.2492711   -19144.282   -20942.743    -18004.31   -18485.791     -19637.4    1319.7092   -30587.571    76.726136 
    2400    1317.4898    -160.8106    1.1920925   -159.61851    1078.2951     4.260687     4.260687     4.260687    1078.2951    9692.2572    20386.789   -26844.161   -10597.053    3148.5238   -30578.065    77.346182 
    2500    1118.4591   -160.63144    1.0120053   -159.61943      8030.22    4.2673746    4.2673746    4.2673746      8030.22   -5518.2983    9277.9921    20330.966   -16734.447   -6659.8329   -16776.278    77.710967 
    2600    776.94902    -160.3123    0.7029998    -159.6093    2175.0139    4.2700221    4.2700221    4.2700221    2175.0139   -3682.9876   -21725.412    31933.441   -16147.708   -147.11639   -4009.8897    77.855691 
    2700    1544.6969   -161.00148    1.3976743    -159.6038   -1871.4341    4.2622454    4.2622454    4.2622454   -1871.4341   -3219.6623    11739.403   -14134.043    -1022.131    14705.003     8734.628    77.431088 
    2800    1194.2449   -160.68628    1.0805779    -159.6057    26106.511    4.2543365    4.2543365    4.2543365    26106.511   -20629.872    68623.204    30326.202   -17150.116    2122.3163    13606.989    77.000849 
    2900    1060.6539    -160.5664   0.95970191    -159.6067    -1708.372    4.2608125    4.2608125    4.2608125    -1708.372    -66971.04    40264.148    21581.776   -25166.159   -16886.202    3470.5666    77.353019 
    3000    1677.7111   -161.12699    1.5180283   -159.60896   -21243.122    4.2706973    4.2706973    4.2706973   -21243.122   -52667.302   -10006.697   -1055.3683   -17135.232    57.948649   -3232.8114    77.892629 
    3100    1468.6985   -160.94382    1.3289093   -159.61491   -7277.9003    4.2767472    4.2767472    4.2767472   -7277.9003   -52908.777   -8805.7062    39880.782   -14081.272   -6824.4952    13162.325    78.224127 
    3200    1288.1615   -160.77427    1.1655556   -159.60872   -47249.553    4.2809837    4.2809837    4.2809837   -47249.553   -73090.099   -41140.365   -27518.194    17550.426    -7027.966   -11098.125    78.456825 
    3300    1307.5766   -160.79021    1.1831228   -159.60709   -29395.808    4.2602946    4.2602946    4.2602946   -29395.808    -23513.94   -20523.759   -44149.726    23457.157    6566.0876   -21435.203    77.324815 
    3400    1114.7991   -160.61416    1.0086936   -159.60546     38052.09    4.2281331    4.2281331    4.2281331     38052.09    31460.996    70726.104    11969.171    9782.3486   -18605.612   -14375.285    75.586797 
    3500     1003.025   -160.53943   0.90755813   -159.63187    28516.584    4.2433505    4.2433505    4.2433505    28516.584    15050.126    33188.303    37311.323    11506.175   -16010.369   -19458.789    76.405869 
    3600    827.24572   -160.38246   0.74850931   -159.63395    -13850.63    4.2889058    4.2889058    4.2889058    -13850.63   -32247.094   -5893.2248   -3411.5718     3919.915   -469.23685   -31563.699    78.893188 
    3700    1165.8851   -160.66396    1.0549173   -159.60904    2478.3355    4.2835973    4.2835973    4.2835973    2478.3355   -12457.022     37099.81   -17207.781    14051.133   -9907.0952   -22797.078    78.600608 
    3800    1499.8711   -160.94095    1.3571149   -159.58384    14136.484    4.2433154    4.2433154    4.2433154    14136.484   -12716.713    64706.469   -9580.3054    6707.0522    5394.3637   -10121.039    76.403975 
    3900    1276.1002    -160.7612    1.1546423   -159.60656    1489.1256    4.2448791    4.2448791    4.2448791    1489.1256   -13853.528    16832.605    1488.2994    6050.4284   -1155.8135   -12142.557    76.488469 
    4000    1913.2914   -161.34705    1.7311863   -159.61587   -32111.366    4.2677111    4.2677111    4.2677111   -32111.366   -37532.194   -19544.065   -39257.838    31763.058   -2577.6268   -14041.239    77.729348 
    4100    1786.9421    -161.2262    1.6168627   -159.60933    17989.276    4.2538524    4.2538524    4.2538524    17989.276   -19291.442    39134.119    34125.151    3679.8532    5190.4846    6406.4426    76.974564 
    4200    1386.1921   -160.86978    1.2542557   -159.61552    21138.868    4.2504211    4.2504211    4.2504211    21138.868   -30698.652    58023.947    36091.309    -6068.049    -4031.356    7120.3395    76.788446 
    4300     1658.012   -161.13108    1.5002041   -159.63088   -40963.963    4.2786781    4.2786781    4.2786781   -40963.963    -61375.77   -20614.307   -40901.813   -6716.2381   -2466.6762    1020.0288    78.330127 
    4400     1594.432   -161.05575    1.4426756   -159.61308   -22431.479    4.2715216    4.2715216    4.2715216   -22431.479   -36227.082   -18978.519   -12088.836   -36132.113   -5521.0121    14863.919    77.937743 
    4500    1365.6127   -160.82382     1.235635   -159.58818    16855.987    4.2361539    4.2361539    4.2361539    16855.987    13169.088    10685.595    26713.277   -24092.122    3797.0798    12094.566    76.017783 
    4600    983.86326   -160.50571   0.89022015   -159.61549    22493.899    4.2472526    4.2472526    4.2472526    22493.899    9617.0195   -21347.211    79211.888   -28043.367   -3251.2287   -6757.5381    76.616848 
    4700     1426.795   -160.90968    1.2909941   -159.61868   -17260.361    4.2781214    4.2781214    4.2781214   -17260.361   -54171.478   -36326.126    38716.522   -28132.577    4005.9903   -2935.7739     78.29956 
    4800    1656.0156   -161.10037    1.4983977   -159.60197   -19502.575    4.2698749    4.2698749    4.2698749   -19502.575   -76591.685    27935.015   -9851.0542   -1277.7515    10348.462   -11600.518    77.847642 
    4900    1075.5628   -160.57312   0.97319184   -159.59993   -4251.1067    4.2509323    4.2509323    4.2509323   -4251.1067   -51013.802    67356.655   -29096.174   -2481.3148    1267.8171   -1240.6926    76.816154 
    5000    1283.3988   -160.77274    1.1612462   -159.61149   -27792.452    4.2547183    4.2547183    4.2547183   -27792.452   -41019.492    1385.6857   -43743.549   -4133.6845   -949.19928   -6815.9983     77.02158 
    5100    1397.8226   -160.88056    1.2647792   -159.61578    6931.7606     4.253083     4.253083     4.253083    6931.7606   -29873.557    9425.3569    41243.482    18138.909   -3160.9752   -34.327658    76.932805 
    5200    1096.2295   -160.61517   0.99189149   -159.62328    32722.043    4.2487293    4.2487293    4.2487293    32722.043   -14831.376    43341.826    69655.679    11024.799    6537.0259   -4768.3251    76.696791 
    5300    510.54535   -160.10601   0.46195216   -159.64405    19813.389    4.2662063    4.2662063    4.2662063    19813.389    14309.373    49444.245   -4313.4524    11163.709    9142.6075   -8247.9367    77.647159 
    5400    966.64559   -160.49923   0.87464124   -159.62459   -5861.4917    4.2782108    4.2782108    4.2782108   -5861.4917   -15461.405    38768.022   -40891.091    5876.1301    13408.873   -4492.0546    78.304467 
    5500    1698.2742   -161.13338    1.5366342   -159.59674   -720.62427    4.2605651    4.2605651    4.2605651   -720.62427   -16121.162    33434.745   -19475.456    1454.1241    19400.381   -18569.292    77.339545 
    5600     1486.411   -160.93611    1.3449359   -159.59118    25473.359    4.2409877    4.2409877    4.2409877    25473.359    183.11574    26854.827    49382.135   -10791.851     -14884.6   -3507.3075    76.278306 
    5700    1659.7039    -161.1125     1.501735   -159.61077   -18294.361    4.2536726    4.2536726    4.2536726   -18294.361   -1458.7173   -34274.652   -19149.715   -10703.227    4674.0477    6027.3066    76.964806 
    5800    2014.3355   -161.43808    1.8226131   -159.61547   -28218.859    4.2624321    4.2624321    4.2624321   -28218.859   -32347.356   -9005.7586   -43303.461     9434.453     2521.238     17288.59    77.441262 
    5900    2239.6744   -161.63946    2.0265045   -159.61295   -20726.145    4.2629276    4.2629276    4.2629276   -20726.145    -41297.65   -6646.8054   -14233.981     2550.666   -14501.779    25064.373    77.468274 
    6000    1454.7378   -160.93013    1.3162773   -159.61386   -16026.534    4.2660005    4.2660005    4.2660005   -16026.534   -26047.718   -10055.624    -11976.26    3909.6181    4668.9614   -8262.7515    77.635922 
    6100    1354.6999   -160.83647    1.2257609   -159.61071    13036.991    4.2552106    4.2552106    4.2552106    13036.991   -18296.373    54664.381    2742.9643    -10167.15    2256.3463   -13118.381    77.048323 
    6200    1619.4685    -161.0784    1.4653291   -159.61307    35579.521    4.2490263    4.2490263    4.2490263    35579.521   -2852.4227    58501.536    51089.448   -8165.3277   -1023.8124    -8575.052    76.712873 
    6300    1321.2069   -160.81491    1.1954558   -159.61946   -8763.1902    4.2662146    4.2662146    4.2662146   -8763.1902   -48567.324    5153.0269    17124.726   -10298.498    18537.703   -6561.0012    77.647609 
    6400    927.32687   -160.45435   0.83906484   -159.61528   -7138.2304     4.274454     4.274454     4.274454   -7138.2304   -46225.854   -3080.8662    27892.029   -11938.869    13307.642   -1883.5393    78.098366 
    6500    1542.7647    -161.0103     1.395926   -159.61438   -2757.6784     4.262203     4.262203     4.262203   -2757.6784   -43798.115   -6447.1322    41972.212   -5486.6336    18443.769   -601.93023    77.428775 
    6600    1779.8973   -161.22189    1.6104885    -159.6114    4856.5335    4.2465116    4.2465116    4.2465116    4856.5335   -41185.285    33720.573    22034.313   -3330.8999   -10302.014   -15111.945    76.576751 
    6700     1434.569   -160.90917    1.2980282   -159.61114   -8989.4566    4.2492101    4.2492101    4.2492101   -8989.4566   -28991.264    15775.323   -13752.429    3419.0253   -10976.294   -130.75021    76.722832 
    6800     1602.596   -161.07241    1.4500625   -159.62235   -14443.539    4.2655709    4.2655709    4.2655709   -14443.539   -34552.974   -13605.453    4827.8113    10768.338   -588.39146    5937.1629    77.612469 
    6900    1974.8334   -161.40713    1.7868708   -159.62026   -24780.796    4.2697356    4.2697356    4.2697356   -24780.796   -69367.369   -19497.586    14522.568    2127.2826    10716.053     4423.015    77.840023 
    7000    1557.7558   -161.02136    1.4094902   -159.61187   -9622.7203    4.2535189    4.2535189    4.2535189   -9622.7203   -11693.877   -13713.107   -3461.1769     4683.389     9958.322    22342.932    76.956465 
    7100    1403.9483   -160.87915     1.270322   -159.60883    2132.7364    4.2472414    4.2472414    4.2472414    2132.7364    35887.173    9273.9851   -38762.949    18306.108   -1912.1877    8178.6589    76.616242 
    7200    1790.5057   -161.24376    1.6200872   -159.62368    8763.5075    4.2623774    4.2623774    4.2623774    8763.5075    3307.8965     37530.62   -14547.994    8901.7615   -478.56881    -7586.658    77.438283 
    7300    1886.2189   -161.32008    1.7066905   -159.61339   -36489.153    4.2762706    4.2762706    4.2762706   -36489.153   -37081.988   -30807.914   -41577.558   -8898.9581   -1950.5844   -13179.483    78.197982 
    7400    1163.3072   -160.65603    1.0525848   -159.60345   -35515.391    4.2626853    4.2626853    4.2626853   -35515.391   -11995.048   -36670.101   -57881.024    790.77658   -3377.5322   -23753.875    77.455063 
    7500    1597.8089   -161.04389    1.4457311   -159.59816    3152.6062    4.2448138    4.2448138    4.2448138    3152.6062    911.76612    28417.854   -19871.802    16369.339    15998.616   -22598.911    76.484939 
    7600    1647.6989   -161.10595    1.4908726   -159.61507   -3641.1829    4.2513728    4.2513728    4.2513728   -3641.1829   -51649.012    61289.614    -20564.15    13046.028   -937.73216    7067.2879    76.840036 
    7700    924.09395   -160.45243   0.83613963   -159.61629   -12133.885     4.269213     4.269213     4.269213   -12133.885   -41535.623    30605.692   -25471.724    -4214.042    728.44661    2446.1991    77.811442 
    7800    1272.3179   -160.76171      1.15122   -159.61049   -4918.1166    4.2760505    4.2760505    4.2760505   -4918.1166   -61851.958   -5092.7482    52190.357   -11400.945   -6460.2582    11215.056    78.185908 
    7900    1638.5074   -161.09627     1.482556   -159.61371    -1351.614    4.2697309    4.2697309    4.2697309    -1351.614   -77803.649    13727.321    60021.486   -45.960174   -8722.7955    2704.9083    77.839764 
    8000    781.77139    -160.3266   0.70736318   -159.61924    11705.097    4.2487301    4.2487301    4.2487301    11705.097   -52147.922    86052.389    1210.8221   -1194.8513   -17202.517    -20552.92     76.69683 
    8100    678.05574   -160.23451   0.61351908   -159.62099    24092.994    4.2322476    4.2322476    4.2322476    24092.994   -30549.006    75657.905    27170.084    2228.3281   -6565.9242   -6213.5962    75.807681 
    8200    1079.9984   -160.62851   0.97720521   -159.65131    26405.419    4.2665501    4.2665501    4.2665501    26405.419     -65356.9    34833.594    109739.56   -6472.4132   -5474.9303   -30673.181     77.66593 
    8300    1128.0935   -160.64761    1.0207227   -159.62689   -29278.814    4.2977318    4.2977318    4.2977318   -29278.814   -100290.43   -9387.9195    21841.905   -2748.3994    5757.7782   -23234.606    79.381249 
    8400    1002.4684   -160.51968   0.90705445   -159.61262   -16278.899    4.2615369    4.2615369    4.2615369   -16278.899   -55588.265    15147.162    -8395.594   -5724.6377    11585.999    10028.202    77.392479 
    8500    1464.3717   -160.91765    1.3249943   -159.59265    16088.366    4.2358985    4.2358985    4.2358985    16088.366   -16825.846    22733.588    42357.357    6748.6902    8976.8976    1393.0685    76.004034 
    8600    1500.4375   -161.00453    1.3576274    -159.6469   -18078.481    4.2733292    4.2733292    4.2733292   -18078.481   -76310.738    39500.139   -17424.846    8142.5276     16361.11    13322.525    78.036729 
    8700     1257.303   -160.75975    1.1376341   -159.62212   -49242.055    4.2943109    4.2943109    4.2943109   -49242.055   -99216.148   -43979.023   -4530.9923    20014.457    817.91602    491.83392    79.191841 
    8800    1332.2877   -160.80609    1.2054819   -159.60061   -14309.978    4.2665696    4.2665696    4.2665696   -14309.978   -44525.144   -46797.172    48392.382    5633.7088   -8392.8311    3157.3755    77.666993 
    8900    1647.4723   -161.08795    1.4906676   -159.59728   -10163.494    4.2520819    4.2520819    4.2520819   -10163.494   -19489.504   -20146.569    9145.5926   -3976.5565   -2994.0953    3256.4527    76.878495 
    9000    1456.8608   -160.92588    1.3181983   -159.60768   -6929.6111    4.2521013    4.2521013    4.2521013   -6929.6111   -20744.619   -11461.923    11417.709   -8783.5016    3078.8292   -2513.7753    76.879544 
    9100    938.91289    -160.4661   0.84954812   -159.61655    11539.836    4.2561472    4.2561472    4.2561472    11539.836   -9897.2221   -34320.424    78837.156   -10523.999    2084.4959    100.28257    77.099207 
    9200    1312.3331   -160.81508    1.1874266   -159.62765   -8122.1194    4.2738638    4.2738638    4.2738638   -8122.1194   -66281.124   -17553.099    59467.865     -1478.58   -3969.5482    -2461.512    78.066017 
    9300    1533.0165   -160.99833    1.3871055   -159.61123   -6184.6695    4.2803513    4.2803513    4.2803513   -6184.6695   -52011.781     12078.58    21379.193   -9838.4371    5130.0798   -21857.427    78.422062 
    9400    835.72633   -160.35015   0.75618274   -159.59396    15471.145    4.2627439    4.2627439    4.2627439    15471.145   -5737.2041   -3483.9774    55634.617    12089.294    12097.124   -6092.6897    77.458258 
    9500    1295.5239   -160.76268    1.1722173   -159.59046     1072.186    4.2462682    4.2462682    4.2462682     1072.186   -10840.687    6518.6549    7538.5907    25901.684    2880.1078    17134.084    76.563587 
    9600    1812.9206   -161.24126    1.6403687   -159.60089    5893.6474    4.2439775    4.2439775    4.2439775    5893.6474   -26085.274    65261.189   -21494.974    18399.551    11399.233    6827.0521    76.439745 
    9700    1664.6116   -161.11905    1.5061755   -159.61287   -14969.804    4.2646599    4.2646599    4.2646599   -14969.804   -44746.244    8827.2372   -8990.4044    7189.6806    17511.519    14164.911    77.562754 
    9800     1715.388   -161.14847    1.5521191   -159.59635   -47436.826    4.2768152    4.2768152    4.2768152   -47436.826   -46025.943   -63360.317   -32924.219   -5083.8552    416.04379    5661.5878    78.227861 
    9900    2087.1774   -161.47313     1.888522   -159.58461   -5601.7796    4.2537271    4.2537271    4.2537271   -5601.7796    4894.1883   -1445.3402   -20254.187    7021.5239   -8872.0627   -15756.084    76.967764 
   10000    1692.0151   -161.12326    1.5309708   -159.59229    10613.991     4.246667     4.246667     4.246667    10613.991    21227.293   -20764.019      31378.7    7594.2007   -4582.3193    -8040.111    76.585158 
   10100    1160.4975   -160.65658    1.0500425   -159.60654   -23626.261    4.2715922    4.2715922    4.2715922   -23626.261   -27420.701   -41039.101   -2418.9827    2594.5386   -6709.8721   -24457.933    77.941609 
   10200    1124.0884   -160.61378    1.0170988   -159.59668    13070.904    4.2657776    4.2657776    4.2657776    13070.904   -13426.149     38627.18    14011.679   -11864.048   -4752.9154   -21764.989     77.62375 
   10300      1097.29   -160.59098   0.99285106   -159.59813    35959.915    4.2509366    4.2509366    4.2509366    35959.915    19091.582    27030.539    61757.625   -13142.238   -2238.8349   -9195.4057     76.81639 
   10400    959.77948   -160.47523   0.86842864    -159.6068   -9876.3766     4.264863     4.264863     4.264863   -9876.3766    -4298.648   -64756.832    39426.351    -9324.691    11464.521   -17765.911    77.573835 
   10500    1137.2423   -160.62865    1.0290007   -159.59965   -2517.1132     4.261962     4.261962     4.261962   -2517.1132    22598.862   -48450.572    18300.371   -9578.3749     4194.726   -14497.939    77.415641 
   10600    1048.1029   -160.54634   0.94834557     -159.598    41304.423    4.2515692    4.2515692    4.2515692    41304.423    64850.889   -2000.8056    61063.185   -17638.402   -14085.252   -19860.118     76.85069 
   10700     839.8261   -160.37746    0.7598923   -159.61757    11347.796    4.2704244    4.2704244    4.2704244    11347.796   -1196.6949   -24744.566    59984.649   -21359.709    2807.8286   -10990.937      77.8777 
   10800    1401.2164   -160.86643      1.26785   -159.59858   -35103.468    4.2831035    4.2831035    4.2831035   -35103.468   -38638.682   -50972.478   -15699.245   -10669.571    12948.344    5198.6882    78.573427 
   10900    1790.4348    -161.2083    1.6200231   -159.58827   -12139.155    4.2529031    4.2529031    4.2529031   -12139.155   -12147.453   -19446.076    -4823.936    9965.4578    7181.9225     18258.47    76.923045 
   11000      1342.11   -160.80469    1.2143693   -159.59032    12884.065    4.2393235    4.2393235    4.2393235    12884.065      43853.9   -29314.859    24113.155    4894.6971   -9446.4228    13410.771    76.188543 
   11100    1034.0972   -160.54923   0.93567288   -159.61356   -5314.9493    4.2721588    4.2721588    4.2721588   -5314.9493    36184.694   -34899.435   -17230.107    2172.2545   -31075.512    7837.9446    77.972625 
   11200    1240.1917   -160.72039    1.1221515   -159.59824    3243.8158    4.2813895    4.2813895    4.2813895    3243.8158    9373.5159    2790.1469   -2432.2155    3210.6909   -33278.802   -3296.3948    78.479139 
   11300    1041.4184   -160.52985   0.94229725   -159.58755      7898.45    4.2655182    4.2655182    4.2655182      7898.45   -20533.353   -23594.371    67823.074    465.71806   -18918.888   -7329.8084    77.609592 
   11400    1310.8068   -160.77796    1.1860456   -159.59191    -4726.351    4.2645731    4.2645731    4.2645731    -4726.351   -20787.757   -19584.718    26193.422    15392.626   -10757.136   -384.86994    77.558013 
   11500     1866.624   -161.28724    1.6889606   -159.59827   -19530.923    4.2722978    4.2722978    4.2722978   -19530.923    6534.8846   -27486.315   -37641.339    2400.4843   -3221.9697   -2886.4963    77.980238 
   11600    1294.9111   -160.76831    1.1716628   -159.59665     9950.582    4.2660803    4.2660803    4.2660803     9950.582    37300.187   -48767.296    41318.855   -211.91902   -12380.189   -6130.8273    77.640276 
   11700    1221.0715   -160.70371    1.1048512   -159.59886    12053.734    4.2619846    4.2619846    4.2619846    12053.734    15177.705   -64178.734    85162.232   -5353.4294   -17014.314   -292.70601    77.416875 
   11800     1829.763   -161.26681     1.655608    -159.6112   -9145.4748    4.2799535    4.2799535    4.2799535   -9145.4748   -37821.892   -30769.955    41155.423   -19395.463    3034.6297    9023.5728    78.400197 
   11900    1466.3973    -160.9263    1.3268271   -159.59947   -32094.036    4.2801583    4.2801583    4.2801583   -32094.036   -20877.708   -90586.101      15181.7    1973.0784    20809.934    -579.8167    78.411449 
   12000     1594.528   -161.02283    1.4427625   -159.58007    9005.6257    4.2481992    4.2481992    4.2481992    9005.6257    42461.736   -30617.539     15172.68   -3819.1951    16425.524   -1676.5026    76.668087 
   12100    2186.2702   -161.57968    1.9781832    -159.6015   -1105.3172    4.2487364    4.2487364    4.2487364   -1105.3172   -3471.0852    35968.191   -35813.058   -20014.214    13230.695   -1255.9396    76.697173 
   12200     1766.169   -161.21271    1.5980668   -159.61464   -40978.172    4.2715673    4.2715673    4.2715673   -40978.172   -37568.606   -54097.624   -31268.285    3089.5703    7007.0461    10899.368    77.940245 
   12300    1213.5575   -160.70364    1.0980524   -159.60559    7999.3856    4.2598109    4.2598109    4.2598109    7999.3856    22540.747   -63003.731    64461.141     -5471.65   -8539.3861    2940.8072    77.298481 
   12400    1657.6074   -161.10689     1.499838   -159.60706    42377.935    4.2540516    4.2540516    4.2540516    42377.935    16920.876    4189.2414    106023.69   -9677.2829   -17816.498   -10669.958    76.985379 
   12500    1076.0851   -160.59657   0.97366445    -159.6229    15042.561    4.2838136    4.2838136    4.2838136    15042.561   -615.14779   -69853.085    115595.92    11994.105   -18079.342   -4236.7666    78.612514 
   12600    629.98223   -160.17004   0.57002116   -159.60002    8940.4291    4.2909313    4.2909313    4.2909313    8940.4291   -5756.6106   -74632.466    107210.36    -3658.852   -21327.208     9901.257    79.005022 
   12700    1415.9255   -160.85826    1.2811591    -159.5771    42460.754    4.2644595    4.2644595    4.2644595    42460.754    11131.566   -5844.9572    122095.65    1119.8728   -1215.5894     3763.948    77.551817 
   12800    952.49051   -160.45136   0.86183343   -159.58953    36276.095    4.2601933    4.2601933    4.2601933    36276.095    39854.063   -51077.878     120052.1       8952.3    11359.394   -4433.1877    77.319303 
   12900    791.70168   -160.32326   0.71634831   -159.60691    17883.292    4.2729086    4.2729086    4.2729086    17883.292    29432.768   -82906.917    107124.03    -3461.467    7371.1883     11653.04     78.01369 
   13000    1664.6168   -161.10659    1.5061802   -159.60041    8908.4547    4.2697867    4.2697867    4.2697867    8908.4547   -15495.948   -15798.423    58019.735   -1396.2374    -5288.682    5225.7314    77.842817 
   13100    1248.9189    -160.7224    1.1300481   -159.59235   -13578.171    4.2678234    4.2678234    4.2678234   -13578.171   -14319.716   -36824.084    10409.285   -228.24013   -13815.666   -2415.5064    77.735489 
   13200    1415.2699   -160.86986    1.2805659    -159.5893   -51361.847    4.2697513    4.2697513    4.2697513   -51361.847   -40575.374     -73896.8   -39613.368    3085.8026   -20830.874   -21310.259    77.840879 
   13300    1586.9114   -161.02721    1.4358707   -159.59134    9795.2477    4.2609716    4.2609716    4.2609716    9795.2477    2531.2423    806.86918    26047.632    8557.3486    8572.6417   -1407.3954    77.361685 
   13400    943.44841   -160.44337   0.85365195   -159.58972    14037.913    4.2574775    4.2574775    4.2574775    14037.913    43985.241   -50882.566    49011.065    1983.4227    30549.392    16080.514    77.171525 
   13500    641.64155   -160.18441   0.58057076   -159.60384    14219.084    4.2685366    4.2685366    4.2685366    14219.084    54717.173   -51211.118    39151.198    13121.312    41515.638    -703.1813    77.774462 
   13600    1362.0227   -160.83187    1.2323868   -159.59949   -185.18344    4.2797784    4.2797784    4.2797784   -185.18344    2893.6288   -8865.9794    5416.8003    14688.285    18535.639    10275.047    78.390573 
   13700    1509.8651   -160.93847    1.3661576   -159.57231   -57127.326    4.2679239    4.2679239    4.2679239   -57127.326   -26815.475   -95068.954    -49497.55   -3487.5489     -8087.37    14129.912    77.740976 
   13800    1462.2181   -160.88745    1.3230457    -159.5644    7737.6947    4.2439643    4.2439643    4.2439643    7737.6947     25599.41   -34237.281    31850.956   -3292.8686   -7407.5488    2874.1394    76.439027 
   13900    1478.2968   -160.94937     1.337594   -159.61177    33086.709    4.2656859    4.2656859    4.2656859    33086.709     1634.156    39639.171    57986.799   -13866.433    4667.0649    7597.8817    77.618745 
   14000    853.18922   -160.36549   0.77198354    -159.5935   -6124.4705    4.2950492    4.2950492    4.2950492   -6124.4705    9547.0808   -56793.278    28872.786   -2253.3005    9120.9289   -3506.2352    79.232698 
   14100     1412.492   -160.83782    1.2780524   -159.55976   -15868.485    4.2776875    4.2776875    4.2776875   -15868.485   -20800.789    4676.0049   -31480.671    4792.4251   -11462.552    9993.7061    78.275735 
   14200    1756.8608   -161.14642    1.5896446   -159.55678    4957.8702    4.2613458    4.2613458    4.2613458    4957.8702    18722.289    36640.698   -40489.377   -14398.234   -13822.867     37402.55    77.382066 
   14300    870.77882   -160.36522   0.78789898   -159.57732    -14854.17    4.2673664    4.2673664    4.2673664    -14854.17    57072.632   -85272.357   -16362.784   -633.16012    2342.4148    30195.935    77.710516 
   14400    1624.9387   -161.04596    1.4702787   -159.57568   -22785.189    4.2586487    4.2586487    4.2586487   -22785.189   -2815.6704   -59529.688    -6010.209    15064.379    8329.0768    10002.753    77.235231 
   14500     2247.974   -161.61405    2.0340141   -159.58004    1398.6043    4.2512782    4.2512782    4.2512782    1398.6043   -27606.282    47109.676   -15307.581    5680.5289      2662.07   -2980.4631    76.834909 
   14600    1389.4718   -160.85721    1.2572233   -159.59998   -11073.833      4.27147      4.27147      4.27147   -11073.833    16561.606    -35710.55   -14072.554    6661.2275   -1812.7987   -17923.973    77.934915 
   14700    1275.0551    -160.7444    1.1536966    -159.5907    4809.9899    4.2785952    4.2785952    4.2785952    4809.9899    69116.832   -18751.875   -35934.987    -3787.669    1094.3468   -11040.354    78.325575 
   14800    1410.8081   -160.86059    1.2765288   -159.58406    17336.123    4.2603583    4.2603583    4.2603583    17336.123     53075.39   -221.57995   -845.44105   -21371.798    11907.587    8761.0062    77.328285 
   14900    670.39477   -160.19427   0.60658728   -159.58768    31828.478    4.2444308    4.2444308    4.2444308    31828.478    101033.41    -38974.79    33426.812   -5111.8439    17422.643    9961.4533    76.464239 
   15000    1113.9089   -160.61818    1.0078881   -159.61029    10878.551    4.2576504    4.2576504    4.2576504    10878.551    79987.351   -45882.642   -1469.0556   -2739.6506     10085.64    13225.705    77.180928 
   15100    1839.1669   -161.27726    1.6641169   -159.61314   -15238.832    4.2814295    4.2814295    4.2814295   -15238.832    -7985.927    13501.899   -51232.467    4785.5321    6529.4518    2900.2718    78.481339 
   15200    1643.8315   -161.07463    1.4873733   -159.58725    -47438.25    4.2767121    4.2767121    4.2767121    -47438.25   -36928.429   -72513.916   -32872.406    13431.401     10919.69   -2687.3601    78.222201 
   15300    1416.9272   -160.85291    1.2820655   -159.57085    8843.5266    4.2444753    4.2444753    4.2444753    8843.5266    37228.259   -3674.3739    -7023.305   -1538.5574   -4254.8596    -14808.36    76.466643 
   15400    1420.1982   -160.87918    1.2850251   -159.59415    22774.011    4.2473993    4.2473993    4.2473993    22774.011    61506.955    39772.713   -32957.635   -15068.999    13848.856   -13947.476    76.624786 
   15500    704.43871   -160.24066   0.63739095   -159.60326    16124.054    4.2750861    4.2750861    4.2750861    16124.054    82112.449   -4313.2271    -29427.06     -30156.7    4726.3533   -3763.4808    78.133016 
   15600    1140.3712   -160.61472    1.0318318   -159.58289     44.86818    4.2788839    4.2788839    4.2788839     44.86818     54718.52   -36157.332   -18426.584   -13368.028    13246.744   -3489.2792    78.341435 
   15700    1861.7054   -161.25105    1.6845102   -159.56654   -17167.899    4.2720406    4.2720406    4.2720406   -17167.899   -44786.041    16708.395    -23426.05    1081.2563    7444.3066   -3187.8213    77.966156 
   15800    1396.8074   -160.83454    1.2638607   -159.57068   -8778.3853     4.267452     4.267452     4.267452   -8778.3853    -4123.776   -1270.6041   -20940.776   -12653.462   -486.38297    5453.1521    77.715196 
   15900    1244.9055   -160.71624    1.1264167   -159.58982    11487.454    4.2667941    4.2667941    4.2667941    11487.454    57494.123   -11384.658   -11647.104    -19809.83     3940.064    21640.942    77.679256 
   16000    1329.5087    -160.8095    1.2029674   -159.60654     29170.25    4.2671856    4.2671856    4.2671856     29170.25    52742.508    24699.308    10068.933   -24299.068    577.23857    16088.467    77.700642 
   16100    1039.8016   -160.55669   0.94083436   -159.61585    25307.308    4.2685148    4.2685148    4.2685148    25307.308    66225.427    1413.9428    8282.5542   -13828.894     16636.95    9545.2491    77.773275 
   16200    1422.3489   -160.88817    1.2869712    -159.6012   -26840.272    4.2733433    4.2733433    4.2733433   -26840.272   -9221.6194   -54274.031   -17025.166    11238.611     17378.33   -3057.6563    78.037498 
   16300     2102.465   -161.48976    1.9023545   -159.58741   -34914.494    4.2697244    4.2697244    4.2697244   -34914.494   -60786.727    3918.3601   -47875.116     12721.41    10586.238   -10737.821    77.839409 
   16400    1637.5289   -161.06942    1.4816706   -159.58775   -16761.373     4.268808     4.268808     4.268808   -16761.373   -13174.563    18649.736   -55759.291    1205.0716   -3883.6286    2076.2299    77.789298 
   16500    1124.0587   -160.61093    1.0170719   -159.59386     20859.97    4.2716215    4.2716215    4.2716215     20859.97    49662.266    52918.694   -40001.049   -23824.942    1305.0966    4214.1714    77.943213 
   16600    1409.1417   -160.86848     1.275021   -159.59346    32916.698    4.2698089    4.2698089    4.2698089    32916.698    38217.184    114140.22   -53607.309   -19433.187   -6140.3951   -8155.9065    77.844032 
   16700    1407.3172   -160.85621    1.2733702   -159.58284   -4371.9159     4.272675     4.272675     4.272675   -4371.9159   -28109.274    37741.717   -22748.191    2413.1349    -21014.11   -14078.342    78.000894 
   16800    1798.8877   -161.20354    1.6276714   -159.57587   -43282.071    4.2779593    4.2779593    4.2779593   -43282.071   -34093.211   -72449.117   -23303.887    11808.733   -7069.2048    -1607.591    78.290659 
   16900    2010.9687   -161.39707    1.8195668    -159.5775   -37404.779    4.2791826    4.2791826    4.2791826   -37404.779   -1859.7374   -41027.941   -69326.659    16933.046    2671.4699    17193.657    78.357841 
   17000    1119.1118   -160.59431    1.0125958   -159.58171    9968.4738    4.2666518    4.2666518    4.2666518    9968.4738     36890.34    24693.023   -31677.942   -22913.477   -8021.6313   -4046.2009    77.671482 
   17100    1045.2924   -160.53158   0.94580249   -159.58578    34661.681    4.2510967    4.2510967    4.2510967    34661.681    99282.701    34111.509   -29409.165   -32992.881    5074.0207    3646.8188    76.825067 
   17200    1282.3983   -160.77059    1.1603409   -159.61025    15765.067    4.2667272    4.2667272    4.2667272    15765.067    35885.631    44188.424   -32778.855   -27734.241     3187.311    10809.331      77.6756 
   17300     1409.136   -160.87133    1.2750158   -159.59631   -36519.667    4.2864557    4.2864557    4.2864557   -36519.667   -40731.122   -6183.5627   -62644.316   -14608.553   -2059.1532    3687.3344    78.758062 
   17400    1866.0302   -161.26041    1.6884234   -159.57199   -43257.923    4.2729504    4.2729504    4.2729504   -43257.923   -14649.899   -68248.336   -46875.533    10899.226    7197.9705   -10077.816    78.015979 
   17500    1499.6174   -160.92348    1.3568853    -159.5666    11828.311    4.2523506    4.2523506    4.2523506    11828.311    28227.508    4202.9489    3054.4747   -314.98595    17668.403   -11934.713    76.893067 
   17600    927.59065   -160.43183   0.83930351   -159.59253     24459.32    4.2630016    4.2630016    4.2630016     24459.32    18807.326    53150.991    1419.6427   -11087.307    23806.474   -7750.5514    77.472307 
   17700    1210.7357   -160.68561    1.0954991   -159.59011    11765.943    4.2798544    4.2798544    4.2798544    11765.943    57195.491    5317.0048   -27214.666   -4735.6455   -12995.002   -8750.0791    78.394752 
   17800    1771.2478   -161.17443    1.6026623   -159.57177   -33300.048    4.2767452    4.2767452    4.2767452   -33300.048     -25503.7   -19946.653    -54449.79   -1979.5616    -12319.65   -9272.6617     78.22402 
   17900    1539.8003   -160.95882    1.3932437   -159.56557    -31568.47    4.2556768    4.2556768    4.2556768    -31568.47   -72645.435    12792.963   -34852.937    16011.399   -24767.219     2821.101    77.073647 
   18000    1528.5632   -160.96748    1.3830761   -159.58441    1035.3682    4.2480463    4.2480463    4.2480463    1035.3682    4290.9203     26935.63   -28120.446    2239.7786   -20176.574    7873.7578    76.659807 
   18100    1216.0357   -160.70524    1.1002947   -159.60494    25211.261    4.2642673    4.2642673    4.2642673    25211.261    39107.375    47266.051   -10739.642    -12244.58   -9569.8207    2662.0395    77.541335 
   18200    843.99232   -160.36364   0.76366198   -159.59997    2328.9342     4.282072     4.282072     4.282072    2328.9342   -35417.644    29937.229    12467.218    5553.1109   -25712.203    10029.101    78.516674 
   18300    1410.2403   -160.85564     1.276015   -159.57963    -20827.46    4.2829566    4.2829566    4.2829566    -20827.46   -5617.5055   -49682.787    -7182.089    6725.0244   -1377.6508    19342.505    78.565342 
   18400    1402.3833    -160.8391    1.2689059    -159.5702    9377.4518    4.2573893    4.2573893    4.2573893    9377.4518    32593.674   -19805.547    15344.228   -1998.8501    -453.0056    32377.057    77.166728 
   18500    636.69095   -160.16792   0.57609135   -159.59183    26297.601    4.2486986    4.2486986    4.2486986    26297.601    -18664.68    18198.958    79358.526   -127.35449   -1139.7469    37539.152    76.695127 
   18600    1312.5531   -160.79322    1.1876257   -159.60559   -21218.737    4.2651203    4.2651203    4.2651203   -21218.737   -11706.045     -50658.2   -1291.9663   -11742.508    15503.796    15356.373    77.587873 
   18700    1995.2661    -161.3968    1.8053587   -159.59144   -27129.124    4.2609865    4.2609865    4.2609865   -27129.124    19920.877   -57148.216   -44160.034    17502.293   -4264.6191   -12735.416    77.362495 
   18800    1499.4855   -160.94214     1.356766   -159.58537    -23599.55    4.2608223    4.2608223    4.2608223    -23599.55   -77736.884    13686.469   -6748.2361    10991.322   -8201.8406   -10646.299    77.353551 
   18900    1469.6858   -160.92156    1.3298026   -159.59176   -2793.7406    4.2708959    4.2708959    4.2708959   -2793.7406   -61065.459    61715.031   -9030.7934   -3388.1405    14478.888    1095.4839    77.903497 
   19000    1841.8855   -161.25884    1.6665767   -159.59227    25722.378    4.2653581    4.2653581    4.2653581    25722.378    39389.097    53673.479   -15895.442    3287.7053    6461.4976    3650.1391    77.600854 
   19100    1386.2689   -160.84057    1.2543253   -159.58624   -6892.1473    4.2618889    4.2618889    4.2618889   -6892.1473   -49223.269    43874.737   -15327.909   -20643.958    7414.8262   -6212.0818    77.411658 
   19200     1478.718   -160.92896    1.3379752   -159.59098   -6792.4468    4.2650155    4.2650155    4.2650155   -6792.4468   -15996.794    6699.4528   -11079.999    1165.8292   -6812.9342   -8110.9923    77.582158 
   19300    1765.6024   -161.19794    1.5975541   -159.60039    7596.1551    4.2747147    4.2747147    4.2747147    7596.1551    27431.433    13645.479   -18288.447    13410.988   -7030.6879    7367.6216    78.112654 
   19400    598.00161   -160.13282   0.54108442   -159.59173    18064.061    4.2799196    4.2799196    4.2799196    18064.061   -39920.053    18086.933    76025.302   -18632.885    12233.716    30794.854    78.398333 
   19500    619.08442   -160.14657    0.5601606   -159.58641    20204.321    4.2664796    4.2664796    4.2664796    20204.321    -25217.45    2030.8665    83799.546    3832.3482     15541.92    32091.751    77.662081 
   19600    1690.8263   -161.10981    1.5298952   -159.57992    11933.755    4.2568142    4.2568142    4.2568142    11933.755    44764.401   -16658.497     7695.362   -1750.3082   -5595.4608    13927.398    77.135463 
   19700    1370.5823   -160.82893    1.2401316   -159.58879   -15606.166    4.2699264    4.2699264    4.2699264   -15606.166   -43429.419    22523.074   -25912.153    1201.2726     -9355.84    2106.9643     77.85046 
   19800    1273.9071   -160.74288    1.1526579   -159.59022   -13694.546    4.2802765    4.2802765    4.2802765   -13694.546   -34182.905    43155.107    -50055.84    -9730.984   -968.48528    1980.1643    78.417948 
   19900    1292.7471   -160.75717    1.1697048   -159.58747    37351.277     4.278351     4.278351     4.278351    37351.277    56270.402    58340.911   -2557.4822   -20846.882    14352.835    8585.6338    78.312168 
   20000    1443.2902   -160.88128    1.3059193   -159.57536   -5286.5563    4.2733607    4.2733607    4.2733607   -5286.5563   -29900.137    40311.391   -26270.923    1759.3277      1998.82   -5469.1935    78.038452 
   20100    1767.7972   -161.16811      1.59954   -159.56857   -29914.177    4.2717194    4.2717194    4.2717194   -29914.177   -61040.571   -19540.239   -9161.7215     6534.982     361.8616   -17978.337    77.948571 
   20200    1584.5286   -161.00845    1.4337147   -159.57474    4934.5488    4.2639947    4.2639947    4.2639947    4934.5488    28965.996   -46089.341    31926.992    7703.8749    22471.302   -8613.3668    77.526463 
   20300    1017.9654   -160.50769   0.92107648   -159.58662    31983.879    4.2601267    4.2601267    4.2601267    31983.879    18613.234    40913.443     36424.96   -1052.4898    37518.537    12450.656    77.315677 
   20400    1323.7494   -160.78514    1.1977562   -159.58739   -11127.391    4.2721807    4.2721807    4.2721807   -11127.391   -46443.171    7722.5317    5338.4667    -2895.345    18521.692    5888.5981    77.973827 
   20500    1814.6916   -161.21367    1.6419711    -159.5717   -25780.432    4.2733047    4.2733047    4.2733047   -25780.432   -12917.519   -58789.054   -5634.7241    1931.1684   -16775.831    1912.3669    78.035384 
   20600    1233.8321   -160.68524    1.1163972   -159.56884   -8520.0582     4.272899     4.272899     4.272899   -8520.0582    1989.4546   -16426.843   -11122.786   -25580.833   -24310.115    144.49785    78.013162 
   20700    1141.1668   -160.61009    1.0325517   -159.57754    8871.5837    4.2701005    4.2701005    4.2701005    8871.5837    36679.426    21986.674   -32051.349   -31583.541    8964.1637    1567.4739    77.859981 
   20800    1667.5256   -161.08954    1.5088122   -159.58073    2537.2308    4.2661477    4.2661477    4.2661477    2537.2308     27913.75    -11050.49   -9251.5672    4086.4083    14484.286    13757.005    77.643956 
   20900     1312.053    -160.7731    1.1871731   -159.58593   -5838.2471    4.2780144    4.2780144    4.2780144   -5838.2471   -60034.553   -16667.284    59187.096    16726.471    8692.8574    5707.3382    78.293684 
   21000    1120.1799   -160.59649    1.0135623   -159.58293    10399.431    4.2858678    4.2858678    4.2858678    10399.431   -61351.868   -5148.2351    97698.395   -384.09424   -20745.144   -18459.651    78.725659 
   21100    1317.5777   -160.77022     1.192172   -159.57805    27691.723    4.2800394    4.2800394    4.2800394    27691.723    9889.1872   -26607.352    99793.334    3008.2048   -21512.193   -7971.3976    78.404917 
   21200    1494.0349   -160.92274    1.3518342   -159.57091   -18327.593     4.269745     4.269745     4.269745   -18327.593   -85944.661   -37091.864    68053.747    11545.121    12849.636    17907.358    77.840535 
   21300    1403.0262   -160.86239    1.2694876    -159.5929     8612.949    4.2668138    4.2668138    4.2668138     8612.949   -9599.8541    2586.2183    32852.483   -7319.7721     14862.97    20588.497    77.680334 
   21400    1604.7984   -161.05369    1.4520553   -159.60164    2927.7698    4.2787351    4.2787351    4.2787351    2927.7698    11131.823  -0.83488701    -2347.679   -2397.7833     2058.025     8624.839    78.333259 
   21500    1619.6257    -161.0418    1.4654713   -159.57633   -58549.479    4.2907824    4.2907824    4.2907824   -58549.479   -86293.847   -39608.974   -49745.617   -4863.1888   -4123.4521   -10984.802    78.996794 
   21600    1140.4566    -160.5936    1.0319091    -159.5617    22631.991    4.2806451    4.2806451    4.2806451    22631.991    76403.435    3620.3868   -12127.849   -12003.455    19064.472    -3926.377    78.438212 
   21700     1070.701   -160.52783   0.96879278   -159.55904    36440.754    4.2749545    4.2749545    4.2749545    36440.754    138426.84   -29349.881    245.30254   -1944.9517    22933.514    7805.5995    78.125805 
   21800    1345.6701   -160.77143    1.2175905   -159.55384   -39746.197    4.2815116    4.2815116    4.2815116   -39746.197   -30127.142   -38466.247     -50645.2    11705.838   -2652.9765   -10666.038    78.485852 
   21900    1138.4632   -160.59122    1.0301055   -159.56111    19816.065    4.2824393    4.2824393    4.2824393    19816.065   -15865.181    38597.076    36716.301    9620.8191    3126.0722     7822.064    78.536882 
   22000    1273.1084   -160.70825    1.1519352   -159.55631    20639.557    4.2854982    4.2854982    4.2854982    20639.557   -15092.364    41152.672    35858.362   -16156.114    20373.334     17082.95    78.705296 
   22100    1581.4707    -160.9818     1.430948   -159.55085   -30493.085    4.2796536    4.2796536    4.2796536   -30493.085   -88769.068   -33007.607    30297.419    8133.4907   -18639.537   -15608.296    78.383714 
   22200    1938.0326   -161.31269    1.7535726   -159.55912   -22547.292    4.2722189    4.2722189    4.2722189   -22547.292    11952.579   -24286.988   -55307.469   -3120.3571   -3775.2557   -4379.3981    77.975916 
   22300    1003.8768   -160.47753   0.90832884    -159.5692    36720.225    4.2640874    4.2640874    4.2640874    36720.225    71192.765     19993.87    18974.041   -28679.441     16569.18     4104.834    77.531522 
   22400    1254.0198    -160.7042    1.1346635   -159.56954    13742.134    4.2643006    4.2643006    4.2643006    13742.134    10923.319   -4006.4514    34309.535   -3804.3667    6398.7232    12553.515    77.543149 
   22500    1790.7218   -161.19857    1.6202827   -159.57828   -28318.807    4.2863473    4.2863473    4.2863473   -28318.807   -21376.535   -22657.752   -40922.136    7431.9197   -1370.9753   -2138.0803    78.752089 
   22600    1284.5831   -160.72478    1.1623178   -159.56246     -25874.5    4.2974798    4.2974798    4.2974798     -25874.5   -49611.763    -20718.26   -7293.4778    2718.6823    5510.9907    10241.969    79.367288 
   22700    1061.5931   -160.51748   0.96055175   -159.55693     31236.03    4.2731126    4.2731126    4.2731126     31236.03   -12472.955    95440.622    10740.424   -13812.936    7093.7138    8536.8664    78.024863 
   22800     1674.217   -161.07135    1.5148667   -159.55648   -2164.8971    4.2574823    4.2574823    4.2574823   -2164.8971   -7092.6705     29668.84   -29070.861   -5331.6346   -6073.9555   -4346.0209    77.171787 
   22900    1655.3382   -161.07367    1.4977848   -159.57589   -40466.873    4.2702118    4.2702118    4.2702118   -40466.873    6706.5955   -73382.626   -54724.588    14824.147   -13714.095   -25121.503    77.866068 
   23000    1155.1537   -160.62932    1.0452073   -159.58411     1827.942     4.283162     4.283162     4.283162     1827.942     43941.03   -8906.0836   -29551.121   -20134.065    567.50978    -14422.23    78.576649 
   23100    1379.0338   -160.83011    1.2477788   -159.58233    6911.5817    4.2752968    4.2752968    4.2752968    6911.5817    82517.783   -47823.382   -13959.656   -14584.892    18609.987   -6425.9105    78.144569 
   23200    1571.0969   -160.99941    1.4215615   -159.57785   -8680.1153     4.253558     4.253558     4.253558   -8680.1153    26851.997   -47214.579   -5677.7634    3211.1854   -3540.7265   -3020.6956    76.958585 
   23300    1633.2066   -161.06493    1.4777597   -159.58717   -19757.714    4.2514891    4.2514891    4.2514891   -19757.714   -57018.468    7824.1106   -10078.786    1792.7891   -12300.327   -2300.7489    76.846346 
   23400    1482.8284   -160.94515    1.3416943   -159.60346    -6981.131    4.2712678    4.2712678    4.2712678    -6981.131   -29275.934    29310.035   -20977.494   -4758.0335   -1403.3224     4699.307    77.923849 
   23500    1020.0851   -160.51494   0.92299444   -159.59195     30298.75    4.2743804    4.2743804    4.2743804     30298.75    67529.148    33234.768   -9867.6662   -18994.804    2397.9692    18266.148     78.09433 
   23600    1347.6573   -160.79752    1.2193886   -159.57813    4178.4509    4.2680103    4.2680103    4.2680103    4178.4509   -13594.858    46057.408   -19927.197   -1961.9029   -5038.6787   -7740.8854      77.7457 
   23700    1707.0766   -161.11954    1.5445988   -159.57494   -24275.187    4.2764566    4.2764566    4.2764566   -24275.187    -42192.11   -15733.594   -14899.857    12893.129   -2480.2055    3629.1024    78.208184 
   23800    1091.4278   -160.56534   0.98754685    -159.5778    16307.252    4.2796711    4.2796711    4.2796711    16307.252    72934.191    -78448.41    54435.975   -3988.3072    25370.928    5152.4176    78.384678 
   23900    1251.5513   -160.70585    1.1324299   -159.57342    21959.297    4.2755821    4.2755821    4.2755821    21959.297    32754.889   -43640.169    76763.172   -1180.7115    12948.539   -675.60497    78.160216 
   24000    1634.0997   -161.05828    1.4785678   -159.57971    -8981.523    4.2736687    4.2736687    4.2736687    -8981.523    12246.107   -55071.915    15881.239    501.49128   -9430.8325    2035.6512     78.05533 
   24100    1858.0435   -161.26088    1.6811968   -159.57968   -46425.679    4.2738126    4.2738126    4.2738126   -46425.679   -14532.337   -62550.863   -62193.838   -2618.8168   -26440.286   -7024.2308    78.063215 
   24200    1302.0846   -160.76818    1.1781535   -159.59003   -8724.7011    4.2744807    4.2744807    4.2744807   -8724.7011   -37412.373     -338.386    11576.655    2352.5371   -12697.472   -6115.6276     78.09983 
   24300    1188.8633   -160.66574    1.0757085   -159.59003    20772.978    4.2778223    4.2778223    4.2778223    20772.978    23199.254   -967.29164    40086.971   -15169.157    8897.5889    12083.395    78.283134 
   24400    1294.2559    -160.7555    1.1710699   -159.58443    9688.8045    4.2795734    4.2795734    4.2795734    9688.8045    29541.347   -29305.961    28831.028    1067.9179    12649.026   -1283.5275    78.379313 
   24500    1627.5134   -161.04471    1.4726083    -159.5721   -34938.261    4.2706523    4.2706523    4.2706523   -34938.261   -66136.071    -32061.44   -6617.2736     15201.92   -2766.3267    -16164.47    77.890167 
   24600    1741.1644    -161.1456    1.5754421   -159.57016   -27169.345    4.2579738    4.2579738    4.2579738   -27169.345   -56107.078   -22432.858   -2968.0985   -7623.4558    -7479.185   -5064.7081    77.198514 
   24700    1513.4927   -160.95679      1.36944   -159.58735    10628.541    4.2657539    4.2657539    4.2657539    10628.541     10707.25   -24166.622    45344.994     557.0338      9512.85    19314.975    77.622459 
   24800    1007.8032   -160.49817    0.9118815   -159.58628    12711.046    4.2819726    4.2819726    4.2819726    12711.046   -7451.8094   -8583.6288    54168.576   -7348.8736    20633.627    10062.833    78.511207 
   24900    1403.9254    -160.8373    1.2703012     -159.567   -21602.712    4.2802296    4.2802296    4.2802296   -21602.712   -68418.132   -17235.696    20845.692    1086.2272   -2530.6784   -11781.776    78.415368 
   25000    1367.6458   -160.80212    1.2374746   -159.56465    21249.382    4.2687501    4.2687501    4.2687501    21249.382    25246.167    46865.962   -8363.9836   -1844.5884   -825.31168   -19882.631    77.786133 
   25100    987.15662    -160.4746   0.89320006    -159.5814     29963.73    4.2715985    4.2715985    4.2715985     29963.73    6797.3004    103006.76   -19912.868   -20266.922     8385.108    -1517.594    77.941951 
   25200    1237.3338   -160.70293    1.1195656   -159.58337   -4351.6939    4.2740149    4.2740149    4.2740149   -4351.6939   -18596.737    27630.801   -22089.145   -13743.546    8213.7315    9038.0927    78.074302 
   25300     2110.548    -161.4792    1.9096682   -159.56954   -30961.652    4.2662753    4.2662753    4.2662753   -30961.652    2188.6423   -52069.314   -43004.286    17724.151   -1054.6336    3340.5991    77.650926 
   25400    1711.4353   -161.12795    1.5485427   -159.57941   -36522.393    4.2722511    4.2722511    4.2722511   -36522.393   -65326.599   -10025.875   -34214.704    10301.194   -7773.6014    10132.076    77.977678 
   25500    898.62496   -160.39356   0.81309475   -159.58046   -3581.4775    4.2807013    4.2807013    4.2807013   -3581.4775   -27964.888    40893.428   -23672.972   -19975.985    12529.141   -3828.0042    78.441297 
   25600    1337.1888   -160.77939    1.2099165   -159.56948    15867.152    4.2631921    4.2631921    4.2631921    15867.152    19857.389    45781.823   -18037.755    -10809.82    5902.7743   -1578.9129    77.482695 
   25700    1478.9515   -160.90842    1.3381864   -159.57023   -7998.6105     4.258897     4.258897     4.258897   -7998.6105   -48058.509    12277.729    11784.948     5162.634   -2404.0516   -20175.133     77.24874 
   25800    1075.4894   -160.56772   0.97312541    -159.5946   -12986.577    4.2821742    4.2821742    4.2821742   -12986.577   -56238.352   -34783.604    52062.224    2904.8341     2778.311   -1662.8929    78.522295 
   25900    1208.0228   -160.67289    1.0930444   -159.57985    16690.773    4.2861004    4.2861004    4.2861004    16690.773    7166.3177   -24589.443    67495.444   -21258.537    15281.997    11552.799    78.738478 
   26000    1586.9378   -160.99216    1.4358947   -159.55626   -1201.3967    4.2526997    4.2526997    4.2526997   -1201.3967   -42039.731    12434.803    26000.738    1917.7506   -2992.1949    -8915.333    76.912009 
   26100    1864.3054   -161.25746    1.6868627    -159.5706   -11149.377    4.2509705    4.2509705    4.2509705   -11149.377   -39671.637    12185.911   -5962.4036    4773.1199   -21246.723    -20453.83    76.818223 
   26200    1716.7617   -161.15639     1.553362   -159.60303   -25335.208    4.2881809    4.2881809    4.2881809   -25335.208    44613.111   -77041.745   -43576.992   -6474.3043    1898.2951   -6788.8359    78.853196 
   26300    937.13358   -160.43327   0.84793816   -159.58533    15451.104    4.2902316    4.2902316    4.2902316    15451.104    12825.989    25526.923     8000.401   -26875.327    15938.618    7875.5827    78.966379 
   26400    1352.2871   -160.78406    1.2235778   -159.56048    3918.6391    4.2697899    4.2697899    4.2697899    3918.6391    -29837.87    36822.846    4770.9405   -12823.608   -1082.1483   -4291.4681    77.842992 
   26500    1910.8412   -161.29084    1.7289693   -159.56187   -29592.751    4.2637813    4.2637813    4.2637813   -29592.751   -18282.901   -55694.399   -14800.953    12866.307    -3499.637   -9635.9907    77.514824 
   26600    1113.4884   -160.58775    1.0075077   -159.58024   -2235.7135    4.2653795    4.2653795    4.2653795   -2235.7135     18119.94   -38460.976    13633.896   -23226.795    8009.3186   -4940.2764    77.602022 
   26700    807.00654   -160.32406   0.73019648   -159.59386    33379.262    4.2662301    4.2662301    4.2662301    33379.262    106170.41   -22455.273    16422.645   -17444.598     22263.18    13486.353    77.648458 
   26800    1411.7278   -160.87837     1.277361   -159.60101    3999.6935    4.2717379    4.2717379    4.2717379    3999.6935    97684.385   -76523.861   -9161.4431   -15602.267     6933.148   -2546.6085    77.949583 
   26900    1635.8705   -161.07179      1.48017   -159.59162   -45457.598    4.2777006    4.2777006    4.2777006   -45457.598   -73679.857   -25154.609   -37538.327    13307.466   -14827.642   -15015.355    78.276458 
   27000    1216.1764   -160.68365    1.1004219   -159.58322    4006.9507    4.2788846    4.2788846    4.2788846    4006.9507   -55338.321    50804.551    16554.622    9914.1052    -5149.319    2742.8986    78.341468 
   27100    1577.1202   -160.99505    1.4270115   -159.56804    22802.308    4.2740573    4.2740573    4.2740573    22802.308   -9741.7543    38465.321    39683.358   -22312.672    5045.9644    17965.696    78.076622 
   27200    1487.2286   -160.90689    1.3456757   -159.56122   -16453.516    4.2699132    4.2699132    4.2699132   -16453.516   -69527.769    38503.933   -18336.712    9448.0291   -14731.334   -14888.476    77.849736 
   27300    1676.8749   -161.08925    1.5172716   -159.57197   -28964.373      4.27984      4.27984      4.27984   -28964.373     1498.285   -42179.294   -46212.109   -4339.6036   -5291.3681   -6992.9807    78.393959 
   27400    971.60123   -160.45559   0.87912521   -159.57647    28699.177    4.2820235    4.2820235    4.2820235    28699.177     100201.3   -48246.654    34142.887   -13047.144    16988.684    5221.0361    78.514005 
   27500    1089.1335    -160.5579   0.98547086   -159.57243    9489.0585    4.2665837    4.2665837    4.2665837    9489.0585    12601.953   -10041.097     25906.32   -5508.6107   -2704.2011    198.44111    77.667763 
   27600    1668.0544   -161.08246    1.5092907   -159.57317   -25380.831    4.2623119    4.2623119    4.2623119   -25380.831   -29548.836   -18913.449   -27680.209     311.1522   -14835.617   -10908.058    77.434712 
   27700    1472.0992   -160.91561    1.3319863   -159.58362   -5301.7385     4.272373     4.272373     4.272373   -5301.7385   -21657.288    32655.068   -26902.996    7338.9557   -17104.496   -1266.8684    77.984356 
   27800    949.88699   -160.44023   0.85947771   -159.58076    28575.701    4.2745348    4.2745348    4.2745348    28575.701   -32872.841    90862.538    27737.408   -29341.118    8707.0766    20257.617    78.102794 
   27900    1437.1283   -160.87353    1.3003439   -159.57318    3005.5755     4.273537     4.273537     4.273537    3005.5755     36815.68   -787.17369    -27011.78   -605.25824   -133.69603   -4584.4238     78.04811 
   28000    1946.0248   -161.32133    1.7608042   -159.56053   -32554.041    4.2729348    4.2729348    4.2729348   -32554.041   -5738.9491   -66735.682   -25187.491    6362.4805   -13683.123   -14166.773    78.015124 
   28100     1196.257   -160.65057    1.0823985   -159.56817    13028.146    4.2626714    4.2626714    4.2626714    13028.146   -44245.931    19528.629     63801.74   -6487.4439    9193.5513    5720.0394    77.454307 
   28200    1359.2877   -160.81416    1.2299121   -159.58425    34159.101    4.2660134    4.2660134    4.2660134    34159.101   -773.06622    32874.645    70375.723    9630.0343   -286.06141    20259.184    77.636622 
   28300    1578.3912   -161.00835    1.4281615   -159.58019   -13548.488    4.2829189    4.2829189    4.2829189   -13548.488   -51694.506   -80104.112    91153.152    13443.903    997.98592    6578.8289    78.563269 
   28400     804.7779   -160.30833   0.72817996   -159.58015    30567.632    4.2773358    4.2773358    4.2773358    30567.632   -66774.878     17199.89    141277.89   -8677.3737   -15671.243   -26525.722    78.256434 
   28500    1214.1071   -160.68177    1.0985497   -159.58322    44202.129    4.2679379    4.2679379    4.2679379    44202.129   -20300.026    297.26639    152609.15    -609.6353   -22031.559   -22230.646    77.741741 
   28600     1342.552   -160.81035    1.2147692   -159.59558    5426.9648    4.2801275    4.2801275    4.2801275    5426.9648   -45805.451   -54139.048    116225.39    3331.4296    20746.176    7811.7262    78.409761 
   28700    879.75191   -160.39182   0.79601801   -159.59581    7877.2707    4.2908273    4.2908273    4.2908273    7877.2707   -75124.111   -18206.785    116962.71   -3461.1085    14335.396    11632.436    78.999277 
   28800    1730.4949   -161.14728    1.5657881    -159.5815    854.16293    4.2777645    4.2777645    4.2777645    854.16293   -7210.8965   -73823.065     83596.45   -77.408813    10254.771   -14196.061    78.279963 
   28900    1257.4333   -160.71546    1.1377521   -159.57771    9982.9729    4.2628748    4.2628748    4.2628748    9982.9729   -71049.178    10178.597    90819.499    -2751.103   -909.87166   -17315.283    77.465396 
   29000    1281.4129   -160.76177    1.1594493   -159.60232    -1235.329    4.2740248    4.2740248    4.2740248    -1235.329   -75505.279    6554.6158    65244.676   -8560.2116   -13577.883   -12109.398    78.074841 
   29100    1854.1958   -161.27886    1.6777154   -159.60114   -13044.725    4.2834602    4.2834602    4.2834602   -13044.725     19562.21   -69684.541    10988.155   -401.97279   -6946.4322    11235.996    78.593062 
   29200    1553.0444   -160.99125    1.4052272   -159.58602   -42670.615    4.2733867    4.2733867    4.2733867   -42670.615    -81460.09   -30150.267   -16401.487    10633.426    5992.4089    21245.841    78.039878 
   29300    1396.2622   -160.85227    1.2633674    -159.5889    4813.2234    4.2648422    4.2648422    4.2648422    4813.2234   -20672.497    52817.899   -17705.732   -5210.9247   -3315.4206    2159.9894    77.572699 
   29400    1716.6811   -161.15421    1.5532891   -159.60092    24896.075    4.2649579    4.2649579    4.2649579    24896.075   -2785.5707    43982.418    33491.377   -11835.811   -15183.048   -13388.735    77.579014 
   29500    1055.0821   -160.54903   0.95466048   -159.59437    8666.6763    4.2610724    4.2610724    4.2610724    8666.6763   -56855.492    38561.743    44293.778   -6072.1257   -3906.2111   -16074.119    77.367173 
   29600    1499.9314   -160.95424    1.3571694   -159.59707   -13041.776      4.26536      4.26536      4.26536   -13041.776   -37502.727    7038.1821   -8660.7836    6372.8202    5763.2241   -2600.2896    77.600955 
   29700    2164.7766   -161.55241    1.9587354   -159.59368   -33731.731    4.2820819    4.2820819    4.2820819   -33731.731    11251.412   -52754.412   -59692.192    19286.965    5684.3374    14683.108    78.517218 
   29800    1179.2999   -160.65557    1.0670553   -159.58851     5136.246    4.2635152    4.2635152    4.2635152     5136.246   -6380.5493    2887.5794    18901.708   -7273.0793   -10642.108   -2049.5683    77.500309 
   29900    991.03726   -160.47861   0.89671134    -159.5819    33084.744    4.2437296    4.2437296    4.2437296    33084.744   -16192.175    39747.808    75698.599   -4101.7328   -2621.7047   -9956.7594     76.42635 
   30000    1790.9648   -161.23376    1.6205026   -159.61326     13234.46     4.265778     4.265778     4.265778     13234.46    35357.719   -7315.6235    11661.284   -961.64222    2730.8486   -11255.794    77.623772 
   30100    1599.4707   -161.04488    1.4472347   -159.59764   -33119.024    4.2896349    4.2896349    4.2896349   -33119.024    -43677.84   -23997.748   -31681.484   -881.05322    12114.843   -6184.6138    78.933435 
   30200     806.1811   -160.30676    0.7294496   -159.57731    -7850.443    4.2803873    4.2803873    4.2803873    -7850.443   -70008.432    17022.828    29434.274    5593.9513    4213.3511   -10730.188    78.424038 
   30300    1423.0759    -160.8636     1.287629   -159.57597    48091.792    4.2579154    4.2579154    4.2579154    48091.792    62820.856    25089.556    56364.962   -1184.2671    -25983.38   -19794.447    77.195342 
   30400     1435.628   -160.87624    1.2989864   -159.57726    7939.7217    4.2591029    4.2591029    4.2591029    7939.7217   -4175.9282    -19598.34    47593.434    9994.8454   -13356.496   -2165.4939    77.259943 
   30500    1215.7618   -160.67384    1.1000468   -159.57379   -33316.328    4.2654029    4.2654029    4.2654029   -33316.328   -98564.919    7707.5917    -9091.656    11901.968   -356.37766    7850.5917      77.6033 
   30600    1594.4475   -161.02581    1.4426896   -159.58312    28084.039    4.2660464    4.2660464    4.2660464    28084.039    14012.084    60636.841    9603.1928   -21627.216   -15859.938    6558.3945    77.638429 
   30700    1262.3003   -160.73255    1.1421559   -159.59039    21072.037    4.2832071    4.2832071    4.2832071    21072.037     6281.097    90525.166   -33590.152   -10450.842    8651.0242    1249.5485    78.579129 
   30800    1210.9102    -160.6524     1.095657   -159.55675   -68550.043    4.2930124    4.2930124    4.2930124   -68550.043   -101313.63   -47842.256    -56494.24    10340.505    865.67167    9885.9517    79.120025 
   30900    1847.4784   -161.21807    1.6716373   -159.54644   -4221.8919    4.2603354    4.2603354    4.2603354   -4221.8919    38685.578     -45520.6    -5830.654   -2942.8965   -5567.5751   -8870.4496    77.327039 
   31000     1040.121   -160.50584   0.94112334   -159.56471    56032.592    4.2410098    4.2410098    4.2410098    56032.592    84175.241     14713.99    69208.544    172.89838    904.34113   -26795.507    76.279496 
   31100    623.86418   -160.15834   0.56448542   -159.59386   -17280.968    4.2690125    4.2690125    4.2690125   -17280.968    -36154.52   -46410.659    30722.274   -3868.1289   -8272.3034   -19762.446    77.800481 
   31200    1581.0923   -161.01456    1.4306056   -159.58395    -42144.48    4.2740701    4.2740701    4.2740701    -42144.48   -27294.053   -72288.439   -26850.947    14758.063    13423.129    1321.9712    78.077323 
   31300    1440.6712    -160.8828    1.3035496   -159.57925    27970.245     4.251654     4.251654     4.251654    27970.245     35228.74    32306.618    16375.377   -7795.1375   -4644.7446    3860.4141    76.855288 
   31400    504.29016   -160.04868   0.45629233   -159.59239    26560.272    4.2626988    4.2626988    4.2626988    26560.272   -31108.535    51726.457    59062.894   -15417.805   -29546.263   -9260.2494    77.455797 
   31500    1403.3283   -160.85538    1.2697609   -159.58562   -16219.179    4.2743668    4.2743668    4.2743668   -16219.179    -36551.37   -32187.981    20081.812    4113.5907   -6372.0223   -3113.3602    78.093583 
   31600    2051.8897    -161.4351    1.8565929   -159.57851   -2461.0449     4.260051     4.260051     4.260051   -2461.0449    22420.856    -37065.48    7261.4902    3589.5451   -2305.0818    11921.391    77.311552 
   31700    1290.8287   -160.75595    1.1679689   -159.58798   -6202.2315    4.2584985    4.2584985    4.2584985   -6202.2315   -19725.515    314.39829    804.42236   -3800.7759    10491.836    17390.485    77.227058 
   31800    1102.6849   -160.59981   0.99773245   -159.60208     12223.98    4.2732788    4.2732788    4.2732788     12223.98    56163.703    25265.635   -44757.398   -16275.352    8466.1026     12468.92    78.033965 
   31900    1689.9505    -161.1195    1.5291027    -159.5904   -732.98803    4.2812926    4.2812926    4.2812926   -732.98803    68090.403   -7389.1425   -62900.224    -15017.47   -20052.124   -6647.5724    78.473808 
   32000     1575.194   -161.00164    1.4252686   -159.57637   -36319.092    4.2648984    4.2648984    4.2648984   -36319.092   -44054.537   -26406.602   -38496.137    15871.528   -2283.3781   -15211.887    77.575763 
   32100    1456.3873   -160.89862    1.3177698   -159.58085   -18954.484    4.2533033    4.2533033    4.2533033   -18954.484   -43653.613    -9805.109     -3404.73    15440.217    1108.6679   -14010.998    76.944761 
   32200    1711.1567   -161.15459    1.5482906    -159.6063    4550.2005    4.2631885    4.2631885    4.2631885    4550.2005    50308.919   -29525.798   -7132.5193    -2179.764    6620.8706   -7088.3936    77.482498 
   32300    946.53104   -160.46635   0.85644118   -159.60991    24120.664    4.2742202    4.2742202    4.2742202    24120.664    21115.671    12010.392    39235.929   -8734.7703    21872.477    2057.5309    78.085551 
   32400     846.8233   -160.36127   0.76622352   -159.59505    3614.2988    4.2736493    4.2736493    4.2736493    3614.2988   -6456.9797   -16596.039    33895.915   -3430.2961   -3960.9065   -11227.729    78.054266 
   32500    1946.3219   -161.34246    1.7610729   -159.58139   -18564.266    4.2612668    4.2612668    4.2612668   -18564.266     15665.36   -62675.954   -8682.2031    10019.081    9034.4676   -19067.098    77.377767 
   32600    1761.2404   -161.17752    1.5936074   -159.58391   -13333.979    4.2539733    4.2539733    4.2539733   -13333.979   -30227.423    182.20619   -9956.7199    13320.499   -3036.5017   -23333.123    76.981131 
   32700    952.35974   -160.46091   0.86171511    -159.5992   -2911.4536    4.2642121    4.2642121    4.2642121   -2911.4536   -33497.288    55618.566   -30855.639   -10752.438   -3722.1354   -21383.097    77.538324 
   32800    1190.6952   -160.67499    1.0773661   -159.59763    22082.065    4.2744671    4.2744671    4.2744671    22082.065    41271.331    53638.673   -28663.808   -20346.988    11862.957   -4962.2166    78.099084 
   32900    1870.5592    -161.2758    1.6925213   -159.58328   -18823.514    4.2746585    4.2746585    4.2746585   -18823.514   -38759.625    6079.1786   -23790.097    6973.0212   -4912.3227   -7752.2509    78.109575 
   33000    1601.0885   -161.01875    1.4486985   -159.57005   -34778.058    4.2674232    4.2674232    4.2674232   -34778.058   -82154.366   -6936.7241   -15243.084    3364.1175    -357.5613    6628.5329    77.713621 
   33100    1605.0205    -161.0319    1.4522563   -159.57964     -4141.78     4.261782     4.261782     4.261782     -4141.78    4047.2943   -481.71506   -15990.919   -739.54034    -2736.952   -4942.8545    77.405834 
   33200    1204.2879   -160.68842     1.089665   -159.59876    33488.962    4.2662092    4.2662092    4.2662092    33488.962    62254.146    63604.429    -25391.69   -18296.069   -11787.103    12531.702    77.647313 
   33300    877.74642   -160.38393    0.7942034   -159.58972    8027.2324    4.2764649    4.2764649    4.2764649    8027.2324   -20630.539    71834.805   -27122.569   -21800.027    8473.1845    17592.692    78.208639 
   33400    1405.4109   -160.85315    1.2716453   -159.58151   -14479.967    4.2697223    4.2697223    4.2697223   -14479.967   -10715.863   -4778.4528   -27945.584    2122.8291    1384.1727    7755.4833    77.839296 
   33500    1974.0418   -161.36482    1.7861545   -159.57867   -42347.893    4.2682216    4.2682216    4.2682216   -42347.893   -17984.659   -43674.049   -65384.972    23918.452    6238.5432   -3798.0698    77.757247 
   33600    1444.3401   -160.89608    1.3068693   -159.58921   -35131.826    4.2732482    4.2732482    4.2732482   -35131.826   -67647.293    12408.739   -50156.924    9261.7122   -5432.6646   -15428.791     78.03229 
   33700    936.61313    -160.4417   0.84746724   -159.59423    20767.455    4.2654419    4.2654419    4.2654419    20767.455    45948.643    46927.528   -30573.806     55.46766    5914.5573   -6652.9694    77.605428 
   33800    945.67014   -160.45478   0.85566222   -159.59911    50689.209    4.2608545    4.2608545    4.2608545    50689.209    98793.603    79277.411   -26003.388   -23911.506   -8789.8882   -17832.505    77.355306 
   33900    1084.1111   -160.58429   0.98092651   -159.60336     10373.57     4.268338     4.268338     4.268338     10373.57   -20433.085    74800.272   -23246.477   -10988.993   -3990.3467   -7931.9063    77.763609 
   34000    1582.5271   -161.02204    1.4319037   -159.59014    -35382.87    4.2702579    4.2702579    4.2702579    -35382.87   -42911.723   -46933.468   -16303.418    17744.324    17465.442    4905.5251     77.86859 
   34100    1594.8196   -161.02912    1.4430263    -159.5861    -10390.51     4.261782     4.261782     4.261782    -10390.51    14829.864   -42280.402   -3720.9898    13008.501   -2636.9687    -5196.447    77.405832 
   34200    1584.2749   -161.02921    1.4334853   -159.59572    -13071.99    4.2626591    4.2626591    4.2626591    -13071.99   -39092.336    32580.755   -32704.388    17479.231   -5850.0593   -5525.4376    77.453633 
   34300    1137.0293   -160.63201     1.028808    -159.6032     9352.904     4.267601     4.267601     4.267601     9352.904   -11883.707    63803.675   -23861.256    7420.1767     -1145.41    5069.9641    77.723335 
   34400    1105.0168   -160.59846   0.99984243   -159.59862    23953.556     4.261951     4.261951     4.261951    23953.556    52417.369    57689.415   -38246.115   -15268.088   -3658.1317    11550.159    77.415045 
   34500    1401.9905   -160.86522    1.2685504   -159.59667    6035.2724    4.2581867    4.2581867    4.2581867    6035.2724    5173.4083    57078.189    -44145.78    6833.6676     4491.921    2907.2471    77.210096 
   34600    1578.4871   -161.03619    1.4282483   -159.60794   -27305.489    4.2720607    4.2720607    4.2720607   -27305.489   -78839.399    21103.052   -24180.119    14491.243   -2047.4554   -4918.7349    77.967255 
   34700    1443.2461   -160.90302    1.3058794   -159.59714   -42576.617    4.2699039    4.2699039    4.2699039   -42576.617   -24799.783   -75894.262   -27035.807     13745.17    8797.5489    9955.4697    77.849229 
   34800    1489.8018    -160.9347     1.348004   -159.58669     4552.853    4.2505758    4.2505758    4.2505758     4552.853    32537.786   -9424.0036   -9455.2233     14926.42    1251.9115    9461.3215    76.796832 
   34900    1333.5639   -160.81472    1.2066366   -159.60809    32353.906     4.259791     4.259791     4.259791    32353.906    27273.598    42976.423    26811.696   -6870.3333   -14114.201   -7771.4147      77.2974 
   35000    777.24554   -160.30497    0.7032681   -159.60171    5049.7494    4.2811275    4.2811275    4.2811275    5049.7494    48450.598   -31449.593   -1851.7565   -17134.095    905.44034    -8348.531    78.464729 
   35100    1624.9471   -161.05147    1.4702863   -159.58118   -28273.959     4.273803     4.273803     4.273803   -28273.959   -28694.272   -48003.299   -8124.3065    8984.9004    3280.5899   -5358.0298    78.062689 
[...]
   91200    658.08982   -160.20374    0.5954535   -159.60829   -16647.489    4.2542078    4.2542078    4.2542078   -16647.489    2850.4915   -71484.742    18691.782    757.25931   -7106.9582    3470.7199    76.993864 
   91300    1045.4454   -160.55691   0.94594095   -159.61097    31621.502    4.2399824    4.2399824    4.2399824    31621.502    42867.553   -12912.068    64909.021   -884.26066    106.34613    2609.6403    76.224073 
   91400    1792.8043   -161.24658     1.622167   -159.62441    37768.975    4.2463916    4.2463916    4.2463916    37768.975    68417.622   -3666.1484    48555.451   -137.98181    10857.872    656.49773    76.570261 
   91500    979.35191    -160.5062   0.88613819   -159.62006    484.93128    4.2582461    4.2582461    4.2582461    484.93128    27243.353   -61939.421    36150.862   -8264.5927   -4369.0254   -969.92584    77.213326 
   91600    837.61866   -160.36465   0.75789496   -159.60676   -23568.481    4.2546903    4.2546903    4.2546903   -23568.481   -44176.363   -46401.503    19872.424    1571.4927   -14398.748    3228.6723    77.020061 
   91700    2092.0142   -161.49759    1.8928984   -159.60469   -14014.163    4.2454159    4.2454159    4.2454159   -14014.163   -22968.734    8938.1091   -28011.863    6551.4319   -14253.608   -6909.6038     76.51749 
   91800    1801.1216   -161.24122    1.6296927   -159.61153    -12687.79    4.2471245    4.2471245    4.2471245    -12687.79    7384.2532   -33608.329   -11839.295   -724.49842   -13868.415   -7260.2694    76.609915 
   91900     606.3873   -160.16181   0.54867197   -159.61314    -7023.412    4.2500912    4.2500912    4.2500912    -7023.412   -17238.674   -50970.549    47138.987   -1959.3843   -2030.9113     418.0713    76.770567 
   92000    1022.8072   -160.53968   0.92545744   -159.61422    22661.647    4.2461414    4.2461414    4.2461414    22661.647    5622.8945    10315.839    52046.209   -5491.4213    6016.7336    2260.7276    76.556725 
   92100    1942.6865   -161.37335    1.7577835   -159.61557    22473.448    4.2496276    4.2496276    4.2496276    22473.448    45654.972    15837.059    5928.3114    8876.0043   -9860.4939   -907.85656    76.745448 
   92200    1326.9123   -160.80736    1.2006181   -159.60674   -26000.622    4.2555404    4.2555404    4.2555404   -26000.622    -6222.809   -53967.641   -17811.418    13965.521   -6878.1484    -4608.224    77.066236 
   92300    959.41417   -160.46864    0.8680981   -159.60054   -23675.476    4.2460893    4.2460893    4.2460893   -23675.476   -57874.502   -18309.357    5157.4307    2540.7523   -13026.031   -977.34249    76.553911 
   92400    1969.8636   -161.38668     1.782374   -159.60431    15047.333    4.2393131    4.2393131    4.2393131    15047.333   -5557.4997    29015.382    21684.116   -9032.2762   -5994.2458    6593.9272    76.187983 
   92500    1718.4522   -161.16999    1.5548916    -159.6151     192.0255    4.2555182    4.2555182    4.2555182     192.0255    18103.167    -42444.73    24917.639   -5138.8334    7023.7208    6619.1223    77.065031 
   92600    493.13007   -160.05169   0.44619445    -159.6055    -10038.62    4.2643132    4.2643132    4.2643132    -10038.62   -9289.3012   -54832.831    34006.273    3846.3158    2298.2997   -41.052646    77.543836 
   92700    1124.7453   -160.62013    1.0176932   -159.60243     12818.19     4.248931     4.248931     4.248931     12818.19    16744.422    19514.431    2195.7168     2978.898    2613.8606   -208.87219    76.707714 
   92800    1992.4495   -161.40703    1.8028102   -159.60422    14174.051    4.2375269    4.2375269    4.2375269    14174.051    59576.219    7304.2973   -24358.364      2030.38   -9266.7016    11108.699    76.091721 
   92900    1113.9647   -160.61711    1.0079386   -159.60917   -18365.598    4.2467763    4.2467763    4.2467763   -18365.598   -8308.3679   -49793.769    3005.3437    -8135.923   -8298.2542    13765.944    76.591071 
   93000    835.78396   -160.36254   0.75623489    -159.6063   -21403.971    4.2550041    4.2550041    4.2550041   -21403.971   -68036.185   -35207.428      39031.7   -2774.8814   -713.32312    9611.9868    77.037101 
   93100    1765.7931   -161.20668    1.5977267   -159.60896    23273.195    4.2511184    4.2511184    4.2511184    23273.195    25600.506    7598.9741    36620.106    4378.3246    3811.8103    1535.0991    76.826245 
   93200    1427.2667   -160.90162    1.2914209   -159.61019    25350.391    4.2461877    4.2461877    4.2461877    25350.391    56191.715   -33348.299    53207.758   -3733.3558    5487.8467   -7096.0166    76.559233 
   93300    614.33403   -160.16325   0.55586234   -159.60739   -11115.571    4.2486331    4.2486331    4.2486331   -11115.571   -31512.028   -59356.913    57522.227   -5016.0704   -4747.7756    1314.0815    76.691581 
   93400    1472.1554    -160.9391    1.3320371   -159.60706   -16147.384    4.2502877    4.2502877    4.2502877   -16147.384   -62780.407     84.42539     14253.83   -10534.481   -11633.721    8884.6738    76.781214 
   93500    2116.5626   -161.52552    1.9151103   -159.61041     13831.78    4.2470789    4.2470789    4.2470789     13831.78    36613.082    9874.2429    -4991.986    587.98857   -6741.6967    1355.5151    76.607447 
   93600    914.46681   -160.44067   0.82742879   -159.61324    7176.8192    4.2515051    4.2515051    4.2515051    7176.8192    29583.318       -15894      7841.14     15118.65    1782.7815   -11.189738    76.847214 
   93700    571.57921   -160.12843   0.51717688   -159.61125   -8442.9107    4.2548772    4.2548772    4.2548772   -8442.9107   -30852.589   -10530.706    16054.562    5491.4832   -2819.5094   -7467.1692    77.030211 
   93800     2012.709   -161.42945    1.8211414   -159.60831   -9307.4072    4.2492445    4.2492445    4.2492445   -9307.4072   -3951.4974   -11834.354    -12136.37    4771.1513    6074.7245   -3071.6187    76.724695 
   93900    1835.7784   -161.26769    1.6610508   -159.60664    -4455.735    4.2423299    4.2423299    4.2423299    -4455.735     13925.83    -26885.57   -407.46524   -2398.1362   -6411.6955     3494.127    76.350752 
   94000    529.71701   -160.09061   0.47929908   -159.61132   -16394.345    4.2490242    4.2490242    4.2490242   -16394.345   -42795.288   -45915.881    39528.133    1338.3903   -2497.9926   -2341.5942    76.712759 
   94100    1063.5182   -160.57595   0.96229359   -159.61365    5413.9879    4.2572674    4.2572674    4.2572674    5413.9879   -190.94711   -5812.5883    22245.499    9415.0551    13246.324   -4125.0165    77.160102 
   94200    1970.2609   -161.39404    1.7827334   -159.61131    22602.881    4.2501626    4.2501626    4.2501626    22602.881    59103.543     12543.53   -3838.4298    11965.731     1906.262   -5308.9147    76.774435 
   94300    1095.1195   -160.59306    0.9908871   -159.60217   -8374.1467    4.2411629    4.2411629    4.2411629   -8374.1467   -34739.877   -20660.061    30277.498   -3943.0889   -4184.2088   -1435.1838    76.287762 
   94400    1035.5864   -160.53906   0.93702031   -159.60204   -27718.351    4.2427781    4.2427781    4.2427781   -27718.351   -67325.967   -37086.864    21257.778   -11354.846   -3797.7412    10011.922    76.374952 
   94500    2104.5773   -161.51273    1.9042658   -159.60846    6594.1908    4.2499846    4.2499846    4.2499846    6594.1908     3274.279    18740.954   -2232.6608    -7954.668   -6512.6191   -3961.0803    76.764789 
   94600    1607.1719   -161.06119    1.4542029   -159.60698     17246.91    4.2547281    4.2547281    4.2547281     17246.91   -893.25866    34880.143    17753.844   -2475.9534    10002.664   -912.11523    77.022115 
   94700    665.54516   -160.20095   0.60219924   -159.59876   -16415.054    4.2534866    4.2534866    4.2534866   -16415.054   -71984.362   -17451.592    40190.793    2219.5054    2186.1001    1852.4435     76.95471 
   94800    1679.4914   -161.11803    1.5196391    -159.5984   -20317.204    4.2471044    4.2471044    4.2471044   -20317.204   -24701.091   -34183.895   -2066.6274   -2678.2895   -6186.2701    6072.8956    76.608829 
   94900    2276.4082   -161.66362     2.059742   -159.60388   -342.88758    4.2427018    4.2427018    4.2427018   -342.88758     25055.32   -744.26572   -25339.717    9286.0401    2132.1812    11827.659    76.370832 
   95000    1003.8369   -160.51828   0.90829274   -159.60998    5732.3216    4.2466642    4.2466642    4.2466642    5732.3216   -29053.332    25907.783    20342.514    9500.4194    2434.8217   -886.89062    76.585006 
   95100    507.69682   -160.06994   0.45937475   -159.61057    6236.1928    4.2534228    4.2534228    4.2534228    6236.1928   -26498.088    18532.984    26673.682    12508.852    1904.6243   -1020.9978     76.95125 
   95200    1928.0739   -161.35391    1.7445618   -159.60935    1292.1925    4.2551168    4.2551168    4.2551168    1292.1925    22231.302    7785.8181   -26140.542     14781.61    3282.8939    7046.5274    77.043226 
   95300    2029.4944   -161.43982    1.8363292   -159.60349   -6973.1826    4.2500604    4.2500604    4.2500604   -6973.1826    6018.5192   -6087.7789   -20850.288    1822.9933   -8017.9796    7131.9863    76.768896 
   95400    699.00128    -160.2325   0.63247104   -159.60003   -7807.8341    4.2452133    4.2452133    4.2452133   -7807.8341   -53103.366   -11317.337      40997.2    13394.619    2829.4714     3366.081    76.506539 
   95500    1051.9477   -160.55703   0.95182443    -159.6052    3456.4855    4.2455992    4.2455992    4.2455992    3456.4855   -704.13599   -14538.376    25611.968    17448.069    14103.433   -6014.6695    76.527404 
   95600    2203.7369    -161.6001    1.9939874   -159.60611    2889.0019    4.2488544    4.2488544    4.2488544    2889.0019    25393.499    8476.8374    -25203.33   -2787.4953   -1188.4447   -4199.3841    76.703564 
   95700    1480.8722   -160.93906    1.3399243   -159.59914   -31523.223    4.2555695    4.2555695    4.2555695   -31523.223   -42251.843   -30606.965    -21710.86    1201.8406   -7229.4867    5220.6484     77.06782 
   95800    1037.2562    -160.5335   0.93853123   -159.59496   -23469.261    4.2537281    4.2537281    4.2537281   -23469.261   -48388.674   -43092.703    21073.594     -9280.86    2787.5487   -1452.2253     76.96782 
   95900    1869.3739   -161.29085    1.6914488    -159.5994    32860.109    4.2430982    4.2430982    4.2430982    32860.109     29888.91    33418.355    35273.063    3552.0644    4492.7442   -12111.465    76.392239 
   96000    1615.9016   -161.06822    1.4621017   -159.60611     32222.99    4.2440499    4.2440499    4.2440499     32222.99   -11097.789    55888.854    51877.906    6200.4458     10936.42   -7320.4743    76.443653 
   96100     762.2653   -160.29365   0.68971366   -159.60394   -19152.627    4.2561578    4.2561578    4.2561578   -19152.627   -75156.704   -24335.452    42034.275   -8263.0404   -2594.3542    4755.8717    77.099786 
   96200    1392.0712   -160.86013    1.2595752   -159.60056   -16188.618    4.2557754    4.2557754    4.2557754   -16188.618    4281.7448   -29528.621   -23318.977    3955.1008   -9111.3137    9672.6008    77.079005 
   96300    1968.4242   -161.38416    1.7810716   -159.60309    13410.029    4.2482508    4.2482508    4.2482508    13410.029    43893.205    28138.485   -31801.602    8802.0039     10649.22   -1720.3919    76.670877 
   96400    956.90745   -160.47408   0.86582997   -159.60825    14875.128    4.2474566    4.2474566    4.2474566    14875.128   -14163.807    40764.103    18025.088    18826.497    13486.115   -8713.9295    76.627889 
   96500    619.24329   -160.16363   0.56030434   -159.60333   -20253.356    4.2509372    4.2509372    4.2509372   -20253.356   -48198.968   -24816.542    12255.442    25348.624   -2129.1347   -2376.2741    76.816423 
   96600    1834.6146   -161.26346    1.6599978   -159.60346   -13900.515    4.2478089    4.2478089    4.2478089   -13900.515   -3973.0858   -18602.245   -19126.214    3809.1079   -8663.6722    10963.757    76.646958 
   96700    1993.0077   -161.40951    1.8033153   -159.60619    6687.3382    4.2479832    4.2479832    4.2479832    6687.3382    6318.8594    9083.8134     4659.342    6697.6944   -2860.6918     4323.021    76.656391 
   96800    738.61212   -160.27562   0.66831177   -159.60731   -2180.6235    4.2538762    4.2538762    4.2538762   -2180.6235   -13115.476   -48154.202    54727.808    7399.4186     7647.102   -3158.0934    76.975856 
   96900    1066.8323    -160.5717   0.96529224   -159.60641   -6831.4288    4.2545065    4.2545065    4.2545065   -6831.4288    15772.325   -64346.316    28079.705     2014.173     12514.23   -818.37097    77.010081 
   97000     2427.672   -161.80107    2.1966086   -159.60447   -721.29708    4.2469674    4.2469674    4.2469674   -721.29708    10026.802    10217.308   -22408.002   -1460.8334    3430.4489   -1546.4028    76.601416 
   97100    1727.7256   -161.16394    1.5632825   -159.60065   -16055.177     4.242536     4.242536     4.242536   -16055.177    -47979.68    2091.5648   -2277.4169   -5779.5264   -3418.6235    1672.8443    76.361879 
   97200    798.49232   -160.32691   0.72249263   -159.60442    -14177.84     4.246137     4.246137     4.246137    -14177.84   -25542.687   -38706.646    21715.815   -5150.8672   -564.64649    3143.9186    76.556486 
   97300     1666.204   -161.11793    1.5076164   -159.61031    19456.435    4.2521302    4.2521302    4.2521302    19456.435    33789.497    8700.0472     15879.76    8029.3196    3077.1672   -9192.4183    76.881115 
   97400    1886.6097   -161.31251    1.7070441   -159.60546    6313.0864    4.2542956    4.2542956    4.2542956    6313.0864   -7599.1147    9609.4656    16928.908    8138.1256    7475.5988    3822.6958    76.998626 
   97500    776.80041   -160.30012   0.70286533   -159.59726   -24475.341    4.2500735    4.2500735    4.2500735   -24475.341   -50259.935   -58684.901    35518.811    5211.6901   -2294.4313    1442.9413    76.769607 
   97600    1192.7588   -160.67932    1.0792332   -159.60009    -14465.98    4.2452422    4.2452422    4.2452422    -14465.98   -21457.208   -27728.414     5787.682    15343.758   -5528.5029   -97.107627    76.508099 
   97700    2047.5648   -161.46585    1.8526796   -159.61317     24156.34    4.2463237    4.2463237    4.2463237     24156.34    26754.288    54730.077   -9015.3447    15238.586   -558.24713    -787.2701    76.566588 
   97800    1245.7456   -160.73869    1.1271768   -159.61151    13180.372    4.2517269    4.2517269    4.2517269    13180.372    14942.267    17525.105    7073.7421    15616.648     759.2004   -11521.689    76.859241 
   97900    637.59705   -160.17961   0.57691121    -159.6027   -18055.732    4.2523251    4.2523251    4.2523251   -18055.732   -17643.659    -46587.35    10063.814    599.69753    -4812.069    1277.8155    76.891687 
   98000    1900.3962   -161.32144    1.7195185   -159.60193   -18353.021    4.2510435    4.2510435    4.2510435   -18353.021   -29106.926    -13741.76   -12210.376   -9260.6465   -6354.4117    10219.302    76.822181 
   98100    2175.9502   -161.57336    1.9688455   -159.60451    16844.057    4.2480634    4.2480634    4.2480634    16844.057   -11423.797    39922.072    22033.897    2462.8509    962.47457    -8976.981    76.660735 
   98200    644.76067   -160.18826     0.583393   -159.60487    13569.745     4.248521     4.248521     4.248521    13569.745   -16056.335     -12806.1     69571.67   -4866.7944    6188.4511   -5724.8257    76.685512 
   98300     804.2949   -160.33235   0.72774293    -159.6046    -7315.684    4.2510891    4.2510891    4.2510891    -7315.684   -30749.751   -33133.133    41935.832   -2663.4435    5196.5821    223.00731    76.824655 
   98400    2312.8903    -161.6964    2.0927518   -159.60365    -10202.46    4.2496071    4.2496071    4.2496071    -10202.46   -2004.5691   -8691.2689   -19911.543   -15839.228    -3319.337   -550.40812    76.744334 
   98500    1614.6276   -161.06292     1.460949   -159.60198   -14577.757    4.2478951    4.2478951    4.2478951   -14577.757   -1723.6416   -35974.485   -6035.1435   -12956.981   -955.75987    3264.5823    76.651622 
   98600    327.15771   -159.89785   0.29601917   -159.60183    -1258.907    4.2485074    4.2485074    4.2485074    -1258.907   -13883.925   -43580.347    53687.552    3719.2515    6069.6909   -12212.169    76.684771 
   98700    1309.6194   -160.79394    1.1849711   -159.60897    20430.687    4.2503285    4.2503285    4.2503285    20430.687    558.20868    35266.261    25467.592    1700.4638    6317.0143   -13895.859    76.783425 
   98800    2067.6785   -161.48047    1.8708789   -159.60959    5910.1442      4.24976      4.24976      4.24976    5910.1442    20866.432    18359.831   -21495.831   -7586.8761    1069.8853     6320.743    76.752619 
   98900    894.65957   -160.41184   0.80950678   -159.60234     -24089.7    4.2457824    4.2457824    4.2457824     -24089.7   -16280.544   -67593.807     11605.25   -11218.147    -1115.791    6125.8665    76.537311 
   99000    730.52272   -160.26682   0.66099231   -159.60583   -4650.3433    4.2464851    4.2464851    4.2464851   -4650.3433   -18615.515    -43021.51    47685.995   -8414.5449    6838.8566   -327.68761     76.57532 
   99100    1952.4451   -161.37828    1.7666133   -159.61167    21967.269    4.2543878    4.2543878    4.2543878    21967.269    19784.696    16937.878    29179.234    15049.211    10651.268   -14585.316    77.003635 
   99200    1529.3586   -160.98945    1.3837958   -159.60566    2483.7969    4.2565435    4.2565435    4.2565435    2483.7969    5995.5376   -15430.004    16885.857   -1739.0001   -981.65939   -8102.8005    77.120748 
   99300    830.54733    -160.3469   0.75149668    -159.5954   -33495.812    4.2463679    4.2463679    4.2463679   -33495.812    -48014.39   -65401.181    12928.134   -3777.1303   -8831.9074    7275.9444    76.568979 
   99400    1849.8749   -161.27397    1.6738057   -159.60017   -2989.5503    4.2356899    4.2356899    4.2356899   -2989.5503    -21858.86    1312.6193    11577.589    393.45619   -9693.6745    3749.3362    75.992807 
   99500    2340.1501   -161.73496     2.117417   -159.61755    11494.076    4.2469266    4.2469266    4.2469266    11494.076    20679.622    18480.034   -4677.4273   -2829.7896    4868.2759    179.04932    76.599207 
   99600    1004.4197   -160.51893   0.90882007   -159.61011   -10821.367    4.2610735    4.2610735    4.2610735   -10821.367   -15926.427   -56730.492    40192.818    14543.869    8217.9441   -7797.2798    77.367235 
   99700    924.91488    -160.4358   0.83688242   -159.59892   -18857.744    4.2542201    4.2542201    4.2542201   -18857.744   -50057.983   -53939.008    47423.761    1244.9838   -391.16144     321.8576    76.994528 
   99800    2327.0559   -161.70581    2.1055691   -159.60024    3039.5228    4.2416444    4.2416444    4.2416444    3039.5228   -5056.8821    18618.808   -4443.3573   -8164.8346   -7591.1719    7904.8977    76.313748 
   99900    1949.2923   -161.37251    1.7637606   -159.60875    3551.7279    4.2431242    4.2431242    4.2431242    3551.7279    13326.569    21847.005   -24518.391    2448.7542    -8475.974    864.49248    76.393645 
  100000     516.4886   -160.08045   0.46732974   -159.61312   -707.74316    4.2526914    4.2526914    4.2526914   -707.74316   -33061.911    16667.172    14271.509    7088.6838    590.56974   -6013.2812    76.911556 
Loop time of 43.1303 on 1 procs for 100000 steps with 8 atoms

Pair  time (%) = 14.2491 (33.0374)
Kspce time (%) = 10.9031 (25.2794)
Neigh time (%) = 0 (0)
Comm  time (%) = 2.46463 (5.71438)
Outpt time (%) = 0.141943 (0.329102)
Other time (%) = 15.3715 (35.6397)

Nlocal:    8 ave 8 max 8 min
Histogram: 1 0 0 0 0 0 0 0 0 0
Nghost:    2189 ave 2189 max 2189 min
Histogram: 1 0 0 0 0 0 0 0 0 0
Neighs:    2472 ave 2472 max 2472 min
Histogram: 1 0 0 0 0 0 0 0 0 0

Total # of neighbors = 2472
Ave neighs/atom = 309
Neighbor list builds = 0
Dangerous builds = 0
seeds:6438386
