<?xml version="1.0" encoding="ISO-8859-1"?>
<modeling>
 <generator>
  <i name="program" type="string">vasp </i>
  <i name="version" type="string">5.4.1  </i>
  <i name="subversion" type="string">24Jun15 (build Jun 05 2017 10:38:15) complex                          parallel </i>
  <i name="platform" type="string">IFC91_ompi </i>
  <i name="date" type="string">2017 08 29 </i>
  <i name="time" type="string">20:22:04 </i>
 </generator>
 <incar>
  <i type="string" name="SYSTEM"> automatically generated by pyflamestk</i>
  <i type="int" name="ISTART">     0</i>
  <i type="string" name="PREC">high                   ! avoid wrap aro</i>
  <i type="string" name="ALGO"> Normal                 ! blocked Davids</i>
  <i type="int" name="ISPIN">     1</i>
  <i type="int" name="ICHARG">     0</i>
  <i type="int" name="NELM">    40</i>
  <i name="EDIFF">      0.00000100</i>
  <i name="ENCUT">    900.00000000</i>
  <i type="logical" name="LREAL"> F  </i>
  <i type="int" name="ISMEAR">     0</i>
  <i name="SIGMA">      0.05000000</i>
  <i type="logical" name="LWAVE"> F  </i>
  <i type="logical" name="LCHARG"> F  </i>
  <i type="logical" name="LVTOT"> F  </i>
  <v type="int" name="KPOINT_BSE">    -1     0     0     0</v>
  <i type="int" name="NELM">    40</i>
 </incar>
 <kpoints>
  <generation param="Monkhorst-Pack">
   <v type="int" name="divisions">       4        4        4 </v>
   <v name="usershift">      0.00000000       0.00000000       0.00000000 </v>
   <v name="genvec1">      0.25000000      -0.00000000       0.00000000 </v>
   <v name="genvec2">      0.00000000       0.25000000      -0.00000000 </v>
   <v name="genvec3">      0.00000000       0.00000000       0.25000000 </v>
   <v name="shift">      0.50000000       0.50000000       0.50000000 </v>
  </generation>
  <varray name="kpointlist" >
   <v>       0.12500000       0.12500000       0.12500000 </v>
   <v>       0.37500000       0.12500000       0.12500000 </v>
   <v>      -0.37500000       0.12500000       0.12500000 </v>
   <v>      -0.12500000       0.12500000       0.12500000 </v>
   <v>       0.37500000       0.37500000       0.12500000 </v>
   <v>      -0.37500000       0.37500000       0.12500000 </v>
   <v>      -0.12500000       0.37500000       0.12500000 </v>
   <v>      -0.37500000      -0.37500000       0.12500000 </v>
   <v>       0.37500000       0.37500000       0.37500000 </v>
   <v>      -0.37500000       0.37500000       0.37500000 </v>
  </varray>
  <varray name="weights" >
   <v>       0.03125000 </v>
   <v>       0.09375000 </v>
   <v>       0.09375000 </v>
   <v>       0.09375000 </v>
   <v>       0.09375000 </v>
   <v>       0.18750000 </v>
   <v>       0.18750000 </v>
   <v>       0.09375000 </v>
   <v>       0.03125000 </v>
   <v>       0.09375000 </v>
  </varray>
 </kpoints>
 <parameters>
  <separator name="general" >
   <i type="string" name="SYSTEM">automatically generated by pyflamestk</i>
   <i type="logical" name="LCOMPAT"> F  </i>
  </separator>
  <separator name="electronic" >
   <i type="string" name="PREC">high</i>
   <i name="ENMAX">    900.00000000</i>
   <i name="ENAUG">    888.80400000</i>
   <i name="EDIFF">      0.00000100</i>
   <i type="int" name="IALGO">    38</i>
   <i type="int" name="IWAVPR">    10</i>
   <i type="int" name="NBANDS">    16</i>
   <i name="NELECT">      8.00000000</i>
   <i type="int" name="TURBO">     0</i>
   <i type="int" name="IRESTART">     0</i>
   <i type="int" name="NREBOOT">     0</i>
   <i type="int" name="NMIN">     0</i>
   <i name="EREF">      0.00000000</i>
   <separator name="electronic smearing" >
    <i type="int" name="ISMEAR">     0</i>
    <i name="SIGMA">      0.05000000</i>
    <i name="KSPACING">      0.50000000</i>
    <i type="logical" name="KGAMMA"> T  </i>
   </separator>
   <separator name="electronic projectors" >
    <i type="logical" name="LREAL"> F  </i>
    <v name="ROPT">      0.00000000      0.00000000</v>
    <i type="int" name="LMAXPAW">  -100</i>
    <i type="int" name="LMAXMIX">     2</i>
    <i type="logical" name="NLSPLINE"> F  </i>
   </separator>
   <separator name="electronic startup" >
    <i type="int" name="ISTART">     0</i>
    <i type="int" name="ICHARG">     0</i>
    <i type="int" name="INIWAV">     1</i>
   </separator>
   <separator name="electronic spin" >
    <i type="int" name="ISPIN">     1</i>
    <i type="logical" name="LNONCOLLINEAR"> F  </i>
    <v name="MAGMOM">      1.00000000      1.00000000</v>
    <i name="NUPDOWN">     -1.00000000</i>
    <i type="logical" name="LSORBIT"> F  </i>
    <v name="SAXIS">      0.00000000      0.00000000      1.00000000</v>
    <i type="logical" name="LSPIRAL"> F  </i>
    <v name="QSPIRAL">      0.00000000      0.00000000      0.00000000</v>
    <i type="logical" name="LZEROZ"> F  </i>
   </separator>
   <separator name="electronic exchange-correlation" >
    <i type="logical" name="LASPH"> F  </i>
    <i type="logical" name="LMETAGGA"> F  </i>
   </separator>
   <separator name="electronic convergence" >
    <i type="int" name="NELM">    40</i>
    <i type="int" name="NELMDL">    -5</i>
    <i type="int" name="NELMIN">     2</i>
    <i name="ENINI">    900.00000000</i>
    <separator name="electronic convergence detail" >
     <i type="logical" name="LDIAG"> T  </i>
     <i type="logical" name="LSUBROT"> F  </i>
     <i name="WEIMIN">      0.00000000</i>
     <i name="EBREAK">      0.00000002</i>
     <i name="DEPER">      0.30000000</i>
     <i type="int" name="NRMM">     4</i>
     <i name="TIME">      0.40000000</i>
    </separator>
   </separator>
   <separator name="electronic mixer" >
    <i name="AMIX">      0.40000000</i>
    <i name="BMIX">      1.00000000</i>
    <i name="AMIN">      0.10000000</i>
    <i name="AMIX_MAG">      1.60000000</i>
    <i name="BMIX_MAG">      1.00000000</i>
    <separator name="electronic mixer details" >
     <i type="int" name="IMIX">     4</i>
     <i type="logical" name="MIXFIRST"> F  </i>
     <i type="int" name="MAXMIX">   -45</i>
     <i name="WC">    100.00000000</i>
     <i type="int" name="INIMIX">     1</i>
     <i type="int" name="MIXPRE">     1</i>
     <i type="int" name="MREMOVE">     5</i>
    </separator>
   </separator>
   <separator name="electronic dipolcorrection" >
    <i type="logical" name="LDIPOL"> F  </i>
    <i type="logical" name="LMONO"> F  </i>
    <i type="int" name="IDIPOL">     0</i>
    <i name="EPSILON">      1.00000000</i>
    <v name="DIPOL">   -100.00000000   -100.00000000   -100.00000000</v>
    <i name="EFIELD">      0.00000000</i>
   </separator>
  </separator>
  <separator name="grids" >
   <i type="int" name="NGX">    30</i>
   <i type="int" name="NGY">    30</i>
   <i type="int" name="NGZ">    30</i>
   <i type="int" name="NGXF">    40</i>
   <i type="int" name="NGYF">    40</i>
   <i type="int" name="NGZF">    40</i>
   <i type="logical" name="ADDGRID"> F  </i>
  </separator>
  <separator name="ionic" >
   <i type="int" name="NSW">     0</i>
   <i type="int" name="IBRION">    -1</i>
   <i type="int" name="ISIF">     2</i>
   <i name="PSTRESS">      0.00000000</i>
   <i name="EDIFFG">      0.00001000</i>
   <i type="int" name="NFREE">     0</i>
   <i name="POTIM">      0.50000000</i>
   <i name="SMASS">     -3.00000000</i>
   <i name="SCALEE">      1.00000000</i>
  </separator>
  <separator name="ionic md" >
   <i name="TEBEG">      0.00010000</i>
   <i name="TEEND">      0.00010000</i>
   <i type="int" name="NBLOCK">     1</i>
   <i type="int" name="KBLOCK">     1</i>
   <i type="int" name="NPACO">   256</i>
   <i name="APACO">     16.00000000</i>
  </separator>
  <separator name="symmetry" >
   <i type="int" name="ISYM">     2</i>
   <i name="SYMPREC">      0.00001000</i>
  </separator>
  <separator name="dos" >
   <i type="logical" name="LORBIT"> F  </i>
   <v name="RWIGS">     -1.00000000     -1.00000000</v>
   <i type="int" name="NEDOS">   301</i>
   <i name="EMIN">     10.00000000</i>
   <i name="EMAX">    -10.00000000</i>
   <i name="EFERMI">      0.00000000</i>
  </separator>
  <separator name="writing" >
   <i type="int" name="NWRITE">     2</i>
   <i type="logical" name="LWAVE"> F  </i>
   <i type="logical" name="LCHARG"> F  </i>
   <i type="logical" name="LPARD"> F  </i>
   <i type="logical" name="LVTOT"> F  </i>
   <i type="logical" name="LVHAR"> F  </i>
   <i type="logical" name="LELF"> F  </i>
   <i type="logical" name="LOPTICS"> F  </i>
   <v name="STM">      0.00000000      0.00000000      0.00000000      0.00000000      0.00000000      0.00000000      0.00000000</v>
  </separator>
  <separator name="performance" >
   <i type="int" name="NPAR">    16</i>
   <i type="int" name="NSIM">     4</i>
   <i type="int" name="NBLK">    -1</i>
   <i type="logical" name="LPLANE"> T  </i>
   <i type="logical" name="LSCALAPACK"> T  </i>
   <i type="logical" name="LSCAAWARE"> F  </i>
   <i type="logical" name="LSCALU"> F  </i>
   <i type="logical" name="LASYNC"> F  </i>
   <i type="logical" name="LORBITALREAL"> F  </i>
  </separator>
  <separator name="miscellaneous" >
   <i type="int" name="IDIOT">     3</i>
   <i type="logical" name="LMUSIC"> F  </i>
   <v name="POMASS">     16.00000000     24.30500000</v>
   <v name="DARWINR">      0.00000000      0.00000000</v>
   <v name="DARWINV">      1.00000000      1.00000000</v>
   <i type="logical" name="LCORR"> T  </i>
  </separator>
  <i type="logical" name="GGA_COMPAT"> T  </i>
  <i type="logical" name="LBERRY"> F  </i>
  <i type="int" name="ICORELEVEL">     0</i>
  <i type="logical" name="LDAU"> F  </i>
  <i type="int" name="I_CONSTRAINED_M">     0</i>
  <separator name="electronic exchange-correlation" >
   <i type="string" name="GGA">--</i>
   <i type="int" name="VOSKOWN">     0</i>
   <i type="logical" name="LHFCALC"> F  </i>
   <i type="string" name="PRECFOCK"></i>
   <i type="logical" name="LSYMGRAD"> F  </i>
   <i type="logical" name="LHFONE"> F  </i>
   <i type="logical" name="LRHFCALC"> F  </i>
   <i type="logical" name="LTHOMAS"> F  </i>
   <i type="logical" name="LMODELHF"> F  </i>
   <i name="ENCUT4O">     -1.00000000</i>
   <i type="int" name="EXXOEP">     0</i>
   <i type="int" name="FOURORBIT">     0</i>
   <i name="AEXX">      0.00000000</i>
   <i name="HFALPHA">      0.00000000</i>
   <i name="MCALPHA">      0.00000000</i>
   <i name="ALDAX">      1.00000000</i>
   <i name="AGGAX">      1.00000000</i>
   <i name="ALDAC">      1.00000000</i>
   <i name="AGGAC">      1.00000000</i>
   <i type="int" name="NKREDX">     1</i>
   <i type="int" name="NKREDY">     1</i>
   <i type="int" name="NKREDZ">     1</i>
   <i type="logical" name="SHIFTRED"> F  </i>
   <i type="logical" name="ODDONLY"> F  </i>
   <i type="logical" name="EVENONLY"> F  </i>
   <i type="int" name="LMAXFOCK">     0</i>
   <i type="int" name="NMAXFOCKAE">     0</i>
   <i type="logical" name="LFOCKAEDFT"> F  </i>
   <i name="HFSCREEN">      0.00000000</i>
   <i name="HFSCREENC">      0.00000000</i>
   <i type="int" name="NBANDSGWLOW">     0</i>
  </separator>
  <separator name="vdW DFT" >
   <i type="logical" name="LUSE_VDW"> F  </i>
   <i name="Zab_VDW">     -0.84910000</i>
   <i name="PARAM1">      0.12340000</i>
   <i name="PARAM2">      1.00000000</i>
   <i name="PARAM3">      0.00000000</i>
  </separator>
  <separator name="model GW" >
   <i type="int" name="MODEL_GW">     0</i>
   <i name="MODEL_EPS0">      5.73799088</i>
   <i name="MODEL_ALPHA">      1.00000000</i>
  </separator>
  <separator name="linear response parameters" >
   <i type="logical" name="LEPSILON"> F  </i>
   <i type="logical" name="LRPA"> F  </i>
   <i type="logical" name="LNABLA"> F  </i>
   <i type="logical" name="LVEL"> F  </i>
   <i type="int" name="KINTER">     0</i>
   <i name="CSHIFT">      0.10000000</i>
   <i name="OMEGAMAX">     -1.00000000</i>
   <i name="DEG_THRESHOLD">      0.00200000</i>
  </separator>
  <separator name="orbital magnetization" >
   <i type="logical" name="NUCIND"> F  </i>
   <v name="MAGPOS">      0.00000000      0.00000000      0.00000000</v>
   <i type="logical" name="LNICSALL"> T  </i>
   <i type="logical" name="ORBITALMAG"> F  </i>
   <i type="logical" name="LMAGBLOCH"> F  </i>
   <i type="logical" name="LCHIMAG"> F  </i>
   <i type="logical" name="LGAUGE"> T  </i>
   <i type="int" name="MAGATOM">     0</i>
   <v name="MAGDIPOL">      0.00000000      0.00000000      0.00000000</v>
   <v name="AVECCONST">      0.00000000      0.00000000      0.00000000</v>
  </separator>
  <separator name="response functions" >
   <i type="logical" name="LADDER"> F  </i>
   <i type="logical" name="LFXC"> F  </i>
   <i type="logical" name="LHARTREE"> T  </i>
   <i type="int" name="IBSE">     0</i>
   <v type="int" name="KPOINT">    -1     0     0     0</v>
   <i type="logical" name="LTCTE"> F  </i>
   <i type="logical" name="LTETE"> F  </i>
   <i type="logical" name="LTRIPLET"> F  </i>
   <i type="logical" name="LFXCEPS"> F  </i>
   <i type="logical" name="LFXHEG"> F  </i>
   <i type="int" name="NATURALO">     0</i>
   <i type="logical" name="L2ORDER"> F  </i>
   <i type="logical" name="LUSEW"> F  </i>
   <i name="ENCUTGW">     -2.00000000</i>
   <i name="ENCUTGWSOFT">     -2.00000000</i>
   <i name="ENCUTLF">     -1.00000000</i>
   <i type="int" name="LMAXMP2">    -1</i>
   <i name="SCISSOR">      0.00000000</i>
   <i type="int" name="NOMEGA">     0</i>
   <i type="int" name="NOMEGAR">     0</i>
   <i type="int" name="NBANDSGW">    -1</i>
   <i type="int" name="NBANDSO">    -1</i>
   <i type="int" name="NBANDSV">    -1</i>
   <i type="int" name="NELM">    40</i>
   <i type="int" name="NELMHF">     1</i>
   <i type="int" name="DIM">     3</i>
   <i type="int" name="ANTIRES">     0</i>
   <i name="OMEGAMAX">    -30.00000000</i>
   <i name="OMEGAMIN">    -30.00000000</i>
   <i name="OMEGATL">   -200.00000000</i>
   <i type="int" name="OMEGAGRID">     0</i>
   <i name="CSHIFT">     -0.10000000</i>
   <i type="logical" name="SELFENERGY"> F  </i>
   <i type="logical" name="LSPECTRAL"> F  </i>
   <i type="logical" name="LSPECTRALGW"> F  </i>
   <i type="logical" name="LSINGLES"> F  </i>
   <i type="logical" name="LFERMIGW"> F  </i>
   <i type="logical" name="ODDONLYGW"> F  </i>
   <i type="logical" name="EVENONLYGW"> F  </i>
   <i type="int" name="NKREDLFX">     1</i>
   <i type="int" name="NKREDLFY">     1</i>
   <i type="int" name="NKREDLFZ">     1</i>
   <i type="int" name="MAXMEM">  1800</i>
   <i type="int" name="TELESCOPE">     0</i>
   <i type="int" name="TAUPAR">     1</i>
   <i type="int" name="OMEGAPAR">    -1</i>
   <i name="LAMBDA">      1.00000000</i>
  </separator>
  <separator name="External order field" >
   <i name="OFIELD_KAPPA">      0.00000000</i>
   <v name="OFIELD_K">      0.00000000      0.00000000      0.00000000</v>
   <i name="OFIELD_Q6_NEAR">      0.00000000</i>
   <i name="OFIELD_Q6_FAR">      0.00000000</i>
   <i name="OFIELD_A">      0.00000000</i>
  </separator>
 </parameters>
 <atominfo>
  <atoms>       2 </atoms>
  <types>       2 </types>
  <array name="atoms" >
   <dimension dim="1">ion</dimension>
   <field type="string">element</field>
   <field type="int">atomtype</field>
   <set>
    <rc><c>O </c><c>   1</c></rc>
    <rc><c>Mg</c><c>   2</c></rc>
   </set>
  </array>
  <array name="atomtypes" >
   <dimension dim="1">type</dimension>
   <field type="int">atomspertype</field>
   <field type="string">element</field>
   <field>mass</field>
   <field>valence</field>
   <field type="string">pseudopotential</field>
   <set>
    <rc><c>   1</c><c>O </c><c>     16.00000000</c><c>      6.00000000</c><c>  PAW_PBE O_h 06Feb2004                 </c></rc>
    <rc><c>   1</c><c>Mg</c><c>     24.30500000</c><c>      2.00000000</c><c>  PAW_PBE Mg 13Apr2007                  </c></rc>
   </set>
  </array>
 </atominfo>
 <structure name="initialpos" >
  <crystal>
   <varray name="basis" >
    <v>       3.00181900       0.00000000       0.00000000 </v>
    <v>       1.50091000       2.59965200       0.00000000 </v>
    <v>       1.50091000       0.86655100       2.45097500 </v>
   </varray>
   <i name="volume">     19.12663627 </i>
   <varray name="rec_basis" >
    <v>       0.33313134      -0.19233350      -0.13600032 </v>
    <v>       0.00000000       0.38466687      -0.13600035 </v>
    <v>       0.00000000       0.00000000       0.40800090 </v>
   </varray>
  </crystal>
  <varray name="positions" >
   <v>       0.50000000       0.50000000       0.50000000 </v>
   <v>       0.00000000       0.00000000       0.00000000 </v>
  </varray>
 </structure>
 <calculation>
  <scstep>
   <time name="dav">    0.06    0.06</time>
   <time name="total">    0.07    0.07</time>
   <energy>
    <i name="alphaZ">     15.91937336 </i>
    <i name="ewald">   -355.39410472 </i>
    <i name="hartreedc">    -35.13011703 </i>
    <i name="XCdc">    -29.38916398 </i>
    <i name="pawpsdc"> 214398.34466890 </i>
    <i name="pawaedc">-214344.38682691 </i>
    <i name="eentropy">     -0.00000000 </i>
    <i name="bandstr">   -338.93034737 </i>
    <i name="atom">    455.39587916 </i>
    <i name="e_fr_energy">   -233.57063858 </i>
    <i name="e_wo_entrp">   -233.57063858 </i>
    <i name="e_0_energy">   -233.57063858 </i>
   </energy>
  </scstep>
  <scstep>
   <time name="dav">    0.08    0.08</time>
   <time name="total">    0.08    0.08</time>
   <energy>
    <i name="e_fr_energy">   -305.92469635 </i>
    <i name="e_wo_entrp">   -305.92469635 </i>
    <i name="e_0_energy">   -305.92469635 </i>
   </energy>
  </scstep>
  <scstep>
   <time name="dav">    0.07    0.07</time>
   <time name="total">    0.07    0.08</time>
   <energy>
    <i name="e_fr_energy">   -306.26067112 </i>
    <i name="e_wo_entrp">   -306.26067112 </i>
    <i name="e_0_energy">   -306.26067112 </i>
   </energy>
  </scstep>
  <scstep>
   <time name="dav">    0.09    0.09</time>
   <time name="total">    0.09    0.09</time>
   <energy>
    <i name="e_fr_energy">   -306.26152252 </i>
    <i name="e_wo_entrp">   -306.26152252 </i>
    <i name="e_0_energy">   -306.26152252 </i>
   </energy>
  </scstep>
  <scstep>
   <time name="dav">    0.07    0.07</time>
   <time name="total">    0.08    0.09</time>
   <energy>
    <i name="e_fr_energy">   -306.26152273 </i>
    <i name="e_wo_entrp">   -306.26152273 </i>
    <i name="e_0_energy">   -306.26152273 </i>
   </energy>
  </scstep>
  <scstep>
   <time name="dav">    0.05    0.05</time>
   <time name="total">    0.07    0.07</time>
   <energy>
    <i name="e_fr_energy">    -67.44529704 </i>
    <i name="e_wo_entrp">    -67.44529704 </i>
    <i name="e_0_energy">    -67.44529704 </i>
   </energy>
  </scstep>
  <scstep>
   <time name="dav">    0.08    0.08</time>
   <time name="total">    0.10    0.10</time>
   <energy>
    <i name="e_fr_energy">    -22.67388179 </i>
    <i name="e_wo_entrp">    -22.67388179 </i>
    <i name="e_0_energy">    -22.67388179 </i>
   </energy>
  </scstep>
  <scstep>
   <time name="dav">    0.05    0.05</time>
   <time name="total">    0.07    0.08</time>
   <energy>
    <i name="e_fr_energy">    -20.61167005 </i>
    <i name="e_wo_entrp">    -20.61167005 </i>
    <i name="e_0_energy">    -20.61167005 </i>
   </energy>
  </scstep>
  <scstep>
   <time name="dav">    0.05    0.05</time>
   <time name="total">    0.07    0.07</time>
   <energy>
    <i name="e_fr_energy">    -11.96825466 </i>
    <i name="e_wo_entrp">    -11.96825466 </i>
    <i name="e_0_energy">    -11.96825466 </i>
   </energy>
  </scstep>
  <scstep>
   <time name="dav">    0.07    0.07</time>
   <time name="total">    0.09    0.09</time>
   <energy>
    <i name="e_fr_energy">    -11.98078119 </i>
    <i name="e_wo_entrp">    -11.98078119 </i>
    <i name="e_0_energy">    -11.98078119 </i>
   </energy>
  </scstep>
  <scstep>
   <time name="dav">    0.06    0.06</time>
   <time name="total">    0.08    0.08</time>
   <energy>
    <i name="e_fr_energy">    -11.92233624 </i>
    <i name="e_wo_entrp">    -11.92233624 </i>
    <i name="e_0_energy">    -11.92233624 </i>
   </energy>
  </scstep>
  <scstep>
   <time name="dav">    0.06    0.06</time>
   <time name="total">    0.08    0.09</time>
   <energy>
    <i name="e_fr_energy">    -11.91957436 </i>
    <i name="e_wo_entrp">    -11.91957436 </i>
    <i name="e_0_energy">    -11.91957436 </i>
   </energy>
  </scstep>
  <scstep>
   <time name="dav">    0.07    0.08</time>
   <time name="total">    0.09    0.10</time>
   <energy>
    <i name="e_fr_energy">    -11.91962294 </i>
    <i name="e_wo_entrp">    -11.91962294 </i>
    <i name="e_0_energy">    -11.91962294 </i>
   </energy>
  </scstep>
  <scstep>
   <time name="dav">    0.07    0.07</time>
   <time name="total">    0.09    0.09</time>
   <energy>
    <i name="e_fr_energy">    -11.91959406 </i>
    <i name="e_wo_entrp">    -11.91959406 </i>
    <i name="e_0_energy">    -11.91959406 </i>
   </energy>
  </scstep>
  <scstep>
   <time name="dav">    0.05    0.05</time>
   <time name="total">    0.07    0.08</time>
   <energy>
    <i name="e_fr_energy">    -11.91959294 </i>
    <i name="e_wo_entrp">    -11.91959294 </i>
    <i name="e_0_energy">    -11.91959294 </i>
   </energy>
  </scstep>
  <scstep>
   <time name="dav">    0.03    0.03</time>
   <time name="total">    0.04    0.04</time>
   <energy>
    <i name="alphaZ">     15.91937336 </i>
    <i name="ewald">   -355.39410472 </i>
    <i name="hartreedc">   -141.37126260 </i>
    <i name="XCdc">    -20.65031948 </i>
    <i name="pawpsdc">    641.67383882 </i>
    <i name="pawaedc">   -591.29767462 </i>
    <i name="eentropy">     -0.00000000 </i>
    <i name="bandstr">    -16.19532282 </i>
    <i name="atom">    455.39587916 </i>
    <i name="e_fr_energy">    -11.91959290 </i>
    <i name="e_wo_entrp">    -11.91959290 </i>
    <i name="e_0_energy">    -11.91959290 </i>
   </energy>
  </scstep>
  <structure>
   <crystal>
    <varray name="basis" >
     <v>       3.00181900       0.00000000       0.00000000 </v>
     <v>       1.50091000       2.59965200       0.00000000 </v>
     <v>       1.50091000       0.86655100       2.45097500 </v>
    </varray>
    <i name="volume">     19.12663627 </i>
    <varray name="rec_basis" >
     <v>       0.33313134      -0.19233350      -0.13600032 </v>
     <v>       0.00000000       0.38466687      -0.13600035 </v>
     <v>       0.00000000       0.00000000       0.40800090 </v>
    </varray>
   </crystal>
   <varray name="positions" >
    <v>       0.50000000       0.50000000       0.50000000 </v>
    <v>       0.00000000       0.00000000       0.00000000 </v>
   </varray>
  </structure>
  <varray name="forces" >
   <v>      -0.00000000       0.00000000       0.00000000 </v>
   <v>       0.00000000      -0.00000000      -0.00000000 </v>
  </varray>
  <varray name="stress" >
   <v>      -2.37906801      -0.00000046      -0.00000032 </v>
   <v>      -0.00000046      -2.37906890      -0.00000032 </v>
   <v>      -0.00000032      -0.00000032      -2.37906810 </v>
  </varray>
  <energy>
   <i name="e_fr_energy">    -11.91959290 </i>
   <i name="e_wo_entrp">    -11.91959290 </i>
   <i name="e_0_energy">     -0.00000000 </i>
  </energy>
  <time name="totalsc">    1.34    1.40</time>
  <eigenvalues>
   <array>
    <dimension dim="1">band</dimension>
    <dimension dim="2">kpoint</dimension>
    <dimension dim="3">spin</dimension>
    <field>eigene</field>
    <field>occ</field>
    <set>
     <set comment="spin 1">
      <set comment="kpoint 1">
       <r>  -13.5731    1.0000 </r>
       <r>    2.4687    1.0000 </r>
       <r>    3.3151    1.0000 </r>
       <r>    3.3151    1.0000 </r>
       <r>    8.8338    0.0000 </r>
       <r>   17.4126    0.0000 </r>
       <r>   19.4292    0.0000 </r>
       <r>   19.4292    0.0000 </r>
       <r>   23.6793    0.0000 </r>
       <r>   23.6793    0.0000 </r>
       <r>   25.0180    0.0000 </r>
       <r>   27.4553    0.0000 </r>
       <r>   28.8863    0.0000 </r>
       <r>   28.8863    0.0000 </r>
       <r>   39.1509    0.0000 </r>
       <r>   41.0531    0.0000 </r>
      </set>
      <set comment="kpoint 2">
       <r>  -12.9141    1.0000 </r>
       <r>    0.2962    1.0000 </r>
       <r>    2.4536    1.0000 </r>
       <r>    3.0169    1.0000 </r>
       <r>   11.2501    0.0000 </r>
       <r>   15.3510    0.0000 </r>
       <r>   18.7630    0.0000 </r>
       <r>   20.4307    0.0000 </r>
       <r>   22.2514    0.0000 </r>
       <r>   24.4822    0.0000 </r>
       <r>   26.6005    0.0000 </r>
       <r>   31.2616    0.0000 </r>
       <r>   32.5355    0.0000 </r>
       <r>   33.4106    0.0000 </r>
       <r>   35.7810    0.0000 </r>
       <r>   39.0744    0.0000 </r>
      </set>
      <set comment="kpoint 3">
       <r>  -12.4730    1.0000 </r>
       <r>   -0.8377    1.0000 </r>
       <r>    2.3025    1.0000 </r>
       <r>    2.6773    1.0000 </r>
       <r>   11.8374    0.0000 </r>
       <r>   15.5618    0.0000 </r>
       <r>   18.0523    0.0000 </r>
       <r>   19.8685    0.0000 </r>
       <r>   23.8587    0.0000 </r>
       <r>   26.1086    0.0000 </r>
       <r>   26.2044    0.0000 </r>
       <r>   32.4878    0.0000 </r>
       <r>   33.0842    0.0000 </r>
       <r>   33.4295    0.0000 </r>
       <r>   36.0111    0.0000 </r>
       <r>   37.7218    0.0000 </r>
      </set>
      <set comment="kpoint 4">
       <r>  -13.2062    1.0000 </r>
       <r>    1.1853    1.0000 </r>
       <r>    2.9446    1.0000 </r>
       <r>    2.9484    1.0000 </r>
       <r>   10.4226    0.0000 </r>
       <r>   15.5918    0.0000 </r>
       <r>   19.5571    0.0000 </r>
       <r>   20.0378    0.0000 </r>
       <r>   21.2131    0.0000 </r>
       <r>   25.0589    0.0000 </r>
       <r>   27.0582    0.0000 </r>
       <r>   30.1562    0.0000 </r>
       <r>   30.4410    0.0000 </r>
       <r>   31.1943    0.0000 </r>
       <r>   37.4161    0.0000 </r>
       <r>   39.1785    0.0000 </r>
      </set>
      <set comment="kpoint 5">
       <r>  -12.6761    1.0000 </r>
       <r>    0.1098    1.0000 </r>
       <r>    2.2532    1.0000 </r>
       <r>    2.4863    1.0000 </r>
       <r>   12.3532    0.0000 </r>
       <r>   13.9953    0.0000 </r>
       <r>   17.3067    0.0000 </r>
       <r>   20.9367    0.0000 </r>
       <r>   21.3938    0.0000 </r>
       <r>   27.2395    0.0000 </r>
       <r>   30.3454    0.0000 </r>
       <r>   30.6141    0.0000 </r>
       <r>   32.5277    0.0000 </r>
       <r>   35.0195    0.0000 </r>
       <r>   36.6724    0.0000 </r>
       <r>   38.0885    0.0000 </r>
      </set>
      <set comment="kpoint 6">
       <r>  -12.2599    1.0000 </r>
       <r>   -0.0086    1.0000 </r>
       <r>    0.9920    1.0000 </r>
       <r>    2.0745    1.0000 </r>
       <r>   13.8674    0.0000 </r>
       <r>   14.9061    0.0000 </r>
       <r>   15.6980    0.0000 </r>
       <r>   19.7114    0.0000 </r>
       <r>   23.1571    0.0000 </r>
       <r>   26.6102    0.0000 </r>
       <r>   30.1732    0.0000 </r>
       <r>   31.5959    0.0000 </r>
       <r>   32.8641    0.0000 </r>
       <r>   36.5381    0.0000 </r>
       <r>   39.1096    0.0000 </r>
       <r>   41.3290    0.0000 </r>
      </set>
      <set comment="kpoint 7">
       <r>  -12.5188    1.0000 </r>
       <r>   -0.2118    1.0000 </r>
       <r>    1.7349    1.0000 </r>
       <r>    2.5756    1.0000 </r>
       <r>   12.7112    0.0000 </r>
       <r>   14.9052    0.0000 </r>
       <r>   17.0791    0.0000 </r>
       <r>   20.2745    0.0000 </r>
       <r>   22.8440    0.0000 </r>
       <r>   25.5185    0.0000 </r>
       <r>   29.0533    0.0000 </r>
       <r>   31.8450    0.0000 </r>
       <r>   32.4266    0.0000 </r>
       <r>   35.0913    0.0000 </r>
       <r>   35.7344    0.0000 </r>
       <r>   41.2359    0.0000 </r>
      </set>
      <set comment="kpoint 8">
       <r>  -12.2966    1.0000 </r>
       <r>   -0.3732    1.0000 </r>
       <r>    1.7347    1.0000 </r>
       <r>    2.1917    1.0000 </r>
       <r>   12.9418    0.0000 </r>
       <r>   13.6243    0.0000 </r>
       <r>   16.1488    0.0000 </r>
       <r>   21.6476    0.0000 </r>
       <r>   21.6587    0.0000 </r>
       <r>   29.1268    0.0000 </r>
       <r>   29.5588    0.0000 </r>
       <r>   32.1418    0.0000 </r>
       <r>   32.8564    0.0000 </r>
       <r>   38.0051    0.0000 </r>
       <r>   38.3869    0.0000 </r>
       <r>   41.3179    0.0000 </r>
      </set>
      <set comment="kpoint 9">
       <r>  -12.7123    1.0000 </r>
       <r>   -0.5670    1.0000 </r>
       <r>    2.8726    1.0000 </r>
       <r>    2.8726    1.0000 </r>
       <r>   11.0476    0.0000 </r>
       <r>   15.5674    0.0000 </r>
       <r>   19.6641    0.0000 </r>
       <r>   19.6641    0.0000 </r>
       <r>   24.2535    0.0000 </r>
       <r>   24.5937    0.0000 </r>
       <r>   24.5937    0.0000 </r>
       <r>   32.1079    0.0000 </r>
       <r>   33.4281    0.0000 </r>
       <r>   33.4281    0.0000 </r>
       <r>   37.0418    0.0000 </r>
       <r>   37.0418    0.0000 </r>
      </set>
      <set comment="kpoint 10">
       <r>  -12.3442    1.0000 </r>
       <r>   -0.2507    1.0000 </r>
       <r>    1.0980    1.0000 </r>
       <r>    2.5452    1.0000 </r>
       <r>   13.1902    0.0000 </r>
       <r>   15.3644    0.0000 </r>
       <r>   16.2703    0.0000 </r>
       <r>   20.5863    0.0000 </r>
       <r>   22.6700    0.0000 </r>
       <r>   25.6948    0.0000 </r>
       <r>   29.2734    0.0000 </r>
       <r>   31.8152    0.0000 </r>
       <r>   32.2381    0.0000 </r>
       <r>   35.5768    0.0000 </r>
       <r>   37.4614    0.0000 </r>
       <r>   40.3353    0.0000 </r>
      </set>
     </set>
    </set>
   </array>
  </eigenvalues>
  <separator name="orbital magnetization" >
   <v name="MAGDIPOLOUT">      0.00000000      0.00000000      0.00000000</v>
  </separator>
  <dos>
   <i name="efermi">      3.63644159 </i>
   <total>
    <array>
     <dimension dim="1">gridpoints</dimension>
     <dimension dim="2">spin</dimension>
     <field>energy</field>
     <field>total</field>
     <field>integrated</field>
     <set>
      <set comment="spin 1">
       <r>   -16.3182     0.0000     0.0000 </r>
       <r>   -16.1169     0.0000     0.0000 </r>
       <r>   -15.9156     0.0000     0.0000 </r>
       <r>   -15.7143     0.0000     0.0000 </r>
       <r>   -15.5129     0.0000     0.0000 </r>
       <r>   -15.3116     0.0000     0.0000 </r>
       <r>   -15.1103     0.0000     0.0000 </r>
       <r>   -14.9090     0.0000     0.0000 </r>
       <r>   -14.7077     0.0000     0.0000 </r>
       <r>   -14.5064     0.0000     0.0000 </r>
       <r>   -14.3051     0.0000     0.0000 </r>
       <r>   -14.1038     0.0000     0.0000 </r>
       <r>   -13.9025     0.0000     0.0000 </r>
       <r>   -13.7012     0.0000     0.0000 </r>
       <r>   -13.4999     0.3045     0.0613 </r>
       <r>   -13.2986     0.0101     0.0633 </r>
       <r>   -13.0973     0.9263     0.2498 </r>
       <r>   -12.8959     0.6491     0.3805 </r>
       <r>   -12.6946     0.7772     0.5369 </r>
       <r>   -12.4933     2.4356     1.0272 </r>
       <r>   -12.2920     2.8252     1.5960 </r>
       <r>   -12.0907     2.0070     2.0000 </r>
       <r>   -11.8894     0.0000     2.0000 </r>
       <r>   -11.6881     0.0000     2.0000 </r>
       <r>   -11.4868     0.0000     2.0000 </r>
       <r>   -11.2855     0.0000     2.0000 </r>
       <r>   -11.0842     0.0000     2.0000 </r>
       <r>   -10.8829     0.0000     2.0000 </r>
       <r>   -10.6816     0.0000     2.0000 </r>
       <r>   -10.4803     0.0000     2.0000 </r>
       <r>   -10.2789     0.0000     2.0000 </r>
       <r>   -10.0776     0.0000     2.0000 </r>
       <r>    -9.8763     0.0000     2.0000 </r>
       <r>    -9.6750     0.0000     2.0000 </r>
       <r>    -9.4737     0.0000     2.0000 </r>
       <r>    -9.2724     0.0000     2.0000 </r>
       <r>    -9.0711     0.0000     2.0000 </r>
       <r>    -8.8698     0.0000     2.0000 </r>
       <r>    -8.6685     0.0000     2.0000 </r>
       <r>    -8.4672     0.0000     2.0000 </r>
       <r>    -8.2659     0.0000     2.0000 </r>
       <r>    -8.0646     0.0000     2.0000 </r>
       <r>    -7.8633     0.0000     2.0000 </r>
       <r>    -7.6619     0.0000     2.0000 </r>
       <r>    -7.4606     0.0000     2.0000 </r>
       <r>    -7.2593     0.0000     2.0000 </r>
       <r>    -7.0580     0.0000     2.0000 </r>
       <r>    -6.8567     0.0000     2.0000 </r>
       <r>    -6.6554     0.0000     2.0000 </r>
       <r>    -6.4541     0.0000     2.0000 </r>
       <r>    -6.2528     0.0000     2.0000 </r>
       <r>    -6.0515     0.0000     2.0000 </r>
       <r>    -5.8502     0.0000     2.0000 </r>
       <r>    -5.6489     0.0000     2.0000 </r>
       <r>    -5.4476     0.0000     2.0000 </r>
       <r>    -5.2463     0.0000     2.0000 </r>
       <r>    -5.0449     0.0000     2.0000 </r>
       <r>    -4.8436     0.0000     2.0000 </r>
       <r>    -4.6423     0.0000     2.0000 </r>
       <r>    -4.4410     0.0000     2.0000 </r>
       <r>    -4.2397     0.0000     2.0000 </r>
       <r>    -4.0384     0.0000     2.0000 </r>
       <r>    -3.8371     0.0000     2.0000 </r>
       <r>    -3.6358     0.0000     2.0000 </r>
       <r>    -3.4345     0.0000     2.0000 </r>
       <r>    -3.2332     0.0000     2.0000 </r>
       <r>    -3.0319     0.0000     2.0000 </r>
       <r>    -2.8306     0.0000     2.0000 </r>
       <r>    -2.6293     0.0000     2.0000 </r>
       <r>    -2.4280     0.0000     2.0000 </r>
       <r>    -2.2266     0.0000     2.0000 </r>
       <r>    -2.0253     0.0000     2.0000 </r>
       <r>    -1.8240     0.0000     2.0000 </r>
       <r>    -1.6227     0.0000     2.0000 </r>
       <r>    -1.4214     0.0000     2.0000 </r>
       <r>    -1.2201     0.0000     2.0000 </r>
       <r>    -1.0188     0.0000     2.0000 </r>
       <r>    -0.8175     0.6672     2.1343 </r>
       <r>    -0.6162     0.2898     2.1926 </r>
       <r>    -0.4149     0.3958     2.2723 </r>
       <r>    -0.2136     2.5101     2.7776 </r>
       <r>    -0.0123     1.9588     3.1719 </r>
       <r>     0.1890     1.9296     3.5604 </r>
       <r>     0.3904     0.9383     3.7493 </r>
       <r>     0.5917     0.0036     3.7500 </r>
       <r>     0.7930     0.0000     3.7500 </r>
       <r>     0.9943     0.9816     3.9476 </r>
       <r>     1.1956     2.3821     4.4272 </r>
       <r>     1.3969     0.3619     4.5000 </r>
       <r>     1.5982     0.0002     4.5000 </r>
       <r>     1.7995     2.7000     5.0436 </r>
       <r>     2.0008     0.1287     5.0695 </r>
       <r>     2.2021     2.4728     5.5673 </r>
       <r>     2.4034     2.2392     6.0180 </r>
       <r>     2.6047     4.4714     6.9182 </r>
       <r>     2.8060     1.3564     7.1912 </r>
       <r>     3.0074     2.7514     7.7451 </r>
       <r>     3.2087     0.6460     7.8752 </r>
       <r>     3.4100     0.6179     7.9995 </r>
       <r>     3.6113     0.0023     8.0000 </r>
       <r>     3.8126     0.0000     8.0000 </r>
       <r>     4.0139     0.0000     8.0000 </r>
       <r>     4.2152     0.0000     8.0000 </r>
       <r>     4.4165     0.0000     8.0000 </r>
       <r>     4.6178     0.0000     8.0000 </r>
       <r>     4.8191     0.0000     8.0000 </r>
       <r>     5.0204     0.0000     8.0000 </r>
       <r>     5.2217     0.0000     8.0000 </r>
       <r>     5.4230     0.0000     8.0000 </r>
       <r>     5.6244     0.0000     8.0000 </r>
       <r>     5.8257     0.0000     8.0000 </r>
       <r>     6.0270     0.0000     8.0000 </r>
       <r>     6.2283     0.0000     8.0000 </r>
       <r>     6.4296     0.0000     8.0000 </r>
       <r>     6.6309     0.0000     8.0000 </r>
       <r>     6.8322     0.0000     8.0000 </r>
       <r>     7.0335     0.0000     8.0000 </r>
       <r>     7.2348     0.0000     8.0000 </r>
       <r>     7.4361     0.0000     8.0000 </r>
       <r>     7.6374     0.0000     8.0000 </r>
       <r>     7.8387     0.0000     8.0000 </r>
       <r>     8.0400     0.0000     8.0000 </r>
       <r>     8.2414     0.0000     8.0000 </r>
       <r>     8.4427     0.0000     8.0000 </r>
       <r>     8.6440     0.0000     8.0000 </r>
       <r>     8.8453     0.1946     8.0392 </r>
       <r>     9.0466     0.1158     8.0625 </r>
       <r>     9.2479     0.0000     8.0625 </r>
       <r>     9.4492     0.0000     8.0625 </r>
       <r>     9.6505     0.0000     8.0625 </r>
       <r>     9.8518     0.0000     8.0625 </r>
       <r>    10.0531     0.0000     8.0625 </r>
       <r>    10.2544     0.0000     8.0625 </r>
       <r>    10.4557     0.7692     8.2174 </r>
       <r>    10.6570     0.1622     8.2500 </r>
       <r>    10.8584     0.0000     8.2500 </r>
       <r>    11.0597     0.1968     8.2896 </r>
       <r>    11.2610     0.6914     8.4288 </r>
       <r>    11.4623     0.3537     8.5000 </r>
       <r>    11.6636     0.0000     8.5000 </r>
       <r>    11.8649     0.7279     8.6465 </r>
       <r>    12.0662     0.2035     8.6875 </r>
       <r>    12.2675     0.0071     8.6889 </r>
       <r>    12.4688     0.9238     8.8749 </r>
       <r>    12.6701     0.2286     8.9209 </r>
       <r>    12.8714     1.6564     9.2544 </r>
       <r>    13.0727     0.9100     9.4376 </r>
       <r>    13.2740     0.9228     9.6233 </r>
       <r>    13.4754     0.0083     9.6250 </r>
       <r>    13.6767     0.8669     9.7995 </r>
       <r>    13.8780     1.2144    10.0440 </r>
       <r>    14.0793     1.6361    10.3734 </r>
       <r>    14.2806     0.0082    10.3750 </r>
       <r>    14.4819     0.0000    10.3750 </r>
       <r>    14.6832     0.0000    10.3750 </r>
       <r>    14.8845     1.0226    10.5809 </r>
       <r>    15.0858     2.7031    11.1250 </r>
       <r>    15.2871     0.0465    11.1344 </r>
       <r>    15.4884     1.8394    11.5046 </r>
       <r>    15.6897     2.9069    12.0898 </r>
       <r>    15.8910     1.1062    12.3125 </r>
       <r>    16.0924     0.0513    12.3228 </r>
       <r>    16.2937     1.5744    12.6398 </r>
       <r>    16.4950     0.2371    12.6875 </r>
       <r>    16.6963     0.0000    12.6875 </r>
       <r>    16.8976     0.0000    12.6875 </r>
       <r>    17.0989     1.3275    12.9547 </r>
       <r>    17.3002     0.9334    13.1426 </r>
       <r>    17.5015     0.8420    13.3121 </r>
       <r>    17.7028     0.0019    13.3125 </r>
       <r>    17.9041     0.0000    13.3125 </r>
       <r>    18.1054     0.8694    13.4875 </r>
       <r>    18.3067     0.0620    13.5000 </r>
       <r>    18.5080     0.0000    13.5000 </r>
       <r>    18.7093     0.0602    13.5121 </r>
       <r>    18.9107     0.8712    13.6875 </r>
       <r>    19.1120     0.0000    13.6875 </r>
       <r>    19.3133     0.0003    13.6876 </r>
       <r>    19.5146     0.7226    13.8330 </r>
       <r>    19.7159     2.4317    14.3225 </r>
       <r>    19.9172     1.7346    14.6717 </r>
       <r>    20.1185     0.9992    14.8729 </r>
       <r>    20.3198     1.6878    15.2127 </r>
       <r>    20.5211     1.1424    15.4426 </r>
       <r>    20.7224     0.9059    15.6250 </r>
       <r>    20.9237     0.3322    15.6919 </r>
       <r>    21.1250     0.6052    15.8137 </r>
       <r>    21.3263     0.9511    16.0052 </r>
       <r>    21.5277     0.9061    16.1876 </r>
       <r>    21.7290     1.8306    16.5561 </r>
       <r>    21.9303     0.0318    16.5625 </r>
       <r>    22.1316     0.0003    16.5626 </r>
       <r>    22.3329     0.9212    16.7480 </r>
       <r>    22.5342     0.0099    16.7500 </r>
       <r>    22.7355     0.9035    16.9319 </r>
       <r>    22.9368     1.8826    17.3109 </r>
       <r>    23.1381     0.5594    17.4235 </r>
       <r>    23.3394     1.3115    17.6875 </r>
       <r>    23.5407     0.0000    17.6875 </r>
       <r>    23.7420     0.5977    17.8078 </r>
       <r>    23.9433     0.9468    17.9984 </r>
       <r>    24.1447     0.0081    18.0001 </r>
       <r>    24.3460     0.3088    18.0622 </r>
       <r>    24.5473     0.9609    18.2557 </r>
       <r>    24.7486     0.5927    18.3750 </r>
       <r>    24.9499     0.0094    18.3769 </r>
       <r>    25.1512     1.2283    18.6242 </r>
       <r>    25.3525     0.0042    18.6250 </r>
       <r>    25.5538     1.5673    18.9405 </r>
       <r>    25.7551     1.1861    19.1793 </r>
       <r>    25.9564     0.0409    19.1875 </r>
       <r>    26.1577     0.9419    19.3771 </r>
       <r>    26.3590     0.9209    19.5625 </r>
       <r>    26.5603     0.2665    19.6161 </r>
       <r>    26.7617     2.5278    20.1250 </r>
       <r>    26.9630     0.0033    20.1257 </r>
       <r>    27.1643     0.9424    20.3154 </r>
       <r>    27.3656     0.9187    20.5003 </r>
       <r>    27.5669     0.3087    20.5624 </r>
       <r>    27.7682     0.0002    20.5625 </r>
       <r>    27.9695     0.0000    20.5625 </r>
       <r>    28.1708     0.0000    20.5625 </r>
       <r>    28.3721     0.0000    20.5625 </r>
       <r>    28.5734     0.0000    20.5625 </r>
       <r>    28.7747     0.0005    20.5626 </r>
       <r>    28.9760     0.6439    20.6922 </r>
       <r>    29.1773     2.7021    21.2362 </r>
       <r>    29.3787     0.9987    21.4372 </r>
       <r>    29.5800     0.6770    21.5735 </r>
       <r>    29.7813     0.2558    21.6250 </r>
       <r>    29.9826     0.0000    21.6250 </r>
       <r>    30.1839     1.8817    22.0038 </r>
       <r>    30.3852     1.7757    22.3613 </r>
       <r>    30.5865     1.2025    22.6033 </r>
       <r>    30.7878     0.7286    22.7500 </r>
       <r>    30.9891     0.0000    22.7500 </r>
       <r>    31.1904     0.4457    22.8397 </r>
       <r>    31.3917     1.4171    23.1250 </r>
       <r>    31.5930     0.8719    23.3005 </r>
       <r>    31.7943     1.3910    23.5805 </r>
       <r>    31.9957     2.3944    24.0625 </r>
       <r>    32.1970     1.2985    24.3239 </r>
       <r>    32.3983     1.2733    24.5803 </r>
       <r>    32.5996     4.2053    25.4268 </r>
       <r>    32.8009     0.1759    25.4622 </r>
       <r>    33.0022     2.6807    26.0019 </r>
       <r>    33.2035     0.9217    26.1874 </r>
       <r>    33.4048     0.7903    26.3465 </r>
       <r>    33.6061     1.6938    26.6875 </r>
       <r>    33.8074     0.0000    26.6875 </r>
       <r>    34.0087     0.0000    26.6875 </r>
       <r>    34.2100     0.0000    26.6875 </r>
       <r>    34.4113     0.0000    26.6875 </r>
       <r>    34.6127     0.0000    26.6875 </r>
       <r>    34.8140     0.0000    26.6875 </r>
       <r>    35.0153     0.4509    26.7783 </r>
       <r>    35.2166     2.3430    27.2499 </r>
       <r>    35.4179     0.0004    27.2500 </r>
       <r>    35.6192     0.8251    27.4161 </r>
       <r>    35.8205     2.7640    27.9725 </r>
       <r>    36.0218     0.7135    28.1161 </r>
       <r>    36.2231     0.3544    28.1875 </r>
       <r>    36.4244     0.0012    28.1877 </r>
       <r>    36.6257     1.9364    28.5775 </r>
       <r>    36.8270     0.8567    28.7500 </r>
       <r>    37.0283     0.2182    28.7939 </r>
       <r>    37.2297     0.4028    28.8750 </r>
       <r>    37.4310     0.7987    29.0358 </r>
       <r>    37.6323     1.0694    29.2511 </r>
       <r>    37.8336     0.9254    29.4374 </r>
       <r>    38.0349     0.8065    29.5997 </r>
       <r>    38.2362     1.0570    29.8125 </r>
       <r>    38.4375     0.8605    29.9857 </r>
       <r>    38.6388     0.0709    30.0000 </r>
       <r>    38.8401     0.0000    30.0000 </r>
       <r>    39.0414     0.2139    30.0431 </r>
       <r>    39.2427     3.7884    30.8057 </r>
       <r>    39.4440     0.0338    30.8125 </r>
       <r>    39.6453     0.0000    30.8125 </r>
       <r>    39.8466     0.0000    30.8125 </r>
       <r>    40.0480     0.0000    30.8125 </r>
       <r>    40.2493     0.0070    30.8139 </r>
       <r>    40.4506     0.9239    30.9999 </r>
       <r>    40.6519     0.0005    31.0000 </r>
       <r>    40.8532     0.0000    31.0000 </r>
       <r>    41.0545     0.1600    31.0322 </r>
       <r>    41.2558     1.5517    31.3446 </r>
       <r>    41.4571     3.2555    31.9999 </r>
       <r>    41.6584     0.0003    32.0000 </r>
       <r>    41.8597     0.0000    32.0000 </r>
       <r>    42.0610     0.0000    32.0000 </r>
       <r>    42.2623     0.0000    32.0000 </r>
       <r>    42.4636     0.0000    32.0000 </r>
       <r>    42.6650     0.0000    32.0000 </r>
       <r>    42.8663     0.0000    32.0000 </r>
       <r>    43.0676     0.0000    32.0000 </r>
       <r>    43.2689     0.0000    32.0000 </r>
       <r>    43.4702     0.0000    32.0000 </r>
       <r>    43.6715     0.0000    32.0000 </r>
       <r>    43.8728     0.0000    32.0000 </r>
       <r>    44.0741     0.0000    32.0000 </r>
      </set>
     </set>
    </array>
   </total>
  </dos>
 </calculation>
 <structure name="finalpos" >
  <crystal>
   <varray name="basis" >
    <v>       3.00181900       0.00000000       0.00000000 </v>
    <v>       1.50091000       2.59965200       0.00000000 </v>
    <v>       1.50091000       0.86655100       2.45097500 </v>
   </varray>
   <i name="volume">     19.12663627 </i>
   <varray name="rec_basis" >
    <v>       0.33313134      -0.19233350      -0.13600032 </v>
    <v>       0.00000000       0.38466687      -0.13600035 </v>
    <v>       0.00000000       0.00000000       0.40800090 </v>
   </varray>
  </crystal>
  <varray name="positions" >
   <v>       0.50000000       0.50000000       0.50000000 </v>
   <v>       0.00000000       0.00000000       0.00000000 </v>
  </varray>
 </structure>
</modeling>
