       N       E                     dE             d eps       ncg     rms          rms(c)
DAV:   1    -0.281533989154E+03   -0.28153E+03   -0.10006E+04   480   0.585E+02
DAV:   2    -0.295926040708E+03   -0.14392E+02   -0.14392E+02   400   0.841E+01
DAV:   3    -0.296012155817E+03   -0.86115E-01   -0.86115E-01   448   0.553E+00
DAV:   4    -0.296012316622E+03   -0.16081E-03   -0.16081E-03   512   0.172E-01
DAV:   5    -0.296012316680E+03   -0.57403E-07   -0.57403E-07   416   0.288E-03    0.902E+01
DAV:   6    -0.642685073127E+02    0.23174E+03   -0.26575E+02   320   0.973E+01    0.376E+01
DAV:   7    -0.227120780757E+02    0.41556E+02   -0.39703E+02   480   0.729E+01    0.259E+01
DAV:   8    -0.213212152661E+02    0.13909E+01   -0.19214E+02   320   0.452E+01    0.166E+01
DAV:   9    -0.119249462415E+02    0.93963E+01   -0.33853E+01   336   0.185E+01    0.238E+00
DAV:  10    -0.119383231734E+02   -0.13377E-01   -0.19918E+00   400   0.583E+00    0.177E+00
DAV:  11    -0.118915696029E+02    0.46754E-01   -0.66492E-01   336   0.280E+00    0.497E-01
DAV:  12    -0.118858866794E+02    0.56829E-02   -0.36788E-02   416   0.722E-01    0.611E-02
DAV:  13    -0.118859013299E+02   -0.14651E-04   -0.18735E-03   336   0.201E-01    0.507E-02
DAV:  14    -0.118858676388E+02    0.33691E-04   -0.34110E-04   384   0.713E-02    0.855E-03
DAV:  15    -0.118858668286E+02    0.81015E-06   -0.14336E-05   400   0.152E-02    0.237E-03
DAV:  16    -0.118858669356E+02   -0.10692E-06   -0.18581E-07   160   0.277E-03
   1 F= -.11885867E+02 E0= -.11885867E+02  d E =-.478693E-16
