# ['Ni']

28 atoms
1 atom types

    0.0000     2.4909 xlo xhi
    0.0000     4.3144 ylo yhi
    0.0000    28.4736 zlo zhi

    0.0000     0.0000     0.0000 xy xz yz

Atoms

1 1     0.0000     0.0000     0.0000
2 1     1.2455     2.1572     0.0000
3 1     1.2455     0.7191     2.0338
4 1     0.0000     2.8763     2.0338
5 1     0.0000     1.4381     4.0676
6 1     1.2455     3.5953     4.0676
7 1     0.0000     0.0000     6.1015
8 1     1.2455     2.1572     6.1015
9 1     1.2455     0.7191     8.1353
10 1     0.0000     2.8763     8.1353
11 1     0.0000     1.4381    10.1691
12 1     1.2455     3.5953    10.1691
13 1     0.0000     0.0000    12.2029
14 1     1.2455     2.1572    12.2029
15 1     0.0000     1.4381    14.2368
16 1     1.2455     3.5953    14.2368
17 1     0.0000     0.0000    16.2706
18 1     1.2455     2.1572    16.2706
19 1     1.2455     0.7191    18.3044
20 1     0.0000     2.8763    18.3044
21 1     0.0000     1.4381    20.3383
22 1     1.2455     3.5953    20.3383
23 1     0.0000     0.0000    22.3721
24 1     1.2455     2.1572    22.3721
25 1     1.2455     0.7191    24.4059
26 1     0.0000     2.8763    24.4059
27 1     0.0000     1.4381    26.4397
28 1     1.2455     3.5953    26.4397
