# ['Ni']

28 atoms
1 atom types

    0.0000     2.5609 xlo xhi
    0.0000     4.4356 ylo yhi
    0.0000    29.2737 zlo zhi

    0.0000     0.0000     0.0000 xy xz yz

Atoms

1 1     0.0000     0.0000     0.0000
2 1     1.2805     2.2178     0.0000
3 1     1.2805     0.7393     2.0910
4 1     0.0000     2.9571     2.0910
5 1     0.0000     1.4785     4.1820
6 1     1.2805     3.6964     4.1820
7 1     0.0000     0.0000     6.2729
8 1     1.2805     2.2178     6.2729
9 1     1.2805     0.7393     8.3639
10 1     0.0000     2.9571     8.3639
11 1     0.0000     1.4785    10.4549
12 1     1.2805     3.6964    10.4549
13 1     0.0000     0.0000    12.5459
14 1     1.2805     2.2178    12.5459
15 1     0.0000     1.4785    14.6368
16 1     1.2805     3.6964    14.6368
17 1     0.0000     0.0000    16.7278
18 1     1.2805     2.2178    16.7278
19 1     1.2805     0.7393    18.8188
20 1     0.0000     2.9571    18.8188
21 1     0.0000     1.4785    20.9098
22 1     1.2805     3.6964    20.9098
23 1     0.0000     0.0000    23.0007
24 1     1.2805     2.2178    23.0007
25 1     1.2805     0.7393    25.0917
26 1     0.0000     2.9571    25.0917
27 1     0.0000     1.4785    27.1827
28 1     1.2805     3.6964    27.1827
