# ['Ni']

18 atoms
1 atom types

    0.0000     2.4708 xlo xhi
    0.0000     4.2795 ylo yhi
    0.0000    36.3071 zlo zhi

    0.0000     0.0000    -0.0004 xy xz yz

Atoms

1 1     0.0000     0.0000     0.0000
2 1     1.2354     0.7133     2.0171
3 1     0.0000     1.4265     4.0341
4 1     1.2354     2.1398     0.0000
5 1     0.0000     2.8530     2.0171
6 1     1.2354     3.5663     4.0341
7 1     0.0000     0.0000     6.0512
8 1     1.2354     0.7133     8.0682
9 1     0.0000     1.4265    10.0853
10 1     1.2354     2.1398     6.0512
11 1     0.0000     2.8530     8.0682
12 1     1.2354     3.5663    10.0853
13 1     0.0000     0.0000    12.1023
14 1     1.2354     0.7133    14.1194
15 1     0.0000     1.4265    16.1365
16 1     1.2354     2.1398    12.1023
17 1     0.0000     2.8530    14.1194
18 1     1.2354     3.5663    16.1365
