# ['Ni']

20 atoms
1 atom types

    0.0000     3.2094 xlo xhi
    0.0000     3.2094 ylo yhi
    0.0000    32.0936 zlo zhi

    0.0000    -0.0000     0.0000 xy xz yz

Atoms

1 1     0.0000     0.0000     0.0000
2 1     1.6047     1.6047     0.0000
3 1     1.6047     0.0000     1.6047
4 1     0.0000     1.6047     1.6047
5 1     0.0000     0.0000     3.2094
6 1     1.6047     1.6047     3.2094
7 1     1.6047     0.0000     4.8140
8 1     0.0000     1.6047     4.8140
9 1     0.0000     0.0000     6.4187
10 1     1.6047     1.6047     6.4187
11 1     1.6047     0.0000     8.0234
12 1     0.0000     1.6047     8.0234
13 1     0.0000     0.0000     9.6281
14 1     1.6047     1.6047     9.6281
15 1     1.6047     0.0000    11.2328
16 1     0.0000     1.6047    11.2328
17 1     0.0000     0.0000    12.8374
18 1     1.6047     1.6047    12.8374
19 1     1.6047     0.0000    14.4421
20 1     0.0000     1.6047    14.4421
