automatically generated by pyflamestk   
           1
     3.126099   -0.000000   -0.000000
    -0.000000    3.126099   -0.000000
    -0.000000    0.000000    3.126099
   Ni
   1
Direct configuration=     1
   0.00000000  0.00000000  0.00000000
automatically generated by pyflamestk   
           1
     2.228747   -0.000000   -0.000000
    -0.000000    2.228747   -0.000000
    -0.000000    0.000000    2.228747
   Ni
   1
Direct configuration=     2
   0.00000000  0.00000000  0.00000000
automatically generated by pyflamestk   
           1
     2.650650   -0.000000   -0.000000
    -0.000000    2.650650   -0.000000
    -0.000000    0.000000    2.650650
   Ni
   1
Direct configuration=     3
   0.00000000  0.00000000  0.00000000
automatically generated by pyflamestk   
           1
     2.441526   -0.000000   -0.000000
    -0.000000    2.441526   -0.000000
    -0.000000    0.000000    2.441526
   Ni
   1
Direct configuration=     4
   0.00000000  0.00000000  0.00000000
automatically generated by pyflamestk   
           1
     2.320574   -0.000000   -0.000000
    -0.000000    2.320574   -0.000000
    -0.000000    0.000000    2.320574
   Ni
   1
Direct configuration=     5
   0.00000000  0.00000000  0.00000000
automatically generated by pyflamestk   
           1
     2.362195   -0.000000   -0.000000
    -0.000000    2.362195   -0.000000
    -0.000000    0.000000    2.362195
   Ni
   1
Direct configuration=     6
   0.00000000  0.00000000  0.00000000
automatically generated by pyflamestk   
           1
     2.357120   -0.000000   -0.000000
    -0.000000    2.357120   -0.000000
    -0.000000    0.000000    2.357120
   Ni
   1
Direct configuration=     7
   0.00000000  0.00000000  0.00000000
automatically generated by pyflamestk   
           1
     2.357237   -0.000000   -0.000000
    -0.000000    2.357237   -0.000000
    -0.000000    0.000000    2.357237
   Ni
   1
Direct configuration=     8
   0.00000000  0.00000000  0.00000000
automatically generated by pyflamestk   
           1
     2.357140   -0.000000   -0.000000
    -0.000000    2.357140   -0.000000
    -0.000000    0.000000    2.357140
   Ni
   1
Direct configuration=     9
   0.00000000  0.00000000  0.00000000
automatically generated by pyflamestk   
           1
     2.357123   -0.000000   -0.000000
    -0.000000    2.357123   -0.000000
    -0.000000    0.000000    2.357123
   Ni
   1
Direct configuration=    10
   0.00000000  0.00000000  0.00000000
automatically generated by pyflamestk   
           1
     2.357132   -0.000000   -0.000000
    -0.000000    2.357132   -0.000000
    -0.000000    0.000000    2.357132
   Ni
   1
Direct configuration=    11
   0.00000000  0.00000000  0.00000000
automatically generated by pyflamestk   
           1
     2.357126   -0.000000   -0.000000
    -0.000000    2.357126   -0.000000
    -0.000000    0.000000    2.357126
   Ni
   1
Direct configuration=    12
   0.00000000  0.00000000  0.00000000
automatically generated by pyflamestk   
           1
     2.357125   -0.000000   -0.000000
    -0.000000    2.357125   -0.000000
    -0.000000    0.000000    2.357125
   Ni
   1
Direct configuration=    13
   0.00000000  0.00000000  0.00000000
automatically generated by pyflamestk   
           1
     2.357124   -0.000000   -0.000000
    -0.000000    2.357124   -0.000000
    -0.000000    0.000000    2.357124
   Ni
   1
Direct configuration=    14
   0.00000000  0.00000000  0.00000000
automatically generated by pyflamestk   
           1
     2.357124   -0.000000   -0.000000
    -0.000000    2.357124   -0.000000
    -0.000000    0.000000    2.357124
   Ni
   1
Direct configuration=    15
   0.00000000  0.00000000  0.00000000
automatically generated by pyflamestk   
           1
     2.357123   -0.000000   -0.000000
    -0.000000    2.357123   -0.000000
    -0.000000    0.000000    2.357123
   Ni
   1
Direct configuration=    16
   0.00000000  0.00000000  0.00000000
automatically generated by pyflamestk   
           1
     2.357123   -0.000000   -0.000000
    -0.000000    2.357123   -0.000000
    -0.000000    0.000000    2.357123
   Ni
   1
Direct configuration=    17
   0.00000000  0.00000000  0.00000000
automatically generated by pyflamestk   
           1
     2.357123   -0.000000   -0.000000
    -0.000000    2.357123   -0.000000
    -0.000000    0.000000    2.357123
   Ni
   1
Direct configuration=    18
   0.00000000  0.00000000  0.00000000
automatically generated by pyflamestk   
           1
     3.508000    0.000000    0.000000
     0.000000    3.508000    0.000000
     0.000000    0.000000    3.508000
   Ni
   1
Direct configuration=    19
   0.00000000  0.00000000  0.00000000
