LAMMPS (12 Dec 2018)
# ---- initialize simulations
clear
units metal
dimension 3
boundary p p p
atom_style atomic
atom_modify map array
# ---- create atoms
read_data /Users/eugeneragasa/repos/pypospack/dev/workflow/LammpsThermalExpansion/Si_dia_unit.thermal_expansion/Si_dia_unit.npt_T1000_P0/lammps.structure
  triclinic box = (0 0 0) to (5.43 5.43 5.43) with tilt (0 0 0)
  1 by 1 by 1 MPI processor grid
  reading atoms ...
  8 atoms
replicate 10 10 10
  triclinic box = (0 0 0) to (54.3 54.3 54.3) with tilt (0 0 0)
  1 by 1 by 1 MPI processor grid
  8000 atoms
  Time spent = 0.000849962 secs
change_box all x scale 1 y scale 1 z scale 1 remap
  triclinic box = (0 0 0) to (54.3 54.3 54.3) with tilt (0 0 0)
  triclinic box = (0 0 0) to (54.3 54.3 54.3) with tilt (0 0 0)
  triclinic box = (0 0 0) to (54.3 54.3 54.3) with tilt (0 0 0)
# ---- define interatomic potential
include potential.mod
mass 1 28.086

group Si type 1
8000 atoms in group Si

pair_style sw
pair_coeff * * Si.parameters Si


neighbor 1.0 bin
neigh_modify every 1 delay 0 check yes
# ---- define settings
compute eng all pe/atom
compute eatoms all reduce sum c_eng
# ---- run minimization
reset_timestep 0
fix 1 all box/relax iso 0.0 vmax 0.001
thermo 10
thermo_style custom step pe lx ly lz xy xz yz press pxx pyy pzz pxy pxz pyz c_eatoms
min_style cg
minimize 1e-25 1e-25 5000 10000
Neighbor list info ...
  update every 1 steps, delay 0 steps, check yes
  max neighbors/atom: 2000, page size: 100000
  master list distance cutoff = 4.77118
  ghost atom cutoff = 4.77118
  binsize = 2.38559, bins = 23 23 23
  1 neighbor lists, perpetual/occasional/extra = 1 0 0
  (1) pair sw, perpetual
      attributes: full, newton on
      pair build: full/bin/atomonly
      stencil: full/bin/3d
      bin: standard
Per MPI rank memory allocation (min/avg/max) = 5.26 | 5.26 | 5.26 Mbytes
Step PotEng Lx Ly Lz Xy Xz Yz Press Pxx Pyy Pzz Pxy Pxz Pyz c_eatoms 
       0   -34697.586         54.3         54.3         54.3            0            0            0    532.64171    532.64171    532.64171    532.64171 4.4249959e-10 4.4274437e-10 4.4239356e-10   -34697.586 
       3     -34697.6    54.309498    54.309498    54.309498            0            0            0 -1.0569038e-05 -1.0569038e-05 -1.0569038e-05 -1.0569039e-05 -2.0573232e-10 -1.9812815e-10 -1.9812815e-10     -34697.6 
Loop time of 0.04334 on 1 procs for 3 steps with 8000 atoms

98.3% CPU use with 1 MPI tasks x no OpenMP threads

Minimization stats:
  Stopping criterion = energy tolerance
  Energy initial, next-to-last, final = 
        -34697.5860368     -34697.5999993     -34697.5999993
  Force two-norm initial, final = 159.678 3.16955e-06
  Force max component initial, final = 159.678 3.16955e-06
  Final line search alpha, max atom move = 0.910682 2.88645e-06
  Iterations, force evaluations = 3 6

MPI task timing breakdown:
Section |  min time  |  avg time  |  max time  |%varavg| %total
---------------------------------------------------------------
Pair    | 0.039673   | 0.039673   | 0.039673   |   0.0 | 91.54
Neigh   | 0          | 0          | 0          |   0.0 |  0.00
Comm    | 0.00041866 | 0.00041866 | 0.00041866 |   0.0 |  0.97
Output  | 0          | 0          | 0          |   0.0 |  0.00
Modify  | 0          | 0          | 0          |   0.0 |  0.00
Other   |            | 0.003248   |            |       |  7.49

Nlocal:    8000 ave 8000 max 8000 min
Histogram: 1 0 0 0 0 0 0 0 0 0
Nghost:    4995 ave 4995 max 4995 min
Histogram: 1 0 0 0 0 0 0 0 0 0
Neighs:    0 ave 0 max 0 min
Histogram: 1 0 0 0 0 0 0 0 0 0
FullNghs:  224000 ave 224000 max 224000 min
Histogram: 1 0 0 0 0 0 0 0 0 0

Total # of neighbors = 224000
Ave neighs/atom = 28
Neighbor list builds = 0
Dangerous builds = 0
unfix 1
#------------------------------------------------------------------------------
# RUN THERMOSTAT
# running using an NPT Nose-Hoover style thermostat
#------------------------------------------------------------------------------
variable tempdamp equal 0.1
variable pressdamp equal 1.0

timestep 0.001
# set thermo -----------------------------------------------------------------
thermo 100
thermo_style custom step temp pe ke etotal press lx ly lz press pxx pyy pzz pxy pxz pyz vol
thermo_modify flush yes
# set averaging ---------------------------------------------------------------
variable boxx equal lx
variable boxy equal ly
variable boxz equal lz
variable boxp equal press
variable boxt equal temp
# calculate averages every 10000 steps
# set initial velocities ------------------------------------------------------
reset_timestep 0
velocity all create 1000 4118346 mom yes dist gaussian loop all
# ramping the temperature
# fix for Nose-Hoover style thermostat ----------------------------------------
fix npt1 all npt temp 1000 1000 0.1 aniso 0.0 0.0 1.0 drag 1.0 couple xyz
fix npt1out all ave/time 1 500 500 v_boxx v_boxy v_boxz v_boxp v_boxt file lattice1.out
run 10000
Per MPI rank memory allocation (min/avg/max) = 4.26 | 4.26 | 4.26 Mbytes
Step Temp PotEng KinEng TotEng Press Lx Ly Lz Press Pxx Pyy Pzz Pxy Pxz Pyz Volume 
       0         1000     -34697.6    1033.9519   -33663.648    6894.3301    54.309498    54.309498    54.309498    6894.3301    6801.7881    6900.0709    6981.1313   -19.505331    154.49556   -26.267767    160187.03 
     100    544.05003   -34174.013    562.52156   -33611.492   -1202.4391    54.450067    54.450067    54.450067   -1202.4391   -1222.2354   -1188.9554   -1196.1263   -854.32769    1081.4752   -1526.9134    161434.09 
     200    455.49636   -34015.125    470.96132   -33544.164   -1652.2555    54.463045    54.463045    54.463045   -1652.2555   -1698.7043    -1628.356   -1629.7062   -46.856987   -111.67691    254.77844    161549.55 
     300    562.02304   -34055.868    581.10479   -33474.763    3255.7205    54.372792    54.372792    54.372792    3255.7205     3412.687    3185.6328    3168.8418    563.43135   -914.18506     1611.612    160747.75 
     400    636.60195    -34063.32     658.2158   -33405.104   -943.32941    54.454565    54.454565    54.454565   -943.32941   -1020.1642   -894.82615   -914.99783    103.49524    198.25229    150.79366     161474.1 
     500    657.77809   -34015.069     680.1109   -33334.958   -1458.8863    54.467028    54.467028    54.467028   -1458.8863   -1446.3897   -1554.6111   -1375.6582   -766.33348    885.70219   -1678.7055       161585 
     600    698.89918   -33988.258    722.62813    -33265.63    1783.1959    54.415244    54.415244    54.415244    1783.1959    1837.7693    1853.9255    1657.8929    189.31324   -242.57563   -200.08787    161124.56 
     700    726.81129   -33949.244    751.48792   -33197.756   -545.12902    54.463753    54.463753    54.463753   -545.12902   -568.10673   -508.52684   -558.75348    781.64731   -1345.7344    1555.3327    161555.85 
     800    754.13561    -33911.38    779.73995    -33131.64   -965.29656    54.476902    54.476902    54.476902   -965.29656   -1026.2829   -932.53373   -937.07307   -299.11086    189.77807    31.858364    161672.89 
     900    759.08781   -33852.828    784.86028   -33067.968    1029.8361    54.443688    54.443688    54.443688    1029.8361    1120.9528    829.39227    1139.1633     -600.454    1525.3583   -1833.1421    161377.36 
    1000    800.03883   -33834.489    827.20167   -33007.287   -83.633894    54.475151    54.475151    54.475151   -83.633894   -32.424595   -171.71078   -46.766308    308.97829   -141.54169     407.6613     161657.3 
    1100    829.19162   -33806.984    857.34426   -32949.639   -783.57831    54.489212    54.489212    54.489212   -783.57831   -737.45995   -850.58667   -762.68831    841.37428   -1231.1347    1724.1452    161782.52 
    1200    857.42471   -33782.744     886.5359   -32896.208    938.97868    54.461854    54.461854    54.461854    938.97868    883.79748    1106.0055    827.13306   -403.36656     518.7823   -359.24546    161538.95 
    1300    863.03674   -33739.006    892.33847   -32846.668   -323.23569    54.487676    54.487676    54.487676   -323.23569    -288.3619   -220.01889   -461.32628    -851.7419    1189.9494   -1945.0553    161768.83 
    1400      888.236   -33719.595     918.3933   -32801.202   -995.12801    54.498191    54.498191    54.498191   -995.12801   -1099.3702   -916.02069   -969.99311     710.3341    -719.4843    467.39013    161862.51 
    1500     909.2736   -33700.632    940.14517   -32760.486    686.09275    54.474348    54.474348    54.474348    686.09275    783.58099    605.98848    668.70877    1001.7219   -1009.2731      1676.25    161650.15 
    1600    945.31776     -33702.3     977.4131   -32724.887   -396.19902    54.499177    54.499177    54.499177   -396.19902   -63.315358   -292.25775   -833.02395   -964.11877    970.47225     -879.616    161871.29 
    1700    950.00673   -33675.726    982.26126   -32693.465   -533.58032    54.504855    54.504855    54.504855   -533.58032   -385.17266   -618.27638   -597.29192   -210.77557    827.75844   -1064.9449    161921.89 
    1800    941.22453   -33640.235    973.18089   -32667.054    613.64713    54.482416    54.482416    54.482416    613.64713    576.44528    718.48012    546.01598    493.45186   -807.24137    714.87689    161721.99 
    1900    981.29955    -33659.17    1014.6165   -32644.554    -229.3962    54.505602    54.505602    54.505602    -229.3962   -275.23072   -166.08479   -246.87308    41.537614   -493.44107    1613.4719    161928.55 
    2000    973.15742   -33630.016     1006.198   -32623.818   -283.02193    54.506983    54.506983    54.506983   -283.02193   -302.83828   -172.73175   -373.49575   -134.00355    1197.4037    -1146.659    161940.86 
    2100     994.0299   -33639.136    1027.7791   -32611.357    762.79179    54.490415    54.490415    54.490415    762.79179     1078.148    599.94597     610.2814   -227.77357    773.10627   -648.54249    161793.23 
    2200    1021.0102   -33652.425    1055.6754   -32596.749    230.72052    54.505991    54.505991    54.505991    230.72052    290.50571    607.96638   -206.31053    257.72312   -861.92327    1494.0463    161932.02 
    2300    1019.9147   -33641.649    1054.5428   -32587.106     268.0142    54.505456    54.505456    54.505456     268.0142    86.698917    441.47151    275.87218    566.51499   -675.54993    555.69888    161927.24 
    2400    1006.8988   -33625.718    1041.0849   -32584.633    588.24656      54.4971      54.4971      54.4971    588.24656    573.71245    566.03028    624.99695   -421.26519     1025.178   -1611.0629    161852.78 
    2500    990.30831   -33608.348    1023.9312   -32584.417   -343.05177    54.509669    54.509669    54.509669   -343.05177   -74.591198   -351.01411      -603.55   -923.17643    252.46022    380.09061    161964.79 
    2600    1035.3655   -33649.607    1070.5182   -32579.089    650.54552    54.500719    54.500719    54.500719    650.54552    844.86828    653.29481    453.47348    212.89464    -549.7184    1475.7296    161885.03 
    2700    1000.1953   -33614.151    1034.1538   -32579.997    181.21312    54.500854    54.500854    54.500854    181.21312    193.51096   -4.3282204    354.45663    481.99427    222.78724   -1279.6081    161886.24 
    2800    993.25246   -33606.402    1026.9753   -32579.427   -218.57973    54.507104    54.507104    54.507104   -218.57973    -163.6311   -394.29478   -97.813321   -188.52934    498.11373    -1076.042    161941.94 
    2900    990.49588   -33606.257    1024.1251   -32582.132   -366.86115    54.506463    54.506463    54.506463   -366.86115   -172.71857   -598.02405   -329.84083   -820.79751   -628.76208    1895.3616    161936.22 
    3000    988.20953   -33601.754    1021.7611   -32579.993    372.15614    54.496915    54.496915    54.496915    372.15614    618.93397    205.99276    291.54169    10.133162    312.12304    1055.9563    161851.14 
    3100    993.03469   -33608.861    1026.7501   -32582.111   -325.47776     54.50736     54.50736     54.50736   -325.47776   -138.25644   -232.23979   -605.93707    864.59032    1037.6091   -2205.6019    161944.22 
    3200    972.97496   -33586.713    1006.0093   -32580.703   -152.76971    54.503145    54.503145    54.503145   -152.76971    -178.7695    23.950061   -303.48969   -16.964333    17.009621   -457.99741    161906.65 
    3300    1016.3235   -33629.643    1050.8297   -32578.814    391.91672    54.497019    54.497019    54.497019    391.91672    473.90704    267.40468    434.43843   -666.79477   -878.99894    2251.5881    161852.06 
    3400    1005.5462   -33620.106    1039.6864   -32580.419   -136.52998    54.507829    54.507829    54.507829   -136.52998   -64.016722   -109.12004   -236.45318    70.423915    297.49353   -424.92621     161948.4 
    3500    1000.9697   -33614.173    1034.9545   -32579.219   -39.431334    54.503108    54.503108    54.503108   -39.431334   -21.820991    17.313728   -113.78674    748.40124    1332.9003   -1567.0643    161906.32 
    3600    1026.3716   -33640.146    1061.2189   -32578.927    879.57052    54.496692    54.496692    54.496692    879.57052    750.54624    880.61483    1007.5505    22.470099   -777.48061    645.93348    161849.15 
    3700    1010.4433   -33626.306    1044.7498   -32581.557   -431.68299    54.512946    54.512946    54.512946   -431.68299   -342.89647   -827.54658   -124.60591   -630.14835   -1399.3106    1627.7373    161994.01 
    3800    1013.9616   -33626.258    1048.3875   -32577.871    735.57268    54.493772    54.493772    54.493772    735.57268    771.54761    730.44375    704.72668    465.89083    975.67773   -1226.4463    161823.14 
    3900    998.90076   -33611.936    1032.8153    -32579.12    124.02588    54.502364    54.502364    54.502364    124.02588    188.01648    88.741406    95.319772    617.15874    1170.1738   -914.00085    161899.69 
    4000    959.43853    -33573.02    992.01329   -32581.006   -808.13477    54.513347    54.513347    54.513347   -808.13477   -836.37148   -824.10407   -763.92876   -775.70716   -1425.7818     1381.704    161997.59 
    4100    990.42593   -33603.558    1024.0528   -32579.506    199.38025    54.496443    54.496443    54.496443    199.38025    24.690134    307.78197    265.66866   -91.461627   -873.75517    267.60885    161846.94 
    4200     993.1136    -33609.79    1026.8317   -32582.958    -204.1336    54.505703    54.505703    54.505703    -204.1336   -387.28624    23.818884   -248.93344     396.8594    1403.8213   -930.15825    161929.45 
    4300    1011.7938   -33626.834    1046.1461   -32580.688   -79.309837    54.506805    54.506805    54.506805   -79.309837   -229.86365   -104.74892    96.683059    605.63506    254.35299     49.53421    161939.27 
    4400     1013.507   -33626.174    1047.9175   -32578.256    652.86878     54.49595     54.49595     54.49595    652.86878    283.41376    933.71329    741.47928    -264.9149   -1699.2484    1074.1158    161842.54 
    4500    1002.3823   -33616.654    1036.4151   -32580.239   -451.14935    54.507968    54.507968    54.507968   -451.14935   -192.55441   -607.33106   -553.56259   -451.83111     346.9098     -820.339    161949.64 
    4600    1025.1515   -33638.194    1059.9573   -32578.237    322.52316    54.502293    54.502293    54.502293    322.52316    544.46179    104.07256    319.03511   -204.50147    1481.3518   -426.25362    161899.05 
    4700    993.84233   -33608.465    1027.5852    -32580.88     127.6402    54.501276    54.501276    54.501276     127.6402    184.84634   -111.89364     309.9679    498.97184   -839.22493    401.64112    161889.99 
    4800    982.79045   -33598.202    1016.1581   -32582.044   -445.90127    54.505853    54.505853    54.505853   -445.90127   -362.51093   -678.88487   -296.30803    220.21143   -547.84005    321.40445    161930.79 
    4900    1004.4379   -33618.705    1038.5405   -32580.164   -112.62081    54.502212    54.502212    54.502212   -112.62081   -33.124311   -249.09264   -55.645471   -694.64234    701.35724   -548.28722    161898.34 
    5000    997.42557    -33612.59    1031.2901     -32581.3   -113.18375    54.502243    54.502243    54.502243   -113.18375   -369.51764    403.38645   -373.42004    750.33805    76.865426   -161.46221    161898.62 
    5100    998.97593   -33611.333    1032.8931    -32578.44    194.26716    54.502437    54.502437    54.502437    194.26716    61.450783    381.23428    140.11641    415.30981   -971.43999    214.37583    161900.34 
    5200    990.78971   -33604.327    1024.4289   -32579.898    224.52978    54.501869    54.501869    54.501869    224.52978    223.61385    154.39236    295.58314   -397.79205    411.41724    82.864276    161895.28 
    5300      1000.25   -33615.402    1034.2104   -32581.192   -170.70057    54.502653    54.502653    54.502653   -170.70057   -130.20426   -261.92191   -119.97555   -345.67362    445.91166   -270.31877    161902.26 
    5400    1021.6254   -33634.938    1056.3116   -32578.626    240.77506    54.499216    54.499216    54.499216    240.77506     444.9799    110.53458    166.81071    447.74907   -273.69066    -535.6118    161871.64 
    5500    1005.6817   -33620.771    1039.8265   -32580.945   -146.30033    54.504819    54.504819    54.504819   -146.30033   -180.12625   -54.613886   -204.16087    522.29111   -439.38778      231.786    161921.57 
    5600    999.60645   -33611.889     1033.545   -32578.344    156.19187     54.49786     54.49786     54.49786    156.19187    325.16417    351.08809   -207.67664   -566.19393    62.460922   -254.94471    161859.56 
    5700    1002.4255   -33615.391    1036.4598   -32578.931    136.06422    54.501243    54.501243    54.501243    136.06422    214.89463     167.2636    26.034422   -145.80781    393.08012   -183.85385     161889.7 
    5800    1020.5752   -33635.358    1055.2257   -32580.132   -242.59675    54.507973    54.507973    54.507973   -242.59675   -359.32633   -31.645065   -336.81887    467.97759   -978.81365    493.06418    161949.69 
    5900    998.56036   -33612.722    1032.4634   -32580.259    259.03217    54.493992    54.493992    54.493992    259.03217    230.77678    275.34612    270.97361   -197.77596   -440.72097    295.42588     161825.1 
    6000    1004.6219    -33617.39    1038.7307   -32578.659    465.17289    54.498928    54.498928    54.498928    465.17289    257.10046    608.98426    529.43395   -1004.7831    939.40162   -202.56399    161869.07 
    6100    1011.3872   -33625.114    1045.7258   -32579.389   -333.26952    54.510496    54.510496    54.510496   -333.26952   -334.11734   -449.95424   -215.73698    899.18751   -229.07146    -493.9831    161972.17 
    6200    1009.4633   -33621.863    1043.7365   -32578.126    378.70216    54.491989    54.491989    54.491989    378.70216    478.31888    270.08414    387.70347    827.93261     -813.488   -51.754456    161807.25 
    6300    987.90019   -33602.426    1021.4413   -32580.984   -12.430514    54.502563    54.502563    54.502563   -12.430514   -22.961965    50.654373   -64.983951   -282.07062    519.60832    772.60103    161901.46 
    6400    974.74116   -33587.767    1007.8355   -32579.932   -429.93474    54.507247    54.507247    54.507247   -429.93474    -537.1872    -149.0386   -603.57843   -679.61184    463.89703   -214.32364    161943.21 
    6500    1009.1716   -33621.434    1043.4349   -32577.999    624.55181     54.49198     54.49198     54.49198    624.55181    503.04366    694.80808     675.8037    920.63077   -561.48848    -774.0173    161807.17 
    6600    1001.2507   -33615.202     1035.245   -32579.957   -303.96729    54.505096    54.505096    54.505096   -303.96729   -338.48925   -470.01824   -103.39438    652.14741    154.25882    340.01162    161924.04 
    6700    998.56875   -33613.901    1032.4721   -32581.429   -402.94756     54.50662     54.50662     54.50662   -402.94756   -326.15765    -537.7499   -344.93512   -1393.7187    182.49025    538.13935    161937.62 
    6800    994.08508    -33607.54    1027.8362   -32579.704    229.25506    54.493315    54.493315    54.493315    229.25506    384.22931    243.33739    60.198471   -165.57153    -205.8551   -24.092366    161819.07 
    6900    981.72675   -33595.209    1015.0582   -32580.151    -355.4406    54.503183    54.503183    54.503183    -355.4406   -118.88828   -234.15938   -713.27415    1733.3397    188.70427   -522.28926    161906.99 
    7000    1003.5921   -33616.916     1037.666    -32579.25     -334.808    54.508878    54.508878    54.508878     -334.808   -223.73893   -463.88094   -316.80415   -3.3299137    189.50995    617.78789    161957.75 
    7100    1000.5627   -33616.034    1034.5337     -32581.5    310.77935    54.496219    54.496219    54.496219    310.77935    452.52404    161.26793    318.54607   -2157.3952     143.9667    660.00007    161844.94 
    7200    998.26714   -33611.898    1032.1602   -32579.738    232.73075    54.499322    54.499322    54.499322    232.73075    142.66555    597.70307    -42.17639     416.9888   -860.12133   -311.67756    161872.59 
    7300    999.65288   -33613.418     1033.593   -32579.825   -336.49359    54.509751    54.509751    54.509751   -336.49359   -401.98945   -281.16089   -326.33042    1632.6146    159.35924   -521.17783    161965.52 
    7400    985.57992     -33598.5    1019.0422   -32579.458    176.38494    54.496799    54.496799    54.496799    176.38494    205.29831    310.24674    13.609773   -518.84007    571.76818    -449.3219     161850.1 
    7500    999.00902    -33612.94    1032.9273   -32580.012    231.95687    54.498031    54.498031    54.498031    231.95687    321.59144    210.85074    163.42842   -1978.8593     -369.764    178.98656    161861.08 
    7600    996.80922    -33609.77    1030.6528   -32579.117   -312.15372    54.509298    54.509298    54.509298   -312.15372   -203.84117   -209.65117   -522.96881    1563.4453   -568.14845    90.396222    161961.49 
    7700     1003.337   -33615.816    1037.4022   -32578.414     296.8101     54.49839     54.49839     54.49839     296.8101    328.26713    498.37957    63.783593    1641.1949     373.6633   -330.14039    161864.28 
    7800    1004.3972   -33619.996    1038.4984   -32581.498    14.687462    54.502455    54.502455    54.502455    14.687462   -124.36651    72.397984    96.030912   -1889.6131    611.45716   -7.2888753     161900.5 
    7900    1012.1305   -33627.433    1046.4942   -32580.939   -275.75027     54.50746     54.50746     54.50746   -275.75027   -227.34882   -454.78315   -145.11883   -992.15031   -793.13264     183.6261    161945.11 
    8000    990.53185   -33603.806    1024.1623   -32579.644    200.72933    54.497589    54.497589    54.497589    200.72933    223.28818     269.4046    109.49522    2343.3438   -402.07822   -100.45773    161857.15 
    8100    987.34505   -33600.748    1020.8673   -32579.881   -197.62793    54.502876    54.502876    54.502876   -197.62793   -186.95647   -370.09788   -35.829422    381.96484    1290.2288   -335.15134    161904.25 
    8200    993.46617   -33607.413    1027.1962   -32580.217   -427.88896    54.508549    54.508549    54.508549   -427.88896   -387.94265   -694.57456   -201.14968   -1969.7042    380.81543    1239.3266    161954.81 
    8300    987.45432     -33603.5    1020.9803   -32582.519    210.61859     54.49737     54.49737     54.49737    210.61859    481.47198    235.23927   -84.855469    129.22902   -1253.7247   -280.41725    161855.19 
    8400     1000.573   -33615.458    1034.5443   -32580.914   -132.70343    54.500696    54.500696    54.500696   -132.70343   -289.35515    7.9597872   -116.71492    1944.3991    350.88758   -695.69756    161884.82 
    8500    1006.8744   -33620.355    1041.0597   -32579.296   -97.287759    54.505255    54.505255    54.505255   -97.287759   -193.65697   -138.70604    40.499737    -219.0065    1467.8625    112.38211    161925.45 
    8600      1013.74   -33626.798    1048.1584    -32578.64    405.59447    54.498779    54.498779    54.498779    405.59447    178.90694    474.16633    563.71015   -1559.3476   -700.90588    934.08372    161867.74 
    8700     1006.708   -33619.702    1040.8877   -32578.814     297.8328    54.499256    54.499256    54.499256     297.8328    114.81942    447.23728    331.44172     389.9678   -1416.4804   -151.21749       161872 
    8800    1000.9503   -33615.537    1034.9344   -32580.602   -358.79465    54.506087    54.506087    54.506087   -358.79465    -543.1441   -258.21953   -275.02032    932.99514    952.50343   -1275.0894    161932.87 
    8900    1000.8185   -33614.738    1034.7982    -32579.94    190.74473    54.497493    54.497493    54.497493    190.74473    47.232114    156.22895    368.77312   -805.57431    423.19456    611.41709    161856.28 
    9000    990.21265   -33603.404    1023.8323   -32579.572   -70.555508    54.500123    54.500123    54.500123   -70.555508   -285.63245     281.9587   -207.99277   -513.92609    -620.4194    921.96182    161879.72 
    9100    1007.6449   -33622.075    1041.8563   -32580.219   -308.04658    54.508147    54.508147    54.508147   -308.04658   -417.35305   -91.134886   -415.65182    949.37623   -160.19054   -552.47922    161951.23 
    9200    1005.2989   -33617.969    1039.4307   -32578.538    232.65063      54.4953      54.4953      54.4953    232.65063     361.5216    72.822671    263.60763   -382.01985   -411.28269   -872.18307    161836.75 
    9300    998.45231   -33609.928    1032.3517   -32577.576    130.89233    54.495863    54.495863    54.495863    130.89233    62.475183    72.237818      257.964    -481.9479    1019.5213    336.70297    161841.76 
    9400    984.44608     -33599.8    1017.8699    -32581.93   -895.05966    54.514942    54.514942    54.514942   -895.05966   -860.53264   -758.82367   -1065.8227    233.83501    61.348134    6.2348292    162011.81 
    9500    986.86056   -33600.719    1020.3663   -32580.353    209.12618    54.493861    54.493861    54.493861    209.12618     209.6136    349.43323    68.331712    600.62428   -714.19509    -515.2538    161823.93 
    9600    1015.9081   -33628.921    1050.4001   -32578.521      574.969    54.493534    54.493534    54.493534      574.969    541.96755    689.04016    493.89929    44.930704   -90.558583    560.33912    161821.02 
    9700    1005.5929   -33619.084    1039.7347   -32579.349   -728.62403    54.515816    54.515816    54.515816   -728.62403   -776.94462   -428.14203   -980.78544   -231.58536    572.79325    48.806321     162019.6 
    9800    996.20346   -33608.086    1030.0265   -32578.059    453.83937    54.490828    54.490828    54.490828    453.83937     585.0186    585.31149    191.18804   -319.05745    61.518367   -567.99568    161796.91 
    9900    1001.5788   -33615.903    1035.5843   -32580.319    496.27613    54.496677    54.496677    54.496677    496.27613    615.56929    334.13276    539.12635    539.71247   -534.16916    388.75949    161849.02 
   10000    985.71492   -33600.218    1019.1818   -32581.037   -840.11103    54.516638    54.516638    54.516638   -840.11103   -863.66262   -832.54313   -824.12734   -21.762378      212.511    150.25229    162026.92 
Loop time of 144.841 on 1 procs for 10000 steps with 8000 atoms

Performance: 5.965 ns/day, 4.023 hours/ns, 69.041 timesteps/s
99.8% CPU use with 1 MPI tasks x no OpenMP threads

MPI task timing breakdown:
Section |  min time  |  avg time  |  max time  |%varavg| %total
---------------------------------------------------------------
Pair    | 136.87     | 136.87     | 136.87     |   0.0 | 94.49
Neigh   | 4.1189     | 4.1189     | 4.1189     |   0.0 |  2.84
Comm    | 0.39855    | 0.39855    | 0.39855    |   0.0 |  0.28
Output  | 0.011948   | 0.011948   | 0.011948   |   0.0 |  0.01
Modify  | 3.0549     | 3.0549     | 3.0549     |   0.0 |  2.11
Other   |            | 0.3896     |            |       |  0.27

Nlocal:    8000 ave 8000 max 8000 min
Histogram: 1 0 0 0 0 0 0 0 0 0
Nghost:    4995 ave 4995 max 4995 min
Histogram: 1 0 0 0 0 0 0 0 0 0
Neighs:    0 ave 0 max 0 min
Histogram: 1 0 0 0 0 0 0 0 0 0
FullNghs:  217166 ave 217166 max 217166 min
Histogram: 1 0 0 0 0 0 0 0 0 0

Total # of neighbors = 217166
Ave neighs/atom = 27.1457
Neighbor list builds = 433
Dangerous builds = 0
# holding temperature here
# fix for Nose-Hoover style thermostat ----------------------------------------
fix npt2 all npt temp 1000 1000 0.1 aniso 0.0 0.0 1.0 drag 1.0 couple xyz
fix npt2out all ave/time 1 500 500 v_boxx v_boxy v_boxz v_boxp v_boxt file lattice2.out
compute rdf2 all rdf 50
fix rdf2out all ave/time 100 1 100 c_rdf2[*] file rdf2.out mode vector
run 10000# ---- define output variables ----
WARNING: One or more atoms are time integrated more than once (../modify.cpp:283)
Neighbor list info ...
  update every 1 steps, delay 0 steps, check yes
  max neighbors/atom: 2000, page size: 100000
  master list distance cutoff = 4.77118
  ghost atom cutoff = 4.77118
  binsize = 2.38559, bins = 23 23 23
  2 neighbor lists, perpetual/occasional/extra = 1 1 0
  (1) pair sw, perpetual
      attributes: full, newton on
      pair build: full/bin/atomonly
      stencil: full/bin/3d
      bin: standard
  (2) compute rdf, occasional, half/full from (1)
      attributes: half, newton on
      pair build: halffull/newton
      stencil: none
      bin: none
Per MPI rank memory allocation (min/avg/max) = 5.403 | 5.403 | 5.403 Mbytes
Step Temp PotEng KinEng TotEng Press Lx Ly Lz Press Pxx Pyy Pzz Pxy Pxz Pyz Volume 
   10000    985.71492   -33600.218    1019.1818   -32581.037   -840.11103    54.516638    54.516638    54.516638   -840.11103   -863.66262   -832.54313   -824.12734   -21.762378      212.511    150.25229    162026.92 
   10100    1286.6303   -33285.053    1330.3138   -31954.739    1275.4049    54.563647    54.563647    54.563647    1275.4049    941.13603     1494.642    1390.4366    144.88067   -510.30695   -287.03516    162446.43 
   10200    1597.7209   -32915.443    1651.9666   -31263.477   -1122.3298    54.718135    54.718135    54.718135   -1122.3298   -714.09014   -1533.0634   -1119.8359   -118.11763    305.98354    83.582479    163830.17 
   10300    1939.2825   -32528.654    2005.1248   -30523.529    1522.2672    54.782378    54.782378    54.782378    1522.2672    1807.5138     1027.681    1731.6068    1065.8928   -566.22218   -586.46564    164407.89 
   10400    2272.6305   -32139.159    2349.7906   -29789.369   -1486.4313    54.953678    54.953678    54.953678   -1486.4313   -1611.6617     -1197.61   -1650.0221    379.93479    1662.9141    -1725.979    165954.98 
   10500    2571.4217   -31771.231    2658.7264   -29112.505    1286.8979    55.005912    55.005912    55.005912    1286.8979    1078.6745    1596.3964    1185.6226    -1252.369   -978.38363    1442.2033    166428.66 
   10600    2825.8786   -31458.173    2921.8226    -28536.35   -1123.0262     55.13902     55.13902     55.13902   -1123.0262   -975.15286   -1038.6106   -1355.3152    1322.8457   -671.20426    1027.1576     167639.8 
   10700     2995.674   -31184.894    3097.3828   -28087.511    732.04249    55.159033    55.159033    55.159033    732.04249    628.32746    1102.2716    465.52846    1031.0198    964.14967   -3673.4963     167822.4 
   10800    3094.2797   -30973.418    3199.3363   -27774.082    32.219682    55.220559    55.220559    55.220559    32.219682    -644.1509   -109.77912    850.58906   -1857.4311    2777.7052    147.63825    168384.61 
   10900    3194.4639   -30878.685     3302.922   -27575.763   -932.37245    55.241524    55.241524    55.241524   -932.37245   -840.18958   -1720.1335   -236.79424   -1198.9935    790.10337    4625.6401    168576.47 
   11000    3240.7955   -30800.876    3350.8266   -27450.049    240.02774    55.234433    55.234433    55.234433    240.02774    14.741563   -165.91975     871.2614    1439.5721   -432.66583    -82.63745    168511.56 
   11100    3271.4136   -30762.105    3382.4843   -27379.621   -953.91613    55.260369    55.260369    55.260369   -953.91613   -633.65312   -1056.3799   -1171.7154    328.49772    2486.3081    -2292.243    168749.05 
   11200    3262.9593   -30711.443     3373.743     -27337.7     2481.632    55.205952    55.205952    55.205952     2481.632    1863.3171     2285.158    3296.4209    1153.3594    2073.6249   -2389.8542    168251.03 
   11300     3287.768   -30725.124    3399.3939    -27325.73   -1579.3161    55.272631    55.272631    55.272631   -1579.3161   -1141.8014   -1868.7955   -1727.3515    1969.1283   -1087.6434   -885.51676    168861.41 
   11400    3304.0043    -30729.79    3416.1816   -27313.609    1873.5444    55.201468    55.201468    55.201468    1873.5444     896.7561    2363.9809    2359.8962   -1288.4093   -1143.8056     406.2735    168210.03 
   11500    3244.3865   -30669.378    3354.5396   -27314.839   -1448.3745    55.267004    55.267004    55.267004   -1448.3745   -1649.3247   -839.77456   -1856.0243   -643.86028   -534.55704    493.36444    168809.85 
   11600    3227.6624   -30649.681    3337.2477   -27312.433    1824.0084    55.197056    55.197056    55.197056    1824.0084    1503.5162    2122.1795    1846.3295    1490.3128    1161.6237    -734.5316     168169.7 
   11700    3284.8577   -30712.622    3396.3849   -27316.237   -1663.8059    55.245293    55.245293    55.245293   -1663.8059   -2315.5704   -1224.5643   -1451.2831   -992.53641    1612.4167   -1781.9722    168610.98 
   11800    3255.4052   -30689.508    3365.9324   -27323.576    971.84082    55.186841    55.186841    55.186841    971.84082    493.22363    700.91181     1721.387   -1691.6566    264.69649   -200.88834    168076.34 
   11900    3253.1756   -30705.133    3363.6271   -27341.506   -615.23969    55.210571    55.210571    55.210571   -615.23969   -1645.7977   -335.29241    135.37102    547.93901   -754.17913   -397.22935    168293.26 
   12000    3240.4353   -30704.686    3350.4542   -27354.232   -239.62525    55.194574    55.194574    55.194574   -239.62525   -49.214717    19.144804   -688.80584    1253.7322     456.0251    737.57577    168147.02 
   12100    3253.5911   -30720.022    3364.0567   -27355.965     304.0427    55.192314    55.192314    55.192314     304.0427    107.13162    -69.43095    874.42741   -1195.1528    84.313746   -12.482246    168126.36 
   12200    3251.7735   -30727.463    3362.1774   -27365.285   -1211.8139    55.194872    55.194872    55.194872   -1211.8139   -1055.2077   -1815.7704   -764.46343    1.2691529   -1229.3934    51.671607    168149.73 
   12300     3242.737   -30724.388     3352.834   -27371.554    737.20129    55.175827    55.175827    55.175827    737.20129    1016.7215    454.95642    739.92595   -1065.7561    2416.6996    1471.2499    167975.74 
   12400    3231.0069    -30718.02    3340.7058   -27377.315   -1486.0569    55.214277    55.214277    55.214277   -1486.0569   -1103.1626   -1816.5874   -1538.4207    1388.9478    209.58241    435.93407    168327.15 
   12500    3249.0043    -30734.54    3359.3141   -27375.226    2022.3871    55.146091    55.146091    55.146091    2022.3871    2178.1525    1264.1556    2624.8532   -101.80458   -1763.7624   -2604.2918     167704.3 
   12600    3232.4195   -30724.499    3342.1663   -27382.332    -2011.897    55.235495    55.235495    55.235495    -2011.897   -2306.2964   -2379.0799   -1350.3146   -594.55765   -1647.1265   -986.07013    168521.28 
   12700    3282.6205    -30783.95    3394.0717   -27389.879    2625.7774    55.151227    55.151227    55.151227    2625.7774    2622.2491    1654.1169    3600.9663   -2284.0453    911.91539    1857.3958    167751.16 
   12800    3210.5666   -30708.663    3319.5714   -27389.091   -2616.0906    55.252187    55.252187    55.252187   -2616.0906   -2595.7597   -1699.2061    -3553.306    1146.7387    865.08573    837.44306    168674.11 
   12900    3239.2473   -30734.151    3349.2259   -27384.925     2348.645    55.148883    55.148883    55.148883     2348.645    2429.2848    2287.8879    2328.7622    1361.5069   -1512.7578   -2514.3273    167729.78 
   13000    3276.6263    -30757.48     3387.874   -27369.606   -1620.0743    55.229533    55.229533    55.229533   -1620.0743   -1881.1709   -944.76989   -2034.2822   -526.46353   -1822.7618    824.60831    168466.72 
   13100    3227.6567       -30699    3337.2418   -27361.759    1262.7011    55.177994    55.177994    55.177994    1262.7011     867.7821    1156.8669    1763.4544   -572.49535   -797.66497    1002.4943    167995.52 
   13200    3258.0639   -30715.944    3368.6814   -27347.263   -517.32486    55.208199    55.208199    55.208199   -517.32486   -390.80525   -1157.3166   -3.8527049    924.43343   -351.49807    2091.4575    168271.57 
   13300    3192.6088   -30662.621    3301.0039   -27361.617    -198.1246    55.192906    55.192906    55.192906    -198.1246    322.31784     69.30835   -985.99999    2673.7346   -404.89846   -1948.2844    168131.77 
   13400      3223.68   -30708.854    3333.1301   -27375.724    127.73869    55.163027    55.163027    55.163027    127.73869   -92.356087    245.72434    229.84781     1518.014    543.82607   -358.93613    167858.86 
   13500    3227.5301    -30724.21    3337.1108     -27387.1   -385.66679    55.190585    55.190585    55.190585   -385.66679   -389.85914   -657.85199   -109.28926    1104.5611    1994.2983    430.46204    168110.56 
   13600    3251.9495   -30747.253    3362.3593   -27384.894    247.65065    55.176496    55.176496    55.176496    247.65065   -379.61108    488.30837    634.25464    -2559.281   -589.21967    798.24962    167981.85 
   13700    3259.6916   -30753.356    3370.3643   -27382.992   -1230.7298    55.205919    55.205919    55.205919   -1230.7298   -1990.2544   -1134.7161   -567.21879   -1999.9062   -2350.6203    147.91158    168250.72 
   13800    3274.0457   -30758.881    3385.2058   -27373.675    453.24537    55.182728    55.182728    55.182728    453.24537    -61.68274    887.69201    533.72685    -160.6526    171.66438     2584.397    168038.77 
   13900     3241.204   -30717.889     3351.249    -27366.64   -542.57728    55.208861    55.208861    55.208861   -542.57728   -638.69653    -1073.505    84.469687   -2229.5577    1553.3365    69.841274    168277.62 
   14000    3204.8892   -30669.656    3313.7013   -27355.955    284.28202    55.211587    55.211587    55.211587    284.28202    404.09711    315.57037    133.17858    317.00764    2998.3225   -85.301886    168302.55 
   14100     3210.042   -30674.682     3319.029   -27355.653     353.8408    55.196465    55.196465    55.196465     353.8408    580.06281    149.71285    331.74672   -2840.5911   -526.46792   -2261.9955     168164.3 
   14200    3231.8838   -30694.238    3341.6123   -27352.625   -601.42879    55.207802    55.207802    55.207802   -601.42879   -550.74414    -1080.286   -173.25627   -1058.7236    466.58801   -2356.2557    168267.94 
   14300    3256.9606   -30718.243    3367.5406   -27350.702    1222.9968    55.182778    55.182778    55.182778    1222.9968    2160.0083     1201.717    307.26494    1752.0285   -466.60787   -1231.4667    168039.23 
   14400      3253.71   -30712.233    3364.1797   -27348.054   -160.12312    55.208938    55.208938    55.208938   -160.12312    183.77467    -130.3185   -533.82554   -1070.5088    1526.7319    1633.6504    168278.32 
   14500    3216.7584   -30674.831    3325.9735   -27348.857    443.61525    55.179884    55.179884    55.179884    443.61525    40.357338    1119.7536    170.73483   -2659.7926    1681.7363    1097.1239    168012.79 
   14600     3254.669   -30717.242    3365.1712    -27352.07    -392.9268    55.193116    55.193116    55.193116    -392.9268   -826.33324   -645.39893    292.95178    1524.2392   -661.37223    1776.3734    168133.68 
   14700    3267.7646   -30735.322    3378.7114    -27356.61    -1153.808    55.197765    55.197765    55.197765    -1153.808   -960.79466   -667.68387   -1832.9454    835.35533    99.933581   -726.17594    168176.18 
   14800    3246.5175    -30726.39    3356.7429   -27369.647    1044.2833    55.161633    55.161633    55.161633    1044.2833    1314.8577    1061.0672    756.92506   -710.81493   -889.11146   -415.82366    167846.13 
   14900    3193.2206    -30689.32    3301.6365   -27387.683   -1381.2965    55.208714    55.208714    55.208714   -1381.2965   -1492.8885    -1464.017    -1186.984   -453.28297   -1514.3669    1014.6973    168276.27 
   15000    3210.8139   -30705.047    3319.8272    -27385.22    1830.5282     55.15959     55.15959     55.15959    1830.5282    1249.5868    2132.9548    2109.0429   -1310.4893    433.70475   -382.78028    167827.49 
   15100    3252.4231   -30758.549     3362.849   -27395.699   -1960.0324    55.206461    55.206461    55.206461   -1960.0324   -2200.1643   -1854.4891   -1825.4439    370.21883   -640.46876    -1644.266    168255.67 
   15200    3224.9085   -30721.561    3334.4003    -27387.16    1756.5534    55.154983    55.154983    55.154983    1756.5534    1939.5477    1790.5139    1539.5985    265.16774    905.98368   -814.13905    167785.44 
   15300    3236.9168   -30727.363    3346.8163   -27380.546    -1949.845    55.218002    55.218002    55.218002    -1949.845   -1787.5685   -2109.5393   -1952.4271    441.75102    1559.4555   -1133.4247    168361.22 
   15400    3248.6177    -30720.13    3358.9144   -27361.216    1429.4841    55.173384    55.173384    55.173384    1429.4841    1118.1088    1442.0662    1728.2774    1153.1621   -570.52343    2755.7261    167953.42 
   15500    3260.8191   -30721.599    3371.5301   -27350.069   -2639.1048    55.243179    55.243179    55.243179   -2639.1048   -2988.7849   -2491.0078   -2437.5216    278.19741   -1313.2286   -548.37863    168591.62 
   15600    3276.3113   -30734.108    3387.5483    -27346.56    2310.0632    55.142243    55.142243    55.142243    2310.0632    2714.6452    2076.4247    2139.1198   -318.43035   -3917.5863     1399.417    167669.19 
   15700    3280.0441   -30738.932    3391.4079   -27347.524   -2759.7488    55.247704    55.247704    55.247704   -2759.7488    -2590.053   -3171.2649   -2517.9284   -1196.6531   -887.61215   -514.90973    168633.05 
   15800    3268.4175   -30740.723    3379.3865   -27361.336    2230.4821    55.145096    55.145096    55.145096    2230.4821    2527.6361    2169.7357    1994.0744   -1451.1717   -2206.5444     1717.899    167695.22 
   15900    3194.3745   -30669.185    3302.8296   -27366.356   -570.93175     55.21779     55.21779     55.21779   -570.93175   -598.02795   -1562.6207    447.85338    264.79604   -3159.7273    412.88668    168359.28 
   16000    3268.7179   -30743.703    3379.6971   -27364.006    396.87871    55.195476    55.195476    55.195476    396.87871    233.83452    733.16819    223.63341    1242.0248    220.97388   -4.8931186    168155.26 
   16100    3250.0026   -30710.342    3360.3464   -27349.996   -55.909099    55.202207    55.202207    55.202207   -55.909099    154.18426   -428.98468    107.07312    255.04408    2054.5696    451.95273    168216.78 
   16200    3289.8462   -30757.047    3401.5427   -27355.504    61.897307    55.212945    55.212945    55.212945    61.897307    502.73829    -251.7761   -65.270268   -1820.0808   -20.694506   -67.462296    168314.97 
   16300     3282.054   -30742.659     3393.486   -27349.173   -173.37641    55.203037    55.203037    55.203037   -173.37641    636.36181   -541.09235   -615.39868   -1012.0314   -2631.8505    -222.9611    168224.37 
   16400    3224.9788   -30682.406     3334.473   -27347.933   -53.345202    55.216761    55.216761    55.216761   -53.345202    198.60899    521.91274   -880.55734    -585.4465   -1630.2297    1015.4643    168349.87 
   16500     3293.206   -30750.969    3405.0166   -27345.952    155.51152     55.18147     55.18147     55.18147    155.51152    338.05101    -49.71412    178.19766   -1180.2161    2513.5548   -994.01362    168027.28 
   16600    3215.8887    -30672.28    3325.0742   -27347.206    611.60482     55.19014     55.19014     55.19014    611.60482     1447.948    154.14024    232.72623    1112.1607    1044.9723   -471.07915    168106.49 
   16700    3209.5325   -30658.907    3318.5022   -27340.405   -261.05478    55.215154    55.215154    55.215154   -261.05478   -456.25638     106.1639   -433.07187   -81.111488   -758.48999   -1229.3275    168335.17 
   16800    3262.3626   -30710.647     3373.126   -27337.521    1454.7518       55.163       55.163       55.163    1454.7518    1457.8774    2546.4741    359.90377    652.86938    32.929291    1482.0863    167858.62 
   16900    3272.6136   -30727.918    3383.7251   -27344.193   -1597.9659    55.219698    55.219698    55.219698   -1597.9659   -1972.8302   -1079.3692   -1741.6983    477.37396    426.92426     1731.608    168376.73 
   17000    3228.0227   -30696.761    3337.6202   -27359.141    985.43792    55.193769    55.193769    55.193769    985.43792    812.59815    621.60553    1522.1101    596.02483   -1633.9017    517.18785    168139.66 
   17100    3215.0387   -30692.632    3324.1954   -27368.437   -198.38695    55.207049    55.207049    55.207049   -198.38695   -288.30124   -432.17967    125.32008   -1215.1516    816.01747   -384.83043    168261.05 
   17200    3277.4984   -30750.406    3388.7757    -27361.63   -372.16102    55.205942    55.205942    55.205942   -372.16102   -862.81389    934.68597   -1188.3552   -459.57287    1948.9903   -1949.0687    168250.93 
   17300    3242.3609   -30707.764    3352.4452   -27355.319    511.48294    55.189219    55.189219    55.189219    511.48294   -34.698568    87.984779    1481.1626    1277.5011    920.01135    426.46854    168098.08 
   17400    3234.0278   -30701.015    3343.8292   -27357.186    -1282.274    55.217439    55.217439    55.217439    -1282.274   -1098.3587   -1239.5512    -1508.912    1956.7586   -996.52478    645.61159    168356.07 
   17500    3252.5604   -30729.113     3362.991   -27366.122     240.2793    55.167449    55.167449    55.167449     240.2793    199.13392   -275.90406    797.60804   -2843.5809   -275.67924   -1136.2358    167899.23 
   17600    3229.5623   -30714.047    3339.2121   -27374.835   -1024.0451    55.209032    55.209032    55.209032   -1024.0451      -1237.3   -422.61376   -1412.2216   -2747.2936    284.29097    396.00558    168279.18 
   17700     3291.202    -30783.31    3402.9446   -27380.366    188.08387    55.192864    55.192864    55.192864    188.08387   -74.741083   -275.97487    914.96758    1695.3589   -1271.1241   -633.64291    168131.38 
   17800     3234.782   -30730.452     3344.609   -27385.843    799.71867    55.185202    55.185202    55.185202    799.71867    108.46913    1235.3641    1055.3228    766.99261    639.51663   -312.12852    168061.37 
   17900    3239.7919   -30739.562    3349.7889   -27389.773   -805.47146    55.210204    55.210204    55.210204   -805.47146   -1769.0013   -196.36457   -451.04854    639.68951    1474.6222    405.74738     168289.9 
   18000    3251.9802   -30753.539    3362.3911   -27391.148    1244.4099    55.172052    55.172052    55.172052    1244.4099    1410.2633    1303.7584     1019.208     277.3818      204.901    1004.5929    167941.26 
   18100    3249.7109   -30750.611    3360.0447   -27390.566   -1444.7964    55.217637    55.217637    55.217637   -1444.7964   -570.38886   -2843.8042   -920.19606   -595.67564   -1747.0527   -1048.0329    168357.88 
   18200    3235.2835   -30734.971    3345.1275   -27389.844    2404.8256    55.156687    55.156687    55.156687    2404.8256    2591.2117    2187.6228    2435.6424    -862.0094   -3132.0418   -523.88572    167800.99 
   18300    3256.3716   -30753.586    3366.9316   -27386.655   -2146.1606    55.238975    55.238975    55.238975   -2146.1606   -1939.1193   -2120.2525   -2379.1101   -662.13217   -497.07627    -461.3696    168553.14 
   18400    3225.8346   -30720.078    3335.3578    -27384.72    3004.7979    55.158166    55.158166    55.158166    3004.7979     3459.157    2757.8431    2797.3935     328.3911   -116.78475   -1709.0199    167814.49 
   18500    3258.0681   -30749.621    3368.6857   -27380.935   -2760.9689    55.248886    55.248886    55.248886   -2760.9689   -2249.2605   -3193.5983    -2840.048    -4043.571     129.6073    307.40911    168643.88 
   18600    3217.4846   -30703.846    3326.7243   -27377.121    1424.4761    55.168993    55.168993    55.168993    1424.4761    2732.7566    1296.2864    244.38535   -1690.6369   -1521.3904    2446.9352    167913.33 
   18700    3219.6213   -30705.582    3328.9336   -27376.649   -1606.8773    55.228202    55.228202    55.228202   -1606.8773     -964.979   -1665.1564   -2190.4965    48.518895    1248.3284    616.01917    168454.53 
   18800    3275.1947   -30760.549    3386.3938   -27374.156    947.97729    55.172557    55.172557    55.172557    947.97729    382.59288    1281.8479    1179.4911   -427.70501   -824.72603    1047.1828    167945.87 
   18900     3244.001   -30728.715     3354.141   -27374.574   -839.35604    55.216669    55.216669    55.216669   -839.35604   -670.68914   -201.22921   -1646.1498     2410.607   -95.741531      373.093    168349.03 
   19000    3256.4253   -30741.076    3366.9871   -27374.089   -106.20387    55.185538    55.185538    55.185538   -106.20387    272.98976    409.28351   -1000.8849    1445.8198    888.65515    128.00516    168064.44 
   19100    3245.2316    -30731.13    3355.4134   -27375.717     954.3282    55.173257    55.173257    55.173257     954.3282    1331.6032     1342.384    188.99732   -1730.6915    940.94681   -838.33824    167952.27 
   19200    3251.8081   -30744.169    3362.2132   -27381.956   -1285.5137    55.211948    55.211948    55.211948   -1285.5137   -286.31252   -1106.1442   -2464.0845   -2044.5565    322.94071   -724.31324    168305.85 
   19300    3229.2533   -30718.609    3338.8926   -27379.716    2102.9459     55.16538     55.16538     55.16538    2102.9459    1840.9467    2583.8192    1884.0717    1541.2296     1878.954     -2453.71    167880.34 
   19400    3195.8535   -30679.244    3304.3588   -27374.886   -2453.3439    55.244181    55.244181    55.244181   -2453.3439   -2545.9695   -2727.2012   -2086.8611    1896.7565    148.70304   -723.28516    168600.79 
   19500    3229.9725   -30707.283    3339.6362   -27367.647    1255.8074    55.165129    55.165129    55.165129    1255.8074    649.75264    1077.0873    2040.5822    2640.9497   -1876.6392   -1166.1663    167878.05 
   19600    3251.8833    -30734.68    3362.2909   -27372.389   -452.26352     55.19935     55.19935     55.19935   -452.26352   -162.43548   -1140.3219   -54.033136    2236.6714    845.17871    270.48706    168190.67 
   19700    3265.5848   -30757.041    3376.4576   -27380.583    311.85318    55.171641    55.171641    55.171641    311.85318    307.64667    262.78217     365.1307   -1714.9559    105.32096   -1960.0824     167937.5 
   19800     3246.926   -30744.495    3357.1653    -27387.33   -165.25956    55.194554    55.194554    55.194554   -165.25956    188.63033   -319.83577   -364.57323   -1006.9246    2752.3797   -1338.2462    168146.83 
   19900    3238.2864    -30744.74    3348.2324   -27396.507    226.49251    55.180046    55.180046    55.180046    226.49251    -79.90084     322.7102    436.66818    2639.3143    296.34548   -991.33061    168014.27 
   20000     3212.143   -30717.883    3321.2013   -27396.681    323.59522    55.167966    55.167966    55.167966    323.59522    180.47856   -412.93981    1203.2469    376.48484    -280.4222    2158.7709    167903.95 
Loop time of 167.114 on 1 procs for 10000 steps with 8000 atoms

Performance: 5.170 ns/day, 4.642 hours/ns, 59.839 timesteps/s
99.4% CPU use with 1 MPI tasks x no OpenMP threads

MPI task timing breakdown:
Section |  min time  |  avg time  |  max time  |%varavg| %total
---------------------------------------------------------------
Pair    | 144.06     | 144.06     | 144.06     |   0.0 | 86.21
Neigh   | 15.331     | 15.331     | 15.331     |   0.0 |  9.17
Comm    | 0.70585    | 0.70585    | 0.70585    |   0.0 |  0.42
Output  | 0.0084121  | 0.0084121  | 0.0084121  |   0.0 |  0.01
Modify  | 6.4882     | 6.4882     | 6.4882     |   0.0 |  3.88
Other   |            | 0.5161     |            |       |  0.31

Nlocal:    8000 ave 8000 max 8000 min
Histogram: 1 0 0 0 0 0 0 0 0 0
Nghost:    4989 ave 4989 max 4989 min
Histogram: 1 0 0 0 0 0 0 0 0 0
Neighs:    99889 ave 99889 max 99889 min
Histogram: 1 0 0 0 0 0 0 0 0 0
FullNghs:  199778 ave 199778 max 199778 min
Histogram: 1 0 0 0 0 0 0 0 0 0

Total # of neighbors = 199778
Ave neighs/atom = 24.9722
Neighbor list builds = 1542
Dangerous builds = 0
variable natoms equal "count(all)"
variable tot_energy equal "c_eatoms"
variable a11 equal "xhi-xlo"
variable a22 equal "yhi-ylo"
variable a33 equal "zhi-zlo"
variable tilt_xy equal "xy"
variable tilt_xz equal "xz"
variable tilt_yz equal "yz"
variable tot_press equal "press"
variable press_xx equal "pxx"
variable press_yy equal "pyy"
variable press_zz equal "pzz"
variable press_xy equal "pxy"
variable press_xz equal "pxz"
variable press_yz equal "pyz"

# ---- output ----
print "pypospack:output_section:begin"
pypospack:output_section:begin
print "num_atoms = ${natoms}"
num_atoms = 8000
print "a11 = ${a11}"
a11 = 55.1679658270642
print "a22 = ${a22}"
a22 = 55.1679658270642
print "a33 = ${a33}"
a33 = 55.1679658270642
print "a12 = ${tilt_xy}"
a12 = 0
print "a13 = ${tilt_xz}"
a13 = 0
print "a23 = ${tilt_yz}"
a23 = 0
print "tot_press = ${tot_press}"
tot_press = 323.595219906334
print "pxx = ${press_xx}"
pxx = 180.478560129456
print "pyy = ${press_yy}"
pyy = -412.939812924442
print "pzz = ${press_zz}"
pzz = 1203.24691251406
print "pxy = ${press_xy}"
pxy = 376.484842717107
print "pxz = ${press_xz}"
pxz = -280.422198618656
print "pyz = ${press_yz}"
pyz = 2158.77090790752
print "pypospack:output_section:done"
pypospack:output_section:done
print "pypospack:lammps_sim:done"
pypospack:lammps_sim:done
Total wall time: 0:05:12
