# ['Ni']

20 atoms
1 atom types

    0.0000     3.3265 xlo xhi
    0.0000     3.3265 ylo yhi
    0.0000    33.2652 zlo zhi

    0.0000    -0.0000     0.0000 xy xz yz

Atoms

1 1     0.0000     0.0000     0.0000
2 1     1.6633     1.6633     0.0000
3 1     1.6633     0.0000     1.6633
4 1     0.0000     1.6633     1.6633
5 1     0.0000     0.0000     3.3265
6 1     1.6633     1.6633     3.3265
7 1     1.6633     0.0000     4.9898
8 1     0.0000     1.6633     4.9898
9 1     0.0000     0.0000     6.6530
10 1     1.6633     1.6633     6.6530
11 1     1.6633     0.0000     8.3163
12 1     0.0000     1.6633     8.3163
13 1     0.0000     0.0000     9.9796
14 1     1.6633     1.6633     9.9796
15 1     1.6633     0.0000    11.6428
16 1     0.0000     1.6633    11.6428
17 1     0.0000     0.0000    13.3061
18 1     1.6633     1.6633    13.3061
19 1     1.6633     0.0000    14.9693
20 1     0.0000     1.6633    14.9693
