# ['Ni']

20 atoms
1 atom types

    0.0000     3.3581 xlo xhi
    0.0000     3.3581 ylo yhi
    0.0000    33.5811 zlo zhi

    0.0000    -0.0000     0.0000 xy xz yz

Atoms

1 1     0.0000     0.0000     0.0000
2 1     1.6791     1.6791     0.0000
3 1     1.6791     0.0000     1.6791
4 1     0.0000     1.6791     1.6791
5 1     0.0000     0.0000     3.3581
6 1     1.6791     1.6791     3.3581
7 1     1.6791     0.0000     5.0372
8 1     0.0000     1.6791     5.0372
9 1     0.0000     0.0000     6.7162
10 1     1.6791     1.6791     6.7162
11 1     1.6791     0.0000     8.3953
12 1     0.0000     1.6791     8.3953
13 1     0.0000     0.0000    10.0743
14 1     1.6791     1.6791    10.0743
15 1     1.6791     0.0000    11.7534
16 1     0.0000     1.6791    11.7534
17 1     0.0000     0.0000    13.4325
18 1     1.6791     1.6791    13.4325
19 1     1.6791     0.0000    15.1115
20 1     0.0000     1.6791    15.1115
