automatically generated by pyflamestk   
           1
     3.009788    0.000000    0.000000
     1.504894    2.606553    0.000000
     1.504894    0.868851    2.457482
   O    Mg
   1   1
Direct configuration=     1
   0.50000000  0.50000000  0.50000000
   0.00000000  0.00000000  0.00000000
