   4   4   1   0
  0.1023915E+02  0.3447000E-09  0.3447000E-09  0.3447000E-09  0.5000000E-15
  1.000000000000000E-004
  CAR 
 automatically generated by pyflamestk   
     40.91095929    -47.10965391  301     11.16419773      1.00000000
    -47.110  0.0000E+00  0.0000E+00  0.0000E+00  0.0000E+00
    -46.816  0.0000E+00  0.0000E+00  0.0000E+00  0.0000E+00
    -46.523  0.0000E+00  0.0000E+00  0.0000E+00  0.0000E+00
    -46.229  0.0000E+00  0.0000E+00  0.0000E+00  0.0000E+00
    -45.936  0.0000E+00  0.0000E+00  0.0000E+00  0.0000E+00
    -45.643  0.0000E+00  0.0000E+00  0.0000E+00  0.0000E+00
    -45.349  0.0000E+00  0.0000E+00  0.0000E+00  0.0000E+00
    -45.056  0.0000E+00  0.0000E+00  0.0000E+00  0.0000E+00
    -44.762 -0.2496E-31 -0.2496E-31 -0.7324E-32 -0.7324E-32
    -44.469 -0.1134E-21 -0.1134E-21 -0.3327E-22 -0.3327E-22
    -44.176 -0.6870E-14 -0.6870E-14 -0.2016E-14 -0.2016E-14
    -43.882 -0.5752E-08 -0.5752E-08 -0.1688E-08 -0.1688E-08
    -43.589 -0.6168E-04 -0.6168E-04 -0.1810E-04 -0.1810E-04
    -43.295 -0.5822E-02 -0.5822E-02 -0.1726E-02 -0.1726E-02
    -43.002  0.1065E+00  0.1065E+00  0.2951E-01  0.2951E-01
    -42.709  0.3776E+00  0.3776E+00  0.1403E+00  0.1403E+00
    -42.415  0.3594E-01  0.3594E-01  0.1508E+00  0.1508E+00
    -42.122 -0.2844E-02 -0.2844E-02  0.1500E+00  0.1500E+00
    -41.828 -0.5272E-02 -0.5272E-02  0.1484E+00  0.1484E+00
    -41.535  0.8599E-01  0.8599E-01  0.1737E+00  0.1737E+00
    -41.242  0.3857E+00  0.3857E+00  0.2868E+00  0.2868E+00
    -40.948  0.4842E-01  0.4842E-01  0.3010E+00  0.3010E+00
    -40.655 -0.3509E-02 -0.3509E-02  0.3000E+00  0.3000E+00
    -40.361 -0.8783E-05 -0.8783E-05  0.3000E+00  0.3000E+00
    -40.068 -0.2441E-09 -0.2441E-09  0.3000E+00  0.3000E+00
    -39.775 -0.8699E-16 -0.8699E-16  0.3000E+00  0.3000E+00
    -39.481  0.0000E+00  0.0000E+00  0.3000E+00  0.3000E+00
    -39.188  0.0000E+00  0.0000E+00  0.3000E+00  0.3000E+00
    -38.894  0.0000E+00  0.0000E+00  0.3000E+00  0.3000E+00
    -38.601  0.0000E+00  0.0000E+00  0.3000E+00  0.3000E+00
    -38.308  0.0000E+00  0.0000E+00  0.3000E+00  0.3000E+00
    -38.014  0.0000E+00  0.0000E+00  0.3000E+00  0.3000E+00
    -37.721  0.0000E+00  0.0000E+00  0.3000E+00  0.3000E+00
    -37.427  0.0000E+00  0.0000E+00  0.3000E+00  0.3000E+00
    -37.134  0.0000E+00  0.0000E+00  0.3000E+00  0.3000E+00
    -36.841  0.0000E+00  0.0000E+00  0.3000E+00  0.3000E+00
    -36.547  0.0000E+00  0.0000E+00  0.3000E+00  0.3000E+00
    -36.254  0.0000E+00  0.0000E+00  0.3000E+00  0.3000E+00
    -35.960  0.0000E+00  0.0000E+00  0.3000E+00  0.3000E+00
    -35.667  0.0000E+00  0.0000E+00  0.3000E+00  0.3000E+00
    -35.374  0.0000E+00  0.0000E+00  0.3000E+00  0.3000E+00
    -35.080  0.0000E+00  0.0000E+00  0.3000E+00  0.3000E+00
    -34.787  0.0000E+00  0.0000E+00  0.3000E+00  0.3000E+00
    -34.493  0.0000E+00  0.0000E+00  0.3000E+00  0.3000E+00
    -34.200  0.0000E+00  0.0000E+00  0.3000E+00  0.3000E+00
    -33.907  0.0000E+00  0.0000E+00  0.3000E+00  0.3000E+00
    -33.613  0.0000E+00  0.0000E+00  0.3000E+00  0.3000E+00
    -33.320  0.0000E+00  0.0000E+00  0.3000E+00  0.3000E+00
    -33.026  0.0000E+00  0.0000E+00  0.3000E+00  0.3000E+00
    -32.733  0.0000E+00  0.0000E+00  0.3000E+00  0.3000E+00
    -32.440  0.0000E+00  0.0000E+00  0.3000E+00  0.3000E+00
    -32.146  0.0000E+00  0.0000E+00  0.3000E+00  0.3000E+00
    -31.853  0.0000E+00  0.0000E+00  0.3000E+00  0.3000E+00
    -31.559  0.0000E+00  0.0000E+00  0.3000E+00  0.3000E+00
    -31.266  0.0000E+00  0.0000E+00  0.3000E+00  0.3000E+00
    -30.973  0.0000E+00  0.0000E+00  0.3000E+00  0.3000E+00
    -30.679  0.0000E+00  0.0000E+00  0.3000E+00  0.3000E+00
    -30.386  0.0000E+00  0.0000E+00  0.3000E+00  0.3000E+00
    -30.092  0.0000E+00  0.0000E+00  0.3000E+00  0.3000E+00
    -29.799  0.0000E+00  0.0000E+00  0.3000E+00  0.3000E+00
    -29.506  0.0000E+00  0.0000E+00  0.3000E+00  0.3000E+00
    -29.212  0.0000E+00  0.0000E+00  0.3000E+00  0.3000E+00
    -28.919  0.0000E+00  0.0000E+00  0.3000E+00  0.3000E+00
    -28.625  0.0000E+00  0.0000E+00  0.3000E+00  0.3000E+00
    -28.332  0.0000E+00  0.0000E+00  0.3000E+00  0.3000E+00
    -28.039  0.0000E+00  0.0000E+00  0.3000E+00  0.3000E+00
    -27.745  0.0000E+00  0.0000E+00  0.3000E+00  0.3000E+00
    -27.452  0.0000E+00  0.0000E+00  0.3000E+00  0.3000E+00
    -27.158  0.0000E+00  0.0000E+00  0.3000E+00  0.3000E+00
    -26.865  0.0000E+00  0.0000E+00  0.3000E+00  0.3000E+00
    -26.572  0.0000E+00  0.0000E+00  0.3000E+00  0.3000E+00
    -26.278  0.0000E+00  0.0000E+00  0.3000E+00  0.3000E+00
    -25.985  0.0000E+00  0.0000E+00  0.3000E+00  0.3000E+00
    -25.691  0.0000E+00  0.0000E+00  0.3000E+00  0.3000E+00
    -25.398  0.0000E+00  0.0000E+00  0.3000E+00  0.3000E+00
    -25.105  0.0000E+00  0.0000E+00  0.3000E+00  0.3000E+00
    -24.811  0.0000E+00  0.0000E+00  0.3000E+00  0.3000E+00
    -24.518  0.0000E+00  0.0000E+00  0.3000E+00  0.3000E+00
    -24.224  0.0000E+00  0.0000E+00  0.3000E+00  0.3000E+00
    -23.931  0.0000E+00  0.0000E+00  0.3000E+00  0.3000E+00
    -23.637  0.0000E+00  0.0000E+00  0.3000E+00  0.3000E+00
    -23.344  0.0000E+00  0.0000E+00  0.3000E+00  0.3000E+00
    -23.051  0.0000E+00  0.0000E+00  0.3000E+00  0.3000E+00
    -22.757  0.0000E+00  0.0000E+00  0.3000E+00  0.3000E+00
    -22.464  0.0000E+00  0.0000E+00  0.3000E+00  0.3000E+00
    -22.170  0.0000E+00  0.0000E+00  0.3000E+00  0.3000E+00
    -21.877  0.0000E+00  0.0000E+00  0.3000E+00  0.3000E+00
    -21.584  0.0000E+00  0.0000E+00  0.3000E+00  0.3000E+00
    -21.290  0.0000E+00  0.0000E+00  0.3000E+00  0.3000E+00
    -20.997  0.0000E+00  0.0000E+00  0.3000E+00  0.3000E+00
    -20.703  0.0000E+00  0.0000E+00  0.3000E+00  0.3000E+00
    -20.410  0.0000E+00  0.0000E+00  0.3000E+00  0.3000E+00
    -20.117  0.0000E+00  0.0000E+00  0.3000E+00  0.3000E+00
    -19.823  0.0000E+00  0.0000E+00  0.3000E+00  0.3000E+00
    -19.530  0.0000E+00  0.0000E+00  0.3000E+00  0.3000E+00
    -19.236  0.0000E+00  0.0000E+00  0.3000E+00  0.3000E+00
    -18.943  0.0000E+00  0.0000E+00  0.3000E+00  0.3000E+00
    -18.650  0.0000E+00  0.0000E+00  0.3000E+00  0.3000E+00
    -18.356  0.0000E+00  0.0000E+00  0.3000E+00  0.3000E+00
    -18.063  0.0000E+00  0.0000E+00  0.3000E+00  0.3000E+00
    -17.769  0.0000E+00  0.0000E+00  0.3000E+00  0.3000E+00
    -17.476  0.0000E+00  0.0000E+00  0.3000E+00  0.3000E+00
    -17.183  0.0000E+00  0.0000E+00  0.3000E+00  0.3000E+00
    -16.889  0.0000E+00  0.0000E+00  0.3000E+00  0.3000E+00
    -16.596  0.0000E+00  0.0000E+00  0.3000E+00  0.3000E+00
    -16.302  0.0000E+00  0.0000E+00  0.3000E+00  0.3000E+00
    -16.009  0.0000E+00  0.0000E+00  0.3000E+00  0.3000E+00
    -15.716  0.0000E+00  0.0000E+00  0.3000E+00  0.3000E+00
    -15.422  0.0000E+00  0.0000E+00  0.3000E+00  0.3000E+00
    -15.129  0.0000E+00  0.0000E+00  0.3000E+00  0.3000E+00
    -14.835  0.0000E+00  0.0000E+00  0.3000E+00  0.3000E+00
    -14.542  0.0000E+00  0.0000E+00  0.3000E+00  0.3000E+00
    -14.249  0.0000E+00  0.0000E+00  0.3000E+00  0.3000E+00
    -13.955  0.0000E+00  0.0000E+00  0.3000E+00  0.3000E+00
    -13.662  0.0000E+00  0.0000E+00  0.3000E+00  0.3000E+00
    -13.368  0.0000E+00  0.0000E+00  0.3000E+00  0.3000E+00
    -13.075  0.0000E+00  0.0000E+00  0.3000E+00  0.3000E+00
    -12.782  0.0000E+00  0.0000E+00  0.3000E+00  0.3000E+00
    -12.488  0.0000E+00  0.0000E+00  0.3000E+00  0.3000E+00
    -12.195  0.0000E+00  0.0000E+00  0.3000E+00  0.3000E+00
    -11.901  0.0000E+00  0.0000E+00  0.3000E+00  0.3000E+00
    -11.608  0.0000E+00  0.0000E+00  0.3000E+00  0.3000E+00
    -11.315  0.0000E+00  0.0000E+00  0.3000E+00  0.3000E+00
    -11.021  0.0000E+00  0.0000E+00  0.3000E+00  0.3000E+00
    -10.728  0.0000E+00  0.0000E+00  0.3000E+00  0.3000E+00
    -10.434  0.0000E+00  0.0000E+00  0.3000E+00  0.3000E+00
    -10.141  0.0000E+00  0.0000E+00  0.3000E+00  0.3000E+00
     -9.848  0.0000E+00  0.0000E+00  0.3000E+00  0.3000E+00
     -9.554  0.0000E+00  0.0000E+00  0.3000E+00  0.3000E+00
     -9.261  0.0000E+00  0.0000E+00  0.3000E+00  0.3000E+00
     -8.967  0.0000E+00  0.0000E+00  0.3000E+00  0.3000E+00
     -8.674  0.0000E+00  0.0000E+00  0.3000E+00  0.3000E+00
     -8.381  0.0000E+00  0.0000E+00  0.3000E+00  0.3000E+00
     -8.087  0.0000E+00  0.0000E+00  0.3000E+00  0.3000E+00
     -7.794  0.0000E+00  0.0000E+00  0.3000E+00  0.3000E+00
     -7.500  0.0000E+00  0.0000E+00  0.3000E+00  0.3000E+00
     -7.207  0.0000E+00  0.0000E+00  0.3000E+00  0.3000E+00
     -6.914  0.0000E+00  0.0000E+00  0.3000E+00  0.3000E+00
     -6.620  0.0000E+00  0.0000E+00  0.3000E+00  0.3000E+00
     -6.327  0.0000E+00  0.0000E+00  0.3000E+00  0.3000E+00
     -6.033  0.0000E+00  0.0000E+00  0.3000E+00  0.3000E+00
     -5.740  0.0000E+00  0.0000E+00  0.3000E+00  0.3000E+00
     -5.447  0.0000E+00  0.0000E+00  0.3000E+00  0.3000E+00
     -5.153  0.0000E+00  0.0000E+00  0.3000E+00  0.3000E+00
     -4.860  0.0000E+00  0.0000E+00  0.3000E+00  0.3000E+00
     -4.566  0.0000E+00  0.0000E+00  0.3000E+00  0.3000E+00
     -4.273  0.0000E+00  0.0000E+00  0.3000E+00  0.3000E+00
     -3.980  0.0000E+00  0.0000E+00  0.3000E+00  0.3000E+00
     -3.686  0.0000E+00  0.0000E+00  0.3000E+00  0.3000E+00
     -3.393  0.0000E+00  0.0000E+00  0.3000E+00  0.3000E+00
     -3.099  0.0000E+00  0.0000E+00  0.3000E+00  0.3000E+00
     -2.806  0.0000E+00  0.0000E+00  0.3000E+00  0.3000E+00
     -2.513  0.0000E+00  0.0000E+00  0.3000E+00  0.3000E+00
     -2.219  0.0000E+00  0.0000E+00  0.3000E+00  0.3000E+00
     -1.926  0.0000E+00  0.0000E+00  0.3000E+00  0.3000E+00
     -1.632  0.0000E+00  0.0000E+00  0.3000E+00  0.3000E+00
     -1.339  0.0000E+00  0.0000E+00  0.3000E+00  0.3000E+00
     -1.046  0.0000E+00  0.0000E+00  0.3000E+00  0.3000E+00
     -0.752  0.0000E+00  0.0000E+00  0.3000E+00  0.3000E+00
     -0.459  0.0000E+00  0.0000E+00  0.3000E+00  0.3000E+00
     -0.165  0.0000E+00  0.0000E+00  0.3000E+00  0.3000E+00
      0.128  0.0000E+00  0.0000E+00  0.3000E+00  0.3000E+00
      0.421 -0.4722E-37 -0.4722E-37  0.3000E+00  0.3000E+00
      0.715 -0.9018E-27 -0.9018E-27  0.3000E+00  0.3000E+00
      1.008 -0.2236E-18 -0.2236E-18  0.3000E+00  0.3000E+00
      1.302 -0.6706E-12 -0.6706E-12  0.3000E+00  0.3000E+00
      1.595 -0.2457E-07 -0.2457E-07  0.3000E+00  0.3000E+00
      1.888 -0.9137E-05 -0.9137E-05  0.3000E+00  0.3000E+00
      2.182  0.1070E-03  0.1070E-03  0.3000E+00  0.3000E+00
      2.475  0.1217E-02  0.1217E-02  0.3004E+00  0.3004E+00
      2.769  0.2217E-02  0.2217E-02  0.3010E+00  0.3010E+00
      3.062  0.2676E-02  0.2676E-02  0.3018E+00  0.3018E+00
      3.355  0.3453E-02  0.3453E-02  0.3028E+00  0.3028E+00
      3.649  0.4056E-02  0.4056E-02  0.3040E+00  0.3040E+00
      3.942  0.4785E-02  0.4785E-02  0.3054E+00  0.3054E+00
      4.236  0.4901E-02  0.4901E-02  0.3069E+00  0.3069E+00
      4.529  0.6536E-02  0.6536E-02  0.3088E+00  0.3088E+00
      4.823  0.6437E-02  0.6437E-02  0.3107E+00  0.3107E+00
      5.116  0.8271E-02  0.8271E-02  0.3131E+00  0.3131E+00
      5.409  0.9367E-02  0.9367E-02  0.3158E+00  0.3158E+00
      5.703  0.1111E-01  0.1111E-01  0.3191E+00  0.3191E+00
      5.996  0.1962E-01  0.1962E-01  0.3249E+00  0.3249E+00
      6.290  0.3809E-01  0.3809E-01  0.3360E+00  0.3360E+00
      6.583  0.4794E-01  0.4794E-01  0.3501E+00  0.3501E+00
      6.876  0.5432E-01  0.5432E-01  0.3660E+00  0.3660E+00
      7.170  0.6642E-01  0.6642E-01  0.3855E+00  0.3855E+00
      7.463  0.8435E-01  0.8435E-01  0.4103E+00  0.4103E+00
      7.757  0.7265E-01  0.7265E-01  0.4316E+00  0.4316E+00
      8.050  0.6475E-01  0.6475E-01  0.4506E+00  0.4506E+00
      8.343  0.6350E-01  0.6350E-01  0.4692E+00  0.4692E+00
      8.637  0.7837E-01  0.7837E-01  0.4922E+00  0.4922E+00
      8.930  0.7966E-01  0.7966E-01  0.5156E+00  0.5156E+00
      9.224  0.7830E-01  0.7830E-01  0.5386E+00  0.5386E+00
      9.517  0.1183E+00  0.1183E+00  0.5733E+00  0.5733E+00
      9.810  0.1117E+00  0.1117E+00  0.6061E+00  0.6061E+00
     10.104  0.8945E-01  0.8945E-01  0.6323E+00  0.6323E+00
     10.397  0.8573E-01  0.8573E-01  0.6575E+00  0.6575E+00
     10.691  0.5520E-01  0.5520E-01  0.6737E+00  0.6737E+00
     10.984  0.4882E-01  0.4882E-01  0.6880E+00  0.6880E+00
     11.277  0.6822E-01  0.6822E-01  0.7080E+00  0.7080E+00
     11.571  0.8433E-01  0.8433E-01  0.7328E+00  0.7328E+00
     11.864  0.1172E+00  0.1172E+00  0.7671E+00  0.7671E+00
     12.158  0.1142E+00  0.1142E+00  0.8007E+00  0.8007E+00
     12.451  0.8412E-01  0.8412E-01  0.8253E+00  0.8253E+00
     12.744  0.2615E-01  0.2615E-01  0.8330E+00  0.8330E+00
     13.038  0.1807E-01  0.1807E-01  0.8383E+00  0.8383E+00
     13.331  0.1683E-01  0.1683E-01  0.8432E+00  0.8432E+00
     13.625  0.1442E-01  0.1442E-01  0.8475E+00  0.8475E+00
     13.918  0.1370E-01  0.1370E-01  0.8515E+00  0.8515E+00
     14.211  0.1203E-01  0.1203E-01  0.8550E+00  0.8550E+00
     14.505  0.1547E-01  0.1547E-01  0.8596E+00  0.8596E+00
     14.798  0.1319E-01  0.1319E-01  0.8634E+00  0.8634E+00
     15.092  0.1229E-01  0.1229E-01  0.8670E+00  0.8670E+00
     15.385  0.1346E-01  0.1346E-01  0.8710E+00  0.8710E+00
     15.678  0.1186E-01  0.1186E-01  0.8745E+00  0.8745E+00
     15.972  0.1070E-01  0.1070E-01  0.8776E+00  0.8776E+00
     16.265  0.1058E-01  0.1058E-01  0.8807E+00  0.8807E+00
     16.559  0.1039E-01  0.1039E-01  0.8838E+00  0.8838E+00
     16.852  0.8845E-02  0.8845E-02  0.8864E+00  0.8864E+00
     17.145  0.8619E-02  0.8619E-02  0.8889E+00  0.8889E+00
     17.439  0.7337E-02  0.7337E-02  0.8910E+00  0.8910E+00
     17.732  0.7384E-02  0.7384E-02  0.8932E+00  0.8932E+00
     18.026  0.6153E-02  0.6153E-02  0.8950E+00  0.8950E+00
     18.319  0.4912E-02  0.4912E-02  0.8965E+00  0.8965E+00
     18.612  0.4217E-02  0.4217E-02  0.8977E+00  0.8977E+00
     18.906  0.3152E-02  0.3152E-02  0.8986E+00  0.8986E+00
     19.199  0.5619E-02  0.5619E-02  0.9003E+00  0.9003E+00
     19.493  0.2114E-01  0.2114E-01  0.9065E+00  0.9065E+00
     19.786  0.1882E-01  0.1882E-01  0.9120E+00  0.9120E+00
     20.079  0.1717E-01  0.1717E-01  0.9170E+00  0.9170E+00
     20.373  0.1464E-01  0.1464E-01  0.9213E+00  0.9213E+00
     20.666  0.1249E-01  0.1249E-01  0.9250E+00  0.9250E+00
     20.960  0.1347E-01  0.1347E-01  0.9289E+00  0.9289E+00
     21.253  0.1181E-01  0.1181E-01  0.9324E+00  0.9324E+00
     21.546  0.1192E-01  0.1192E-01  0.9359E+00  0.9359E+00
     21.840  0.1198E-01  0.1198E-01  0.9394E+00  0.9394E+00
     22.133  0.1298E-01  0.1298E-01  0.9432E+00  0.9432E+00
     22.427  0.1162E-01  0.1162E-01  0.9466E+00  0.9466E+00
     22.720  0.1474E-01  0.1474E-01  0.9510E+00  0.9510E+00
     23.013  0.1664E-01  0.1664E-01  0.9558E+00  0.9558E+00
     23.307  0.1398E-01  0.1398E-01  0.9600E+00  0.9600E+00
     23.600  0.2127E-01  0.2127E-01  0.9662E+00  0.9662E+00
     23.894  0.1961E-01  0.1961E-01  0.9719E+00  0.9719E+00
     24.187  0.1671E-01  0.1671E-01  0.9768E+00  0.9768E+00
     24.480  0.2070E-01  0.2070E-01  0.9829E+00  0.9829E+00
     24.774  0.1889E-01  0.1889E-01  0.9885E+00  0.9885E+00
     25.067  0.1873E-01  0.1873E-01  0.9940E+00  0.9940E+00
     25.361  0.2018E-01  0.2018E-01  0.9999E+00  0.9999E+00
     25.654  0.2217E-01  0.2217E-01  0.1006E+01  0.1006E+01
     25.947  0.1905E-01  0.1905E-01  0.1012E+01  0.1012E+01
     26.241  0.1990E-01  0.1990E-01  0.1018E+01  0.1018E+01
     26.534  0.2463E-01  0.2463E-01  0.1025E+01  0.1025E+01
     26.828  0.1821E-01  0.1821E-01  0.1030E+01  0.1030E+01
     27.121  0.2622E-01  0.2622E-01  0.1038E+01  0.1038E+01
     27.414  0.1877E-01  0.1877E-01  0.1044E+01  0.1044E+01
     27.708  0.2541E-01  0.2541E-01  0.1051E+01  0.1051E+01
     28.001  0.2057E-01  0.2057E-01  0.1057E+01  0.1057E+01
     28.295  0.2096E-01  0.2096E-01  0.1063E+01  0.1063E+01
     28.588  0.2467E-01  0.2467E-01  0.1070E+01  0.1070E+01
     28.881  0.1797E-01  0.1797E-01  0.1076E+01  0.1076E+01
     29.175  0.2065E-01  0.2065E-01  0.1082E+01  0.1082E+01
     29.468  0.2390E-01  0.2390E-01  0.1089E+01  0.1089E+01
     29.762  0.1809E-01  0.1809E-01  0.1094E+01  0.1094E+01
     30.055  0.2003E-01  0.2003E-01  0.1100E+01  0.1100E+01
     30.348  0.1909E-01  0.1909E-01  0.1106E+01  0.1106E+01
     30.642  0.2172E-01  0.2172E-01  0.1112E+01  0.1112E+01
     30.935  0.1867E-01  0.1867E-01  0.1117E+01  0.1117E+01
     31.229  0.1742E-01  0.1742E-01  0.1123E+01  0.1123E+01
     31.522  0.2160E-01  0.2160E-01  0.1129E+01  0.1129E+01
     31.815  0.1872E-01  0.1872E-01  0.1134E+01  0.1134E+01
     32.109  0.1830E-01  0.1830E-01  0.1140E+01  0.1140E+01
     32.402  0.2111E-01  0.2111E-01  0.1146E+01  0.1146E+01
     32.696  0.1702E-01  0.1702E-01  0.1151E+01  0.1151E+01
     32.989  0.1434E-01  0.1434E-01  0.1155E+01  0.1155E+01
     33.283  0.2096E-01  0.2096E-01  0.1161E+01  0.1161E+01
     33.576  0.1649E-01  0.1649E-01  0.1166E+01  0.1166E+01
     33.869  0.1938E-01  0.1938E-01  0.1172E+01  0.1172E+01
     34.163  0.2090E-01  0.2090E-01  0.1178E+01  0.1178E+01
     34.456  0.1788E-01  0.1788E-01  0.1183E+01  0.1183E+01
     34.750  0.1466E-01  0.1466E-01  0.1187E+01  0.1187E+01
     35.043  0.1377E-01  0.1377E-01  0.1192E+01  0.1192E+01
     35.336  0.1189E-01  0.1189E-01  0.1195E+01  0.1195E+01
     35.630  0.7798E-02  0.7798E-02  0.1197E+01  0.1197E+01
     35.923  0.5117E-02  0.5117E-02  0.1199E+01  0.1199E+01
     36.217  0.1426E-02  0.1426E-02  0.1199E+01  0.1199E+01
     36.510  0.1852E-02  0.1852E-02  0.1200E+01  0.1200E+01
     36.803  0.6071E-03  0.6071E-03  0.1200E+01  0.1200E+01
     37.097  0.1913E-03  0.1913E-03  0.1200E+01  0.1200E+01
     37.390 -0.3951E-05 -0.3951E-05  0.1200E+01  0.1200E+01
     37.684 -0.4433E-06 -0.4433E-06  0.1200E+01  0.1200E+01
     37.977 -0.8085E-10 -0.8085E-10  0.1200E+01  0.1200E+01
     38.270 -0.1579E-15 -0.1579E-15  0.1200E+01  0.1200E+01
     38.564  0.0000E+00  0.0000E+00  0.1200E+01  0.1200E+01
     38.857  0.0000E+00  0.0000E+00  0.1200E+01  0.1200E+01
     39.151  0.0000E+00  0.0000E+00  0.1200E+01  0.1200E+01
     39.444  0.0000E+00  0.0000E+00  0.1200E+01  0.1200E+01
     39.737  0.0000E+00  0.0000E+00  0.1200E+01  0.1200E+01
     40.031  0.0000E+00  0.0000E+00  0.1200E+01  0.1200E+01
     40.324  0.0000E+00  0.0000E+00  0.1200E+01  0.1200E+01
     40.618  0.0000E+00  0.0000E+00  0.1200E+01  0.1200E+01
     40.911  0.0000E+00  0.0000E+00  0.1200E+01  0.1200E+01
     40.91095929    -47.10965391  301     11.16419773      1.00000000
    -47.110  0.0000E+00  0.0000E+00  0.0000E+00  0.0000E+00  0.0000E+00  0.0000E+00  0.0000E+00  0.0000E+00  0.0000E+00  0.0000E+00  0.0000E+00  0.0000E+00  0.0000E+00  0.0000E+00  0.0000E+00  0.0000E+00  0.0000E+00  0.0000E+00
    -46.816  0.0000E+00  0.0000E+00  0.0000E+00  0.0000E+00  0.0000E+00  0.0000E+00  0.0000E+00  0.0000E+00  0.0000E+00  0.0000E+00  0.0000E+00  0.0000E+00  0.0000E+00  0.0000E+00  0.0000E+00  0.0000E+00  0.0000E+00  0.0000E+00
    -46.523  0.0000E+00  0.0000E+00  0.0000E+00  0.0000E+00  0.0000E+00  0.0000E+00  0.0000E+00  0.0000E+00  0.0000E+00  0.0000E+00  0.0000E+00  0.0000E+00  0.0000E+00  0.0000E+00  0.0000E+00  0.0000E+00  0.0000E+00  0.0000E+00
    -46.229  0.0000E+00  0.0000E+00  0.0000E+00  0.0000E+00  0.0000E+00  0.0000E+00  0.0000E+00  0.0000E+00  0.0000E+00  0.0000E+00  0.0000E+00  0.0000E+00  0.0000E+00  0.0000E+00  0.0000E+00  0.0000E+00  0.0000E+00  0.0000E+00
    -45.936  0.0000E+00  0.0000E+00  0.0000E+00  0.0000E+00  0.0000E+00  0.0000E+00  0.0000E+00  0.0000E+00  0.0000E+00  0.0000E+00  0.0000E+00  0.0000E+00  0.0000E+00  0.0000E+00  0.0000E+00  0.0000E+00  0.0000E+00  0.0000E+00
    -45.643  0.0000E+00  0.0000E+00  0.0000E+00  0.0000E+00  0.0000E+00  0.0000E+00  0.0000E+00  0.0000E+00  0.0000E+00  0.0000E+00  0.0000E+00  0.0000E+00  0.0000E+00  0.0000E+00  0.0000E+00  0.0000E+00  0.0000E+00  0.0000E+00
    -45.349  0.0000E+00  0.0000E+00  0.0000E+00  0.0000E+00  0.0000E+00  0.0000E+00  0.0000E+00  0.0000E+00  0.0000E+00  0.0000E+00  0.0000E+00  0.0000E+00  0.0000E+00  0.0000E+00  0.0000E+00  0.0000E+00  0.0000E+00  0.0000E+00
    -45.056  0.0000E+00  0.0000E+00  0.0000E+00  0.0000E+00  0.0000E+00  0.0000E+00  0.0000E+00  0.0000E+00  0.0000E+00  0.0000E+00  0.0000E+00  0.0000E+00  0.0000E+00  0.0000E+00  0.0000E+00  0.0000E+00  0.0000E+00  0.0000E+00
    -44.762 -0.2369E-34 -0.3057E-35 -0.1295E-33 -0.2438E-30 -0.4589E-32 -0.2919E-34 -0.8859E-34 -0.2462E-30 -0.2006E-35 -0.3451E-35 -0.4883E-35 -0.3203E-37 -0.8565E-35 -0.1268E-35 -0.3469E-35 -0.4013E-37 -0.1648E-37 -0.1588E-35
    -44.469 -0.1152E-24 -0.1653E-25 -0.8099E-24 -0.1107E-20 -0.1895E-22 -0.1656E-24 -0.5668E-24 -0.1120E-20 -0.9899E-26 -0.1897E-25 -0.2574E-25 -0.1411E-27 -0.4153E-25 -0.6929E-26 -0.1862E-25 -0.1833E-27 -0.1169E-27 -0.7888E-26
    -44.176 -0.7299E-17 -0.1242E-17 -0.6723E-16 -0.6699E-13 -0.1019E-14 -0.1616E-16 -0.4780E-16 -0.6808E-13 -0.6379E-18 -0.1448E-17 -0.1842E-17 -0.8199E-20 -0.2620E-17 -0.5255E-18 -0.1359E-17 -0.1113E-19 -0.1174E-19 -0.5192E-18
    -43.882 -0.6167E-11 -0.1370E-11 -0.7603E-10 -0.5597E-07 -0.7343E-09 -0.6134E-10 -0.5431E-10 -0.5718E-07 -0.5504E-12 -0.1626E-11 -0.1848E-11 -0.6599E-14 -0.2203E-11 -0.5844E-12 -0.1384E-11 -0.9643E-14 -0.1777E-13 -0.4652E-12
    -43.589 -0.6345E-07 -0.2157E-07 -0.1092E-05 -0.5947E-03 -0.6521E-05 -0.8507E-05 -0.7810E-06 -0.6120E-03 -0.5770E-08 -0.2613E-07 -0.2403E-07 -0.7488E-10 -0.2235E-07 -0.9252E-08 -0.1807E-07 -0.1587E-09 -0.4735E-09 -0.5176E-08
    -43.295 -0.5223E-05 -0.3830E-05 -0.1590E-03 -0.4835E-01 -0.4478E-03 -0.1646E-01 -0.1449E-03 -0.5005E-01 -0.3932E-06 -0.4859E-05 -0.2850E-05 -0.1933E-07 -0.1437E-05 -0.1651E-05 -0.2413E-05 -0.1248E-06 -0.4011E-06 -0.4067E-06
    -43.002  0.1032E-03  0.6634E-04  0.2712E-02  0.9416E+00  0.9410E-02  0.1786E+00  0.2229E-02  0.9782E+00  0.8397E-05  0.8281E-04  0.5058E-04  0.2670E-06  0.3113E-04  0.2858E-04  0.3978E-04  0.1434E-05  0.2656E-05  0.8256E-05
    -42.709  0.2658E-03  0.2145E-03  0.1116E-01  0.2191E+01  0.1920E-01  0.3110E+01  0.1524E-01  0.2166E+01  0.8709E-05  0.2942E-03  0.1717E-03  0.2688E-05  0.3212E-04  0.9246E-04  0.2078E-03  0.2231E-04  0.1020E-03  0.1228E-04
    -42.415 -0.3003E-06  0.9829E-05  0.4803E-03  0.3169E+00 -0.1476E-03  0.9677E-01  0.4104E-03  0.3026E+00 -0.4026E-07  0.1568E-04  0.1119E-04  0.7842E-07 -0.2490E-06  0.4158E-05  0.8873E-05  0.6120E-06  0.1176E-04  0.9499E-06
    -42.122 -0.7169E-06 -0.1112E-05 -0.3370E-03 -0.2201E-01 -0.5462E-04 -0.1270E-01 -0.3462E-03 -0.2124E-01 -0.3569E-07 -0.1577E-05 -0.1014E-05 -0.2485E-07 -0.8265E-07 -0.4739E-06 -0.9774E-06 -0.9704E-07 -0.8430E-06 -0.8264E-07
    -41.828 -0.2611E-05 -0.5439E-05 -0.4294E-01 -0.1846E-03 -0.1744E-01 -0.5997E-03 -0.4344E-01 -0.1784E-03 -0.4062E-05 -0.2132E-06 -0.2931E-07 -0.3040E-05 -0.1438E-05 -0.1736E-05 -0.9412E-07 -0.2521E-05 -0.2520E-06 -0.4678E-06
    -41.535  0.4100E-04  0.9956E-04  0.7411E+00  0.2385E-02  0.2003E+00  0.1070E-01  0.7515E+00  0.2131E-02  0.6312E-04  0.4247E-05  0.4698E-06  0.5021E-04  0.2248E-04  0.3363E-04  0.1328E-05  0.3909E-04  0.4505E-05  0.3885E-05
    -41.242  0.2039E-03  0.2622E-03  0.2250E+01  0.9369E-02  0.3138E+01  0.2560E-01  0.2243E+01  0.1307E-01  0.3288E-03  0.4267E-05  0.2197E-05  0.1971E-03  0.1138E-03  0.4719E-04  0.1171E-04  0.2278E-03  0.1020E-04  0.1069E-03
    -40.948  0.1838E-04 -0.1454E-05  0.4594E+00  0.6658E-03  0.5410E-01  0.9316E-04  0.4517E+00  0.4084E-03  0.3131E-04 -0.9290E-07  0.6064E-07  0.1514E-04  0.1039E-04 -0.2808E-06  0.1412E-06  0.7902E-05  0.1411E-05  0.1294E-04
    -40.655 -0.1475E-05 -0.6582E-06 -0.2972E-01 -0.5888E-04 -0.1078E-01 -0.7465E-04 -0.2931E-01 -0.5497E-04 -0.2459E-05 -0.7617E-08 -0.8893E-08 -0.1305E-05 -0.8290E-06 -0.1197E-06 -0.3770E-07 -0.1005E-05 -0.1006E-06 -0.9284E-06
    -40.361 -0.2328E-08 -0.4209E-09 -0.8638E-04 -0.1039E-06 -0.3344E-05 -0.5063E-07 -0.8536E-04 -0.5823E-07 -0.3917E-08 -0.6783E-11 -0.8778E-11 -0.2465E-08 -0.1299E-08 -0.1162E-09 -0.1374E-10 -0.1278E-08 -0.2710E-09 -0.2135E-08
    -40.068 -0.4572E-13 -0.5898E-14 -0.2440E-08 -0.2408E-11 -0.1149E-10 -0.6656E-12 -0.2416E-08 -0.1245E-11 -0.7712E-13 -0.1082E-15 -0.1674E-15 -0.5738E-13 -0.2533E-13 -0.1854E-14 -0.1139E-15 -0.2871E-13 -0.7348E-14 -0.6326E-13
    -39.775 -0.1140E-19 -0.1183E-20 -0.8718E-15 -0.7360E-18 -0.9072E-19 -0.1244E-18 -0.8635E-15 -0.3818E-18 -0.1938E-19 -0.2332E-22 -0.4758E-22 -0.1735E-19 -0.6287E-20 -0.3772E-21 -0.2689E-22 -0.8897E-20 -0.2544E-20 -0.2445E-19
    -39.481  0.0000E+00  0.0000E+00  0.0000E+00  0.0000E+00  0.0000E+00  0.0000E+00  0.0000E+00  0.0000E+00  0.0000E+00  0.0000E+00  0.0000E+00  0.0000E+00  0.0000E+00  0.0000E+00  0.0000E+00  0.0000E+00  0.0000E+00  0.0000E+00
    -39.188  0.0000E+00  0.0000E+00  0.0000E+00  0.0000E+00  0.0000E+00  0.0000E+00  0.0000E+00  0.0000E+00  0.0000E+00  0.0000E+00  0.0000E+00  0.0000E+00  0.0000E+00  0.0000E+00  0.0000E+00  0.0000E+00  0.0000E+00  0.0000E+00
    -38.894  0.0000E+00  0.0000E+00  0.0000E+00  0.0000E+00  0.0000E+00  0.0000E+00  0.0000E+00  0.0000E+00  0.0000E+00  0.0000E+00  0.0000E+00  0.0000E+00  0.0000E+00  0.0000E+00  0.0000E+00  0.0000E+00  0.0000E+00  0.0000E+00
    -38.601  0.0000E+00  0.0000E+00  0.0000E+00  0.0000E+00  0.0000E+00  0.0000E+00  0.0000E+00  0.0000E+00  0.0000E+00  0.0000E+00  0.0000E+00  0.0000E+00  0.0000E+00  0.0000E+00  0.0000E+00  0.0000E+00  0.0000E+00  0.0000E+00
    -38.308  0.0000E+00  0.0000E+00  0.0000E+00  0.0000E+00  0.0000E+00  0.0000E+00  0.0000E+00  0.0000E+00  0.0000E+00  0.0000E+00  0.0000E+00  0.0000E+00  0.0000E+00  0.0000E+00  0.0000E+00  0.0000E+00  0.0000E+00  0.0000E+00
    -38.014  0.0000E+00  0.0000E+00  0.0000E+00  0.0000E+00  0.0000E+00  0.0000E+00  0.0000E+00  0.0000E+00  0.0000E+00  0.0000E+00  0.0000E+00  0.0000E+00  0.0000E+00  0.0000E+00  0.0000E+00  0.0000E+00  0.0000E+00  0.0000E+00
    -37.721  0.0000E+00  0.0000E+00  0.0000E+00  0.0000E+00  0.0000E+00  0.0000E+00  0.0000E+00  0.0000E+00  0.0000E+00  0.0000E+00  0.0000E+00  0.0000E+00  0.0000E+00  0.0000E+00  0.0000E+00  0.0000E+00  0.0000E+00  0.0000E+00
    -37.427  0.0000E+00  0.0000E+00  0.0000E+00  0.0000E+00  0.0000E+00  0.0000E+00  0.0000E+00  0.0000E+00  0.0000E+00  0.0000E+00  0.0000E+00  0.0000E+00  0.0000E+00  0.0000E+00  0.0000E+00  0.0000E+00  0.0000E+00  0.0000E+00
    -37.134  0.0000E+00  0.0000E+00  0.0000E+00  0.0000E+00  0.0000E+00  0.0000E+00  0.0000E+00  0.0000E+00  0.0000E+00  0.0000E+00  0.0000E+00  0.0000E+00  0.0000E+00  0.0000E+00  0.0000E+00  0.0000E+00  0.0000E+00  0.0000E+00
    -36.841  0.0000E+00  0.0000E+00  0.0000E+00  0.0000E+00  0.0000E+00  0.0000E+00  0.0000E+00  0.0000E+00  0.0000E+00  0.0000E+00  0.0000E+00  0.0000E+00  0.0000E+00  0.0000E+00  0.0000E+00  0.0000E+00  0.0000E+00  0.0000E+00
    -36.547  0.0000E+00  0.0000E+00  0.0000E+00  0.0000E+00  0.0000E+00  0.0000E+00  0.0000E+00  0.0000E+00  0.0000E+00  0.0000E+00  0.0000E+00  0.0000E+00  0.0000E+00  0.0000E+00  0.0000E+00  0.0000E+00  0.0000E+00  0.0000E+00
    -36.254  0.0000E+00  0.0000E+00  0.0000E+00  0.0000E+00  0.0000E+00  0.0000E+00  0.0000E+00  0.0000E+00  0.0000E+00  0.0000E+00  0.0000E+00  0.0000E+00  0.0000E+00  0.0000E+00  0.0000E+00  0.0000E+00  0.0000E+00  0.0000E+00
    -35.960  0.0000E+00  0.0000E+00  0.0000E+00  0.0000E+00  0.0000E+00  0.0000E+00  0.0000E+00  0.0000E+00  0.0000E+00  0.0000E+00  0.0000E+00  0.0000E+00  0.0000E+00  0.0000E+00  0.0000E+00  0.0000E+00  0.0000E+00  0.0000E+00
    -35.667  0.0000E+00  0.0000E+00  0.0000E+00  0.0000E+00  0.0000E+00  0.0000E+00  0.0000E+00  0.0000E+00  0.0000E+00  0.0000E+00  0.0000E+00  0.0000E+00  0.0000E+00  0.0000E+00  0.0000E+00  0.0000E+00  0.0000E+00  0.0000E+00
    -35.374  0.0000E+00  0.0000E+00  0.0000E+00  0.0000E+00  0.0000E+00  0.0000E+00  0.0000E+00  0.0000E+00  0.0000E+00  0.0000E+00  0.0000E+00  0.0000E+00  0.0000E+00  0.0000E+00  0.0000E+00  0.0000E+00  0.0000E+00  0.0000E+00
    -35.080  0.0000E+00  0.0000E+00  0.0000E+00  0.0000E+00  0.0000E+00  0.0000E+00  0.0000E+00  0.0000E+00  0.0000E+00  0.0000E+00  0.0000E+00  0.0000E+00  0.0000E+00  0.0000E+00  0.0000E+00  0.0000E+00  0.0000E+00  0.0000E+00
    -34.787  0.0000E+00  0.0000E+00  0.0000E+00  0.0000E+00  0.0000E+00  0.0000E+00  0.0000E+00  0.0000E+00  0.0000E+00  0.0000E+00  0.0000E+00  0.0000E+00  0.0000E+00  0.0000E+00  0.0000E+00  0.0000E+00  0.0000E+00  0.0000E+00
    -34.493  0.0000E+00  0.0000E+00  0.0000E+00  0.0000E+00  0.0000E+00  0.0000E+00  0.0000E+00  0.0000E+00  0.0000E+00  0.0000E+00  0.0000E+00  0.0000E+00  0.0000E+00  0.0000E+00  0.0000E+00  0.0000E+00  0.0000E+00  0.0000E+00
    -34.200  0.0000E+00  0.0000E+00  0.0000E+00  0.0000E+00  0.0000E+00  0.0000E+00  0.0000E+00  0.0000E+00  0.0000E+00  0.0000E+00  0.0000E+00  0.0000E+00  0.0000E+00  0.0000E+00  0.0000E+00  0.0000E+00  0.0000E+00  0.0000E+00
    -33.907  0.0000E+00  0.0000E+00  0.0000E+00  0.0000E+00  0.0000E+00  0.0000E+00  0.0000E+00  0.0000E+00  0.0000E+00  0.0000E+00  0.0000E+00  0.0000E+00  0.0000E+00  0.0000E+00  0.0000E+00  0.0000E+00  0.0000E+00  0.0000E+00
    -33.613  0.0000E+00  0.0000E+00  0.0000E+00  0.0000E+00  0.0000E+00  0.0000E+00  0.0000E+00  0.0000E+00  0.0000E+00  0.0000E+00  0.0000E+00  0.0000E+00  0.0000E+00  0.0000E+00  0.0000E+00  0.0000E+00  0.0000E+00  0.0000E+00
    -33.320  0.0000E+00  0.0000E+00  0.0000E+00  0.0000E+00  0.0000E+00  0.0000E+00  0.0000E+00  0.0000E+00  0.0000E+00  0.0000E+00  0.0000E+00  0.0000E+00  0.0000E+00  0.0000E+00  0.0000E+00  0.0000E+00  0.0000E+00  0.0000E+00
    -33.026  0.0000E+00  0.0000E+00  0.0000E+00  0.0000E+00  0.0000E+00  0.0000E+00  0.0000E+00  0.0000E+00  0.0000E+00  0.0000E+00  0.0000E+00  0.0000E+00  0.0000E+00  0.0000E+00  0.0000E+00  0.0000E+00  0.0000E+00  0.0000E+00
    -32.733  0.0000E+00  0.0000E+00  0.0000E+00  0.0000E+00  0.0000E+00  0.0000E+00  0.0000E+00  0.0000E+00  0.0000E+00  0.0000E+00  0.0000E+00  0.0000E+00  0.0000E+00  0.0000E+00  0.0000E+00  0.0000E+00  0.0000E+00  0.0000E+00
    -32.440  0.0000E+00  0.0000E+00  0.0000E+00  0.0000E+00  0.0000E+00  0.0000E+00  0.0000E+00  0.0000E+00  0.0000E+00  0.0000E+00  0.0000E+00  0.0000E+00  0.0000E+00  0.0000E+00  0.0000E+00  0.0000E+00  0.0000E+00  0.0000E+00