    8    8   40    2
  0.1023915E+02  0.3447000E-09  0.3447000E-09  0.6894000E-09  0.5000000E-15
  1.000000000000000E-004
  CAR 
 automatically generated by pyflamestk   
    112    112     80
