    4    4   40    2
  0.1023915E+02  0.3447000E-09  0.3447000E-09  0.3447000E-09  0.5000000E-15
  1.000000000000000E-004
  CAR 
 automatically generated by pyflamestk   
     56    196     48
 
  0.3571429E-01  0.3571429E-01  0.3571429E-01  0.2915452E-02
    1      -43.057320    -43.057320   1.000000   1.000000
    2      -43.052862    -43.052862   1.000000   1.000000
    3      -42.924858    -42.924858   1.000000   1.000000
    4      -42.812692    -42.812692   1.000000   1.000000
    5      -42.758380    -42.758380   1.000000   1.000000
    6      -42.753477    -42.753477   1.000000   1.000000
    7      -41.555310    -41.555310   1.000000   1.000000
    8      -41.550623    -41.550623   1.000000   1.000000
    9      -41.403537    -41.403537   1.000000   1.000000
   10      -41.376403    -41.376403   1.000000   1.000000
   11      -41.258025    -41.258025   1.000000   1.000000
   12      -41.252876    -41.252876   1.000000   1.000000
   13        2.194181      2.194181   1.000000   1.000000
   14        5.787417      5.787417   1.000000   1.000000
   15        6.086770      6.086770   1.000000   1.000000
   16        6.408542      6.408542   1.000000   1.000000
   17        6.803751      6.803751   1.000000   1.000000
   18        6.809313      6.809313   1.000000   1.000000
   19        6.840890      6.840890   1.000000   1.000000
   20        9.228520      9.228520   1.000000   1.000000
   21        9.341825      9.341825   1.000000   1.000000
   22        9.371118      9.371118   1.000000   1.000000
   23       10.514914     10.514914   1.000022   1.000022
   24       10.765873     10.765873   1.008213   1.008213
   25       11.636468     11.636468  -0.002103  -0.002103
   26       11.732692     11.732692  -0.000219  -0.000219
   27       12.091082     12.091082  -0.000000  -0.000000
   28       12.104732     12.104732  -0.000000  -0.000000
   29       12.124354     12.124354  -0.000000  -0.000000
   30       12.231593     12.231593  -0.000000  -0.000000
   31       12.369419     12.369419  -0.000000  -0.000000
   32       12.498542     12.498542  -0.000000  -0.000000
   33       12.772675     12.772675  -0.000000  -0.000000
   34       13.625124     13.625124  -0.000000  -0.000000
   35       14.535797     14.535797  -0.000000  -0.000000
   36       14.566724     14.566724  -0.000000  -0.000000
   37       21.944260     21.944260   0.000000   0.000000
   38       22.918155     22.918155   0.000000   0.000000
   39       23.076675     23.076675   0.000000   0.000000
   40       26.057139     26.057139   0.000000   0.000000
   41       26.345498     26.345498   0.000000   0.000000
   42       26.614684     26.614684   0.000000   0.000000
   43       26.706850     26.706850   0.000000   0.000000
   44       27.232120     27.232120   0.000000   0.000000
   45       27.619067     27.619067   0.000000   0.000000
   46       32.476431     32.476431   0.000000   0.000000
   47       32.485289     32.485289   0.000000   0.000000
   48       33.363616     33.363616   0.000000   0.000000
 
  0.1071429E+00  0.3571429E-01  0.3571429E-01  0.5830904E-02
    1      -43.054046    -43.054046   1.000000   1.000000
    2      -43.040872    -43.040872   1.000000   1.000000
    3      -42.921208    -42.921208   1.000000   1.000000
    4      -42.814422    -42.814422   1.000000   1.000000
    5      -42.770506    -42.770506   1.000000   1.000000
    6      -42.756703    -42.756703   1.000000   1.000000
    7      -41.553274    -41.553274   1.000000   1.000000
    8      -41.539350    -41.539350   1.000000   1.000000
    9      -41.404293    -41.404293   1.000000   1.000000
   10      -41.378147    -41.378147   1.000000   1.000000
   11      -41.271396    -41.271396   1.000000   1.000000
   12      -41.256784    -41.256784   1.000000   1.000000
   13        2.341264      2.341264   1.000000   1.000000
   14        5.855895      5.855895   1.000000   1.000000
   15        6.177794      6.177794   1.000000   1.000000
   16        6.461850      6.461850   1.000000   1.000000
   17        6.853765      6.853765   1.000000   1.000000
   18        6.870630      6.870630   1.000000   1.000000
   19        6.905983      6.905983   1.000000   1.000000
   20        9.236491      9.236491   1.000000   1.000000
   21        9.313784      9.313784   1.000000   1.000000
   22        9.389894      9.389894   1.000000   1.000000
   23       10.453485     10.453485   1.000003   1.000003
   24       10.780042     10.780042   1.010239   1.010239
   25       11.387039     11.387039  -0.033280  -0.033280
   26       11.569253     11.569253  -0.007361  -0.007361
   27       11.608152     11.608152  -0.003690  -0.003690
   28       11.972076     11.972076  -0.000000  -0.000000
   29       12.112853     12.112853  -0.000000  -0.000000
   30       12.172798     12.172798  -0.000000  -0.000000
   31       12.355026     12.355026  -0.000000  -0.000000
   32       12.422364     12.422364  -0.000000  -0.000000
   33       12.478488     12.478488  -0.000000  -0.000000
   34       13.991107     13.991107  -0.000000  -0.000000
   35       14.314505     14.314505  -0.000000  -0.000000
   36       15.147340     15.147340  -0.000000  -0.000000
   37       21.953101     21.953101   0.000000   0.000000
   38       22.985277     22.985277   0.000000   0.000000
   39       23.775221     23.775221   0.000000   0.000000
   40       25.466123     25.466123   0.000000   0.000000
   41       26.406236     26.406236   0.000000   0.000000
   42       26.451962     26.451962   0.000000   0.000000
   43       26.558237     26.558237   0.000000   0.000000
   44       26.911541     26.911541   0.000000   0.000000
   45       27.481821     27.481821   0.000000   0.000000
   46       32.496312     32.496312   0.000000   0.000000
   47       33.089551     33.089551   0.000000   0.000000
   48       33.291074     33.291074   0.000000   0.000000
 
  0.1785714E+00  0.3571429E-01  0.3571429E-01  0.5830904E-02
    1      -43.043345    -43.043345   1.000000   1.000000
    2      -43.022185    -43.022185   1.000000   1.000000
    3      -42.914083    -42.914083   1.000000   1.000000
    4      -42.818153    -42.818153   1.000000   1.000000
    5      -42.789295    -42.789295   1.000000   1.000000
    6      -42.767167    -42.767167   1.000000   1.000000
    7      -41.544683    -41.544683   1.000000   1.000000
    8      -41.522028    -41.522028   1.000000   1.000000
    9      -41.405154    -41.405154   1.000000   1.000000
   10      -41.381555    -41.381555   1.000000   1.000000
   11      -41.292260    -41.292260   1.000000   1.000000
   12      -41.268509    -41.268509   1.000000   1.000000
   13        2.630816      2.630816   1.000000   1.000000
   14        5.972236      5.972236   1.000000   1.000000
   15        6.350755      6.350755   1.000000   1.000000
   16        6.562343      6.562343   1.000000   1.000000
   17        6.958380      6.958380   1.000000   1.000000
   18        6.986932      6.986932   1.000000   1.000000
   19        7.036207      7.036207   1.000000   1.000000
   20        9.112489      9.112489   1.000000   1.000000
   21        9.404389      9.404389   1.000000   1.000000
   22        9.415495      9.415495   1.000000   1.000000
   23       10.325751     10.325751   1.000000   1.000000
   24       10.809455     10.809455   1.015462   1.015462
   25       10.862439     10.862439   1.027258   1.027258
   26       10.988618     10.988618   1.007380   1.007380
   27       11.488116     11.488116  -0.022162  -0.022162
   28       11.733113     11.733113  -0.000217  -0.000217
   29       12.029870     12.029870  -0.000000  -0.000000
   30       12.070192     12.070192  -0.000000  -0.000000
   31       12.224329     12.224329  -0.000000  -0.000000
   32       12.261001     12.261001  -0.000000  -0.000000
   33       12.348547     12.348547  -0.000000  -0.000000
   34       13.164962     13.164962  -0.000000  -0.000000
   35       15.185661     15.185661  -0.000000  -0.000000
   36       15.981608     15.981608  -0.000000  -0.000000
   37       21.974199     21.974199   0.000000   0.000000
   38       22.966447     22.966447   0.000000   0.000000
   39       24.561745     24.561745   0.000000   0.000000
   40       25.042500     25.042500   0.000000   0.000000
   41       25.481496     25.481496   0.000000   0.000000
   42       25.983800     25.983800   0.000000   0.000000
   43       26.942040     26.942040   0.000000   0.000000
   44       26.957926     26.957926   0.000000   0.000000
   45       27.401732     27.401732   0.000000   0.000000
   46       32.529621     32.529621   0.000000   0.000000
   47       33.125602     33.125602   0.000000   0.000000
   48       34.161708     34.161708   0.000000   0.000000
 
  0.2500000E+00  0.3571429E-01  0.3571429E-01  0.5830904E-02
    1      -43.025727    -43.025727   1.000000   1.000000
    2      -42.997323    -42.997323   1.000000   1.000000
    3      -42.904092    -42.904092   1.000000   1.000000
    4      -42.823612    -42.823612   1.000000   1.000000
    5      -42.813718    -42.813718   1.000000   1.000000
    6      -42.784716    -42.784716   1.000000   1.000000
    7      -41.529762    -41.529762   1.000000   1.000000
    8      -41.498959    -41.498959   1.000000   1.000000
    9      -41.405858    -41.405858   1.000000   1.000000
   10      -41.385812    -41.385812   1.000000   1.000000
   11      -41.319215    -41.319215   1.000000   1.000000
   12      -41.287599    -41.287599   1.000000   1.000000
   13        3.052518      3.052518   1.000000   1.000000
   14        6.084227      6.084227   1.000000   1.000000
   15        6.585866      6.585866   1.000000   1.000000
   16        6.704493      6.704493   1.000000   1.000000
   17        7.115686      7.115686   1.000000   1.000000
   18        7.156903      7.156903   1.000000   1.000000
   19        7.231204      7.231204   1.000000   1.000000
   20        8.918672      8.918672   1.000000   1.000000
   21        9.364682      9.364682   1.000000   1.000000
   22        9.573650      9.573650   1.000000   1.000000
   23       10.138859     10.138859   1.000000   1.000000
   24       10.269250     10.269250   1.000000   1.000000
   25       10.507115     10.507115   1.000017   1.000017
   26       10.905123     10.905123   1.034761   1.034761
   27       11.157953     11.157953   0.526410   0.526410
   28       11.471311     11.471311  -0.026042  -0.026042
   29       11.739209     11.739209  -0.000185  -0.000185
   30       11.911737     11.911737  -0.000001  -0.000001
   31       12.052507     12.052507  -0.000000  -0.000000
   32       12.186289     12.186289  -0.000000  -0.000000
   33       12.326865     12.326865  -0.000000  -0.000000
   34       12.401057     12.401057  -0.000000  -0.000000
   35       16.130802     16.130802  -0.000000  -0.000000
   36       16.919918     16.919918   0.000000   0.000000
   37       22.011006     22.011006   0.000000   0.000000
   38       22.847012     22.847012   0.000000   0.000000
   39       23.663821     23.663821   0.000000   0.000000
   40       24.445437     24.445437   0.000000   0.000000
   41       25.348151     25.348151   0.000000   0.000000
   42       26.280968     26.280968   0.000000   0.000000
   43       26.561892     26.561892   0.000000   0.000000
   44       27.630069     27.630069   0.000000   0.000000
   45       28.112572     28.112572   0.000000   0.000000
   46       32.584839     32.584839   0.000000   0.000000
   47       32.894670     32.894670   0.000000   0.000000
   48       35.156964     35.156964   0.000000   0.000000
 
  0.3214286E+00  0.3571429E-01  0.3571429E-01  0.5830904E-02
    1      -43.002226    -43.002226   1.000000   1.000000
    2      -42.968130    -42.968130   1.000000   1.000000
    3      -42.891713    -42.891713   1.000000   1.000000
    4      -42.842478    -42.842478   1.000000   1.000000
    5      -42.831425    -42.831425   1.000000   1.000000
    6      -42.807922    -42.807922   1.000000   1.000000
    7      -41.509032    -41.509032   1.000000   1.000000
    8      -41.471441    -41.471441   1.000000   1.000000
    9      -41.405661    -41.405661   1.000000   1.000000
   10      -41.390870    -41.390870   1.000000   1.000000
   11      -41.350480    -41.350480   1.000000   1.000000
   12      -41.312315    -41.312315   1.000000   1.000000
   13        3.588511      3.588511   1.000000   1.000000
   14        6.094053      6.094053   1.000000   1.000000
   15        6.849908      6.849908   1.000000   1.000000
   16        6.886975      6.886975   1.000000   1.000000
   17        7.321491      7.321491   1.000000   1.000000
   18        7.379473      7.379473   1.000000   1.000000
   19        7.490321      7.490321   1.000000   1.000000
   20        8.679481      8.679481   1.000000   1.000000
   21        9.140928      9.140928   1.000000   1.000000
   22        9.682217      9.682217   1.000000   1.000000
   23        9.776905      9.776905   1.000000   1.000000
   24        9.936923      9.936923   1.000000   1.000000
   25       10.328086     10.328086   1.000000   1.000000
   26       10.558689     10.558689   1.000080   1.000080
   27       10.995865     10.995865   0.999952   0.999952
   28       11.267705     11.267705   0.120424   0.120424
   29       11.401215     11.401215  -0.035202  -0.035202
   30       11.702332     11.702332  -0.000474  -0.000474
   31       11.816954     11.816954  -0.000020  -0.000020
   32       11.895262     11.895262  -0.000002  -0.000002
   33       12.199950     12.199950  -0.000000  -0.000000
   34       12.305055     12.305055  -0.000000  -0.000000
   35       17.124897     17.124897   0.000000   0.000000
   36       17.919858     17.919858   0.000000   0.000000
   37       22.063515     22.063515   0.000000   0.000000
   38       22.262372     22.262372   0.000000   0.000000
   39       23.176126     23.176126   0.000000   0.000000
   40       23.408673     23.408673   0.000000   0.000000
   41       24.790575     24.790575   0.000000   0.000000
   42       25.619308     25.619308   0.000000   0.000000
   43       28.039863     28.039863   0.000000   0.000000
   44       28.599789     28.599789   0.000000   0.000000
   45       29.015192     29.015192   0.000000   0.000000
   46       32.574658     32.574658   0.000000   0.000000
   47       32.666302     32.666302   0.000000   0.000000
   48       34.137678     34.137678   0.000000   0.000000
 
  0.3928571E+00  0.3571429E-01  0.3571429E-01  0.5830904E-02
    1      -42.973864    -42.973864   1.000000   1.000000
    2      -42.935840    -42.935840   1.000000   1.000000
    3      -42.879154    -42.879154   1.000000   1.000000
    4      -42.874525    -42.874525   1.000000   1.000000
    5      -42.841105    -42.841105   1.000000   1.000000
    6      -42.836365    -42.836365   1.000000   1.000000
    7      -41.483076    -41.483076   1.000000   1.000000
    8      -41.440531    -41.440531   1.000000   1.000000
    9      -41.405046    -41.405046   1.000000   1.000000
   10      -41.395622    -41.395622   1.000000   1.000000
   11      -41.384750    -41.384750   1.000000   1.000000
   12      -41.341783    -41.341783   1.000000   1.000000
   13        4.208466      4.208466   1.000000   1.000000
   14        5.896473      5.896473   1.000000   1.000000
   15        7.084729      7.084729   1.000000   1.000000
   16        7.089424      7.089424   1.000000   1.000000
   17        7.566951      7.566951   1.000000   1.000000
   18        7.653581      7.653581   1.000000   1.000000
   19        7.810309      7.810309   1.000000   1.000000
   20        8.409498      8.409498   1.000000   1.000000
   21        8.761556      8.761556   1.000000   1.000000
   22        9.131879      9.131879   1.000000   1.000000
   23        9.707125      9.707125   1.000000   1.000000
   24       10.004899     10.004899   1.000000   1.000000
   25       10.073271     10.073271   1.000000   1.000000
   26       10.389824     10.389824   1.000000   1.000000
   27       11.048089     11.048089   0.911091   0.911091
   28       11.061704     11.061704   0.876870   0.876870
   29       11.101120     11.101120   0.752758   0.752758
   30       11.445221     11.445221  -0.031584  -0.031584
   31       11.599766     11.599766  -0.004317  -0.004317
   32       11.650771     11.650771  -0.001555  -0.001555
   33       12.215887     12.215887  -0.000000  -0.000000
   34       12.281123     12.281123  -0.000000  -0.000000
   35       18.148246     18.148246   0.000000   0.000000
   36       18.955420     18.955420   0.000000   0.000000
   37       21.294076     21.294076   0.000000   0.000000
   38       21.945099     21.945099   0.000000   0.000000
   39       22.569999     22.569999   0.000000   0.000000
   40       22.969137     22.969137   0.000000   0.000000
   41       24.465129     24.465129   0.000000   0.000000
   42       25.061605     25.061605   0.000000   0.000000
   43       29.187515     29.187515   0.000000   0.000000
   44       29.897363     29.897363   0.000000   0.000000
   45       30.161399     30.161399   0.000000   0.000000
   46       32.048699     32.048699   0.000000   0.000000
   47       32.800580     32.800580   0.000000   0.000000
   48       33.300291     33.300291   0.000000   0.000000
 
  0.4642857E+00  0.3571429E-01  0.3571429E-01  0.5830904E-02
    1      -42.942276    -42.942276   1.000000   1.000000
    2      -42.908708    -42.908708   1.000000   1.000000
    3      -42.902025    -42.902025   1.000000   1.000000
    4      -42.868281    -42.868281   1.000000   1.000000
    5      -42.865110    -42.865110   1.000000   1.000000
    6      -42.852686    -42.852686   1.000000   1.000000
    7      -41.452975    -41.452975   1.000000   1.000000
    8      -41.419709    -41.419709   1.000000   1.000000
    9      -41.407627    -41.407627   1.000000   1.000000
   10      -41.402734    -41.402734   1.000000   1.000000
   11      -41.399858    -41.399858   1.000000   1.000000
   12      -41.374031    -41.374031   1.000000   1.000000
   13        4.860946      4.860946   1.000000   1.000000
   14        5.460702      5.460702   1.000000   1.000000
   15        7.226373      7.226373   1.000000   1.000000
   16        7.233678      7.233678   1.000000   1.000000
   17        7.838315      7.838315   1.000000   1.000000
   18        7.979178      7.979178   1.000000   1.000000
   19        8.124072      8.124072   1.000000   1.000000
   20        8.189324      8.189324   1.000000   1.000000
   21        8.357866      8.357866   1.000000   1.000000
   22        8.633445      8.633445   1.000000   1.000000
   23        9.606258      9.606258   1.000000   1.000000
   24        9.681295      9.681295   1.000000   1.000000
   25       10.375914     10.375914   1.000000   1.000000
   26       10.574401     10.574401   1.000124   1.000124
   27       10.708981     10.708981   1.002968   1.002968
   28       10.810648     10.810648   1.015702   1.015702
   29       11.199661     11.199661   0.352528   0.352528
   30       11.281785     11.281785   0.085472   0.085472
   31       11.476120     11.476120  -0.024935  -0.024935
   32       11.510718     11.510718  -0.017150  -0.017150
   33       12.235416     12.235416  -0.000000  -0.000000
   34       12.257665     12.257665  -0.000000  -0.000000
   35       19.189317     19.189317   0.000000   0.000000
   36       19.973978     19.973978   0.000000   0.000000
   37       20.293771     20.293771   0.000000   0.000000
   38       21.081937     21.081937   0.000000   0.000000
   39       22.531167     22.531167   0.000000   0.000000
   40       22.738000     22.738000   0.000000   0.000000
   41       24.437910     24.437910   0.000000   0.000000
   42       24.655812     24.655812   0.000000   0.000000
   43       30.225882     30.225882   0.000000   0.000000
   44       31.107838     31.107838   0.000000   0.000000
   45       31.222904     31.222904   0.000000   0.000000
   46       31.531176     31.531176   0.000000   0.000000
   47       32.340571     32.340571   0.000000   0.000000
   48       32.612451     32.612451   0.000000   0.000000
 
  0.1071429E+00  0.1071429E+00  0.3571429E-01  0.2915452E-02
    1      -43.059642    -43.059642   1.000000   1.000000
    2      -43.020859    -43.020859   1.000000   1.000000
    3      -42.917487    -42.917487   1.000000   1.000000
    4      -42.816006    -42.816006   1.000000   1.000000
    5      -42.790921    -42.790921   1.000000   1.000000
    6      -42.750299    -42.750299   1.000000   1.000000
    7      -41.560469    -41.560469   1.000000   1.000000
    8      -41.519679    -41.519679   1.000000   1.000000
    9      -41.404669    -41.404669   1.000000   1.000000
   10      -41.379856    -41.379856   1.000000   1.000000
   11      -41.293432    -41.293432   1.000000   1.000000
   12      -41.250634    -41.250634   1.000000   1.000000
   13        2.486548      2.486548   1.000000   1.000000
   14        5.928323      5.928323   1.000000   1.000000
   15        6.264721      6.264721   1.000000   1.000000
   16        6.514465      6.514465   1.000000   1.000000
   17        6.890664      6.890664   1.000000   1.000000
   18        6.941548      6.941548   1.000000   1.000000
   19        6.969414      6.969414   1.000000   1.000000
   20        9.163198      9.163198   1.000000   1.000000
   21        9.346746      9.346746   1.000000   1.000000
   22        9.435257      9.435257   1.000000   1.000000
   23       10.404257     10.404257   1.000001   1.000001
   24       10.793561     10.793561   1.012472   1.012472
   25       11.080704     11.080704   0.821467   0.821467
   26       11.233990     11.233990   0.223673   0.223673
   27       11.604856     11.604856  -0.003927  -0.003927
   28       11.852083     11.852083  -0.000006  -0.000006
   29       12.015260     12.015260  -0.000000  -0.000000
   30       12.052973     12.052973  -0.000000  -0.000000
   31       12.249142     12.249142  -0.000000  -0.000000
   32       12.294679     12.294679  -0.000000  -0.000000
   33       12.373702     12.373702  -0.000000  -0.000000
   34       14.501378     14.501378  -0.000000  -0.000000
   35       14.677506     14.677506  -0.000000  -0.000000
   36       14.805445     14.805445  -0.000000  -0.000000
   37       21.953449     21.953449   0.000000   0.000000
   38       23.710290     23.710290   0.000000   0.000000
   39       23.836292     23.836292   0.000000   0.000000
   40       25.348934     25.348934   0.000000   0.000000
   41       25.607229     25.607229   0.000000   0.000000
   42       25.824455     25.824455   0.000000   0.000000
   43       26.685980     26.685980   0.000000   0.000000
   44       26.803745     26.803745   0.000000   0.000000
   45       28.099631     28.099631   0.000000   0.000000
   46       33.088376     33.088376   0.000000   0.000000
   47       33.097789     33.097789   0.000000   0.000000
   48       33.152529     33.152529   0.000000   0.000000
 
  0.1785714E+00  0.1071429E+00  0.3571429E-01  0.5830904E-02
    1      -43.057571    -43.057571   1.000000   1.000000
    2      -42.994782    -42.994782   1.000000   1.000000
    3      -42.910606    -42.910606   1.000000   1.000000
    4      -42.819386    -42.819386   1.000000   1.000000
    5      -42.816787    -42.816787   1.000000   1.000000
    6      -42.751969    -42.751969   1.000000   1.000000
    7      -41.560744    -41.560744   1.000000   1.000000
    8      -41.494685    -41.494685   1.000000   1.000000
    9      -41.405580    -41.405580   1.000000   1.000000
   10      -41.383133    -41.383133   1.000000   1.000000
   11      -41.321661    -41.321661   1.000000   1.000000
   12      -41.253283    -41.253283   1.000000   1.000000
   13        2.772453      2.772453   1.000000   1.000000
   14        6.053099      6.053099   1.000000   1.000000
   15        6.430127      6.430127   1.000000   1.000000
   16        6.613197      6.613197   1.000000   1.000000
   17        6.980150      6.980150   1.000000   1.000000
   18        7.066508      7.066508   1.000000   1.000000
   19        7.095776      7.095776   1.000000   1.000000
   20        9.024250      9.024250   1.000000   1.000000
   21        9.437016      9.437016   1.000000   1.000000
   22        9.475766      9.475766   1.000000   1.000000
   23       10.293502     10.293502   1.000000   1.000000
   24       10.599937     10.599937   1.000245   1.000245
   25       10.743568     10.743568   1.005648   1.005648
   26       10.864611     10.864611   1.027743   1.027743
   27       11.408805     11.408805  -0.035457  -0.035457
   28       11.556870     11.556870  -0.008983  -0.008983
   29       11.832604     11.832604  -0.000012  -0.000012
   30       11.966633     11.966633  -0.000000  -0.000000
   31       12.156287     12.156287  -0.000000  -0.000000
   32       12.184566     12.184566  -0.000000  -0.000000
   33       12.310832     12.310832  -0.000000  -0.000000
   34       13.767824     13.767824  -0.000000  -0.000000
   35       15.390828     15.390828  -0.000000  -0.000000
   36       15.555894     15.555894  -0.000000  -0.000000
   37       21.944834     21.944834   0.000000   0.000000
   38       23.747275     23.747275   0.000000   0.000000
   39       24.256102     24.256102   0.000000   0.000000
   40       24.807565     24.807565   0.000000   0.000000
   41       25.027900     25.027900   0.000000   0.000000
   42       26.168269     26.168269   0.000000   0.000000
   43       26.249245     26.249245   0.000000   0.000000
   44       27.230997     27.230997   0.000000   0.000000
   45       28.151291     28.151291   0.000000   0.000000
   46       32.736148     32.736148   0.000000   0.000000
   47       33.184241     33.184241   0.000000   0.000000
   48       34.216841     34.216841   0.000000   0.000000
 
  0.2500000E+00  0.1071429E+00  0.3571429E-01  0.5830904E-02
    1      -43.047873    -43.047873   1.000000   1.000000
    2      -42.964267    -42.964267   1.000000   1.000000
    3      -42.900828    -42.900828   1.000000   1.000000
    4      -42.847065    -42.847065   1.000000   1.000000
    5      -42.824483    -42.824483   1.000000   1.000000
    6      -42.761203    -42.761203   1.000000   1.000000
    7      -41.553861    -41.553861   1.000000   1.000000
    8      -41.465739    -41.465739   1.000000   1.000000
    9      -41.406092    -41.406092   1.000000   1.000000
   10      -41.387329    -41.387329   1.000000   1.000000
   11      -41.354582    -41.354582   1.000000   1.000000
   12      -41.263905    -41.263905   1.000000   1.000000
   13        3.188862      3.188862   1.000000   1.000000
   14        6.177012      6.177012   1.000000   1.000000
   15        6.656485      6.656485   1.000000   1.000000
   16        6.753173      6.753173   1.000000   1.000000
   17        7.119934      7.119934   1.000000   1.000000
   18        7.243857      7.243857   1.000000   1.000000
   19        7.281667      7.281667   1.000000   1.000000
   20        8.833902      8.833902   1.000000   1.000000
   21        9.446942      9.446942   1.000000   1.000000
   22        9.570553      9.570553   1.000000   1.000000
   23       10.044465     10.044465   1.000000   1.000000
   24       10.127388     10.127388   1.000000   1.000000
   25       10.371686     10.371686   1.000000   1.000000
   26       10.888892     10.888892   1.032595   1.032595
   27       10.934256     10.934256   1.034499   1.034499
   28       11.423884     11.423884  -0.034702  -0.034702
   29       11.566594     11.566594  -0.007690  -0.007690
   30       11.840576     11.840576  -0.000009  -0.000009
   31       11.999564     11.999564  -0.000000  -0.000000
   32       12.127376     12.127376  -0.000000  -0.000000
   33       12.272306     12.272306  -0.000000  -0.000000
   34       12.982245     12.982245  -0.000000  -0.000000
   35       16.250197     16.250197  -0.000000  -0.000000
   36       16.431140     16.431140  -0.000000  -0.000000
   37       21.872380     21.872380   0.000000   0.000000
   38       23.300521     23.300521   0.000000   0.000000
   39       23.425679     23.425679   0.000000   0.000000
   40       24.122419     24.122419   0.000000   0.000000
   41       25.604136     25.604136   0.000000   0.000000
   42       26.340465     26.340465   0.000000   0.000000
   43       26.991892     26.991892   0.000000   0.000000
   44       27.722788     27.722788   0.000000   0.000000
   45       27.967794     27.967794   0.000000   0.000000
   46       32.232680     32.232680   0.000000   0.000000
   47       33.293716     33.293716   0.000000   0.000000
   48       34.220530     34.220530   0.000000   0.000000
 
  0.3214286E+00  0.1071429E+00  0.3571429E-01  0.5830904E-02
    1      -43.031210    -43.031210   1.000000   1.000000
    2      -42.930805    -42.930805   1.000000   1.000000
    3      -42.889741    -42.889741   1.000000   1.000000
    4      -42.879853    -42.879853   1.000000   1.000000
    5      -42.831816    -42.831816   1.000000   1.000000
    6      -42.777893    -42.777893   1.000000   1.000000
    7      -41.539969    -41.539969   1.000000   1.000000
    8      -41.433942    -41.433942   1.000000   1.000000
    9      -41.406705    -41.406705   1.000000   1.000000
   10      -41.392287    -41.392287   1.000000   1.000000
   11      -41.390028    -41.390028   1.000000   1.000000
   12      -41.282016    -41.282016   1.000000   1.000000
   13        3.717948      3.717948   1.000000   1.000000
   14        6.197037      6.197037   1.000000   1.000000
   15        6.915075      6.915075   1.000000   1.000000
   16        6.938175      6.938175   1.000000   1.000000
   17        7.306368      7.306368   1.000000   1.000000
   18        7.471427      7.471427   1.000000   1.000000
   19        7.520378      7.520378   1.000000   1.000000
   20        8.601271      8.601271   1.000000   1.000000
   21        9.217595      9.217595   1.000000   1.000000