automatically generated by pyflamestk   
           1
     3.447000    0.000000    0.000000
     0.000000    3.447000    0.000000
     0.000000    0.000000    6.894000
   Fe
   8
Direct configuration=     1
   0.00000000  0.00000000  0.00000000
   0.50000000  0.50000000  0.00000000
   0.50000000  0.00000000  0.25000000
   0.00000000  0.50000000  0.25000000
   0.00000000  0.00000000  0.50000000
   0.50000000  0.50000000  0.50000000
   0.50000000  0.00000000  0.75000000
   0.00000000  0.50000000  0.75000000
automatically generated by pyflamestk   
           1
     3.504487    0.000000    0.000000
     0.000000    3.504487    0.000000
     0.000000    0.000000    7.049684
   Fe
   8
Direct configuration=     2
  -0.00000000 -0.00000000  0.00234553
   0.50000000  0.50000000  0.00234553
   0.50000000  0.00000000  0.24765447
   0.00000000  0.50000000  0.24765447
  -0.00000000 -0.00000000  0.50234553
   0.50000000  0.50000000  0.50234553
   0.50000000 -0.00000000  0.74765447
   0.00000000  0.50000000  0.74765447
automatically generated by pyflamestk   
           1
     3.488211    0.000000    0.000000
     0.000000    3.488211    0.000000
     0.000000    0.000000    7.005607
   Fe
   8
Direct configuration=     3
  -0.00000000 -0.00000000  0.00169613
   0.50000000  0.50000000  0.00169613
   0.50000000  0.00000000  0.24830387
   0.00000000  0.50000000  0.24830387
  -0.00000000 -0.00000000  0.50169613
   0.50000000  0.50000000  0.50169613
   0.50000000 -0.00000000  0.74830387
   0.00000000  0.50000000  0.74830387
automatically generated by pyflamestk   
           1
     3.472368    0.000000   -0.000000
     0.000000    3.472368    0.000000
    -0.000000    0.000000    7.104651
   Fe
   8
Direct configuration=     4
  -0.00000000 -0.00000000  0.00459412
   0.50000000  0.50000000  0.00459412
   0.50000000  0.00000000  0.24540588
   0.00000000  0.50000000  0.24540588
  -0.00000000 -0.00000000  0.50459412
   0.50000000  0.50000000  0.50459412
   0.50000000  0.00000000  0.74540588
   0.00000000  0.50000000  0.74540588
automatically generated by pyflamestk   
           1
     3.466132    0.000000   -0.000000
     0.000000    3.466132    0.000000
    -0.000000    0.000000    7.143637
   Fe
   8
Direct configuration=     5
   0.00000000 -0.00000000  0.00571893
   0.50000000  0.50000000  0.00571893
   0.50000000  0.00000000  0.24428107
  -0.00000000  0.50000000  0.24428107
   0.00000000 -0.00000000  0.50571893
   0.50000000  0.50000000  0.50571893
   0.50000000  0.00000000  0.74428107
  -0.00000000  0.50000000  0.74428107
automatically generated by pyflamestk   
           1
     3.434848    0.000000   -0.000000
     0.000000    3.434848    0.000000
    -0.000000    0.000000    7.133346
   Fe
   8
Direct configuration=     6
   0.00000000  0.00000000  0.00542901
   0.50000000  0.50000000  0.00542901
   0.50000000  0.00000000  0.24457099
  -0.00000000  0.50000000  0.24457099
   0.00000000 -0.00000000  0.50542901
   0.50000000  0.50000000  0.50542901
   0.50000000  0.00000000  0.74457099
  -0.00000000  0.50000000  0.74457099
automatically generated by pyflamestk   
           1
     3.450939    0.000000   -0.000000
     0.000000    3.450939    0.000000
    -0.000000    0.000000    7.138639
   Fe
   8
Direct configuration=     7
   0.00000000  0.00000000  0.00557835
   0.50000000  0.50000000  0.00557835
   0.50000000  0.00000000  0.24442165
  -0.00000000  0.50000000  0.24442165
   0.00000000 -0.00000000  0.50557835
   0.50000000  0.50000000  0.50557835
   0.50000000  0.00000000  0.74442165
  -0.00000000  0.50000000  0.74442165
automatically generated by pyflamestk   
           1
     3.448387    0.000000   -0.000000
     0.000000    3.448387    0.000000
    -0.000000    0.000000    7.158632
   Fe
   8
Direct configuration=     8
   0.00000000  0.00000000  0.00529938
   0.50000000  0.50000000  0.00529938
   0.50000000  0.00000000  0.24470062
  -0.00000000  0.50000000  0.24470062
   0.00000000  0.00000000  0.50529938
   0.50000000  0.50000000  0.50529938
   0.50000000  0.00000000  0.74470062
  -0.00000000  0.50000000  0.74470062
automatically generated by pyflamestk   
           1
     3.448030    0.000000   -0.000000
     0.000000    3.448030    0.000000
    -0.000000    0.000000    7.161428
   Fe
   8
Direct configuration=     9
   0.00000000  0.00000000  0.00526048
   0.50000000  0.50000000  0.00526048
   0.50000000  0.00000000  0.24473952
  -0.00000000  0.50000000  0.24473952
   0.00000000  0.00000000  0.50526048
   0.50000000  0.50000000  0.50526048
   0.50000000  0.00000000  0.74473952
  -0.00000000  0.50000000  0.74473952
automatically generated by pyflamestk   
           1
     3.447317    0.000000   -0.000000
     0.000000    3.447317    0.000000
    -0.000000    0.000000    7.167019
   Fe
   8
Direct configuration=    10
   0.00000000  0.00000000  0.00518272
   0.50000000  0.50000000  0.00518272
   0.50000000  0.00000000  0.24481728
  -0.00000000  0.50000000  0.24481728
   0.00000000  0.00000000  0.50518272
   0.50000000  0.50000000  0.50518272
   0.50000000  0.00000000  0.74481728
  -0.00000000  0.50000000  0.74481728
automatically generated by pyflamestk   
           1
     3.447726    0.000000   -0.000000
     0.000000    3.447726    0.000000
    -0.000000    0.000000    7.163814
   Fe
   8
Direct configuration=    11
   0.00000000  0.00000000  0.00522726
   0.50000000  0.50000000  0.00522726
   0.50000000  0.00000000  0.24477274
  -0.00000000  0.50000000  0.24477274
   0.00000000  0.00000000  0.50522726
   0.50000000  0.50000000  0.50522726
   0.50000000  0.00000000  0.74477274
  -0.00000000  0.50000000  0.74477274
automatically generated by pyflamestk   
           1
     3.447868    0.000000   -0.000000
     0.000000    3.447868    0.000000
    -0.000000    0.000000    7.162696
   Fe
   8
Direct configuration=    12
   0.00000000  0.00000000  0.00524280
   0.50000000  0.50000000  0.00524280
   0.50000000  0.00000000  0.24475720
  -0.00000000  0.50000000  0.24475720
   0.00000000  0.00000000  0.50524280
   0.50000000  0.50000000  0.50524280
   0.50000000  0.00000000  0.74475720
  -0.00000000  0.50000000  0.74475720
automatically generated by pyflamestk   
           1
     3.447878    0.000000   -0.000000
     0.000000    3.447878    0.000000
    -0.000000    0.000000    7.162619
   Fe
   8
Direct configuration=    13
   0.00000000  0.00000000  0.00524387
   0.50000000  0.50000000  0.00524387
   0.50000000  0.00000000  0.24475613
  -0.00000000  0.50000000  0.24475613
   0.00000000  0.00000000  0.50524387
   0.50000000  0.50000000  0.50524387
   0.50000000  0.00000000  0.74475613
  -0.00000000  0.50000000  0.74475613
automatically generated by pyflamestk   
           1
     3.447954    0.000000   -0.000000
     0.000000    3.447954    0.000000
    -0.000000    0.000000    7.162024
   Fe
   8
Direct configuration=    14
   0.00000000  0.00000000  0.00525216
   0.50000000  0.50000000  0.00525216
   0.50000000  0.00000000  0.24474784
  -0.00000000  0.50000000  0.24474784
   0.00000000  0.00000000  0.50525216
   0.50000000  0.50000000  0.50525216
   0.50000000  0.00000000  0.74474784
  -0.00000000  0.50000000  0.74474784
automatically generated by pyflamestk   
           1
     3.447932    0.000000   -0.000000
     0.000000    3.447932    0.000000
    -0.000000    0.000000    7.162201
   Fe
   8
Direct configuration=    15
   0.00000000  0.00000000  0.00524968
   0.50000000  0.50000000  0.00524968
   0.50000000  0.00000000  0.24475032
  -0.00000000  0.50000000  0.24475032
   0.00000000  0.00000000  0.50524968
   0.50000000  0.50000000  0.50524968
   0.50000000  0.00000000  0.74475032
  -0.00000000  0.50000000  0.74475032
automatically generated by pyflamestk   
           1
     3.447889    0.000000   -0.000000
     0.000000    3.447889    0.000000
    -0.000000    0.000000    7.162536
   Fe
   8
Direct configuration=    16
   0.00000000  0.00000000  0.00524502
   0.50000000  0.50000000  0.00524502
   0.50000000  0.00000000  0.24475498
  -0.00000000  0.50000000  0.24475498
   0.00000000  0.00000000  0.50524502
   0.50000000  0.50000000  0.50524502
   0.50000000  0.00000000  0.74475498
  -0.00000000  0.50000000  0.74475498
automatically generated by pyflamestk   
           1
     3.447884    0.000000   -0.000000
     0.000000    3.447884    0.000000
    -0.000000    0.000000    7.162578
   Fe
   8
Direct configuration=    17
   0.00000000  0.00000000  0.00524444
   0.50000000  0.50000000  0.00524444
   0.50000000  0.00000000  0.24475556
  -0.00000000  0.50000000  0.24475556
   0.00000000  0.00000000  0.50524444
   0.50000000  0.50000000  0.50524444
   0.50000000  0.00000000  0.74475556
  -0.00000000  0.50000000  0.74475556
automatically generated by pyflamestk   
           1
     3.447881    0.000000   -0.000000
     0.000000    3.447881    0.000000
    -0.000000    0.000000    7.162598
   Fe
   8
Direct configuration=    18
   0.00000000  0.00000000  0.00524417
   0.50000000  0.50000000  0.00524417
   0.50000000  0.00000000  0.24475583
  -0.00000000  0.50000000  0.24475583
   0.00000000  0.00000000  0.50524417
   0.50000000  0.50000000  0.50524417
   0.50000000  0.00000000  0.74475583
  -0.00000000  0.50000000  0.74475583
automatically generated by pyflamestk   
           1
     3.447880    0.000000   -0.000000
     0.000000    3.447880    0.000000
    -0.000000    0.000000    7.162609
   Fe
   8
Direct configuration=    19
   0.00000000  0.00000000  0.00524402
   0.50000000  0.50000000  0.00524402
   0.50000000  0.00000000  0.24475598
  -0.00000000  0.50000000  0.24475598
   0.00000000  0.00000000  0.50524402
   0.50000000  0.50000000  0.50524402
   0.50000000  0.00000000  0.74475598
  -0.00000000  0.50000000  0.74475598
automatically generated by pyflamestk   
           1
     3.447879    0.000000   -0.000000
     0.000000    3.447879    0.000000
    -0.000000    0.000000    7.162614
   Fe
   8
Direct configuration=    20
   0.00000000  0.00000000  0.00524394
   0.50000000  0.50000000  0.00524394
   0.50000000  0.00000000  0.24475606
  -0.00000000  0.50000000  0.24475606
   0.00000000  0.00000000  0.50524394
   0.50000000  0.50000000  0.50524394
   0.50000000  0.00000000  0.74475606
  -0.00000000  0.50000000  0.74475606
automatically generated by pyflamestk   
           1
     3.447879    0.000000   -0.000000
     0.000000    3.447879    0.000000
    -0.000000    0.000000    7.162617
   Fe
   8
Direct configuration=    21
   0.00000000  0.00000000  0.00524391
   0.50000000  0.50000000  0.00524391
   0.50000000  0.00000000  0.24475609
  -0.00000000  0.50000000  0.24475609
   0.00000000  0.00000000  0.50524391
   0.50000000  0.50000000  0.50524391
   0.50000000  0.00000000  0.74475609
  -0.00000000  0.50000000  0.74475609
automatically generated by pyflamestk   
           1
     3.447878    0.000000   -0.000000
     0.000000    3.447878    0.000000
    -0.000000    0.000000    7.162618
   Fe
   8
Direct configuration=    22
   0.00000000  0.00000000  0.00524389
   0.50000000  0.50000000  0.00524389
   0.50000000  0.00000000  0.24475611
  -0.00000000  0.50000000  0.24475611
   0.00000000  0.00000000  0.50524389
   0.50000000  0.50000000  0.50524389
   0.50000000  0.00000000  0.74475611
  -0.00000000  0.50000000  0.74475611
automatically generated by pyflamestk   
           1
     3.447878    0.000000   -0.000000
     0.000000    3.447878    0.000000
    -0.000000    0.000000    7.162619
   Fe
   8
Direct configuration=    23
   0.00000000  0.00000000  0.00524388
   0.50000000  0.50000000  0.00524388
   0.50000000  0.00000000  0.24475612
  -0.00000000  0.50000000  0.24475612
   0.00000000  0.00000000  0.50524388
   0.50000000  0.50000000  0.50524388
   0.50000000  0.00000000  0.74475612
  -0.00000000  0.50000000  0.74475612
automatically generated by pyflamestk   
           1
     3.447878    0.000000   -0.000000
     0.000000    3.447878    0.000000
    -0.000000    0.000000    7.162619
   Fe
   8
Direct configuration=    24
   0.00000000  0.00000000  0.00524388
   0.50000000  0.50000000  0.00524388
   0.50000000  0.00000000  0.24475612
  -0.00000000  0.50000000  0.24475612
   0.00000000  0.00000000  0.50524388
   0.50000000  0.50000000  0.50524388
   0.50000000  0.00000000  0.74475612
  -0.00000000  0.50000000  0.74475612
automatically generated by pyflamestk   
           1
     3.447878    0.000000   -0.000000
     0.000000    3.447878    0.000000
    -0.000000    0.000000    7.162619
   Fe
   8
Direct configuration=    25
   0.00000000  0.00000000  0.00524387
   0.50000000  0.50000000  0.00524387
   0.50000000  0.00000000  0.24475613
  -0.00000000  0.50000000  0.24475613
   0.00000000  0.00000000  0.50524387
   0.50000000  0.50000000  0.50524387
   0.50000000  0.00000000  0.74475613
  -0.00000000  0.50000000  0.74475613
