automatically generated by pyflamestk   
           1
     3.447000    0.000000    0.000000
     0.000000    3.447000    0.000000
     0.000000    0.000000    3.447000
   Fe
   4
Direct configuration=     1
   0.00000000  0.00000000  0.00000000
   0.50000000  0.50000000  0.00000000
   0.50000000  0.00000000  0.50000000
   0.00000000  0.50000000  0.50000000
automatically generated by pyflamestk   
           1
     3.444858    0.000000    0.000000
     0.000000    3.444858   -0.000000
    -0.000000    0.000000    3.562135
   Fe
   4
Direct configuration=     2
  -0.00000000  0.00000000  0.00000000
   0.50000000  0.50000000 -0.00000000
   0.50000000 -0.00000000  0.50000000
   0.00000000  0.50000000  0.50000000
automatically generated by pyflamestk   
           1
     3.445164    0.000000    0.000000
     0.000000    3.445164   -0.000000
    -0.000000    0.000000    3.545706
   Fe
   4
Direct configuration=     3
  -0.00000000  0.00000000  0.00000000
   0.50000000  0.50000000 -0.00000000
   0.50000000 -0.00000000  0.50000000
   0.00000000  0.50000000  0.50000000
automatically generated by pyflamestk   
           1
     3.393614    0.000000    0.000000
     0.000000    3.393614    0.000000
    -0.000000    0.000000    3.591086
   Fe
   4
Direct configuration=     4
  -0.00000000  0.00000000  0.00000000
   0.50000000  0.50000000 -0.00000000
   0.50000000 -0.00000000  0.50000000
  -0.00000000  0.50000000  0.50000000
automatically generated by pyflamestk   
           1
     3.418712    0.000000    0.000000
     0.000000    3.418712   -0.000000
    -0.000000    0.000000    3.568992
   Fe
   4
Direct configuration=     5
  -0.00000000  0.00000000  0.00000000
   0.50000000  0.50000000 -0.00000000
   0.50000000 -0.00000000  0.50000000
  -0.00000000  0.50000000  0.50000000
automatically generated by pyflamestk   
           1
     3.418658    0.000000    0.000000
     0.000000    3.418658   -0.000000
    -0.000000    0.000000    3.569039
   Fe
   4
Direct configuration=     6
  -0.00000000  0.00000000  0.00000000
   0.50000000  0.50000000 -0.00000000
   0.50000000 -0.00000000  0.50000000
  -0.00000000  0.50000000  0.50000000
automatically generated by pyflamestk   
           1
     3.406136    0.000000    0.000000
     0.000000    3.406136    0.000000
    -0.000000    0.000000    3.580062
   Fe
   4
Direct configuration=     7
  -0.00000000  0.00000000  0.00000000
   0.50000000  0.50000000 -0.00000000
   0.50000000 -0.00000000  0.50000000
  -0.00000000  0.50000000  0.50000000
automatically generated by pyflamestk   
           1
     3.418166    0.000000    0.000000
     0.000000    3.418166   -0.000000
    -0.000000    0.000000    3.569473
   Fe
   4
Direct configuration=     8
  -0.00000000  0.00000000  0.00000000
   0.50000000  0.50000000 -0.00000000
   0.50000000 -0.00000000  0.50000000
  -0.00000000  0.50000000  0.50000000
automatically generated by pyflamestk   
           1
     3.418460    0.000000    0.000000
     0.000000    3.418460   -0.000000
    -0.000000    0.000000    3.569214
   Fe
   4
Direct configuration=     9
  -0.00000000  0.00000000  0.00000000
   0.50000000  0.50000000 -0.00000000
   0.50000000 -0.00000000  0.50000000
  -0.00000000  0.50000000  0.50000000
automatically generated by pyflamestk   
           1
     3.418524    0.000000    0.000000
     0.000000    3.418524   -0.000000
    -0.000000    0.000000    3.569157
   Fe
   4
Direct configuration=    10
  -0.00000000  0.00000000  0.00000000
   0.50000000  0.50000000 -0.00000000
   0.50000000 -0.00000000  0.50000000
  -0.00000000  0.50000000  0.50000000
automatically generated by pyflamestk   
           1
     3.418605    0.000000    0.000000
     0.000000    3.418605   -0.000000
    -0.000000    0.000000    3.569086
   Fe
   4
Direct configuration=    11
  -0.00000000  0.00000000  0.00000000
   0.50000000  0.50000000 -0.00000000
   0.50000000 -0.00000000  0.50000000
  -0.00000000  0.50000000  0.50000000
automatically generated by pyflamestk   
           1
     3.418619    0.000000    0.000000
     0.000000    3.418619   -0.000000
    -0.000000    0.000000    3.569073
   Fe
   4
Direct configuration=    12
  -0.00000000  0.00000000  0.00000000
   0.50000000  0.50000000 -0.00000000
   0.50000000 -0.00000000  0.50000000
  -0.00000000  0.50000000  0.50000000
automatically generated by pyflamestk   
           1
     3.418639    0.000000    0.000000
     0.000000    3.418639   -0.000000
    -0.000000    0.000000    3.569056
   Fe
   4
Direct configuration=    13
  -0.00000000  0.00000000  0.00000000
   0.50000000  0.50000000 -0.00000000
   0.50000000 -0.00000000  0.50000000
  -0.00000000  0.50000000  0.50000000
automatically generated by pyflamestk   
           1
     3.418648    0.000000    0.000000
     0.000000    3.418648   -0.000000
    -0.000000    0.000000    3.569048
   Fe
   4
Direct configuration=    14
  -0.00000000  0.00000000  0.00000000
   0.50000000  0.50000000 -0.00000000
   0.50000000 -0.00000000  0.50000000
  -0.00000000  0.50000000  0.50000000
automatically generated by pyflamestk   
           1
     3.418653    0.000000    0.000000
     0.000000    3.418653   -0.000000
    -0.000000    0.000000    3.569043
   Fe
   4
Direct configuration=    15
  -0.00000000  0.00000000  0.00000000
   0.50000000  0.50000000 -0.00000000
   0.50000000 -0.00000000  0.50000000
  -0.00000000  0.50000000  0.50000000
automatically generated by pyflamestk   
           1
     3.418656    0.000000    0.000000
     0.000000    3.418656   -0.000000
    -0.000000    0.000000    3.569041
   Fe
   4
Direct configuration=    16
  -0.00000000  0.00000000  0.00000000
   0.50000000  0.50000000 -0.00000000
   0.50000000 -0.00000000  0.50000000
  -0.00000000  0.50000000  0.50000000
automatically generated by pyflamestk   
           1
     3.418381   -0.000000    0.000000
     0.000000    3.418381   -0.000000
    -0.000000    0.000000    3.562089
   Fe
   4
Direct configuration=    17
  -0.00000000  0.00000000  0.00000000
   0.50000000  0.50000000 -0.00000000
   0.50000000 -0.00000000  0.50000000
  -0.00000000  0.50000000  0.50000000
automatically generated by pyflamestk   
           1
     3.418501   -0.000000    0.000000
     0.000000    3.418501   -0.000000
    -0.000000    0.000000    3.565131
   Fe
   4
Direct configuration=    18
  -0.00000000  0.00000000  0.00000000
   0.50000000  0.50000000 -0.00000000
   0.50000000 -0.00000000  0.50000000
  -0.00000000  0.50000000  0.50000000
automatically generated by pyflamestk   
           1
     3.418510   -0.000000    0.000000
     0.000000    3.418510   -0.000000
    -0.000000    0.000000    3.565353
   Fe
   4
Direct configuration=    19
  -0.00000000  0.00000000  0.00000000
   0.50000000  0.50000000 -0.00000000
   0.50000000 -0.00000000  0.50000000
  -0.00000000  0.50000000  0.50000000
automatically generated by pyflamestk   
           1
     3.418505   -0.000000    0.000000
     0.000000    3.418505   -0.000000
    -0.000000    0.000000    3.565229
   Fe
   4
Direct configuration=    20
  -0.00000000  0.00000000  0.00000000
   0.50000000  0.50000000 -0.00000000
   0.50000000 -0.00000000  0.50000000
  -0.00000000  0.50000000  0.50000000
automatically generated by pyflamestk   
           1
     3.418504   -0.000000    0.000000
     0.000000    3.418504   -0.000000
    -0.000000    0.000000    3.565206
   Fe
   4
Direct configuration=    21
  -0.00000000  0.00000000  0.00000000
   0.50000000  0.50000000 -0.00000000
   0.50000000 -0.00000000  0.50000000
  -0.00000000  0.50000000  0.50000000
automatically generated by pyflamestk   
           1
     3.418502   -0.000000    0.000000
     0.000000    3.418502   -0.000000
    -0.000000    0.000000    3.565162
   Fe
   4
Direct configuration=    22
  -0.00000000  0.00000000  0.00000000
   0.50000000  0.50000000 -0.00000000
   0.50000000 -0.00000000  0.50000000
  -0.00000000  0.50000000  0.50000000
automatically generated by pyflamestk   
           1
     3.418501   -0.000000    0.000000
     0.000000    3.418501   -0.000000
    -0.000000    0.000000    3.565139
   Fe
   4
Direct configuration=    23
  -0.00000000  0.00000000  0.00000000
   0.50000000  0.50000000 -0.00000000
   0.50000000 -0.00000000  0.50000000
  -0.00000000  0.50000000  0.50000000
automatically generated by pyflamestk   
           1
     3.418501   -0.000000    0.000000
     0.000000    3.418501   -0.000000
    -0.000000    0.000000    3.565134
   Fe
   4
Direct configuration=    24
  -0.00000000  0.00000000  0.00000000
   0.50000000  0.50000000 -0.00000000
   0.50000000 -0.00000000  0.50000000
  -0.00000000  0.50000000  0.50000000
