# ['Ni']

20 atoms
1 atom types

    0.0000     3.4057 xlo xhi
    0.0000     3.4057 ylo yhi
    0.0000    34.0568 zlo zhi

    0.0000    -0.0000     0.0000 xy xz yz

Atoms

1 1     0.0000     0.0000     0.0000
2 1     1.7028     1.7028     0.0000
3 1     1.7028     0.0000     1.7028
4 1     0.0000     1.7028     1.7028
5 1     0.0000     0.0000     3.4057
6 1     1.7028     1.7028     3.4057
7 1     1.7028     0.0000     5.1085
8 1     0.0000     1.7028     5.1085
9 1     0.0000     0.0000     6.8114
10 1     1.7028     1.7028     6.8114
11 1     1.7028     0.0000     8.5142
12 1     0.0000     1.7028     8.5142
13 1     0.0000     0.0000    10.2170
14 1     1.7028     1.7028    10.2170
15 1     1.7028     0.0000    11.9199
16 1     0.0000     1.7028    11.9199
17 1     0.0000     0.0000    13.6227
18 1     1.7028     1.7028    13.6227
19 1     1.7028     0.0000    15.3256
20 1     0.0000     1.7028    15.3256
