# ['Ni']

107 atoms
1 atom types

    0.0000    10.5412 xlo xhi
    0.0000    10.5412 ylo yhi
    0.0000    10.5412 zlo zhi

    0.0000    -0.0000    -0.0000 xy xz yz

Atoms

1 1     1.7569     1.7569     0.0000
2 1     1.7569     0.0000     1.7569
3 1     0.0000     1.7569     1.7569
4 1     0.0000     0.0000     3.5137
5 1     1.7569     1.7569     3.5137
6 1     1.7569     0.0000     5.2706
7 1     0.0000     1.7569     5.2706
8 1     0.0000     0.0000     7.0274
9 1     1.7569     1.7569     7.0274
10 1     1.7569     0.0000     8.7843
11 1     0.0000     1.7569     8.7843
12 1     0.0000     3.5137     0.0000
13 1     1.7569     5.2706     0.0000
14 1     1.7569     3.5137     1.7569
15 1     0.0000     5.2706     1.7569
16 1     0.0000     3.5137     3.5137
17 1     1.7569     5.2706     3.5137
18 1     1.7569     3.5137     5.2706
19 1     0.0000     5.2706     5.2706
20 1     0.0000     3.5137     7.0274
21 1     1.7569     5.2706     7.0274
22 1     1.7569     3.5137     8.7843
23 1     0.0000     5.2706     8.7843
24 1     0.0000     7.0274     0.0000
25 1     1.7569     8.7843     0.0000
26 1     1.7569     7.0274     1.7569
27 1     0.0000     8.7843     1.7569
28 1     0.0000     7.0274     3.5137
29 1     1.7569     8.7843     3.5137
30 1     1.7569     7.0274     5.2706
31 1     0.0000     8.7843     5.2706
32 1     0.0000     7.0274     7.0274
33 1     1.7569     8.7843     7.0274
34 1     1.7569     7.0274     8.7843
35 1     0.0000     8.7843     8.7843
36 1     3.5137     0.0000     0.0000
37 1     5.2706     1.7569     0.0000
38 1     5.2706     0.0000     1.7569
39 1     3.5137     1.7569     1.7569
40 1     3.5137     0.0000     3.5137
41 1     5.2706     1.7569     3.5137
42 1     5.2706     0.0000     5.2706
43 1     3.5137     1.7569     5.2706
44 1     3.5137     0.0000     7.0274
45 1     5.2706     1.7569     7.0274
46 1     5.2706     0.0000     8.7843
47 1     3.5137     1.7569     8.7843
48 1     3.5137     3.5137     0.0000
49 1     5.2706     5.2706     0.0000
50 1     5.2706     3.5137     1.7569
51 1     3.5137     5.2706     1.7569
52 1     3.5137     3.5137     3.5137
53 1     5.2706     5.2706     3.5137
54 1     5.2706     3.5137     5.2706
55 1     3.5137     5.2706     5.2706
56 1     3.5137     3.5137     7.0274
57 1     5.2706     5.2706     7.0274
58 1     5.2706     3.5137     8.7843
59 1     3.5137     5.2706     8.7843
60 1     3.5137     7.0274     0.0000
61 1     5.2706     8.7843     0.0000
62 1     5.2706     7.0274     1.7569
63 1     3.5137     8.7843     1.7569
64 1     3.5137     7.0274     3.5137
65 1     5.2706     8.7843     3.5137
66 1     5.2706     7.0274     5.2706
67 1     3.5137     8.7843     5.2706
68 1     3.5137     7.0274     7.0274
69 1     5.2706     8.7843     7.0274
70 1     5.2706     7.0274     8.7843
71 1     3.5137     8.7843     8.7843
72 1     7.0274     0.0000     0.0000
73 1     8.7843     1.7569     0.0000
74 1     8.7843     0.0000     1.7569
75 1     7.0274     1.7569     1.7569
76 1     7.0274     0.0000     3.5137
77 1     8.7843     1.7569     3.5137
78 1     8.7843     0.0000     5.2706
79 1     7.0274     1.7569     5.2706
80 1     7.0274     0.0000     7.0274
81 1     8.7843     1.7569     7.0274
82 1     8.7843     0.0000     8.7843
83 1     7.0274     1.7569     8.7843
84 1     7.0274     3.5137     0.0000
85 1     8.7843     5.2706     0.0000
86 1     8.7843     3.5137     1.7569
87 1     7.0274     5.2706     1.7569
88 1     7.0274     3.5137     3.5137
89 1     8.7843     5.2706     3.5137
90 1     8.7843     3.5137     5.2706
91 1     7.0274     5.2706     5.2706
92 1     7.0274     3.5137     7.0274
93 1     8.7843     5.2706     7.0274
94 1     8.7843     3.5137     8.7843
95 1     7.0274     5.2706     8.7843
96 1     7.0274     7.0274     0.0000
97 1     8.7843     8.7843     0.0000
98 1     8.7843     7.0274     1.7569
99 1     7.0274     8.7843     1.7569
100 1     7.0274     7.0274     3.5137
101 1     8.7843     8.7843     3.5137
102 1     8.7843     7.0274     5.2706
103 1     7.0274     8.7843     5.2706
104 1     7.0274     7.0274     7.0274
105 1     8.7843     8.7843     7.0274
106 1     8.7843     7.0274     8.7843
107 1     7.0274     8.7843     8.7843
