LAMMPS (11 Aug 2017)
Reading data file ...
  triclinic box = (0 0 0) to (10.5412 10.5412 10.5412) with tilt (0 -0 -0)
  1 by 1 by 1 MPI processor grid
  reading atoms ...
  107 atoms
107 atoms in group Ni
Neighbor list info ...
  update every 1 steps, delay 0 steps, check yes
  max neighbors/atom: 2000, page size: 100000
  master list distance cutoff = 11
  ghost atom cutoff = 11
  binsize = 5.5, bins = 2 2 2
  1 neighbor lists, perpetual/occasional/extra = 1 0 0
  (1) pair eam/alloy, perpetual
      attributes: half, newton on
      pair build: half/bin/newton/tri
      stencil: half/bin/3d/newton/tri
      bin: standard
Setting up cg style minimization ...
  Unit style    : metal
  Current step  : 0
Per MPI rank memory allocation (min/avg/max) = 4.384 | 4.384 | 4.384 Mbytes
Step PotEng Lx Ly Lz Xy Xz Yz Press Pxx Pyy Pzz Pxy Pxz Pyz c_eatoms 
       0   -481.85904      10.5412      10.5412      10.5412            0           -0           -0   -7523.5892   -7523.5892   -7523.5892   -7523.5892 1.9372672e-06 1.937267e-06 1.9372407e-06   -481.85904 
       1   -482.01556      10.5412      10.5412      10.5412            0           -0           -0   -9772.1739   -9772.1739   -9772.1739   -9772.1739 -1.4403222e-05 -1.4403216e-05 -1.4403235e-05   -482.01556 
       2   -482.04073      10.5412      10.5412      10.5412            0           -0           -0   -10028.991   -10028.991   -10028.991   -10028.991 -2.6856699e-05 -2.6856682e-05 -2.685668e-05   -482.04073 
       3   -482.04399      10.5412      10.5412      10.5412            0           -0           -0   -10159.593   -10159.593   -10159.593   -10159.593 -1.672601e-05 -1.6726059e-05 -1.6726084e-05   -482.04399 
       4   -482.04412      10.5412      10.5412      10.5412            0           -0           -0   -10163.872   -10163.872   -10163.872   -10163.872 -8.5634231e-06 -8.5634412e-06 -8.5634659e-06   -482.04412 
       5   -482.04417      10.5412      10.5412      10.5412            0           -0           -0   -10162.867   -10162.867   -10162.867   -10162.867 2.6403784e-06 2.6403604e-06 2.6403877e-06   -482.04417 
       6   -482.04417      10.5412      10.5412      10.5412            0           -0           -0   -10162.749   -10162.749   -10162.749   -10162.749 -1.841173e-06 -1.84114e-06 -1.8411466e-06   -482.04417 
       7   -482.04417      10.5412      10.5412      10.5412            0           -0           -0   -10163.347   -10163.347   -10163.347   -10163.347 -2.6484812e-06 -2.6484991e-06 -2.6484994e-06   -482.04417 
       8   -482.04417      10.5412      10.5412      10.5412            0           -0           -0   -10163.182   -10163.182   -10163.182   -10163.182 -1.8229688e-06 -1.8229766e-06 -1.8229552e-06   -482.04417 
       9   -482.04417      10.5412      10.5412      10.5412            0           -0           -0   -10163.069   -10163.069   -10163.069   -10163.069 -1.1280763e-06 -1.1280772e-06 -1.1280809e-06   -482.04417 
      10   -482.04417      10.5412      10.5412      10.5412            0           -0           -0    -10163.06    -10163.06    -10163.06    -10163.06 -8.7725887e-07 -8.7723254e-07 -8.7720255e-07   -482.04417 
      11   -482.04417      10.5412      10.5412      10.5412            0           -0           -0   -10163.053   -10163.053   -10163.053   -10163.053 -5.8450437e-07 -5.8449299e-07 -5.8452322e-07   -482.04417 
      12   -482.04417      10.5412      10.5412      10.5412            0           -0           -0   -10163.052   -10163.052   -10163.052   -10163.052 -4.5980417e-07 -4.5982132e-07 -4.5983178e-07   -482.04417 
      13   -482.04417      10.5412      10.5412      10.5412            0           -0           -0   -10163.052   -10163.052   -10163.052   -10163.052 -2.8869042e-07 -2.8867803e-07 -2.8865752e-07   -482.04417 
      14   -482.04417      10.5412      10.5412      10.5412            0           -0           -0   -10163.052   -10163.052   -10163.052   -10163.052 -2.1175938e-07 -2.1177123e-07 -2.1179992e-07   -482.04417 
      15   -482.04417      10.5412      10.5412      10.5412            0           -0           -0   -10163.053   -10163.053   -10163.053   -10163.053 -4.8170777e-08 -4.8168415e-08 -4.816848e-08   -482.04417 
      16   -482.04417      10.5412      10.5412      10.5412            0           -0           -0   -10163.052   -10163.052   -10163.052   -10163.052 3.8723195e-08 3.8671621e-08 3.8723302e-08   -482.04417 
      17   -482.04417      10.5412      10.5412      10.5412            0           -0           -0   -10163.052   -10163.052   -10163.052   -10163.052 6.3474728e-08 6.3441791e-08 6.3440404e-08   -482.04417 
      18   -482.04417      10.5412      10.5412      10.5412            0           -0           -0   -10163.052   -10163.052   -10163.052   -10163.052 4.7578919e-08 4.7605465e-08 4.7578388e-08   -482.04417 
      19   -482.04417      10.5412      10.5412      10.5412            0           -0           -0   -10163.052   -10163.052   -10163.052   -10163.052 1.7613709e-08 1.7626466e-08 1.7627048e-08   -482.04417 
      20   -482.04417      10.5412      10.5412      10.5412            0           -0           -0   -10163.052   -10163.052   -10163.052   -10163.052 8.3731769e-09 8.3709311e-09 8.3583943e-09   -482.04417 
      21   -482.04417      10.5412      10.5412      10.5412            0           -0           -0   -10163.052   -10163.052   -10163.052   -10163.052 6.8631582e-09 6.8740071e-09 6.8970511e-09   -482.04417 
      22   -482.04417      10.5412      10.5412      10.5412            0           -0           -0   -10163.052   -10163.052   -10163.052   -10163.052 6.0940277e-09 6.0519282e-09 6.1068986e-09   -482.04417 
      23   -482.04417      10.5412      10.5412      10.5412            0           -0           -0   -10163.052   -10163.052   -10163.052   -10163.052 4.7261118e-09 4.7838403e-09 4.7729799e-09   -482.04417 
      24   -482.04417      10.5412      10.5412      10.5412            0           -0           -0   -10163.052   -10163.052   -10163.052   -10163.052 2.9399919e-09 2.9113023e-09 2.9076636e-09   -482.04417 
      25   -482.04417      10.5412      10.5412      10.5412            0           -0           -0   -10163.052   -10163.052   -10163.052   -10163.052 2.132058e-09 2.1506838e-09 2.1549336e-09   -482.04417 
      26   -482.04417      10.5412      10.5412      10.5412            0           -0           -0   -10163.052   -10163.052   -10163.052   -10163.052 1.0536289e-09 1.0527693e-09 1.0449531e-09   -482.04417 
      27   -482.04417      10.5412      10.5412      10.5412            0           -0           -0   -10163.052   -10163.052   -10163.052   -10163.052 8.1632881e-10 8.0942092e-10 8.1606257e-10   -482.04417 
      28   -482.04417      10.5412      10.5412      10.5412            0           -0           -0   -10163.052   -10163.052   -10163.052   -10163.052 7.2088682e-10 6.2925835e-10 6.3659044e-10   -482.04417 
      29   -482.04417      10.5412      10.5412      10.5412            0           -0           -0   -10163.052   -10163.052   -10163.052   -10163.052 5.0198078e-10 4.7511792e-10 4.904615e-10   -482.04417 
      30   -482.04417      10.5412      10.5412      10.5412            0           -0           -0   -10163.052   -10163.052   -10163.052   -10163.052 4.2381154e-10 4.2925046e-10 4.4319923e-10   -482.04417 
      31   -482.04417      10.5412      10.5412      10.5412            0           -0           -0   -10163.052   -10163.052   -10163.052   -10163.052 2.8128329e-10 2.4733455e-10 2.7973517e-10   -482.04417 
      32   -482.04417      10.5412      10.5412      10.5412            0           -0           -0   -10163.052   -10163.052   -10163.052   -10163.052 2.5556346e-10 1.6797503e-10 1.8025097e-10   -482.04417 
      33   -482.04417      10.5412      10.5412      10.5412            0           -0           -0   -10163.052   -10163.052   -10163.052   -10163.052 9.3808418e-11 8.7254282e-11 1.0493441e-10   -482.04417 
      34   -482.04417      10.5412      10.5412      10.5412            0           -0           -0   -10163.052   -10163.052   -10163.052   -10163.052 4.1659231e-11 4.3539689e-11 5.227775e-11   -482.04417 
      35   -482.04417      10.5412      10.5412      10.5412            0           -0           -0   -10163.052   -10163.052   -10163.052   -10163.052 1.987838e-11 6.296105e-12 2.9574111e-12   -482.04417 
      36   -482.04417      10.5412      10.5412      10.5412            0           -0           -0   -10163.052   -10163.052   -10163.052   -10163.052  6.96698e-12 -3.2928112e-11 -1.5723812e-11   -482.04417 
      37   -482.04417      10.5412      10.5412      10.5412            0           -0           -0   -10163.052   -10163.052   -10163.052   -10163.052 -6.118571e-12 -3.3342509e-11 -3.443035e-11   -482.04417 
      38   -482.04417      10.5412      10.5412      10.5412            0           -0           -0   -10163.052   -10163.052   -10163.052   -10163.052 9.7834462e-12 -3.2652718e-11 -2.1233169e-11   -482.04417 
      39   -482.04417      10.5412      10.5412      10.5412            0           -0           -0   -10163.052   -10163.052   -10163.052   -10163.052 -2.8796105e-11 -2.5226918e-11 -1.9790494e-11   -482.04417 
      40   -482.04417      10.5412      10.5412      10.5412            0           -0           -0   -10163.052   -10163.052   -10163.052   -10163.052 -1.5893182e-11 -6.1538846e-12 -2.4412713e-11   -482.04417 
Loop time of 0.156052 on 1 procs for 40 steps with 107 atoms

93.2% CPU use with 1 MPI tasks x no OpenMP threads

Minimization stats:
  Stopping criterion = energy tolerance
  Energy initial, next-to-last, final = 
        -481.859037914     -482.044172663     -482.044172663
  Force two-norm initial, final = 1.18108 3.48512e-14
  Force max component initial, final = 0.239297 7.71605e-15
  Final line search alpha, max atom move = 1 7.71605e-15
  Iterations, force evaluations = 40 80

MPI task timing breakdown:
Section |  min time  |  avg time  |  max time  |%varavg| %total
---------------------------------------------------------------
Pair    | 0.15347    | 0.15347    | 0.15347    |   0.0 | 98.35
Neigh   | 0          | 0          | 0          |   0.0 |  0.00
Comm    | 0.0012321  | 0.0012321  | 0.0012321  |   0.0 |  0.79
Output  | 0.00083685 | 0.00083685 | 0.00083685 |   0.0 |  0.54
Modify  | 0          | 0          | 0          |   0.0 |  0.00
Other   |            | 0.0005112  |            |       |  0.33

Nlocal:    107 ave 107 max 107 min
Histogram: 1 0 0 0 0 0 0 0 0 0
Nghost:    3259 ave 3259 max 3259 min
Histogram: 1 0 0 0 0 0 0 0 0 0
Neighs:    28093 ave 28093 max 28093 min
Histogram: 1 0 0 0 0 0 0 0 0 0

Total # of neighbors = 28093
Ave neighs/atom = 262.551
Neighbor list builds = 0
Dangerous builds = 0
pypospack:output_section:begin
tot_energy = -482.044172662862
num_atoms = 107
a11 = 10.5412
a22 = 10.5412
a33 = 10.5412
a12 = 0
a13 = -0
a23 = -0
tot_press = -10163.0523066356
pxx = -10163.0523066356
pyy = -10163.0523066356
pzz = -10163.0523066356
pxy = -1.58931816578017e-11
pxz = -6.15388458086629e-12
pyz = -2.4412712866409e-11
pypospack:output_section:done
pypospack:lammps_sim:done
Total wall time: 0:00:00
