    4    4    1    2
  0.1064635E+02  0.3492102E-09  0.3492102E-09  0.3492102E-09  0.5000000E-15
  1.000000000000000E-004
  CAR 
 automatically generated by pyflamestk   
     40      4     32
 
  0.1250000E+00  0.1250000E+00  0.1250000E+00  0.1250000E+00
    1        1.121551      1.121848   1.000000   1.000000
    2        5.334794      5.336085   1.000000   1.000000
    3        5.334794      5.336085   1.000000   1.000000
    4        5.334794      5.336085   1.000000   1.000000
    5        5.905097      5.906648   1.000000   1.000000
    6        5.905097      5.906648   1.000000   1.000000
    7        5.905097      5.906648   1.000000   1.000000
    8        7.444255      7.446020   1.000000   1.000000
    9        7.728331      7.730149   1.000000   1.000000
   10        7.728331      7.730149   1.000000   1.000000
   11        8.707210      8.709167   1.000000   1.000000
   12        8.707210      8.709167   1.000000   1.000000
   13        8.728048      8.729706   1.000000   1.000000
   14        8.728048      8.729706   1.000000   1.000000
   15        8.728048      8.729706   1.000000   1.000000
   16        9.208811      9.210791   1.021352   1.021805
   17        9.208811      9.210791   1.021352   1.021805
   18        9.208811      9.210791   1.021352   1.021805
   19        9.612105      9.614141   0.203242   0.196542
   20        9.612105      9.614141   0.203242   0.196542
   21        9.612105      9.614141   0.203242   0.196542
   22       12.354501     12.355442  -0.000000  -0.000000
   23       12.354501     12.355442  -0.000000  -0.000000
   24       12.354501     12.355442  -0.000000  -0.000000
   25       20.691321     20.691952   0.000000   0.000000
   26       20.691321     20.691952   0.000000   0.000000
   27       20.691321     20.691952   0.000000   0.000000
   28       22.010310     22.010928   0.000000   0.000000
   29       22.010310     22.010928   0.000000   0.000000
   30       22.010310     22.010928   0.000000   0.000000
   31       25.661802     25.662237   0.000000   0.000000
   32       25.661802     25.662237   0.000000   0.000000
 
  0.3750000E+00  0.1250000E+00  0.1250000E+00  0.3750000E+00
    1        2.639555      2.639886   1.000000   1.000000
    2        4.786221      4.786918   1.000000   1.000000
    3        5.999369      6.000760   1.000000   1.000000
    4        5.999369      6.000760   1.000000   1.000000
    5        6.351992      6.353592   1.000000   1.000000
    6        6.362034      6.363534   1.000000   1.000000
    7        6.362034      6.363534   1.000000   1.000000
    8        7.002835      7.004524   1.000000   1.000000
    9        7.402578      7.404137   1.000000   1.000000
   10        7.402578      7.404137   1.000000   1.000000
   11        7.814040      7.815659   1.000000   1.000000
   12        7.883766      7.885600   1.000000   1.000000
   13        8.036332      8.038179   1.000000   1.000000
   14        8.554864      8.556742   1.000000   1.000000
   15        8.622405      8.624314   1.000000   1.000000
   16        8.756198      8.758111   1.000000   1.000000
   17        8.756198      8.758111   1.000000   1.000000
   18        9.015196      9.017175   1.000714   1.000748
   19        9.406006      9.408017   0.941706   0.937662
   20        9.525758      9.527782   0.544390   0.535859
   21        9.525758      9.527782   0.544390   0.535859
   22        9.625107      9.626781   0.162065   0.157046
   23       14.676659     14.677618  -0.000000  -0.000000
   24       14.676659     14.677618  -0.000000  -0.000000
   25       17.981303     17.982112   0.000000   0.000000
   26       17.981303     17.982112   0.000000   0.000000
   27       21.702192     21.702783   0.000000   0.000000
   28       21.702192     21.702783   0.000000   0.000000
   29       23.799157     23.799814   0.000000   0.000000
   30       23.981814     23.982368   0.000000   0.000000
   31       23.981814     23.982368   0.000000   0.000000
   32       26.909076     26.909755   0.000000   0.000000
 
  0.3750000E+00  0.3750000E+00  0.1250000E+00  0.3750000E+00
    1        3.909811      3.910264   1.000000   1.000000
    2        5.537559      5.538504   1.000000   1.000000
    3        5.537559      5.538504   1.000000   1.000000
    4        6.047848      6.049204   1.000000   1.000000
    5        6.641337      6.642756   1.000000   1.000000
    6        6.748922      6.750384   1.000000   1.000000
    7        6.748922      6.750384   1.000000   1.000000
    8        7.026771      7.028336   1.000000   1.000000
    9        7.212268      7.213956   1.000000   1.000000
   10        7.212268      7.213956   1.000000   1.000000
   11        7.330763      7.332313   1.000000   1.000000
   12        7.650248      7.652029   1.000000   1.000000
   13        7.986302      7.988164   1.000000   1.000000
   14        8.337891      8.339779   1.000000   1.000000
   15        8.338896      8.340760   1.000000   1.000000
   16        8.338896      8.340760   1.000000   1.000000
   17        8.644645      8.646573   1.000000   1.000000
   18        9.174253      9.176216   1.014048   1.014422
   19        9.174253      9.176216   1.014048   1.014422
   20        9.241886      9.243880   1.028885   1.029311
   21        9.587171      9.589083   0.292140   0.284914
   22       11.111959     11.113452  -0.000000  -0.000000
   23       11.111959     11.113452  -0.000000  -0.000000
   24       13.422877     13.423909  -0.000000  -0.000000
   25       16.962105     16.963103   0.000000   0.000000
   26       19.785239     19.786069   0.000000   0.000000
   27       19.785239     19.786069   0.000000   0.000000
   28       22.789162     22.789930   0.000000   0.000000
   29       22.916210     22.916777   0.000000   0.000000
   30       25.391871     25.392403   0.000000   0.000000
   31       25.391871     25.392403   0.000000   0.000000
   32       28.266898     28.267423   0.000000   0.000000
 
  0.3750000E+00  0.3750000E+00  0.3750000E+00  0.1250000E+00
    1        4.526954      4.527790   1.000000   1.000000
    2        5.282680      5.283904   1.000000   1.000000
    3        5.282680      5.283904   1.000000   1.000000
    4        5.282680      5.283904   1.000000   1.000000
    5        7.249156      7.250775   1.000000   1.000000
    6        7.249156      7.250775   1.000000   1.000000
    7        7.249156      7.250775   1.000000   1.000000
    8        7.655036      7.656862   1.000000   1.000000
    9        7.655036      7.656862   1.000000   1.000000
   10        7.812392      7.814230   1.000000   1.000000
   11        7.812392      7.814230   1.000000   1.000000
   12        7.812392      7.814230   1.000000   1.000000
   13        7.870490      7.871402   1.000000   1.000000
   14        7.901592      7.902921   1.000000   1.000000
   15        7.901592      7.902921   1.000000   1.000000
   16        7.901592      7.902921   1.000000   1.000000
   17        9.281843      9.283840   1.035134   1.035253
   18        9.281843      9.283840   1.035134   1.035253
   19        9.520535      9.522560   0.566330   0.557842
   20        9.520535      9.522560   0.566330   0.557842
   21        9.520535      9.522560   0.566330   0.557842
   22       11.126429     11.127588  -0.000000  -0.000000
   23       11.126429     11.127588  -0.000000  -0.000000
   24       11.126429     11.127588  -0.000000  -0.000000
   25       16.313617     16.314748   0.000000   0.000000
   26       16.313617     16.314748   0.000000   0.000000
   27       16.313617     16.314748   0.000000   0.000000
   28       18.748860     18.749799   0.000000   0.000000
   29       29.298146     29.298450   0.000000   0.000000
   30       29.298146     29.298450   0.000000   0.000000
   31       29.298146     29.298450   0.000000   0.000000
   32       31.675732     31.676247   0.000000   0.000000
