       N       E                     dE             d eps       ncg     rms          rms(c)
DAV:   1    -0.862801510843E+03   -0.86280E+03   -0.30875E+04   512   0.278E+03
DAV:   2    -0.102135283348E+04   -0.15855E+03   -0.15775E+03   768   0.355E+02
DAV:   3    -0.102326075130E+04   -0.19079E+01   -0.18619E+01   512   0.367E+01
DAV:   4    -0.102331325732E+04   -0.52506E-01   -0.52455E-01   816   0.566E+00
DAV:   5    -0.102331394182E+04   -0.68450E-03   -0.68447E-03   640   0.598E-01    0.140E+02
DAV:   6    -0.132292920842E+03    0.89102E+03   -0.60175E+02   768   0.180E+02    0.720E+01
DAV:   7    -0.292832986341E+03   -0.16054E+03   -0.35610E+03   640   0.388E+02    0.112E+02
DAV:   8    -0.265574916193E+02    0.26628E+03   -0.15589E+03   528   0.520E+02    0.286E+01
DAV:   9    -0.219663868271E+02    0.45911E+01   -0.78343E+01   656   0.891E+01    0.652E+00
DAV:  10    -0.275157825008E+02   -0.55494E+01   -0.97148E+00   608   0.423E+01    0.185E+01
DAV:  11    -0.234448635058E+02    0.40709E+01   -0.50790E+01   528   0.800E+01    0.102E+01
DAV:  12    -0.217900523693E+02    0.16548E+01   -0.23343E+00   624   0.233E+01    0.431E+00
DAV:  13    -0.216854027419E+02    0.10465E+00   -0.77380E-02   752   0.299E+00    0.269E+00
DAV:  14    -0.216292348697E+02    0.56168E-01   -0.65048E-02   576   0.347E+00    0.224E+00
DAV:  15    -0.216067771385E+02    0.22458E-01   -0.61747E-02   592   0.349E+00    0.938E-01
DAV:  16    -0.216045550381E+02    0.22221E-02   -0.26662E-03   560   0.531E-01    0.187E-01
DAV:  17    -0.216053708362E+02   -0.81580E-03   -0.65293E-04   640   0.382E-01    0.209E-01
DAV:  18    -0.216047297688E+02    0.64107E-03   -0.19994E-03   576   0.658E-01    0.108E-01
DAV:  19    -0.216047431693E+02   -0.13401E-04   -0.80259E-05   720   0.865E-02    0.532E-02
DAV:  20    -0.216047439650E+02   -0.79567E-06   -0.38694E-06   640   0.256E-02
   1 F= -.21604744E+02 E0= -.21579607E+02  d E =-.754121E-01  mag=     0.0004
