LAMMPS (10 Feb 2015)
# ---- initialize simulations
clear
units metal
dimension 3
boundary p p p
atom_style charge
atom_modify map array
# ---- create atoms
read_data /Users/eugeneragasa/pyflamestk_git/pypospack/tests/tests_integration/workflow/WorkflowLammpsThermalExpansion/MgO_NaCl_unit.npt.T600/lammps.structure
  triclinic box = (0 0 0) to (4.2565 4.2565 4.2565) with tilt (0 0 0)
  1 by 1 by 1 MPI processor grid
  reading atoms ...
  8 atoms
# ---- define interatomic potential
include potential.mod
mass 1 24.305
mass 2 15.999

group Mg type 1
4 atoms in group Mg
group O type 2
4 atoms in group O

set group Mg charge 2.0
  4 settings made for charge
set group O charge -2.0
  4 settings made for charge

variable R_cut equal 10.0

pair_style buck/coul/long ${R_cut}
pair_style buck/coul/long 10
pair_coeff 1 1 0.0 0.5 0.0 ${R_cut}
pair_coeff 1 1 0.0 0.5 0.0 10
pair_coeff 1 2 821.6 0.3242 0.0 ${R_cut}
pair_coeff 1 2 821.6 0.3242 0.0 10
pair_coeff 2 2 2274.0 0.149 27.88 ${R_cut}
pair_coeff 2 2 2274.0 0.149 27.88 10

kspace_style pppm 1.0e-5

neighbor 1.0 bin
neigh_modify every 1 delay 0 check yes
# ---- define settings
compute eng all pe/atom
compute eatoms all reduce sum c_eng
# ---- run minimization
reset_timestep 0
fix 1 all box/relax iso 0.0 vmax 0.001
thermo 10
thermo_style custom step pe lx ly lz xy xz yz press pxx pyy pzz pxy pxz pyz c_eatoms
min_style cg
minimize 1e-25 1e-25 5000 10000
PPPM initialization ...
  G vector (1/distance) = 0.354854
  grid = 8 8 8
  stencil order = 5
  estimated absolute RMS force accuracy = 5.34408e-05
  estimated relative force accuracy = 3.71126e-06
  using double precision FFTs
  3d grid and FFT values/proc = 3375 512
Neighbor list info ...
  1 neighbor list requests
  update every 1 steps, delay 0 steps, check yes
  master list distance cutoff = 11
Memory usage per processor = 4.06549 Mbytes
Step PotEng Lx Ly Lz Xy Xz Yz Press Pxx Pyy Pzz Pxy Pxz Pyz eatoms 
       0   -162.12848       4.2565       4.2565       4.2565            0            0            0    -64012.53    -64012.53    -64012.53    -64012.53 -3.8759874e-11 -1.4292379e-10 -3.6687737e-10   -162.12848 
      10   -162.17871     4.213935     4.213935     4.213935            0            0            0   -4821.7526   -4821.7526   -4821.7526   -4821.7526 8.9106085e-11 8.5332225e-11 -4.2335946e-10   -162.17871 
      14   -162.17896    4.2106915    4.2106915    4.2106915            0            0            0    -1.347652    -1.347652    -1.347652    -1.347652 2.5597609e-11 1.0162971e-11 2.8091283e-10   -162.17896 
Loop time of 0.0127809 on 1 procs for 14 steps with 8 atoms

Minimization stats:
  Stopping criterion = linesearch alpha is zero
  Energy initial, next-to-last, final = 
        -162.128476026     -162.178964554     -162.178964554
  Force two-norm initial, final = 9.24344 0.000276677
  Force max component initial, final = 9.24344 0.000190436
  Final line search alpha, max atom move = 0.125 2.38044e-05
  Iterations, force evaluations = 14 33

Pair  time (%) = 0.00349927 (27.3789)
Kspce time (%) = 0.00204539 (16.0035)
Neigh time (%) = 0 (0)
Comm  time (%) = 0.00038147 (2.98468)
Outpt time (%) = 1.09673e-05 (0.0858097)
Other time (%) = 0.00684381 (53.5471)

Nlocal:    8 ave 8 max 8 min
Histogram: 1 0 0 0 0 0 0 0 0 0
Nghost:    2189 ave 2189 max 2189 min
Histogram: 1 0 0 0 0 0 0 0 0 0
Neighs:    2344 ave 2344 max 2344 min
Histogram: 1 0 0 0 0 0 0 0 0 0

Total # of neighbors = 2344
Ave neighs/atom = 293
Neighbor list builds = 0
Dangerous builds = 0
unfix 1
# ---- define output variables ----
variable natoms equal "count(all)"
variable tot_energy equal "c_eatoms"
variable length_x equal "lx"
variable length_y equal "ly"
variable length_z equal "lz"
variable tilt_xy equal "xy"
variable tilt_xz equal "xz"
variable tilt_yz equal "yz"
variable tot_press equal "press"
variable press_xx equal "pxx"
variable press_yy equal "pyy"
variable press_zz equal "pzz"
variable press_xy equal "pxy"
variable press_xz equal "pxz"
variable press_yz equal "pyz"

# ---- output ----
print "pypospack:output_section:begin"
pypospack:output_section:begin
print "tot_energy = ${tot_energy}"
tot_energy = -162.17896455406
print "num_atoms = ${natoms}"
num_atoms = 8
print "xx = ${length_x}"
xx = 4.21069146013408
print "yy = ${length_y}"
yy = 4.21069146013408
print "zz = ${length_z}"
zz = 4.21069146013408
print "xy = ${tilt_xy}"
xy = 0
print "xz = ${tilt_xz}"
xz = 0
print "yz = ${tilt_yz}"
yz = 0
print "tot_press = ${tot_press}"
tot_press = -1.34765197939399
print "pxx = ${press_xx}"
pxx = -1.34765197919426
print "pyy = ${press_yy}"
pyy = -1.3476519793348
print "pzz = ${press_zz}"
pzz = -1.34765197965291
print "pxy = ${press_xy}"
pxy = 2.55976090046832e-11
print "pxz = ${press_xz}"
pxz = 1.01629705561986e-11
print "pyz = ${press_yz}"
pyz = 2.80912827691917e-10
print "pypospack:output_section:done"
pypospack:output_section:done
print "pypospack:lammps_sim:done"
pypospack:lammps_sim:done
#------------------------------------------------------------------------------
# RUN THERMOSTAT
# running using an NPT Nose-Hoover style thermostat
#------------------------------------------------------------------------------
variable tempdamp equal 0.1
variable pressdamp equal 1.0
# set initial velocities
velocity all create 600 7830352 mom yes dist gaussian loop all
# fix for Nose-Hoover style thermostat
fix 20 all npt temp 600 600 0.1 aniso 0.0 0.0 1.0 drag 1.0 couple xyz
variable boxx equal lx
variable boxy equal ly
variable boxz equal lz
variable boxp equal press
variable boxt equal temp
# calculate averages every 10000 steps
reset_timestep 0
fix 21 all ave/time 10 10 100 v_boxx v_boxy v_boxz v_boxp v_boxt file lattice.out
thermo_style custom step temp pe ke etotal press lx ly lz press pxx pyy pzz pxy pxz pyz vol
thermo_modify flush yes
thermo 100
run 100000
PPPM initialization ...
  G vector (1/distance) = 0.355384
  grid = 8 8 8
  stencil order = 5
  estimated absolute RMS force accuracy = 5.2136e-05
  estimated relative force accuracy = 3.62065e-06
  using double precision FFTs
  3d grid and FFT values/proc = 3375 512
Memory usage per processor = 3.06549 Mbytes
Step Temp PotEng KinEng TotEng Press Lx Ly Lz Press Pxx Pyy Pzz Pxy Pxz Pyz Volume 
       0          600   -162.17896   0.54289261   -161.63607    7766.8546    4.2106915    4.2106915    4.2106915    7766.8546    7278.4379    12831.746    3190.3795    1670.6618   -3804.0227   -3006.6108    74.655234 
     100    149.34544   -161.69063   0.13513089   -161.55549    2395.4226    4.2285335    4.2285335    4.2285335    2395.4226    3881.4518    16850.667    -13545.85    9504.7196    3859.1421    5782.1555    75.608275 
     200     596.4355   -161.95446   0.53966738    -161.4148   -9680.4383     4.232301     4.232301     4.232301   -9680.4383   -10089.981   -5548.6897   -13402.644   -3507.6703    1620.0184   -199.19122    75.810549 
     300    458.66568   -161.70014   0.41501035   -161.28513    410.95499    4.2393545    4.2393545    4.2393545    410.95499   -11557.807    37826.163   -25035.491    6742.4917    1767.6856    2062.4239    76.190217 
     400    609.75566   -161.73844   0.55171974   -161.18672   -797.34902    4.2328086    4.2328086    4.2328086   -797.34902    9048.6281   -2233.1449   -9207.5303   -3924.0193    8384.5862   -813.25808    75.837828 
     500    533.24622   -161.60804   0.48249238   -161.12555    8756.1872    4.2227795    4.2227795    4.2227795    8756.1872    8646.0925    24897.638   -7275.1687    248.78723     -6330.89   -11523.681    75.300039 
     600    718.39366   -161.74947   0.65001768   -161.09946   -24076.839    4.2514546    4.2514546    4.2514546   -24076.839   -9686.8073   -23471.556   -39072.153    2003.9807    4931.9747     2360.706    76.844475 
     700    481.76158    -161.5297     0.435908   -161.09379    9536.5813    4.2408357    4.2408357    4.2408357    9536.5813   -21585.614    61030.264   -10834.906    1896.8451   -3993.2873   -6768.1674    76.270106 
     800    679.23664   -161.71459   0.61458759       -161.1    -2816.224    4.2338026    4.2338026    4.2338026    -2816.224   -16459.987    18814.886   -10803.571    4122.9693    -5119.317    6718.4436    75.891269 
     900    367.16933   -161.43369   0.33222252   -161.10147   -1802.7491    4.2394152    4.2394152    4.2394152   -1802.7491    -19742.29    23904.737    -9570.694   -14959.232    8010.6807   -409.95158    76.193487 
    1000    722.21512   -161.75306   0.65347542   -161.09959    6451.5449    4.2351281    4.2351281    4.2351281    6451.5449   -14280.929    49087.315   -15451.751    4338.1042   -4414.0754     4811.713    75.962568 
    1100    718.80084   -161.76157   0.65038611   -161.11119   -19059.939    4.2523217    4.2523217    4.2523217   -19059.939   -3864.2957   -5905.8982   -47409.624    1990.0483    -2590.132   -4424.4287    76.891503 
    1200    625.96644   -161.67854   0.56638759   -161.11215   -3914.1509     4.234067     4.234067     4.234067   -3914.1509   -2115.3219     13149.61   -22776.741    12111.629    6684.4204     2683.271    75.905486 
    1300    576.07971   -161.62057   0.52124903   -161.09932    21832.454    4.2215455    4.2215455    4.2215455    21832.454    18844.136    40181.888    6471.3373    632.37936   -11818.812    1778.8784    75.234049 
    1400    638.63837    -161.6708   0.57785342   -161.09295   -12761.133    4.2427735    4.2427735    4.2427735   -12761.133   -10574.587    10446.313   -38155.126   -5038.2982    1333.6033   -3112.1804    76.374706 
    1500    783.26976   -161.79508   0.70871894   -161.08637   -9503.3991    4.2453295    4.2453295    4.2453295   -9503.3991   -8202.9011    4036.5034     -24343.8   -3872.8116    2594.5067    2651.4897    76.512819 
    1600    220.23236   -161.29564   0.19927086   -161.09637    13360.038    4.2476882    4.2476882    4.2476882    13360.038    46974.425    36899.508   -43793.819    4310.1866   -11995.611   -3019.3761    76.640421 
    1700    945.31928   -161.95623   0.85534475   -161.10089    5618.9266    4.2270731    4.2270731    4.2270731    5618.9266    10369.421    20338.663   -13851.304   -7592.5544    4721.3918    1518.0209    75.529964 
    1800    407.84796   -161.47538   0.36902941   -161.10635    5980.9155    4.2315784    4.2315784    4.2315784    5980.9155    10982.641    31979.689   -25019.584    563.94566   -3693.9627    2330.4098    75.771726 
    1900    578.50578   -161.62217   0.52344418   -161.09872   -6707.4749    4.2459211    4.2459211    4.2459211   -6707.4749   -7859.9435     7406.807   -19669.288     6659.637   -7017.7254    2932.4984     76.54481 
    2000    629.17233   -161.66505   0.56928834   -161.09576   -1686.0324    4.2475991    4.2475991    4.2475991   -1686.0324   -6353.6605    39527.713    -38232.15   -336.10527    8180.8781    3578.8941    76.635599 
    2100    604.57886   -161.64192   0.54703565   -161.09488    1715.7847    4.2440674    4.2440674    4.2440674    1715.7847    17736.354        25681       -38270    3468.4895   -2692.8511   -2590.4467    76.444603 
    2200    439.37595   -161.49408   0.39755659   -161.09652     11620.79    4.2252591    4.2252591    4.2252591     11620.79    12869.792    44504.704   -22512.124    8863.3423    5946.1501    946.51696    75.432765 
    2300    665.16037   -161.70182   0.60185108   -161.09997    -12520.93    4.2350524    4.2350524    4.2350524    -12520.93   -9806.6074    4642.7741   -32398.958   -234.15906    12697.452    3829.7908    75.958499 
    2400    649.82916   -161.68642   0.58797908   -161.09844   -4980.1223    4.2474744    4.2474744    4.2474744   -4980.1223   -17054.734    39585.618   -37471.251    1059.6862   -1921.7174    1881.5001    76.628851 
    2500    461.41854    -161.5115   0.41750119   -161.09399    9958.8094    4.2411314    4.2411314    4.2411314    9958.8094    -7134.346    58072.904    -21062.13   -4038.9781    1199.2884    3614.8983     76.28606 
    2600    478.57996   -161.53051    0.4330292   -161.09748   -3390.0621    4.2378603    4.2378603    4.2378603   -3390.0621   -250.28454    13899.097   -23818.999    2764.2514    5735.6795    -3809.865     76.10968 
    2700    842.68861   -161.86566   0.76248236   -161.10317   -5807.7534    4.2261091    4.2261091    4.2261091   -5807.7534   -7863.1378    1357.4475    -10917.57    9367.0917   -3558.1377    2006.2453    75.478298 
    2800    415.17518   -161.48716   0.37565923    -161.1115    1483.4187    4.2435814    4.2435814    4.2435814    1483.4187   -9064.0806    38924.286    -25409.95    5812.5632    6335.7496   -430.36856    76.418345 
    2900    476.91521   -161.53346   0.43152291   -161.10194    6027.0855    4.2449259    4.2449259    4.2449259    6027.0855   -15812.856    57826.763    -23932.65    2077.3132    1292.2419     1990.162    76.491003 
    3000    658.66744   -161.69219   0.59597614   -161.09621   -8827.7349    4.2342264    4.2342264    4.2342264   -8827.7349    3757.0155   -402.12655   -29838.094      1834.52   -10364.633    3111.0105     75.91406 
    3100    616.99798   -161.65328   0.55827273   -161.09501   -4540.8716    4.2345927    4.2345927    4.2345927   -4540.8716    8425.7577    7005.5404   -29053.913   -11138.224    5077.0181   -4945.2541    75.933766 
    3200    461.56035   -161.51435    0.4176295   -161.09672    18786.777    4.2357117    4.2357117    4.2357117    18786.777    3517.6568    64134.453   -11291.778    -1210.274    -6543.384   -2428.1512    75.993978 
    3300     435.1989   -161.49413   0.39377711   -161.10036   -3035.1893    4.2501373    4.2501373    4.2501373   -3035.1893   -8355.3549    32837.078   -33587.291    -3066.688   -4748.7574   -2526.2151    76.773067 
    3400    833.49283   -161.85356   0.75416182    -161.0994   -19655.408     4.236514     4.236514     4.236514   -19655.408   -11944.204    -17552.82   -29469.201    837.61001    5740.5373    5893.4105    76.037166 
    3500    450.23214   -161.51274    0.4073795   -161.10536    4572.5601    4.2294681    4.2294681    4.2294681    4572.5601    16169.061    20615.705   -23067.086   -4351.9119   -9189.8592    10395.481    75.658419 
    3600    552.34399   -161.60331   0.49977245   -161.10354    1803.9077    4.2414487    4.2414487    4.2414487    1803.9077   -8681.1274    42593.415   -28500.564    1298.0424   -4072.2556   -2383.4404    76.303185 
    3700     803.7167   -161.82914   0.72721976   -161.10192   -2918.1619    4.2392829    4.2392829    4.2392829   -2918.1619   -9821.9312    22849.875    -21782.43   -5920.7503    4158.6019    3512.6323    76.186355 
    3800    595.66192   -161.64712   0.53896743   -161.10815   -9669.5619    4.2473913    4.2473913    4.2473913   -9669.5619   -16106.412    14065.937    -26968.21   -2197.0496   -7437.3251   -5423.3779    76.624355 
    3900    535.78473    -161.5904   0.48478928   -161.10561    11234.466    4.2362017    4.2362017    4.2362017    11234.466   -12636.766     61009.68   -14669.517   -3965.4327   -4519.0584    1223.4206    76.020354 
    4000    398.00898   -161.46477   0.36012689   -161.10465    12318.149    4.2412103    4.2412103    4.2412103    12318.149   -4616.7125    70979.578   -29408.418   -146.04408    3631.9206    2098.8152    76.290317 
    4100      702.722   -161.74108   0.63583763   -161.10525   -14737.783    4.2473036    4.2473036    4.2473036   -14737.783   -33816.517    17081.005   -27477.837   -1371.7918   -2955.5672   -3116.4229    76.619607 
    4200    820.61519   -161.84584   0.74250987   -161.10333    5815.4651    4.2326791    4.2326791    4.2326791    5815.4651    1354.6655    20065.911    -3974.181   -1286.4788    1243.3172    -4980.036    75.830867 
    4300    493.27769   -161.54882   0.44632802   -161.10249    13580.514    4.2331355    4.2331355    4.2331355    13580.514   -7962.5994    46999.936    1704.2057   -1954.7117    859.04731   -2554.0609    75.855402 
    4400    729.97147   -161.75829   0.66049353   -161.09779   -19393.822    4.2468003    4.2468003    4.2468003   -19393.822   -20225.262   -3919.8073   -34036.396   -1190.5187    19.152033    5528.3898    76.592372 
    4500    780.40446   -161.79953   0.70612636    -161.0934   -15789.823    4.2476105    4.2476105    4.2476105   -15789.823   -30086.238    18639.025   -35922.255     8973.965    3482.6743    1954.8872    76.636219 
    4600    536.51239   -161.58012   0.48544768   -161.09467    13660.676    4.2359597    4.2359597    4.2359597    13660.676    3714.9739    48920.298   -11653.244    7798.5557   -1539.1207    1689.0349    76.007329 
    4700    501.14802   -161.54892   0.45344926   -161.09547    -4254.431    4.2337196    4.2337196    4.2337196    -4254.431    -2517.075   -4486.8558   -5759.3623    10233.771    -2139.341   -5314.5759    75.886805 
    4800    734.61543    -161.7576   0.66469548    -161.0929    -6496.594    4.2367989    4.2367989    4.2367989    -6496.594   -5124.2326   -3906.0726   -10459.477     3305.791    5354.4844     2299.789    76.052512 
    4900    374.30461   -161.44313   0.33867867   -161.10445    13162.879    4.2458366    4.2458366    4.2458366    13162.879    13331.749    58725.995   -32569.106    9181.0078   -4349.1819    3726.6173    76.540242 
    5000    553.58751   -161.61321   0.50089761   -161.11231   -7074.4826    4.2403365    4.2403365    4.2403365   -7074.4826   -4489.6235    12227.961   -28961.786   -3754.5218    1843.4237    11381.048    76.243176 
    5100    516.51128   -161.57462   0.46735026   -161.10727   -4921.7952    4.2331735    4.2331735    4.2331735   -4921.7952    10799.299    2400.3047   -27964.989   -1525.6747    6955.0627    10035.583    75.857445 
    5200    745.23869   -161.77256   0.67430763   -161.09826   -634.19387    4.2358156    4.2358156    4.2358156   -634.19387   -14786.372    24672.899   -11789.108    6603.3754   -4625.5415     1230.996    75.999573 
    5300    270.24171   -161.34001   0.24452038   -161.09549    20075.848     4.238886     4.238886     4.238886    20075.848   -4363.4418    75878.476   -11287.489    11072.835     1089.989    6608.4485    76.164961 
    5400     716.8306   -161.74452   0.64860339   -161.09592   -17475.147      4.24374      4.24374      4.24374   -17475.147   -21309.725   -9947.0895   -21168.625    5813.8454    4928.0651    1178.7334    76.426909 
    5500    689.99497   -161.72126   0.62432195   -161.09693   -4799.6084    4.2352154    4.2352154    4.2352154   -4799.6084   -914.10523    14756.043   -28240.763   -2774.6267   -1967.2225    3474.0733    75.967269 
    5600    530.70069   -161.57751   0.48018914   -161.09733    13247.503      4.23426      4.23426      4.23426    13247.503    782.35895    54579.979   -15619.831    2611.8496    6220.6388    5699.0078    75.915869 
    5700    490.28075   -161.54352   0.44361632    -161.0999    4657.3749     4.241235     4.241235     4.241235    4657.3749   -13682.599     62581.71   -34926.986    4744.6667    4324.8809   -1188.1701    76.291653 
    5800     827.1853   -161.84923   0.74845464   -161.10077   -18782.491    4.2440173    4.2440173    4.2440173   -18782.491   -12433.123   -7710.0728   -36204.278    6096.5207   -4004.6118    2831.2987    76.441896 
    5900    374.32291    -161.4408   0.33869524   -161.10211   -1371.3734    4.2394994    4.2394994    4.2394994   -1371.3734    14329.161    20325.445   -38768.726    8188.3481    6456.3655   -477.98481    76.198027 
    6000    611.05416   -161.64901   0.55289465   -161.09611     8300.724    4.2314304    4.2314304    4.2314304     8300.724    8368.9616    33876.285   -17343.074    12410.266   -1214.9762   -4059.3443    75.763774 
    6100    503.22199   -161.55074   0.45532583   -161.09542    4141.3955    4.2388263    4.2388263    4.2388263    4141.3955    8303.1748    38133.256   -34012.244     2348.745   -5942.7687    7320.3373    76.161742 
    6200     783.6764   -161.80418   0.70908687   -161.09509   -9650.1769    4.2421827    4.2421827    4.2421827   -9650.1769   -17653.153    22768.457   -34065.835    282.06206    2394.9095   -3654.3787    76.342804 
    6300    256.73567    -161.3375   0.23229983    -161.1052    14116.066    4.2422266    4.2422266    4.2422266    14116.066    2800.1475    59460.036   -19911.985    4791.5992   -3546.4685    -1409.589    76.345175 
    6400    541.30922   -161.59814   0.48978795   -161.10836    128.41416    4.2400968    4.2400968    4.2400968    128.41416   -678.36757    16607.223   -15543.613    4583.5824   -2599.9546   -2805.6071    76.230244 
    6500    695.34155   -161.73115   0.62915964   -161.10199   -11198.806    4.2379515    4.2379515    4.2379515   -11198.806   -25317.097    8807.4533   -17086.773   -1251.8849    1059.4005    1088.8372    76.114595 
    6600    425.69646   -161.48258    0.3851791    -161.0974    3437.0826    4.2385958    4.2385958    4.2385958    3437.0826   -11519.418    47997.901   -26167.236    4521.7012   -8988.0837    1631.2897    76.149317 
    6700     415.4753   -161.47166   0.37593078   -161.09573    5079.2222    4.2350583    4.2350583    4.2350583    5079.2222   -924.81853    41799.448   -25636.962    1037.2859   -4120.7632   -7281.5661    75.958817 
    6800    871.94186   -161.88615   0.78895132    -161.0972    -13813.91    4.2380978    4.2380978    4.2380978    -13813.91   -4820.3905   -3234.0091    -33387.33   -1775.8036    518.13317   -2341.5309    76.122479 
    6900    682.89257   -161.72893   0.61789555   -161.11104   -8070.5091    4.2468797    4.2468797    4.2468797   -8070.5091   -7144.2985    14289.328   -31356.557   -6999.7389   -4763.9828    1252.1215    76.596669 
    7000    364.78555     -161.443   0.33006563   -161.11293    6567.2099    4.2417296    4.2417296    4.2417296    6567.2099   -12794.407    42834.639   -10338.602    10563.142    1546.9292    1546.6889    76.318347 
    7100    592.86037   -161.64019   0.53643253   -161.10376    4038.3474    4.2303394    4.2303394    4.2303394    4038.3474    2327.3529    23491.361   -13703.672    6131.8656    -1939.807    2649.2621    75.705184 
    7200    636.21588   -161.67394    0.5756615   -161.09828   -4556.4175    4.2388567    4.2388567    4.2388567   -4556.4175   -17768.531    28585.891   -24486.612   -3509.8541   -9009.0981    1710.8583    76.163382 
    7300    844.05739    -161.8571   0.76372087   -161.09338   -16822.714     4.246485     4.246485     4.246485   -16822.714   -25967.827    11632.022   -36132.338    4079.5785     2061.593   -2825.7785    76.575315 
    7400    267.62154   -161.34373    0.2421496   -161.10158    11834.312    4.2423638    4.2423638    4.2423638    11834.312   -19437.031    65440.816   -10500.848   -10737.293   -977.18506   -4564.9266    76.352583 
    7500    747.78309   -161.77539   0.67660986   -161.09878    11687.301    4.2302461    4.2302461    4.2302461    11687.301   -3890.2046    34729.578    4222.5285    5000.2113   -2914.8705    1308.8965     75.70018 
    7600    691.84863   -161.72518   0.62599918   -161.09918   -2175.0673    4.2354826    4.2354826    4.2354826   -2175.0673   -15096.274    19719.163   -11148.091   -1241.8977    6321.5274    6092.1396    75.981645 
    7700      490.932   -161.54038   0.44420559   -161.09617   -5417.6197    4.2459051    4.2459051    4.2459051   -5417.6197    4671.7251    6807.5929   -27732.177   -9800.6192   -161.94514    6915.7983    76.543948 
    7800    559.87026   -161.60467   0.50658237   -161.09809    2928.5554    4.2408386    4.2408386    4.2408386    2928.5554   -13208.942    54242.292   -32247.684   -368.98027    887.99221   -3256.4454    76.270259 
    7900    619.72414   -161.66535   0.56073942   -161.10461    -2237.382    4.2374715    4.2374715    4.2374715    -2237.382   -5108.5092    23707.767   -25311.404   -3860.8469    5001.4984    625.72995    76.088735 
    8000      565.029   -161.61339   0.51125011   -161.10214   -2292.5838    4.2336288    4.2336288    4.2336288   -2292.5838   -10574.291    26562.983   -22866.443    5425.3972   -6931.6438    4939.4621    75.881925 
    8100    723.97821   -161.75863    0.6550707   -161.10356   -2298.1323    4.2394697    4.2394697    4.2394697   -2298.1323   -3978.8826     25779.13   -28694.645   -736.55131    6280.8408   -1318.1564    76.196425 
    8200     583.7634   -161.63553    0.5282014   -161.10732   -3674.9523    4.2473587    4.2473587    4.2473587   -3674.9523   -3902.1434    38443.332   -45566.045    5818.6078    5842.9063    1110.6701    76.622586 
    8300    703.27092   -161.74302   0.63633431   -161.10669   -4178.8584    4.2333441    4.2333441    4.2333441   -4178.8584   -1054.8475    10082.991   -21564.718   -1652.7096   -1676.5313   -10410.461    75.866618 
    8400    442.63758   -161.50884   0.40050779   -161.10834    2330.1273    4.2356587    4.2356587    4.2356587    2330.1273    8620.5847    27477.542   -29107.745    3258.5374    10415.706   -838.72198    75.991124 
    8500    602.95475   -161.64867   0.54556613    -161.1031    320.12621    4.2405088    4.2405088    4.2405088    320.12621    -26009.66    48208.675   -21238.637   -7302.4044   -2664.7927    -197.4936    76.252468 
    8600    572.30715   -161.62278   0.51783553   -161.10495    3903.0868    4.2339406    4.2339406    4.2339406    3903.0868   -1648.1873    42060.934   -28703.486   -485.13089   -6436.6795    -8950.252    75.898691 
    8700    522.65768   -161.57895   0.47291165   -161.10604   -11739.308    4.2429952    4.2429952    4.2429952   -11739.308   -17639.126    20902.902   -38481.699   -3738.0251    8130.7477    934.52296    76.386679 
    8800    612.16397   -161.65486   0.55389883   -161.10096    9106.7538    4.2313832    4.2313832    4.2313832    9106.7538    4797.5399    40501.939   -17979.217     2976.481    817.51942    2261.1548    75.761239 
    8900    530.43846   -161.58268   0.47995187   -161.10273    5130.6717     4.241945     4.241945     4.241945    5130.6717   -1284.5894    45791.438   -29114.834      1149.11   -7402.3754    3330.5043    76.329971 
    9000    699.15968   -161.73047   0.63261437   -161.09786   -14045.559    4.2433768    4.2433768    4.2433768   -14045.559   -23002.819    6288.3928   -25422.249    1503.7101    3609.1455    5973.8571     76.40729 
    9100    438.20175   -161.49556   0.39649415   -161.09906    8335.1812    4.2293085    4.2293085    4.2293085    8335.1812   -4354.8851    24844.229    4516.1997    17505.342   -3699.0957   -3443.5492    75.649852 
    9200    580.46821   -161.62756   0.52521984   -161.10235   -1047.3611    4.2386015    4.2386015    4.2386015   -1047.3611   -10088.588    41971.879   -35025.374   -2642.4729   -2203.2053    4765.3877    76.149626 
    9300     550.5459   -161.60089    0.4981455   -161.10274    6649.5351    4.2376283    4.2376283    4.2376283    6649.5351    189.99028    47311.894   -27553.279    3469.8352   -311.56077   -3851.6826    76.097184 
    9400    542.63078   -161.59833   0.49098374   -161.10734   -11873.319    4.2417542    4.2417542    4.2417542   -11873.319   -12014.233    8162.4006   -31768.123   -7764.6522   -6246.4272   -5693.9581    76.319674 
    9500    764.00498   -161.79568   0.69128776   -161.10439   -7734.1507    4.2407851    4.2407851    4.2407851   -7734.1507    2666.8561    3040.4525   -28909.761    1720.5936    491.29195    758.54723    76.267377 
    9600    655.87906   -161.69396   0.59345316   -161.10051    5446.3289    4.2377265    4.2377265    4.2377265    5446.3289    218.17747     39294.77   -23173.961   -4154.9868   -1431.5886   -3331.3744    76.102472 
    9700    556.41111    -161.6015   0.50345246   -161.09805   -826.63056    4.2416592    4.2416592    4.2416592   -826.63056   -1102.4261    24272.539   -25650.005    243.64599    1752.5303    8546.3944    76.314543 
    9800     597.3972   -161.63747   0.54053754   -161.09693    1541.3045    4.2385849    4.2385849    4.2385849    1541.3045    24443.139    6265.6459   -26084.872    5100.5549    4312.7242    4642.3535    76.148728 
    9900    662.16236   -161.69804   0.59913842    -161.0989    2036.9396    4.2396381    4.2396381    4.2396381    2036.9396   -15328.058    39739.212   -18300.335    2819.7129   -3470.0531   -197.92376     76.20551 
   10000     352.5074   -161.42063   0.31895611   -161.10167    23275.064    4.2376141    4.2376141    4.2376141    23275.064    17204.087    61028.188   -8407.0836    1471.6175      3162.63    1842.5046    76.096419 
   10100    748.03435   -161.78277    0.6768372   -161.10593   -17981.531     4.244145     4.244145     4.244145   -17981.531   -16986.435    2152.6697   -39110.827    1973.3408   -424.07171    2252.4424    76.448792 
   10200    891.12859   -161.90995   0.80631188   -161.10364   -8480.2375    4.2353404    4.2353404    4.2353404   -8480.2375     2802.676   -1160.3446   -27083.044     3887.848   -5863.7042    5756.3509    75.973994 
   10300    459.85695   -161.51966   0.41608824   -161.10357    17199.391    4.2331317    4.2331317    4.2331317    17199.391    28291.633    45657.575   -22351.035     4991.198    6251.0652   -2968.0791    75.855198 
   10400    816.09002   -161.83731    0.7384154    -161.0989    -16641.54    4.2395735    4.2395735    4.2395735    -16641.54   -24170.055    6906.1018   -32660.666   -7305.7123   -3124.6284     508.9494    76.202021 
   10500    569.06154   -161.61476   0.51489884   -161.09986     1114.861    4.2350697    4.2350697    4.2350697     1114.861    2120.5127    22782.534   -21558.464   -4791.6226   -4029.8483   -7703.1649    75.959427 
   10600    576.21426   -161.62083   0.52137077   -161.09946    3898.9009    4.2420799    4.2420799    4.2420799    3898.9009   -16529.837    40798.832   -12572.292    4579.1966    3323.0276   -2675.0635    76.337253 
   10700     704.2038   -161.73473    0.6371784   -161.09755   -418.17533    4.2402019    4.2402019    4.2402019   -418.17533    13312.393    6400.1682   -20967.087    103.77713   -6266.2929    5224.0931    76.235911 
   10800    589.85638   -161.62966   0.53371445   -161.09595    5104.0907    4.2387707    4.2387707    4.2387707    5104.0907    10680.688    22118.833   -17487.249   -1612.5723   -4420.2265   -7558.4755    76.158744 
   10900    565.50763   -161.60435   0.51168319   -161.09267   -843.31375    4.2399343    4.2399343    4.2399343   -843.31375   -15501.143    30621.748   -17650.547    2173.8604   -6027.1108    7655.5715    76.221482 
   11000    649.58261   -161.67695     0.587756   -161.08919   -6855.1085    4.2404665    4.2404665    4.2404665   -6855.1085   -2096.6967    14115.828   -32584.456     224.2288   -9130.5335    3090.0686    76.250187 
   11100    743.75991   -161.76274   0.67296959   -161.08977   -10588.712    4.2408008    4.2408008    4.2408008   -10588.712   -11437.797    10883.074   -31211.414   -7384.3864   -744.08449    -2061.077    76.268224 
   11200    346.90869   -161.41161   0.31389027   -161.09771     10725.26    4.2326684    4.2326684    4.2326684     10725.26    36848.066    18354.327   -23026.612   -6014.2095     -2652.45    17906.954    75.830292 
   11300    579.16633   -161.62865   0.52404187   -161.10461   -1617.1112    4.2345647    4.2345647    4.2345647   -1617.1112    7962.1992   -7274.0377    -5539.495   -6403.3307     -413.997    2795.9714    75.932257 
   11400    485.25882    -161.5427   0.43907238   -161.10363   -1854.4989    4.2437767    4.2437767    4.2437767   -1854.4989     -18416.6     41641.93   -28788.827   -5721.9325   -1071.8748       2615.3    76.428892 
   11500     500.3075   -161.55059   0.45268874    -161.0979     9205.073    4.2406028    4.2406028    4.2406028     9205.073    18097.321    24372.841   -14854.943    2714.4767   -3011.5339    8742.6389    76.257539 
   11600    582.12904    -161.6237   0.52672259   -161.09698   -1956.9397    4.2404275    4.2404275    4.2404275   -1956.9397   -166.17959    24354.145   -30058.785     2251.284    976.08816   -13948.651    76.248082 
   11700    513.01362   -161.56037   0.46418551   -161.09618    3679.3634    4.2425178    4.2425178    4.2425178    3679.3634    9224.0587     25786.69   -23972.659    3841.2362   -2020.4825   -1330.7389    76.360896 
   11800    506.88892    -161.5518   0.45864375   -161.09316    3891.6759    4.2383093    4.2383093    4.2383093    3891.6759    14220.579    21826.355   -24371.906   -1166.5615    1885.0678   -491.78191    76.133877 
   11900    815.20956   -161.83142   0.73761874    -161.0938   -18028.014    4.2428464    4.2428464    4.2428464   -18028.014   -21114.357   -1094.8277   -31874.857    2453.5889    1266.9671   -6692.0508    76.378644 
   12000    381.80092   -161.44617    0.3454615   -161.10071    9914.2277     4.246194     4.246194     4.246194    9914.2277    26249.014    32707.776   -29214.107    3673.6864   -3751.5207    8022.4449    76.559574 
   12100    702.77097   -161.73276   0.63588194   -161.09688   -1438.5627    4.2400332    4.2400332    4.2400332   -1438.5627   -11050.371    25667.854   -18933.171    4659.5326    430.48096   -2617.9268    76.226816 
   12200    581.08026   -161.62226   0.52577363   -161.09649     4307.134    4.2343296    4.2343296    4.2343296     4307.134    15465.194      3746.39   -6290.1817   -4148.5077   -4627.6127    6247.9386    75.919614 
   12300    400.39227   -161.45779   0.36228334   -161.09551    1069.8378    4.2419463    4.2419463    4.2419463    1069.8378    6636.1835    19797.459   -23224.129    2157.8131    660.44254     5651.565    76.330039 
   12400    852.29935   -161.86069   0.77117836   -161.08951   -10852.781    4.2414497    4.2414497    4.2414497   -10852.781   -16056.106     14477.36   -30979.598    -6104.772    1650.6927   -3430.5097    76.303239 
   12500    581.39335   -161.62345   0.52605692   -161.09739    2864.0216    4.2413593    4.2413593    4.2413593    2864.0216    14415.047    22048.239   -27871.221   -3572.3011   -5351.0689    3545.9286     76.29836 
   12600    682.11813   -161.71843   0.61719482   -161.10123   -8030.7037    4.2431619    4.2431619    4.2431619   -8030.7037   -15602.422    9555.2046   -18044.894     1985.878   -439.19861   -2404.6744    76.395683 
   12700    371.75788   -161.43394   0.33637434   -161.09757    17223.715    4.2374457    4.2374457    4.2374457    17223.715    23347.286    37028.636   -8704.7773   -2073.1342    5290.1478   -3251.7617    76.087346 
   12800    799.81713   -161.81888   0.72369135   -161.09519   -7935.3098    4.2410916    4.2410916    4.2410916   -7935.3098   -4265.5495    1408.2838   -20948.664   -6989.9023    1484.1739   -4024.1002     76.28391 
   12900    519.37853   -161.56981   0.46994461   -161.09987     2618.951    4.2474248    4.2474248    4.2474248     2618.951    445.88044    30273.206   -22862.234    -1508.952    4149.3302   -3161.3928    76.626168 
   13000    504.86402    -161.5516   0.45681157   -161.09479    3286.6076    4.2453889    4.2453889    4.2453889    3286.6076    23922.348    5437.5064   -19500.031    796.34663    5713.9617   -571.22782     76.51603 
   13100    628.37582   -161.65954   0.56856765   -161.09097   -6982.2136    4.2365437    4.2365437    4.2365437   -6982.2136   -5086.3003    2041.4641   -17901.805   -6403.8384    8729.2717   -1127.3219    76.038765 
   13200    553.76575   -161.59361   0.50105889   -161.09255    3414.9747    4.2401032    4.2401032    4.2401032    3414.9747    800.98934    25948.885    -16504.95   -701.75602     6843.762    5042.5266    76.230588 
   13300    472.03413   -161.52265    0.4271064   -161.09554    3568.5042    4.2461589    4.2461589    4.2461589    3568.5042     32194.82    6699.0807   -28188.388    5028.6054     904.5398   -1136.3199    76.557671 
   13400     777.1445   -161.80378   0.70317668    -161.1006   -9953.0326    4.2409362    4.2409362    4.2409362   -9953.0326    -12299.44    4870.7955   -22430.454    587.70982   -2770.8483    -4005.216    76.275525 
   13500    560.15077   -161.61491   0.50683619   -161.10807   -4536.1381    4.2427948    4.2427948    4.2427948   -4536.1381    7611.5521   -8246.4394   -12973.527   -7146.8407   -4137.1765    7591.4616    76.375857 
   13600    636.12413   -161.67471   0.57557848   -161.09914   -4585.8341    4.2379613    4.2379613    4.2379613   -4585.8341    14046.663   -5641.8269   -22162.338    4074.8951   -2841.6149     -9909.07    76.115126 
   13700    626.90808   -161.65848   0.56723961   -161.09124    8545.2842    4.2287267    4.2287267    4.2287267    8545.2842    10036.193    16922.223   -1322.5631   -10216.159    2701.7432   -4008.9049     75.61864 
   13800    624.74871   -161.65861   0.56528576   -161.09333   -4389.3834    4.2468966    4.2468966    4.2468966   -4389.3834    10304.896    6431.3042   -29904.351    794.25904    4854.0947    4548.9729     76.59758 
   13900    740.64017   -161.75736   0.67014679   -161.08721   -12083.777    4.2469724    4.2469724    4.2469724   -12083.777   -501.90669   -13249.746   -22499.679    2342.5135   -306.23017   -7468.4085    76.601686 
   14000    566.55751   -161.60418   0.51263314   -161.09154    458.43554    4.2394799    4.2394799    4.2394799    458.43554    -4691.593    16765.438   -10698.538   -1052.5815    111.39516    8083.5842    76.196978 
   14100     570.2972   -161.61672   0.51601689    -161.1007    11781.694    4.2368187    4.2368187    4.2368187    11781.694    39589.186    2894.2191   -7138.3228   -2398.9101   -5160.2382   -1750.5666    76.053576 
   14200     643.6561   -161.68366   0.58239356   -161.10127   -3294.8292    4.2371785    4.2371785    4.2371785   -3294.8292   -11922.241     19465.78   -17428.026    1870.7868   -11303.659    1609.4882    76.072953 
   14300    573.03047   -161.61708   0.51849001   -161.09859   -3324.4822    4.2384701    4.2384701    4.2384701   -3324.4822    1126.4947   -2891.4523   -8208.4891    10728.779   -6033.5049    6029.7075    76.142545 
   14400    564.35162    -161.6114    0.5106372   -161.10076   -3036.7363    4.2491794    4.2491794    4.2491794   -3036.7363    15938.359    7784.6519    -32833.22    647.19294   -439.53152   -3706.7392    76.721169 
   14500    682.06007   -161.71081   0.61714229   -161.09367    -6987.686    4.2468872    4.2468872    4.2468872    -6987.686    -2294.313    4977.2821   -23646.027    9224.8247    491.77073    676.08898    76.597074 
   14600    569.07216   -161.60442   0.51490845   -161.08951    7214.5399    4.2360273    4.2360273    4.2360273    7214.5399    27355.226   -2218.4267   -3493.1797    6156.7566    2760.2408   -11107.808    76.010963 
   14700    723.79399   -161.74655   0.65490402   -161.09165   -13059.453    4.2408644    4.2408644    4.2408644   -13059.453   -6335.5857    -12152.38   -20690.394    5057.7932    2650.0221   -4660.7144    76.271655 
   14800    690.26196   -161.71386   0.62456353   -161.08929   -5919.1265     4.242404     4.242404     4.242404   -5919.1265    2707.7515   -1818.7556   -18646.375   -3246.5776   -5762.8902   -6226.3916    76.354753 
   14900    411.41753   -161.46239   0.37225923   -161.09013    10432.845    4.2420225    4.2420225    4.2420225    10432.845    39127.752     1337.818   -9167.0343    1685.2608    1851.5548   -10548.469    76.334154 
   15000    934.77153   -161.94038   0.84580092   -161.09458   -17628.032    4.2421877    4.2421877    4.2421877   -17628.032   -13378.122   -19172.281   -20333.693   -7125.8098    -3434.761    7146.1414    76.343076 
   15100    565.91606   -161.61089   0.51205274   -161.09884   -1269.5831    4.2387847    4.2387847    4.2387847   -1269.5831    13986.759     100.9382   -17896.446    1351.3145    5781.5966   -7694.1417    76.159496 
   15200    677.75675    -161.7087   0.61324855   -161.09545    -5850.503    4.2399333    4.2399333    4.2399333    -5850.503    8820.1515   -13305.351    -13066.31    4421.3352    4892.1763   -1892.8067    76.221425 
   15300    773.37945   -161.79292   0.69976998   -161.09315   -3546.7048    4.2413697    4.2413697    4.2413697   -3546.7048   -1614.3575    18477.834   -27503.591   -1969.8336     2921.322    1462.3073    76.298921 
   15400    504.94894   -161.54824   0.45688841   -161.09135    16488.971    4.2408625    4.2408625    4.2408625    16488.971    29928.105    13935.315    5603.4935   -31.563617    4005.4441   -7691.5493    76.271549 
   15500    767.91052   -161.78339   0.69482157   -161.08857   -12028.573      4.23927      4.23927      4.23927   -12028.573   -8133.5941   -12745.821   -15206.306    9385.7999   -305.41278    12670.724    76.185661 
   15600    447.94528   -161.49566    0.4053103   -161.09035    6432.5105    4.2401648    4.2401648    4.2401648    6432.5105    25596.018    10606.454   -16904.941    10010.356    567.84302   -2551.2097    76.233912 
   15700    707.48695   -161.73037   0.64014906   -161.09022   -7635.5326    4.2407439    4.2407439    4.2407439   -7635.5326   -4984.7088     14493.23   -32415.119    1598.4917   -12501.803   -1739.5959    76.265154 
   15800    614.78968   -161.65205   0.55627462   -161.09578    2646.8428    4.2422363    4.2422363    4.2422363    2646.8428    452.25033    30783.179   -23294.901    1849.8227   -5872.5754    5802.9752    76.345695 
   15900    460.56075   -161.51643   0.41672504   -161.09971    13990.594    4.2410701    4.2410701    4.2410701    13990.594    27544.652      20915.4   -6488.2701    2832.9816   -1913.3199   -6322.9818    76.282752 
   16000     561.8197    -161.6055   0.50834627   -161.09715      5175.05    4.2389434    4.2389434    4.2389434      5175.05   -3527.2947    22916.662    -3864.217    -6819.091    510.09205      7797.18    76.168054 
   16100    493.76724   -161.54026   0.44677097   -161.09349    1949.8455    4.2475206    4.2475206    4.2475206    1949.8455    24432.377    4546.7436   -23129.584   -1447.4147    377.52325   -1622.8932    76.631349 
   16200    575.55367   -161.60728   0.52077306   -161.08651   -2223.1852     4.243714     4.243714     4.243714   -2223.1852   -5436.6904    30401.001   -31633.867   -1956.6352   -6483.1591   -5410.9583    76.425506 
   16300    570.81251   -161.60183   0.51648315   -161.08534    1171.5437    4.2362102    4.2362102    4.2362102    1171.5437     3903.395     27139.74   -27528.504   -7213.3103    2291.1887    7579.0437    76.020813 
   16400    518.81194   -161.55794   0.46943194   -161.08851    4379.9567    4.2374229    4.2374229    4.2374229    4379.9567    16659.159    9545.7366   -13065.025    3287.8878   -3353.8206   -2775.7949     76.08612 
   16500     691.6765   -161.71343   0.62584343   -161.08759   -5983.4417     4.240478     4.240478     4.240478   -5983.4417   -10485.451    1092.5435   -8557.4171   -176.41302    -7315.827    1650.6718    76.250809 
   16600    520.49413   -161.56179   0.47095403   -161.09084    3481.1061    4.2459565    4.2459565    4.2459565    3481.1061     13744.72    5911.6757   -9213.0777    2271.7409    9075.2451    3538.1745    76.546728 
   16700    780.39657   -161.80597   0.70611922   -161.09985   -5887.5333    4.2420016    4.2420016    4.2420016   -5887.5333   -19877.039    15762.011   -13547.571   -1864.9163   -2892.5119    32.959814    76.333025 
   16800    494.12126   -161.55089    0.4470913    -161.1038   -4136.0034    4.2382139    4.2382139    4.2382139   -4136.0034    4831.9086   -8592.2882   -8647.6307    9084.0257   -3168.1206    -2043.828    76.128736 
   16900    471.44695   -161.52346   0.42657511   -161.09688    1626.0409    4.2303557    4.2303557    4.2303557    1626.0409     12744.92   -14143.175    6276.3778    10927.456   -543.11371   -11058.656    75.706062 
   17000    808.02068   -161.82415   0.73111409   -161.09303   -13529.348    4.2419371    4.2419371    4.2419371   -13529.348    -16986.18    2968.7006   -26570.565    9040.6349    6894.7166   -2139.1489    76.329547 
   17100      287.195   -161.34964   0.25986007   -161.08978    14183.375    4.2476977    4.2476977    4.2476977    14183.375    10258.514    44760.737   -12469.126    5800.8731    7149.5915   -264.30208    76.640935 
   17200    975.95959   -161.96993   0.88306875   -161.08686   -21674.532    4.2395224    4.2395224    4.2395224   -21674.532   -16162.588   -19820.198    -29040.81    1723.9147   -1203.8154    716.46903    76.199271 
   17300    456.55028   -161.51306   0.41309629   -161.09996    12378.795    4.2372435    4.2372435    4.2372435    12378.795    24031.868     5676.228    7428.2891    11742.223    6750.6914   -8623.6425    76.076457 
   17400    650.20546   -161.68738   0.58831956   -161.09906   -893.57259    4.2408432    4.2408432    4.2408432   -893.57259    6634.4663    -6414.835   -2900.3491   -3766.9874    -1329.314   -2494.5481    76.270509 
   17500    583.40076   -161.62267   0.52787327   -161.09479   -8342.5799    4.2421842    4.2421842    4.2421842   -8342.5799   -8732.0691    6735.5483   -23031.219    4701.4393     4495.576    992.25447    76.342883 
   17600    465.51688   -161.51237   0.42120945   -161.09117    2113.7622    4.2424297    4.2424297    4.2424297    2113.7622     10621.51    13722.515   -18002.738   -718.78392     12258.95   -5681.9446    76.356139 
   17700    715.59788    -161.7344     0.647488   -161.08692   -17701.455    4.2420693    4.2420693    4.2420693   -17701.455   -13957.958   -4693.3778   -34453.028    5210.0495    5712.4545    4888.4786    76.336682 
   17800     489.3482   -161.53161   0.44277254   -161.08884    8975.9837    4.2368509    4.2368509    4.2368509    8975.9837    25725.703    12196.449   -10994.201    1887.5253    7366.0624    4566.3592    76.055312 
   17900    473.46669   -161.52446   0.42840261   -161.09606    8822.9644    4.2380985    4.2380985    4.2380985    8822.9644    -4034.387    32758.428    -2255.148    1396.6768    4374.1962    1529.8443    76.122519 
   18000    544.06344   -161.58723   0.49228004   -161.09495   -4927.3763    4.2467642    4.2467642    4.2467642   -4927.3763   -8239.6308    6127.1199   -12669.618     3129.916    4124.8502    1728.4518    76.590421 
   18100    557.36015   -161.59511   0.50431117    -161.0908    2077.8677    4.2418153    4.2418153    4.2418153    2077.8677    19658.488    463.36544   -13888.251   -592.96806     8748.736   -276.79939    76.322968 
   18200    636.61986    -161.6676   0.57602703   -161.09158   -17294.621    4.2367021    4.2367021    4.2367021   -17294.621   -10553.895   -10573.924   -30756.044    7632.7585    833.87113    2876.9479    76.047297 
   18300    605.46813    -161.6399   0.54784029   -161.09206    4495.4397    4.2298563    4.2298563    4.2298563    4495.4397    16886.374    8867.1404   -12267.195    9312.4889    1248.8781    1120.2689    75.679255 
   18400    534.06467   -161.57786   0.48323294   -161.09463     8041.257    4.2409062    4.2409062    4.2409062     8041.257     2930.409    40690.159   -19496.797    8208.3673    -802.8358   -1288.8581    76.273908 
   18500    755.55816   -161.77949    0.6836449   -161.09585    -15318.99    4.2508504    4.2508504    4.2508504    -15318.99     499.0815   -20852.359   -25603.691    -6318.666   -263.97763    -600.8184    76.811718 
   18600    576.79526    -161.6176   0.52189647    -161.0957   -487.68639    4.2421866    4.2421866    4.2421866   -487.68639    25222.256   -10743.929   -15941.386    4830.9653    1428.1716    3123.4328    76.343016 
   18700    828.38037   -161.84439   0.74953597   -161.09485   -6981.7095    4.2338227    4.2338227    4.2338227   -6981.7095   -5164.9385    5918.1078   -21698.298    10110.356     -1254.72    138.89309    75.892348 
   18800    450.47822   -161.50399   0.40760216   -161.09639    22136.605    4.2308311    4.2308311    4.2308311    22136.605     35907.84    30207.945    294.02914    2037.4925    5307.1161   -5499.9154    75.731587 
   18900    740.11436    -161.7667   0.66967102   -161.09703   -13869.587    4.2455311    4.2455311    4.2455311   -13869.587    3623.9753   -14487.986   -30744.751   -1213.2851    -3339.204   -2295.4541     76.52372 
   19000    655.83318   -161.68796   0.59341165   -161.09455   -15807.303     4.248046     4.248046     4.248046   -15807.303   -5030.2512   -21618.811   -20772.845    1885.1231   -7447.4503    1799.1539    76.659793 
   19100    401.82756   -161.45614   0.36358202   -161.09256     6251.602    4.2349435    4.2349435    4.2349435     6251.602    30447.968   -758.40816   -10934.754    5678.1509   -536.76647    -493.9674     75.95264 
   19200     721.0326   -161.74257   0.65240545   -161.09016   -13563.717    4.2357027    4.2357027    4.2357027   -13563.717   -19178.909   -4770.7394   -16741.504   -6966.0602   -394.03154    573.35109    75.993493 
   19300    458.09102   -161.50531   0.41449038   -161.09082    17322.207    4.2363663    4.2363663    4.2363663    17322.207    30390.983    31262.527   -9686.8875    7895.9184   -1398.8489    1334.5505    76.029219 
   19400     389.8777   -161.44849   0.35276954   -161.09572    7263.3322    4.2472797    4.2472797    4.2472797    7263.3322    49269.024   -10384.173   -17094.855    6881.3666   -1499.3524   -1455.0811    76.618313 
   19500    633.86038   -161.67584   0.57353019   -161.10231   -16649.015    4.2406715    4.2406715    4.2406715   -16649.015   -18569.621   -16014.644   -15362.781    9219.6811    1484.4255     1590.357    76.261243 
   19600    445.86839   -161.50661   0.40343109   -161.10317    7606.1031    4.2277214    4.2277214    4.2277214    7606.1031    10479.918    8904.8895    3433.5015    9029.1949   -263.75872    608.98418    75.564719 
   19700    637.05348   -161.67544   0.57641938   -161.09902    5234.9647    4.2359219    4.2359219    4.2359219    5234.9647    28178.661   -2807.5095   -9666.2574   -1756.7092    -3288.888    1880.0346    76.005291 
   19800    594.79754   -161.63691   0.53818531   -161.09873    1236.3972    4.2399091    4.2399091    4.2399091    1236.3972    6489.9889    24124.147   -26904.945   -2790.6589    4132.6985    7548.2153    76.220121 
   19900    799.68428   -161.82445   0.72357114   -161.10088   -20844.397    4.2450868    4.2450868    4.2450868   -20844.397   -5268.5896   -18311.521    -38953.08    10398.871   -3519.8652   -1750.7024    76.499698 
   20000    572.12058      -161.62   0.51766672   -161.10233   -677.96758    4.2405152    4.2405152    4.2405152   -677.96758    35460.581   -12465.993    -25028.49   -2010.3475    5028.8067    2379.0152    76.252811 
   20100    595.80843   -161.64413   0.53909999   -161.10503    525.69395    4.2355572    4.2355572    4.2355572    525.69395   -3389.4393    10844.097   -5877.5763   -1508.3248   -7267.5552    3856.2501    75.985662 
   20200    762.90715   -161.79131   0.69029442   -161.10102    -7888.708    4.2349417    4.2349417    4.2349417    -7888.708     2420.402   -3021.2201   -23065.306    11590.038   -9930.5578   -4564.2276    75.952541 
   20300     537.3271   -161.58434   0.48618485   -161.09815    12580.206    4.2396404    4.2396404    4.2396404    12580.206    37571.928    6077.7264    -5909.035    4152.3902    1851.6553    909.04565    76.205634 
   20400    625.81837    -161.6622   0.56625361   -161.09595   -7611.8921    4.2457933    4.2457933    4.2457933   -7611.8921    17971.771    -10925.48   -29881.967    6138.7484   -9345.4283    4208.9596    76.537901 
   20500    703.60857   -161.73032   0.63663982   -161.09368   -9384.8846    4.2393607    4.2393607    4.2393607   -9384.8846   -8546.4788   -9074.2661   -10533.909    17365.277    963.07754    2131.9762    76.190552 
   20600    369.91346   -161.42938   0.33470547   -161.09467    13447.596     4.235465     4.235465     4.235465    13447.596    34558.934     20794.55   -15010.697    14489.798   -264.15956   -811.22863    75.980699 
   20700    692.00062   -161.72322    0.6261367   -161.09708   -4313.5446    4.2436672    4.2436672    4.2436672   -4313.5446     29530.14   -18205.991   -24264.783    3143.9177   -2241.3039   -1420.7957    76.422977 
   20800    480.10223   -161.53214   0.43440659   -161.09773    4118.0615    4.2485933    4.2485933    4.2485933    4118.0615    25313.365    13635.684   -26594.864    8947.8163    5006.2931    29.398881    76.689423 
   20900     579.6028   -161.62032    0.5244368   -161.09588   -1089.7597    4.2352653    4.2352653    4.2352653   -1089.7597    4748.7136    2273.0281   -10291.021    14452.622   -7344.3006    -381.3335    75.969951 
   21000    472.35467   -161.52286   0.42739643   -161.09546   -3659.2258    4.2332889    4.2332889    4.2332889   -3659.2258   -9553.1397    467.91168   -1892.4495    15460.765    1126.4564    3114.0047    75.863649 
   21100    562.67821   -161.60126   0.50912307   -161.09213    9987.2573    4.2395829    4.2395829    4.2395829    9987.2573    5615.0202    27467.582   -3120.8299    8711.4575    2550.1673    518.55054    76.202533 
   21200    427.89158   -161.48206   0.38716529    -161.0949    14352.291    4.2463183    4.2463183    4.2463183    14352.291    69452.922   -9518.8586   -16877.191    9536.8365    561.99912       769.92    76.566293 
   21300    421.82897   -161.48481   0.38167971   -161.10313    2687.4973    4.2472916    4.2472916    4.2472916    2687.4973    7241.2657    32466.596    -31645.37    8430.8296   -3530.8241   -301.31722    76.618954 
   21400    579.43012   -161.62799   0.52428055   -161.10371   -2147.8074    4.2342328    4.2342328    4.2342328   -2147.8074   -2579.5436    8972.9087   -12836.787      5919.64   -3714.8318   -4750.7391    75.914407 
   21500    787.32814   -161.81544   0.71239104   -161.10305   -7747.6824    4.2379369    4.2379369    4.2379369   -7747.6824    4597.3498    965.19802   -28805.595   -827.11986     6562.209   -3287.4002    76.113809 
   21600    434.55001   -161.49433   0.39318998   -161.10114    8035.7187     4.245433     4.245433     4.245433    8035.7187     36563.98    1570.4444   -14027.268    1712.2131   -3408.2862    2297.9031    76.518418 
   21700    675.51733   -161.70831   0.61122227   -161.09709   -16400.102    4.2431164    4.2431164    4.2431164   -16400.102   -7540.3913   -18774.433   -22885.482   -794.99796    2805.5199    2218.8045    76.393225 
   21800    575.48966    -161.6148   0.52071514   -161.09409   -1952.0677    4.2371914    4.2371914    4.2371914   -1952.0677    -5328.663    6441.8404   -6969.3805   -6883.7095    2577.6448   -530.96233     76.07365 
   21900    589.85038    -161.6249   0.53370902   -161.09119    13520.157    4.2349952    4.2349952    4.2349952    13520.157    43329.857   -139.76045   -2629.6248   -4378.2341   -6952.1897    3111.8665     75.95542 
   22000    637.99967    -161.6725   0.57727551   -161.09522   -4620.4045    4.2427793    4.2427793    4.2427793   -4620.4045    5889.9205   -4185.0396   -15566.094    3616.9086   -350.72207    2170.4426     76.37502 
   22100    691.79766   -161.72032   0.62595306   -161.09437   -11960.083    4.2417621    4.2417621    4.2417621   -11960.083   -14305.649    1776.9313    -23351.53   -5644.8859    -4444.212   -4685.5718    76.320097 
   22200    558.16783   -161.60659   0.50504199   -161.10155     3892.646    4.2385748    4.2385748    4.2385748     3892.646    35986.688   -12888.684   -11420.067    -4759.011    773.74664   -2341.7647    76.148185 
   22300    474.20531   -161.53079   0.42907093   -161.10171    5108.1962    4.2416512    4.2416512    4.2416512    5108.1962    22980.973    12570.656   -20227.039   -952.00448   -4028.4551   -1942.8199    76.314114 
   22400    628.79979   -161.66573   0.56895126   -161.09678   -11470.986    4.2414918    4.2414918    4.2414918   -11470.986   -18007.426   -885.83981   -15519.694   -3547.5813   -3539.0843     1876.835    76.305509 
   22500    595.31083   -161.63429   0.53864975   -161.09564    2615.5565    4.2367799    4.2367799    4.2367799    2615.5565    10714.364     13344.38   -16212.074   -5891.9951    3133.5619    5987.0108    76.051489 
   22600    526.80688   -161.57211   0.47666593   -161.09544    15724.305    4.2359641    4.2359641    4.2359641    15724.305    23351.959    32998.783   -9177.8275   -1207.5303   -9758.9513   -1242.5572    76.007564 
   22700    723.39421   -161.75161   0.65454229   -161.09706   -2393.0781     4.242845     4.242845     4.242845   -2393.0781    862.44206    5885.3944   -13927.071    3107.2358   -501.01291   -3484.2494    76.378566 
   22800    411.06737   -161.47269   0.37194239   -161.10074    6456.8122     4.247697     4.247697     4.247697    6456.8122    16617.391    31087.229   -28334.184   -506.96037    8733.5568    -597.4238    76.640901 
   22900    474.96015   -161.53066   0.42975393    -161.1009    7511.1561    4.2412837    4.2412837    4.2412837    7511.1561     16657.59    29761.497   -23885.619    4080.0655    1339.6575   -2824.9989     76.29428 
   23000    702.47895   -161.73618   0.63561771   -161.10056   -1437.6294    4.2342917    4.2342917    4.2342917   -1437.6294    14084.677    10333.353   -28730.918    3129.1732    9963.9396     997.2022    75.917571 
   23100    629.01667   -161.67226   0.56914751   -161.10311   -10914.222    4.2420974    4.2420974    4.2420974   -10914.222   -9188.8265    6523.5262   -30077.366    9719.7631   -6242.0299    3248.9445    76.338199 
   23200    539.82345   -161.58793    0.4884436   -161.09948   -4680.0998    4.2415833    4.2415833    4.2415833   -4680.0998    13790.601   -237.19658   -27593.704   -3534.8683   -2683.2142    2738.1756    76.310448 
   23300    757.77096   -161.77901   0.68564709   -161.09336   -3644.1123    4.2364145    4.2364145    4.2364145   -3644.1123   -8797.1706    5618.1569   -7753.3233   -8067.3923    7754.2137    3805.7772    76.031813 
   23400    472.31372   -161.51952   0.42735938   -161.09216    11100.059    4.2374035    4.2374035    4.2374035    11100.059    14566.189    23055.129   -4321.1407   -8484.1128   -11009.559   -1910.3807    76.085073 
   23500    728.62562   -161.74896   0.65927577   -161.08969   -7415.6869    4.2346662    4.2346662    4.2346662   -7415.6869    16158.119    -14473.64    -23931.54   -344.46064    769.58704   -3595.5713    75.937717 
   23600    494.47212   -161.54458   0.44740877   -161.09718   -1164.8624    4.2424106    4.2424106    4.2424106   -1164.8624    12213.794    11385.661   -27094.042    -3247.764   -4587.2407   -2437.5364    76.355106 
   23700    681.91291     -161.716   0.61700913   -161.09899    1203.7686    4.2369927    4.2369927    4.2369927    1203.7686    31876.343    2489.7428    -30754.78   -4256.7053    -6683.069    2948.2916    76.062945 
   23800     707.0739   -161.73415   0.63977532   -161.09438    2193.7892    4.2346304    4.2346304    4.2346304    2193.7892   -4365.7583    24397.441   -13450.315    2625.1286    8027.3183    165.32434    75.935792 
   23900    377.95712   -161.43393   0.34198355   -161.09194   -2912.4781    4.2368137    4.2368137    4.2368137   -2912.4781   -4225.7386    23463.212   -27974.908    12086.716   -7706.4081   -309.97095    76.053306 
   24000    727.74297   -161.74588   0.65847713    -161.0874   -16940.192    4.2369855    4.2369855    4.2369855   -16940.192   -28271.584   -4924.5837   -17624.409    2421.6261    -7938.302    5741.5435    76.062561 
   24100    356.25294   -161.41364   0.32234514   -161.09129     15413.48    4.2411441    4.2411441    4.2411441     15413.48    41481.224    24344.624   -19585.409   -5841.3008     5878.563   -297.08783    76.286744 
   24200    746.76221   -161.76746   0.67568614   -161.09177   -2053.3287    4.2368188    4.2368188    4.2368188   -2053.3287    16865.279   -7004.6522   -16020.613    5707.6789    -6043.741   -7090.5363    76.053581 
   24300     407.1551   -161.46455   0.36840249   -161.09615    4586.6692    4.2370345    4.2370345    4.2370345    4586.6692   -10480.085    37320.653    -13080.56    7275.2962    8939.1349   -896.30828      76.0652 
   24400     701.9441   -161.72842   0.63513377   -161.09329   -19129.705    4.2425583    4.2425583    4.2425583   -19129.705   -23069.561   -699.05745   -33620.497   -4362.0694    2321.9987    52.740115    76.363085 
   24500    473.80267   -161.52413   0.42870661   -161.09543    8125.9878    4.2429984    4.2429984    4.2429984    8125.9878    34444.643    11621.382   -21688.062   -497.72004   -3411.9913    -528.9709    76.386851 
   24600     519.4032   -161.56538   0.46996693   -161.09541     2387.854    4.2402695    4.2402695    4.2402695     2387.854      19200.1    16931.834   -28968.372    9884.3026    1922.7103    2982.3536    76.239558 
   24700    620.89078   -161.65597   0.56179502   -161.09417   -12782.813    4.2294213    4.2294213    4.2294213   -12782.813   -13863.151   -8038.3555   -16446.932    11464.767    -13662.21    3724.4086    75.655906 
   24800    310.74892   -161.37738   0.28117215   -161.09621    3344.3235    4.2331195    4.2331195    4.2331195    3344.3235   -8215.2761    35025.482   -16777.235   -129.97999   -9547.6921    3725.4467    75.854542 
   24900     713.9077   -161.73729   0.64595869   -161.09133   -12171.376    4.2409308    4.2409308    4.2409308   -12171.376    1289.5828   -17715.147   -20088.565   -1077.6552   -3592.4491   -3282.5668    76.275234 
   25000    492.69031   -161.54075   0.44579655   -161.09496    9471.7444    4.2410289    4.2410289    4.2410289    9471.7444    14750.111    25222.166   -11557.043    4515.1242   -4078.9118   -245.71508    76.280532 
   25100    543.18641   -161.59189   0.49148648    -161.1004   -2517.4942    4.2382643    4.2382643    4.2382643   -2517.4942    8128.7598   -522.88811   -15158.354    8168.0816   -3529.2358   -3597.2076    76.131452 
   25200    635.97531    -161.6747   0.57544382   -161.09925   -8901.9684    4.2372097    4.2372097    4.2372097   -8901.9684    1398.7268   -1571.2638   -26533.368    645.85927   -9408.4531    1630.9618    76.074636 
   25300    586.45922   -161.63031   0.53064063   -161.09967    2579.3623    4.2423291    4.2423291    4.2423291    2579.3623    10839.647    27116.877   -30218.436    7152.4479   -2374.5538    6926.2038    76.350709 
   25400    633.29244   -161.67418   0.57301631   -161.10116   -14165.952    4.2447918    4.2447918    4.2447918   -14165.952    14487.322   -18955.808    -38029.37   -2597.3019   -7221.4867    -8153.598    76.483751 
   25500    388.42964    -161.4492    0.3514593   -161.09774   -4178.8549    4.2316881    4.2316881    4.2316881   -4178.8549   -3926.7205    21767.152   -30376.997   -563.25577   -181.60233    -1937.873    75.777617 
   25600    546.08228    -161.5882   0.49410673    -161.0941    112.54167    4.2306283    4.2306283    4.2306283    112.54167   -7508.8682    18587.229   -10740.736    12073.305     11064.55   -681.27438    75.720697 
   25700      506.881   -161.55352   0.45863658   -161.09489     5074.644    4.2446168    4.2446168    4.2446168     5074.644    35430.843    12550.543   -32757.455     8401.521   -4407.4368   -8190.8517    76.474294 
   25800    489.67852   -161.53749   0.44307142   -161.09442    8729.1624    4.2417368    4.2417368    4.2417368    8729.1624    36963.712    9252.0694   -20028.294   -4100.1716    3195.8421   -269.32026    76.318735 
   25900    561.05007   -161.60499    0.5076499   -161.09734   -17029.829    4.2362743    4.2362743    4.2362743   -17029.829   -25946.998    11769.055   -36911.545    1406.7426   -8152.9721   -2114.7298    76.024264 
   26000    489.44807   -161.54459    0.4428629   -161.10173    2097.5197    4.2265513    4.2265513    4.2265513    2097.5197   -6021.1754    20631.299   -8317.5649    8948.1675   -11471.653   -1591.7681    75.501996 
   26100    568.23643   -161.61439   0.51415226   -161.10023    6417.4947    4.2344386    4.2344386    4.2344386    6417.4947    16895.456     24983.49   -22626.462    598.73524    7641.9353    4915.8999    75.925478 
   26200    495.19932   -161.54501   0.44806675   -161.09695   -1506.9458    4.2418089    4.2418089    4.2418089   -1506.9458    35091.578   -5115.2196   -34497.196   -7964.0358   -6179.2241   -6354.6287    76.322626 
   26300    604.08405   -161.64065   0.54658795   -161.09406   -6126.4818    4.2357732    4.2357732    4.2357732   -6126.4818   -7191.7049     17309.55   -28497.291   -603.37879     9392.401   -845.27082    75.997286 
   26400    444.89645   -161.49929   0.40255166   -161.09673   -3074.7972    4.2330592    4.2330592    4.2330592   -3074.7972   -7025.4084    30671.907    -32870.89   -5914.3066    11031.643    2418.9615    75.851299 
   26500    797.10399   -161.81648   0.72123644   -161.09524   -4112.5483    4.2333131    4.2333131    4.2333131   -4112.5483   -6331.2291    10203.178   -16209.594   -6046.3926   -5690.9886     73.58219    75.864947 
   26600    309.98535   -161.37654   0.28048126   -161.09606    16157.816    4.2392601    4.2392601    4.2392601    16157.816    29325.951    38487.357    -19339.86   -7606.8237    4677.9872     4003.815    76.185126 
   26700    810.38592   -161.82426   0.73325421   -161.09101   -8100.6169    4.2372715    4.2372715    4.2372715   -8100.6169   -192.89601   -7772.1057   -16336.849   -4611.5957    4558.9583   -2536.9494    76.077964 
   26800    390.13446   -161.44894   0.35300186   -161.09594    7399.0499     4.233047     4.233047     4.233047    7399.0499    28752.184    19939.803   -26494.837    1422.6086   -1337.0587   -2225.1833    75.850646 
   26900    660.84013    -161.6947   0.59794204   -161.09675   -4291.4616    4.2379338    4.2379338    4.2379338   -4291.4616    5552.8834    8264.8017    -26692.07   -276.30383    4545.3606    3222.0238    76.113643 
   27000    575.04025   -161.61592    0.5203085   -161.09562   -2270.1232     4.242652     4.242652     4.242652   -2270.1232    6642.9685    18295.259   -31748.597   -1985.9592    -2952.152   -4125.0043    76.368145 
   27100    498.07212   -161.54582   0.45066612   -161.09515    2332.2045    4.2407659    4.2407659    4.2407659    2332.2045    21607.085    13257.897   -27868.368   -7691.9585    1600.0397    879.18519    76.266341 
   27200    655.36085    -161.6917   0.59298427   -161.09872   -10981.864    4.2384153    4.2384153    4.2384153   -10981.864   -1879.9781   -9537.3525    -21528.26    1013.7491   -6180.9634    4713.6609    76.139587 
   27300    560.85377   -161.60532   0.50747227   -161.09785    2830.1202     4.233124     4.233124     4.233124    2830.1202    16657.922    11462.012   -19629.574   -4225.3463   -7180.9258   -2563.1686    75.854784 
   27400    597.57819    -161.6372   0.54070131    -161.0965    8631.1711    4.2358785    4.2358785    4.2358785    8631.1711    22621.012    18478.505   -15206.004     963.3715    6136.6856    873.46042    76.002957 
   27500    609.50769   -161.64786   0.55149536   -161.09637    -7093.876    4.2449059    4.2449059    4.2449059    -7093.876   -9434.2321    29000.571   -40847.967   -131.94941   -1219.0848   -908.25183    76.489921 
   27600    598.14394   -161.63756   0.54121321   -161.09634   -6090.5067    4.2373124    4.2373124    4.2373124   -6090.5067    5277.7954   -9574.7157     -13974.6    3017.1118    8362.3611   -2728.6353    76.080167 
   27700    456.49727   -161.50982   0.41304832   -161.09677    4124.7135    4.2290274    4.2290274    4.2290274    4124.7135    25199.104   -6126.3751   -6698.5884    6384.7638    2163.5032    6899.4236    75.634769 
   27800     736.4044   -161.75862   0.66631417   -161.09231   -5359.3516    4.2309388    4.2309388    4.2309388   -5359.3516   -4285.1291    7102.6896   -18895.615   -7820.0239   -4051.2961   -179.18806    75.737373 
   27900    404.82139   -161.45867    0.3662909   -161.09238    12979.387    4.2359328    4.2359328    4.2359328    12979.387    210.03687    56108.526   -17380.402     3792.832    16252.745    1018.0368     76.00588 
   28000    593.05468   -161.63081   0.53660834    -161.0942   -3963.4013    4.2472696    4.2472696    4.2472696   -3963.4013   -13195.497    28824.169   -27518.876   -10194.315    1359.3154    5950.9527    76.617767 
   28100    737.05963   -161.76547   0.66690705   -161.09856   -17983.221    4.2386718    4.2386718    4.2386718   -17983.221    -3576.675   -28156.628   -22216.359    5289.7247    3339.0213   -2305.5285    76.153413 
   28200    313.01592   -161.38197   0.28322339   -161.09874    13218.676    4.2267517    4.2267517    4.2267517    13218.676      16760.3    5659.4426    17236.285   -12174.018    1297.5409   -3398.9646    75.512734 
   28300    735.26342   -161.76066    0.6652818   -161.09537   -5643.9858    4.2352142    4.2352142    4.2352142   -5643.9858    -14853.12    14566.149   -16644.986   -3540.0874   -6173.3623   -5728.9749    75.967201 
   28400    372.04701   -161.42965   0.33663595   -161.09302    11613.014    4.2439802    4.2439802    4.2439802    11613.014   -20353.514    74295.512   -19102.956    1626.8831    7210.0801   -662.10004    76.439891 
   28500    838.35721    -161.8477   0.75856322   -161.08914   -20055.662    4.2464326    4.2464326    4.2464326   -20055.662   -20005.269    443.25479   -40604.972   -1321.0674   -253.86365    3111.1182    76.572479 
   28600    447.39759   -161.49895   0.40481474   -161.09414    4690.0888    4.2360624    4.2360624    4.2360624    4690.0888    5281.1726    29655.957   -20866.863   -3519.9186   -3002.2508   -5042.5886    76.012854 
   28700    725.40785   -161.75101   0.65636427   -161.09465    7206.1241    4.2308189    4.2308189    4.2308189    7206.1241    24360.706    8241.7899   -10984.123   -5002.3435    5182.6727    5752.3545    75.730933 
   28800    508.69517   -161.55713   0.46027808   -161.09685   -6651.5136    4.2421902    4.2421902    4.2421902   -6651.5136    -16734.13    29375.618   -32596.029    4480.6299   -8244.5309    1386.1844    76.343207 
   28900    786.68865   -161.80827   0.71181242   -161.09645   -11184.989    4.2426019    4.2426019    4.2426019   -11184.989   -2916.2945   -1692.0317    -28946.64    1526.0856   -3785.6769    1465.1073    76.365438 
   29000      543.059   -161.59154   0.49137119   -161.10017     11728.65    4.2393263    4.2393263    4.2393263     11728.65    25172.998    37707.404   -27694.452    4206.0098    3221.2011    3955.5345    76.188693 
   29100    967.95967    -161.9708   0.87583025   -161.09497    328.05787    4.2304429    4.2304429    4.2304429    328.05787    8349.4858    3981.8834   -11347.196    10420.454   -5226.3338   -3205.9449    75.710745 
   29200    378.15158    -161.4402   0.34215949   -161.09804    16137.454    4.2313839    4.2313839    4.2313839    16137.454    28831.872    33108.702   -13528.213    9777.3552    4713.0958    2908.7921     75.76128 
   29300    870.95755   -161.87961   0.78806069   -161.09154   -32486.317    4.2458488    4.2458488    4.2458488   -32486.317   -27215.066   -19668.276   -50575.609   -2140.9277   -2875.0585    1253.0377    76.540904 
   29400    522.98764   -161.56661   0.47321021    -161.0934    893.14953    4.2438565    4.2438565    4.2438565    893.14953    10511.923    29777.737   -37610.212     3943.828   -4790.0797   -7187.8677    76.433206 
   29500    672.83747   -161.70139   0.60879748   -161.09259    -1484.325    4.2404194    4.2404194    4.2404194    -1484.325    14125.406    18232.681   -36811.062    4525.1101    628.28001    5468.7278    76.247646 
   29600    729.06571   -161.75127   0.65967398    -161.0916   -2932.4425    4.2275053    4.2275053    4.2275053   -2932.4425     3406.334    1933.2666   -14136.928   -826.41875   -2750.9014   -8605.2256    75.553136 
   29700    354.07898   -161.41599    0.3203781   -161.09561    6647.8083    4.2322735    4.2322735    4.2322735    6647.8083    22171.796    17671.588    -19899.96   -1395.7597    1206.8101   -8696.5461    75.809072 
   29800    757.84519   -161.77796   0.68571425   -161.09225   -13419.735    4.2460241    4.2460241    4.2460241   -13419.735   -32587.481    13632.619   -21304.344   -1197.5676    1718.6816   -1391.2438    76.550382 
   29900    408.51662   -161.46308   0.36963442   -161.09344    16209.253    4.2435507    4.2435507    4.2435507    16209.253    29932.796    39421.034    -20726.07    2271.6805   -3098.0509   -7593.0825    76.416684 
   30000    619.95122   -161.65285    0.5609449   -161.09191   -6797.0263    4.2406179    4.2406179    4.2406179   -6797.0263    10877.874   -13402.492   -17866.461   -7730.1208   -3197.4427   -551.46212    76.258353 
   30100    581.64192   -161.62318   0.52628183    -161.0969   -12637.863    4.2334978    4.2334978    4.2334978   -12637.863   -20774.481    5250.4175   -22389.524   -1908.8831   -11478.978    193.33382    75.874881 
   30200    625.56127   -161.66813   0.56602098   -161.10211   -1164.7378    4.2374577    4.2374577    4.2374577   -1164.7378    8467.4469    12888.614   -24850.274    3902.4446    3885.1313    2584.7886    76.087995 
   30300     581.3119   -161.62512   0.52598323   -161.09914    6939.0073    4.2388571    4.2388571    4.2388571    6939.0073   -7610.6946    50683.522   -22255.805    1167.3494    1787.1118    8389.5549    76.163401 
   30400    656.42815   -161.69004   0.59394999   -161.09609   -3550.1116    4.2373495    4.2373495    4.2373495   -3550.1116    13590.585   -5230.1882   -19010.731    7977.7317    -8565.478   -2519.8218    76.082164 
   30500    397.30023   -161.46019    0.3594856    -161.1007    2268.9685    4.2368373    4.2368373    4.2368373    2268.9685     18610.03   -10887.127   -915.99761     2985.827   -192.44507    807.99486     76.05458 
   30600    696.45832   -161.72753   0.63017012   -161.09736   -4536.5556    4.2351398    4.2351398    4.2351398   -4536.5556   -2437.9275   -8593.7741   -2577.9651    10312.908   -5184.5627    3146.0245    75.963198 
   30700    565.29817   -161.60651   0.51149367   -161.09502    10900.028    4.2391745    4.2391745    4.2391745    10900.028    11581.451    30233.482   -9114.8478    3294.3342    2515.5076    486.08014    76.180511 
   30800    621.53216   -161.65473   0.56237536   -161.09235   -2450.4711    4.2425205    4.2425205    4.2425205   -2450.4711   -10467.452    24603.099    -21487.06   -6720.0291     7088.555    5507.1782    76.361044 
   30900    723.26934   -161.74573    0.6544293    -161.0913   -14493.774    4.2403066    4.2403066    4.2403066   -14493.774   -5558.0133     -9537.78   -28385.528    10268.809   -2649.5565    1258.1465    76.241559 
   31000    364.44866   -161.42423    0.3297608   -161.09447    9082.0115    4.2350079    4.2350079    4.2350079    9082.0115     30009.34    1720.2453    -4483.551   -5950.8899   -2381.3539    487.82329    75.956104 
   31100    942.11753   -161.94484   0.85244774   -161.09239   -10090.369    4.2354127    4.2354127    4.2354127   -10090.369   -5218.2526   -7659.8392   -17393.017   -877.98593    5089.3431   -6275.8937    75.977885 
   31200     394.0741   -161.45012   0.35656653   -161.09355    14818.359    4.2399344    4.2399344    4.2399344    14818.359    4470.4554    46287.107   -6302.4848   -8233.6779   -5152.8067    -5670.532    76.221487 
   31300    796.25179   -161.81074   0.72046535   -161.09027   -11177.649    4.2402965    4.2402965    4.2402965   -11177.649   -12676.481    215.09169   -21071.557   -1902.2405   -2227.2776   -451.55111    76.241015 
   31400    654.45416   -161.68622   0.59216387   -161.09405   -2444.7157    4.2363763    4.2363763    4.2363763   -2444.7157    4970.4526     10802.76    -23107.36   -5003.6504     1419.632    -3532.361    76.029755 
   31500     388.6184   -161.45223   0.35163009    -161.1006     19715.57     4.236257     4.236257     4.236257     19715.57    50977.041    20951.748   -12782.078   -3765.3903    5848.7022    654.81898     76.02333 
   31600    627.73101   -161.67135   0.56798421   -161.10337   -5798.7378    4.2437169    4.2437169    4.2437169   -5798.7378    1611.4765    8614.9052   -27622.595    2397.9162    1102.9575   -1335.8531    76.425662 
   31700    691.69599   -161.72644   0.62586106   -161.10058   -14988.941    4.2438071    4.2438071    4.2438071   -14988.941   -7601.4436   -8145.1731   -29220.206   -10860.989    2375.8881   -1671.8555    76.430538 
   31800    479.90138   -161.53144   0.43422485   -161.09722     3495.481    4.2397052    4.2397052    4.2397052     3495.481    30131.358    642.53293   -20287.448    7435.1055   -6846.3266    3100.4653    76.209127 
   31900    707.05993   -161.73078   0.63976269   -161.09101   -511.25612    4.2343747    4.2343747    4.2343747   -511.25612    15642.708   -1080.8608   -16095.616    5606.9357   -6880.0932   -2264.0105    75.922038 
   32000    637.37591   -161.66756   0.57671112   -161.09085    9406.8156    4.2376881    4.2376881    4.2376881    9406.8156     34113.91    5800.9207   -11694.384   -5168.4027    1404.0226    1462.9319    76.100406 
   32100    447.92626   -161.49843    0.4052931   -161.09314    4369.4013     4.243541     4.243541     4.243541    4369.4013    9489.0278    21165.625   -17546.449   -9722.1957   -4644.7013   -595.89092    76.416161 
   32200    826.34628   -161.84064   0.74769548   -161.09295   -19558.308    4.2432829    4.2432829    4.2432829   -19558.308    -14108.15   -24226.658   -20340.115   -4783.6736   -5643.5107    2304.7639    76.402214 
   32300     432.7245   -161.49227   0.39153822   -161.10073    10717.935    4.2433909    4.2433909    4.2433909    10717.935    41542.564    11658.765   -21047.524   -12664.739    802.87166    3090.4872    76.408052 
   32400     688.0839   -161.72078   0.62259277   -161.09818   -2767.7366    4.2425957    4.2425957    4.2425957   -2767.7366    18419.197   -5845.8593   -20876.547    -12380.45   -2365.8454    558.56743    76.365103 
   32500    772.50014   -161.79627   0.69897436   -161.09729   -9203.5129    4.2406076    4.2406076    4.2406076   -9203.5129    4659.7189   -7912.7613   -24357.496   -8130.4779   -210.89332    1457.0965      76.2578 
   32600    508.16827   -161.56276   0.45980133   -161.10296    1392.6109    4.2461939    4.2461939    4.2461939    1392.6109    37010.437   -8207.1072   -24625.497    2516.5748   -1621.5178   -3138.7206    76.559568 
   32700    856.03143   -161.86942   0.77455523   -161.09486   -13053.933    4.2389766    4.2389766    4.2389766   -13053.933   -4594.7611   -4477.7647   -30089.274   -4658.9813   -6681.9905    1123.8932    76.169842 
   32800    570.23988   -161.60705   0.51596503   -161.09108   -2606.9838    4.2343612    4.2343612    4.2343612   -2606.9838     8878.581     11657.35   -28356.882   -3822.9024    5011.1484   -2242.9867    75.921312 
   32900    600.90922   -161.63855   0.54371529   -161.09484   -2008.7625    4.2451466    4.2451466    4.2451466   -2008.7625    8639.4849    8286.0109   -22951.783    4647.8158    6354.6256   -4189.4212    76.502931 
   33000    608.52407   -161.64545   0.55060537   -161.09485   -5971.6435    4.2473315    4.2473315    4.2473315   -5971.6435    27359.628   -8627.6168   -36646.941   -5153.3662   -4530.9441    4010.8724    76.621116 
   33100    867.57451   -161.87937   0.78499965   -161.09437   -14501.069    4.2377904    4.2377904    4.2377904   -14501.069   -1635.3343   -10335.532    -31532.34   -5251.5603    853.97141    4778.4537    76.105915 
   33200    266.26204   -161.34574   0.24091949   -161.10482    11235.867    4.2317103    4.2317103    4.2317103    11235.867    3316.8046    48087.257    -17696.46   -4905.6793   -8911.8861    2326.3935    75.778809 
   33300    855.06074   -161.87264   0.77367692   -161.09896   -17548.054    4.2387461    4.2387461    4.2387461   -17548.054   -16808.137   -11169.775    -24666.25    7742.3265   -2112.5077    1435.0097    76.157419 
   33400    337.59907   -161.40509   0.30546674   -161.09962    11897.597    4.2372337    4.2372337    4.2372337    11897.597    70141.848   -9488.1669   -24960.891   -2148.5672    3825.0983    2740.7762    76.075927 
   33500    539.46779   -161.59643   0.48812179   -161.10831   -6677.4295    4.2412251    4.2412251    4.2412251   -6677.4295    18657.702   -12529.755   -26160.236    9495.1424    2230.0565    3555.2977    76.291119 
   33600    590.55222    -161.6422   0.53434406   -161.10785   -10846.225    4.2445589    4.2445589    4.2445589   -10846.225   -8098.6353    14935.909    -39375.95     306.8312    10992.656    2871.0696    76.471161 
   33700    733.15155   -161.76268   0.66337093   -161.09931   -2521.6838     4.239618     4.239618     4.239618   -2521.6838   -4.8836569    18021.227   -25581.395   -1625.3445    732.86382    5495.2768    76.204423 
[...]
   91300    660.44413   -161.68565   0.59758373   -161.08807    5694.6823    4.2313867    4.2313867    4.2313867    5694.6823   -6067.4638   -2292.5503    25444.061    670.77383    3951.8828   -3297.8269    75.761425 
   91400    811.61726   -161.82157   0.73436835    -161.0872   -11946.127     4.238713     4.238713     4.238713   -11946.127   -12949.568   -17199.363   -5689.4504    1005.3819    6439.4081   -5918.1438    76.155633 
   91500    612.21792    -161.6475   0.55394764   -161.09355   -1154.4777    4.2424684    4.2424684    4.2424684   -1154.4777    2366.8448   -24434.049    18603.771    554.00673    6799.0935    6377.3624    76.358232 
   91600     565.4367   -161.61219   0.51161901   -161.10057    6926.0354    4.2410122    4.2410122    4.2410122    6926.0354   -15567.106   -19523.789    55869.001    3433.6583    5771.7429   -1208.8235    76.279629 
   91700    535.32987   -161.58791   0.48437772   -161.10353   -1086.8692    4.2372007    4.2372007    4.2372007   -1086.8692   -10410.258   -22194.017    29343.667     3878.849   -7877.3732    2356.4782    76.074149 
   91800     452.8933   -161.51181   0.40978737   -161.10203    -6184.948    4.2357415    4.2357415    4.2357415    -6184.948    3395.8686    -21772.52   -178.19253    3107.5307    6452.5088   -13297.698     75.99558 
   91900    671.78386   -161.70315   0.60784415    -161.0953    7761.5447    4.2326195    4.2326195    4.2326195    7761.5447    5424.4975    479.64277    17380.494    664.07565    4587.1159   -2176.7064    75.827665 
   92000    462.14868   -161.51146   0.41816184    -161.0933    18325.172    4.2405481    4.2405481    4.2405481    18325.172    1823.1706   -131.50709    53283.852   -2225.8322    3729.2111    1205.6644    76.254589 
   92100    595.27322   -161.62806   0.53861572   -161.08945   -152.23252    4.2381538    4.2381538    4.2381538   -152.23252   -20703.026   -1918.2579    22164.586   -4109.9364   -3562.1718   -4166.1052    76.125498 
   92200    543.90623    -161.5797   0.49213779   -161.08756   -9772.3461    4.2334954    4.2334954    4.2334954   -9772.3461   -22655.561   -7937.0663    1275.5888    9158.1828   -13178.206   -4748.8108     75.87475 
   92300    397.50952   -161.45042   0.35967497   -161.09074    1896.2688    4.2316911    4.2316911    4.2316911    1896.2688   -6426.4647   -13562.066    25677.338    8406.9737   -6326.7992   -5691.3216    75.777781 
   92400    551.79727   -161.59532   0.49927777   -161.09605    14750.997    4.2331834    4.2331834    4.2331834    14750.997    4221.5988   -564.02596    40595.418    2105.0465   -10149.821   -4621.9446    75.857974 
   92500    363.65292   -161.43115   0.32904081   -161.10211    7979.1165      4.24556      4.24556      4.24556    7979.1165    4094.0376   -11664.185    31507.497    2048.3338   -161.47278   -2970.9981    76.525283 
   92600    677.91484   -161.71178   0.61339159   -161.09839   -14654.683    4.2388596    4.2388596    4.2388596   -14654.683   -30135.341   -8009.6519   -5819.0542    2166.1864   -8576.6342   -7664.6632    76.163535 
   92700    174.72196    -161.2547    0.1580921   -161.09661    11299.918    4.2277946    4.2277946    4.2277946    11299.918   -7045.5063    16258.616    24686.645    10566.014   -6909.3889   -9026.4477    75.568645 
   92800    566.48503   -161.60404   0.51256756   -161.09147   -2522.0967      4.23143      4.23143      4.23143   -2522.0967   -21109.507    6462.6026    7080.6137    4113.3684   -6840.8719    -12050.41    75.763752 
   92900    438.05641   -161.48891   0.39636265   -161.09255    17083.432     4.234345     4.234345     4.234345    17083.432    11332.035    442.89355    39475.367    105.93789   -4699.2193   -997.99174    75.920442 
   93000    373.62705   -161.43244   0.33806561   -161.09438    2519.7688    4.2462195    4.2462195    4.2462195    2519.7688    8657.2394    -16404.78    15306.847   -436.46325     690.4544   -2575.1128    76.560949 
   93100    675.45034   -161.70134   0.61116166   -161.09018   -13506.266    4.2395107    4.2395107    4.2395107   -13506.266   -18598.406   -7964.5503   -13955.843    2539.2342    -4649.587   -11383.127    76.198638 
   93200    234.43329   -161.30932   0.21212017    -161.0972    13286.434    4.2273557    4.2273557    4.2273557    13286.434   -4907.9771    24840.596    19926.683    7165.6134   -5805.1633    -2375.574    75.545112 
   93300    519.20356   -161.56903   0.46978629   -161.09925   -5790.5365    4.2314227    4.2314227    4.2314227   -5790.5365   -23834.872    -3435.761    9899.0236    6911.3009    -10440.11   -12144.298    75.763359 
   93400    350.77747   -161.41601   0.31739082   -161.09862    2601.3977    4.2319692    4.2319692    4.2319692    2601.3977    1394.2634   -25140.435    31550.364   -6023.9443   -6024.8893    4801.0857    75.792721 
   93500    568.47788   -161.61222   0.51437073   -161.09785   -8266.8548    4.2392157    4.2392157    4.2392157   -8266.8548    -666.8198   -13957.269   -10176.476    3606.5319    297.78006   -10280.603    76.182734 
   93600    271.15151   -161.34064   0.24534358   -161.09529    11765.341    4.2411934    4.2411934    4.2411934    11765.341   -2350.2365    12809.867    24836.392    2576.2486   -210.99496   -13524.788    76.289406 
   93700    538.00275   -161.57789   0.48679619    -161.0911    5187.6296    4.2341478    4.2341478    4.2341478    5187.6296   -14290.161    12862.114    16990.936    342.91649    1034.1002   -6044.7935    75.909835 
   93800    477.85437   -161.52403   0.43237267   -161.09166    388.34429    4.2299603    4.2299603    4.2299603    388.34429   -16536.333   -4534.9366    22236.302    6233.7183   -8628.6889   -2997.8148    75.684837 
   93900    439.72928   -161.49121    0.3978763   -161.09333    -4210.741    4.2316729    4.2316729    4.2316729    -4210.741    -15780.37   -16616.198    19764.345   -1002.9688   -6220.9537    592.62745    75.776802 
   94000    617.65197    -161.6538   0.55886448   -161.09493   -11238.991    4.2432378    4.2432378    4.2432378   -11238.991   -13452.576    -20530.17    265.77266    3352.0583    1917.3939    -7358.327    76.399783 
   94100    501.11614   -161.54746   0.45342042   -161.09404    1379.6978     4.243166     4.243166     4.243166    1379.6978   -13166.118    8676.8882     8628.323    2221.8944   -3818.4596   -4436.6266    76.395902 
   94200    546.42383   -161.58797   0.49441576   -161.09355    6420.5013    4.2363123    4.2363123    4.2363123    6420.5013    -7394.417     20219.17     6436.751   -78.457843    4836.1776   -7635.4118     76.02631 
   94300     649.7483   -161.68145   0.58790591   -161.09354   -13705.859     4.243135     4.243135     4.243135   -13705.859   -17350.982   -31161.812    7395.2171    9498.8155   -2543.4238      3848.69    76.394231 
   94400    723.97473   -161.74554   0.65506755   -161.09048   -11605.851    4.2373534    4.2373534    4.2373534   -11605.851   -20678.655   -19147.251    5008.3513   -1465.7046   -421.28775     625.1318    76.082375 
   94500    490.22682   -161.53728   0.44356753   -161.09371   -2576.4814    4.2433479    4.2433479    4.2433479   -2576.4814   -1655.9942   -20142.729     14069.28   -10444.745   -154.11186    1918.8598    76.405728 
   94600    821.95686    -161.8331   0.74372384   -161.08937   -18528.987    4.2463443    4.2463443    4.2463443   -18528.987   -25334.329   -6742.7115   -23509.919    1311.2403   -5719.7002   -4453.5054    76.567704 
   94700    425.30824   -161.47657   0.38482784   -161.09174    11332.947    4.2381405    4.2381405    4.2381405    11332.947   -514.03607    21832.969    12679.909   -1750.4309    11399.657     1740.401    76.124781 
   94800    759.81984   -161.78089   0.68750096   -161.09339   -19305.775    4.2457571    4.2457571    4.2457571   -19305.775   -34439.415   -12585.419   -10892.492   -4863.7132    4519.7618    -4310.535    76.535943 
   94900    672.82212   -161.70187    0.6087836   -161.09308   -9933.6194    4.2441597    4.2441597    4.2441597   -9933.6194   -15313.165   -21799.344    7311.6517   -1666.3846    7992.9175    1516.1231    76.449587 
   95000    707.93348   -161.73166   0.64055309   -161.09111   -23750.765    4.2411267    4.2411267    4.2411267   -23750.765   -19585.329   -37797.887   -13869.079   -13510.681    2355.4937   -5342.9144    76.285806 
   95100    657.87523   -161.68717   0.59525933   -161.09191   -2995.4506    4.2362255    4.2362255    4.2362255   -2995.4506    4178.4148   -14632.409    1467.6427    -6954.022   -2865.3427   -3445.8059    76.021635 
   95200    871.88422   -161.88009   0.78889916   -161.09119   -13021.034    4.2434728    4.2434728    4.2434728   -13021.034   -9248.3665   -18228.457   -11586.278    1863.5987    945.81839    416.63077    76.412473 
   95300    617.84552   -161.64774   0.55903961    -161.0887   -1964.5533    4.2409018    4.2409018    4.2409018   -1964.5533   -2834.4519    4177.3643   -7236.5723    -1946.988   -3202.7729   -2458.9477    76.273672 
   95400    798.95786   -161.81537   0.72291386   -161.09246   -9416.5551    4.2408384    4.2408384    4.2408384   -9416.5551   -10768.617   -13229.008   -4252.0399    1475.1236     9278.017    4888.1838    76.270253 
   95500     721.5114   -161.74424   0.65283867    -161.0914    -13816.07    4.2466948    4.2466948    4.2466948    -13816.07   -17975.686   -18451.584   -5020.9388   -4773.9987    1184.6271    5281.1608    76.586661 
   95600    698.12605   -161.72115   0.63167912   -161.08947   -6473.2182    4.2392632    4.2392632    4.2392632   -6473.2182    2804.4953   -18309.612   -3914.5375    3423.1316     1269.708    9423.0975    76.185293 
   95700    826.33511   -161.83799   0.74768537    -161.0903    -18798.08    4.2436747    4.2436747    4.2436747    -18798.08   -21109.432   -19740.732   -15544.077     3665.981   -685.80623    7592.0852     76.42338 
   95800    743.60331   -161.76425    0.6728279   -161.09142   -7414.1523    4.2388456    4.2388456    4.2388456   -7414.1523   -4775.6713   -14949.089   -2517.6965   -9566.5912   -2036.9337    3436.8708    76.162778 
   95900    657.03687   -161.68697   0.59450076   -161.09247    -2601.802    4.2376939    4.2376939    4.2376939    -2601.802   -10553.548    2082.7324    665.40939   -3486.3973     2879.135    8038.8788    76.100716 
   96000    691.64455   -161.71536   0.62581453   -161.08954   -8945.7657    4.2436754    4.2436754    4.2436754   -8945.7657   -4565.5199   -4233.0148   -18038.762    5791.6922   -6501.8864    7238.4897    76.423419 
   96100    666.26673   -161.69108   0.60285214   -161.08823   -18420.368    4.2423039    4.2423039    4.2423039   -18420.368    -24953.41   -21850.754   -8456.9383   -1731.2272     5046.209    12026.336    76.349349 
   96200    520.28682    -161.5644   0.47076645   -161.09363   -538.07863    4.2369665    4.2369665    4.2369665   -538.07863    -8825.266    7240.8605   -29.830421    99.159176   -1460.1438    509.52931    76.061533 
   96300    561.86212   -161.60287   0.50838465   -161.09449    8150.0378    4.2384988    4.2384988    4.2384988    8150.0378   -13347.303    10000.266     27797.15    6244.5289    801.62878    4568.1049    76.144091 
   96400    644.03077   -161.67769   0.58273258   -161.09496    1700.8418    4.2406976    4.2406976    4.2406976    1700.8418    74.887665     13590.51   -8562.8721    3677.7989    3667.8802    152.58461    76.262654 
   96500    319.12951   -161.38654   0.28875508   -161.09779    5182.1599    4.2360098    4.2360098    4.2360098    5182.1599    12847.785   -12512.056     15210.75    2306.1194    2157.9552    5266.7905    76.010022 
   96600      636.268   -161.67004   0.57570866   -161.09433   -4862.3277    4.2346688    4.2346688    4.2346688   -4862.3277     -9812.09   -10348.438    5573.5449    1843.4994    10281.173    6762.5954     75.93786 
   96700    249.34457   -161.31862   0.22561221     -161.093    17414.347    4.2405211    4.2405211    4.2405211    17414.347    -15207.99    16851.398    50599.632    537.18799    799.20031   -5010.4267    76.253132 
   96800    548.33166   -161.59233   0.49614201   -161.09619   -1171.0834     4.239791     4.239791     4.239791   -1171.0834   -28777.815    12094.934    13169.631    7044.6556    7576.8559   -2001.4311    76.213754 
   96900    412.28031   -161.46907   0.37303989   -161.09603    4217.0436    4.2344237    4.2344237    4.2344237    4217.0436   -2155.6701   -1075.0728    15881.874   -2034.4593    12559.019    1512.7603    75.924671 
   97000    550.28034   -161.59357   0.49790521   -161.09567    974.03115    4.2357761    4.2357761    4.2357761    974.03115     517.1515   -9229.3422    11634.284   -7516.5961    6049.2904    2971.7895    75.997442 
   97100    310.58762   -161.37632    0.2810262   -161.09529     14083.31    4.2457636    4.2457636    4.2457636     14083.31    10544.511   -12862.424    44567.843    4750.8856    9233.8042    6178.8971    76.536293 
   97200    480.12074   -161.52486   0.43442333   -161.09044     8508.643    4.2428039    4.2428039    4.2428039     8508.643   -21567.752    10268.404    36825.277    1859.6624    2502.0282    7650.2155    76.376349 
   97300    421.72647   -161.46974   0.38158697   -161.08815    4826.5599    4.2320173    4.2320173    4.2320173    4826.5599    -8065.941    7619.9827    14925.638   -5312.5602    17747.628    11494.912    75.795307 
   97400    500.30814   -161.54297   0.45268932   -161.09028   -7679.4525    4.2358883    4.2358883    4.2358883   -7679.4525   -15458.512   -7006.2962   -573.54918   -5918.3695    6378.3331    17509.488    76.003486 
   97500    531.67726    -161.5714   0.48107276   -161.09033   -3282.4984    4.2484843    4.2484843    4.2484843   -3282.4984   -11567.903   -21988.533    23708.941    4455.6478   -4621.6322    8645.6781     76.68352 
   97600    426.25241   -161.47906   0.38568214   -161.09338    17313.298    4.2440888    4.2440888    4.2440888    17313.298    2308.4273     3554.298    46077.168    2906.0948    3315.3556    16691.422    76.445758 
   97700    565.64775   -161.60484   0.51180998   -161.09303   -905.48246    4.2377085    4.2377085    4.2377085   -905.48246   -5037.5278    2907.1407    -586.0603    1558.0446   -4760.2484    13096.304    76.101506 
   97800     387.5163   -161.44446   0.35063289   -161.09383    1803.9527    4.2377165    4.2377165    4.2377165    1803.9527    16921.338   -3611.3342   -7898.1462    5741.9358    755.61367    10473.942    76.101935 
   97900     704.1344   -161.72718    0.6371156   -161.09007   -17940.643     4.247358     4.247358     4.247358   -17940.643   -16314.994   -26407.489   -11099.445    2818.1837   -2071.6858    8851.2167    76.622549 
   98000    439.16535   -161.48514   0.39736604   -161.08777    15662.291    4.2417975    4.2417975    4.2417975    15662.291    20744.181   -19243.804    45486.496   -4309.6353   -1424.9679    1360.2833     76.32201 
   98100    776.92182    -161.7893   0.70297519   -161.08633    -6661.696    4.2403466    4.2403466    4.2403466    -6661.696   -1951.4393   -10825.981   -7207.6677   -1048.9651   -3293.8529    2647.0625    76.243716 
   98200     505.4138   -161.54635   0.45730903   -161.08904   -503.10027    4.2408293    4.2408293    4.2408293   -503.10027    22353.428   -2179.1773   -21683.552   -4036.5112   -9261.1268   -2078.3291    76.269761 
   98300    766.83641   -161.78099    0.6938497   -161.08714   -13562.451    4.2442535    4.2442535    4.2442535   -13562.451   -7410.0227   -11584.459   -21692.873   -6845.2868     7419.322   -1918.4851    76.454658 
   98400    529.18208   -161.56903   0.47881507   -161.09022    -2047.678    4.2447568    4.2447568    4.2447568    -2047.678   -16774.909   -20719.678    31351.554    776.78198   -824.77204    547.94805    76.481859 
   98500    628.36266   -161.65887   0.56855574   -161.09032   -3941.8486    4.2326554    4.2326554    4.2326554   -3941.8486    1242.5355   -17221.776    4153.6944    9287.9224   -1286.3199    8284.4543    75.829594 
   98600    627.58319   -161.65706   0.56785046   -161.08921    -15234.88    4.2314516    4.2314516    4.2314516    -15234.88   -1065.8922   -20417.783   -24220.966     2927.016    5298.2897    12739.896    75.764914 
   98700    444.69208   -161.49278   0.40236674   -161.09041    1079.5802    4.2418043    4.2418043    4.2418043    1079.5802    24804.993    914.02921   -22480.282    1044.0748    10148.283    374.40269    76.322374 
   98800    667.80116   -161.69156   0.60424052   -161.08732   -6092.9046     4.248104     4.248104     4.248104   -6092.9046   -15791.732   -8737.4957    6250.5143    6374.2717    3009.1542    3800.3036    76.662933 
   98900    405.20901    -161.4529   0.36664163   -161.08626    8023.8126    4.2416463    4.2416463    4.2416463    8023.8126    4819.9362   -15185.066    34436.567    5053.0162   -3333.5882    -2397.076     76.31385 
   99000    555.20374   -161.59182   0.50236001   -161.08946   -7737.9706    4.2310175    4.2310175    4.2310175   -7737.9706   -17481.463   -4674.0693   -1058.3792     5157.472        13757    4177.9405    75.741596 
   99100    416.08179   -161.46762   0.37647955   -161.09114    3888.7767    4.2339288    4.2339288    4.2339288    3888.7767    12188.928   -302.21002   -220.38735    2185.9298    6995.7488   -659.00092    75.898058 
   99200    421.30652   -161.47034   0.38120699   -161.08913    15929.479    4.2408939    4.2408939    4.2408939    15929.479    32198.143    20721.372    -5131.076   -1828.5527   -4298.2828   -8053.6237    76.273243 
   99300    620.95413   -161.65671   0.56185234   -161.09486    249.19643    4.2472262    4.2472262    4.2472262    249.19643   -25652.598     10717.57    15682.617   -4005.4462   -705.60407   -2785.9939    76.615416 
   99400    507.69681   -161.55686   0.45937475   -161.09749    9332.6902       4.2388       4.2388       4.2388    9332.6902   -4173.9435   -6146.1993    38318.213    4542.0748   -6703.2593   -3890.6081    76.160323 
   99500    627.55488   -161.66084   0.56782484   -161.09301   -545.94543    4.2316452    4.2316452    4.2316452   -545.94543   -4512.6456   -12395.335    15270.144    5052.6196   -796.18834    2768.8217    75.775312 
   99600    647.42577   -161.67655   0.58580444   -161.09074   -8622.8504    4.2369654    4.2369654    4.2369654   -8622.8504    -1239.509   -27299.147    2670.1052   -1319.0176   -2517.7608     7011.736    76.061478 
   99700    686.88561   -161.71218   0.62150853   -161.09067   -4924.3678     4.245298     4.245298     4.245298   -4924.3678   -37.594675   -19200.497    4464.9883    5607.9095     1972.462    4541.3863    76.511115 
   99800    599.53706   -161.63357   0.54247373   -161.09109   -2576.4843     4.247433     4.247433     4.247433   -2576.4843   -24347.983   -7655.7257    24274.256    7215.2663   -180.24893    3892.2845    76.626609 
   99900    557.02955   -161.59556   0.50401205   -161.09155     1521.209    4.2357144    4.2357144    4.2357144     1521.209    13270.502   -5564.6867   -3142.1882    8416.8663   -8720.1868    3034.5438    75.994125 
  100000    725.42632   -161.74424   0.65638098   -161.08785   -5592.3461    4.2266043    4.2266043    4.2266043   -5592.3461   -2639.0975   -4153.7878   -9984.1532    6347.9077   -2801.4122    5345.1206    75.504838 
Loop time of 43.0643 on 1 procs for 100000 steps with 8 atoms

Pair  time (%) = 14.1416 (32.8384)
Kspce time (%) = 10.8792 (25.2627)
Neigh time (%) = 0 (0)
Comm  time (%) = 2.06643 (4.79847)
Outpt time (%) = 0.0550523 (0.127837)
Other time (%) = 15.922 (36.9726)

Nlocal:    8 ave 8 max 8 min
Histogram: 1 0 0 0 0 0 0 0 0 0
Nghost:    2189 ave 2189 max 2189 min
Histogram: 1 0 0 0 0 0 0 0 0 0
Neighs:    2472 ave 2472 max 2472 min
Histogram: 1 0 0 0 0 0 0 0 0 0

Total # of neighbors = 2472
Ave neighs/atom = 309
Neighbor list builds = 0
Dangerous builds = 0
unfix 20
unfix 21
print "seeds:7830352"
seeds:7830352
