LAMMPS (11 Aug 2017)
Reading data file ...
  triclinic box = (0 0 0) to (3.6 6.2354 5.8788) with tilt (0 0 0)
  1 by 1 by 1 MPI processor grid
  reading atoms ...
  4 atoms
4 atoms in group Ni
Neighbor list info ...
  update every 1 steps, delay 0 steps, check yes
  max neighbors/atom: 2000, page size: 100000
  master list distance cutoff = 5.64464
  ghost atom cutoff = 5.64464
  binsize = 2.82232, bins = 2 3 3
  1 neighbor lists, perpetual/occasional/extra = 1 0 0
  (1) pair eam/alloy, perpetual
      attributes: half, newton on
      pair build: half/bin/newton/tri
      stencil: half/bin/3d/newton/tri
      bin: standard
Setting up cg style minimization ...
  Unit style    : metal
  Current step  : 0
WARNING: Energy due to 3 extra global DOFs will be included in minimizer energies
Per MPI rank memory allocation (min/avg/max) = 4.194 | 4.194 | 4.194 Mbytes
Step PotEng Xhi Xlo Yhi Ylo Zhi Xy Xz Yz Press Pxx Pyy Pzz Pxy Pxz Pyz c_eatoms 
       0   -3.4812184          3.6            0       6.2354            0       5.8788            0            0            0   -63951.995   -63952.541    -63951.67   -63951.772 2.3588652e-12 6.739615e-13 1.6175076e-11   -3.4812184 
      10   -3.6407591        3.582        0.018    6.2042234  0.031176578    5.8494064            0            0            0   -66504.323   -66504.876   -66503.992     -66504.1 5.8063498e-13 -5.5187456e-12 -2.7783655e-12   -3.6407591 
      20   -3.8033302        3.564        0.036    6.1730468  0.062353162    5.8200127            0            0            0   -69141.959   -69142.518   -69141.622   -69141.735 -2.3496109e-12 -2.1370271e-12 -1.4321438e-12   -3.8033302 
      30   -3.9689097        3.546        0.054    6.1418702  0.093529752     5.790619            0            0            0   -71861.624   -71862.189   -71861.282   -71861.401 -7.0383265e-13 1.5922771e-12 2.9537895e-12   -3.9689097 
      40   -4.1374576        3.528        0.072    6.1106937   0.12470635    5.7612254            0            0            0   -74658.331     -74658.9   -74657.985   -74658.109 -2.1424637e-12 -1.4283091e-13 -1.0664708e-11   -4.1374576 
      50   -4.3089131         3.51         0.09     6.079517   0.15588295    5.7318317            0            0            0   -77524.994   -77525.564   -77524.644   -77524.775 1.3756304e-12 -3.8321132e-12 -9.432894e-12   -4.3089131 
      60   -4.4831907        3.492        0.108    6.0483404   0.18705957     5.702438            0            0            0   -80451.959   -80452.528   -80451.607   -80451.744 1.6482164e-12 -8.3678679e-12 -3.2457184e-12   -4.4831907 
      70   -4.6601759        3.474        0.126    6.0171638   0.21823619    5.6730443            0            0            0   -83426.441   -83427.005   -83426.087    -83426.23 -3.6919396e-12 3.403916e-12 3.351548e-12   -4.6601759 
      80   -4.8397201        3.456        0.144    5.9859872   0.24941282    5.6436506            0            0            0   -86431.843     -86432.4    -86431.49    -86431.64 -5.7880797e-12 1.1359783e-12 -3.462029e-12   -4.8397201 
      90   -5.0216677        3.438        0.162    5.9548105   0.28058948    5.6142569            0            0            0   -89602.068   -89602.472   -89601.858   -89601.875 4.6115176e-13 9.9339775e-12 -2.2236598e-12   -5.0216677 
     100   -5.2067902         3.42         0.18    5.9236338   0.31176624    5.5848631            0            0            0   -93353.041   -93353.413   -93352.846   -93352.863 -3.3657544e-12 3.1779655e-13 -9.46167e-12   -5.2067902 
     110   -5.3952307        3.402        0.198     5.892457   0.34294302    5.5554693            0            0            0    -97060.03   -97060.363   -97059.854   -97059.872 -1.0247267e-11 -2.2705314e-12 -1.5057208e-11   -5.3952307 
     120   -5.5865858        3.384        0.216    5.8612802   0.37411982    5.5260755            0            0            0   -100684.91   -100685.19   -100684.75   -100684.77 -8.3444865e-13 7.8190929e-12 6.3356286e-12   -5.5865858 
     130   -5.7803845        3.366        0.234    5.8301034   0.40529665    5.4966816            0            0            0   -104179.61   -104179.84   -104179.49   -104179.51 -4.4776906e-12 -1.2121748e-11 -1.2473567e-12   -5.7803845 
     140   -5.9760752        3.348        0.252    5.7989265   0.43647351    5.4672877            0            0            0   -107484.12   -107484.28   -107484.03   -107484.05 -4.0396917e-12 -4.3377017e-12 5.4966296e-12   -5.9760752 
     150    -6.173011         3.33         0.27    5.7677496    0.4676504    5.4378938            0            0            0   -110523.99   -110524.07   -110523.94   -110523.96 -1.9205028e-12 -2.9493436e-12 7.5448324e-12    -6.173011 
     160   -6.3704322        3.312        0.288    5.7365727   0.49882733    5.4084999            0            0            0   -113207.38   -113207.36   -113207.39    -113207.4 -9.9495588e-13 3.5534139e-13 -2.3239327e-11   -6.3704322 
     170   -6.5674468        3.294        0.306    5.7053957    0.5300043    5.3791059            0            0            0   -115421.54    -115421.4    -115421.6   -115421.62 6.1144506e-12 -1.1786893e-12 -2.6225836e-11   -6.5674468 
     180   -6.7630073        3.276   0.32399998    5.6742187   0.56118128    5.3497119            0            0            0   -117028.47    -117028.2    -117028.6   -117028.61 5.806115e-12 -8.0216062e-12 -1.038989e-11   -6.7630073 
     190   -6.9558845    3.2580001   0.34199993    5.6430417   0.59235827    5.3203179            0            0            0   -117859.82   -117859.39   -117860.02   -117860.04 4.2800837e-12 3.9630405e-13 9.2735147e-12   -6.9558845 
     200    -7.144637    3.2400002   0.35999984    5.6118647   0.62353526    5.2909239            0            0            0   -117710.64   -117710.02   -117710.94   -117710.95 -4.442601e-12 1.3163262e-12 -2.1554842e-11    -7.144637 
     210   -7.3275756    3.2220003   0.37799971    5.5806877   0.65471225    5.2615299            0            0            0   -116331.86    -116331.1   -116332.33   -116332.13 2.2212913e-12 -3.4173713e-13 -1.0593851e-11   -7.3275756 
     220   -7.5025611    3.2040592   0.39594084    5.5496124   0.68578762    5.2321359            0            0            0   -113711.01      -113427   -113428.58   -114277.44 8.3429783e-12 3.1951832e-12 3.5502035e-12   -7.5025611 
     230   -7.6670747    3.1862607   0.41373935    5.5187839   0.71661606    5.2027419            0            0            0   -109246.56   -108666.67   -108668.65   -110404.36 -2.9514009e-12 -2.3980132e-12 1.660163e-12   -7.6670747 
     240   -7.8185474    3.1686237   0.43137629    5.4882352   0.74716481    5.1733479            0            0            0   -102543.01   -101666.03   -101668.44   -104294.56 2.1091128e-12 8.8199261e-12 -1.8215065e-11   -7.8185474 
     250   -7.9540704    3.1511763   0.44882367    5.4580146   0.77738542    5.1439539            0            0            0   -93146.845   -91984.703   -91987.552    -95468.28 1.1960653e-12 -1.1163276e-11 -2.8306878e-11   -7.9540704 
     260   -8.0707524    3.1339362   0.46606377    5.4281528   0.80724717    5.1145599            0            0            0   -81566.532   -80435.358   -80437.882   -83826.355 -5.8414872e-12 -7.4706904e-12 6.6104193e-11   -8.0707524 
     270   -8.1686856    3.1165864   0.48341363    5.3981008   0.83729918    5.0851659            0            0            0   -67610.257    -67009.91   -67012.899   -68807.962 -2.2177554e-12 5.6488725e-12 2.0681075e-11   -8.1686856 
     280   -8.2440911    3.0989211   0.50107893    5.3675019   0.86789813    5.0557719            0            0            0   -48636.538   -48606.598   -48609.951   -48693.065 3.5108447e-12 -1.5166849e-12 -9.2826735e-12   -8.2440911 
     290   -8.2903101    3.0809305   0.51906951    5.3363383   0.89906174    5.0269202            0            0            0   -23562.008   -24047.897   -24051.217    -22586.91 1.1682903e-11 -1.6982667e-11 -2.355613e-11   -8.2903101 
     300   -8.3016375    3.0661839   0.53381613    5.3107855   0.92461453    5.0091258            0            0            0 -0.080889902   0.16170497 -0.027538942  -0.37683574 -9.0974983e-12 2.1882355e-11 -1.6502439e-11   -8.3016375 
     310   -8.3016375    3.0661813   0.53381866    5.3107904   0.92460959    5.0091251            0            0            0 8.9263039e-10 1.1335303e-08 -1.0252526e-08 1.595115e-09 4.5245702e-11 -5.0897636e-11 5.0368712e-11   -8.3016375 
     311   -8.3016375    3.0661813   0.53381866    5.3107904   0.92460959    5.0091251            0            0            0 -6.0459581e-10 -4.8237902e-10 -3.6084732e-10 -9.705611e-10 1.0971403e-11 1.5112125e-11 2.0975629e-11   -8.3016375 
Loop time of 0.0358999 on 1 procs for 311 steps with 4 atoms

10.3% CPU use with 1 MPI tasks x no OpenMP threads

Minimization stats:
  Stopping criterion = energy tolerance
  Energy initial, next-to-last, final = 
        -3.48121844875     -8.30163750977     -8.30163750977
  Force two-norm initial, final = 9.12347 5.46285e-14
  Force max component initial, final = 5.26748 3.95561e-14
  Final line search alpha, max atom move = 1 3.95561e-14
  Iterations, force evaluations = 311 325

MPI task timing breakdown:
Section |  min time  |  avg time  |  max time  |%varavg| %total
---------------------------------------------------------------
Pair    | 0.0015709  | 0.0015709  | 0.0015709  |   0.0 |  4.38
Neigh   | 6.6042e-05 | 6.6042e-05 | 6.6042e-05 |   0.0 |  0.18
Comm    | 0.00036407 | 0.00036407 | 0.00036407 |   0.0 |  1.01
Output  | 0.032722   | 0.032722   | 0.032722   |   0.0 | 91.15
Modify  | 0          | 0          | 0          |   0.0 |  0.00
Other   |            | 0.001177   |            |       |  3.28

Nlocal:    4 ave 4 max 4 min
Histogram: 1 0 0 0 0 0 0 0 0 0
Nghost:    266 ave 266 max 266 min
Histogram: 1 0 0 0 0 0 0 0 0 0
Neighs:    112 ave 112 max 112 min
Histogram: 1 0 0 0 0 0 0 0 0 0

Total # of neighbors = 112
Ave neighs/atom = 28
Neighbor list builds = 5
Dangerous builds = 0
pypospack:output_section:begin
tot_energy = -8.30163750977215
num_atoms = 4
a11 = 2.53236267509863
a22 = 4.38618081646187
a33 = 4.13945014325369
a12 = 0
a13 = 0
a23 = 0
tot_press = -6.04595813397434e-10
pxx = -4.82379022936947e-10
pyy = -3.60847315466429e-10
pzz = -9.70561101788925e-10
pxy = 1.09714025893554e-11
pxz = 1.51121247787264e-11
pyz = 2.09756291928723e-11
pypospack:output_section:done
pypospack:lammps_sim:done
Total wall time: 0:00:00
