# ['Ni']

18 atoms
1 atom types

    0.0000     2.3531 xlo xhi
    0.0000     4.0757 ylo yhi
    0.0000    34.5775 zlo zhi

    0.0000     0.0000    -0.0004 xy xz yz

Atoms

1 1     0.0000     0.0000     0.0000
2 1     1.1765     0.6793     1.9210
3 1     0.0000     1.3586     3.8419
4 1     1.1765     2.0378     0.0000
5 1     0.0000     2.7171     1.9210
6 1     1.1765     3.3964     3.8419
7 1     0.0000     0.0000     5.7629
8 1     1.1765     0.6793     7.6839
9 1     0.0000     1.3586     9.6049
10 1     1.1765     2.0378     5.7629
11 1     0.0000     2.7171     7.6839
12 1     1.1765     3.3964     9.6049
13 1     0.0000     0.0000    11.5258
14 1     1.1765     0.6793    13.4468
15 1     0.0000     1.3586    15.3678
16 1     1.1765     2.0378    11.5258
17 1     0.0000     2.7171    13.4468
18 1     1.1765     3.3964    15.3678
