# ['Ni']

20 atoms
1 atom types

    0.0000     3.6293 xlo xhi
    0.0000     3.6293 ylo yhi
    0.0000    36.2928 zlo zhi

    0.0000    -0.0000     0.0000 xy xz yz

Atoms

1 1     0.0000     0.0000     0.0000
2 1     1.8146     1.8146     0.0000
3 1     1.8146     0.0000     1.8146
4 1     0.0000     1.8146     1.8146
5 1     0.0000     0.0000     3.6293
6 1     1.8146     1.8146     3.6293
7 1     1.8146     0.0000     5.4439
8 1     0.0000     1.8146     5.4439
9 1     0.0000     0.0000     7.2586
10 1     1.8146     1.8146     7.2586
11 1     1.8146     0.0000     9.0732
12 1     0.0000     1.8146     9.0732
13 1     0.0000     0.0000    10.8878
14 1     1.8146     1.8146    10.8878
15 1     1.8146     0.0000    12.7025
16 1     0.0000     1.8146    12.7025
17 1     0.0000     0.0000    14.5171
18 1     1.8146     1.8146    14.5171
19 1     1.8146     0.0000    16.3318
20 1     0.0000     1.8146    16.3318
