# ['Ni']

107 atoms
1 atom types

    0.0000    10.5243 xlo xhi
    0.0000    10.5243 ylo yhi
    0.0000    10.5243 zlo zhi

    0.0000    -0.0000    -0.0000 xy xz yz

Atoms

1 1     1.7541     1.7541     0.0000
2 1     1.7541     0.0000     1.7541
3 1     0.0000     1.7541     1.7541
4 1     0.0000     0.0000     3.5081
5 1     1.7541     1.7541     3.5081
6 1     1.7541     0.0000     5.2622
7 1     0.0000     1.7541     5.2622
8 1     0.0000     0.0000     7.0162
9 1     1.7541     1.7541     7.0162
10 1     1.7541     0.0000     8.7703
11 1     0.0000     1.7541     8.7703
12 1     0.0000     3.5081     0.0000
13 1     1.7541     5.2622     0.0000
14 1     1.7541     3.5081     1.7541
15 1     0.0000     5.2622     1.7541
16 1     0.0000     3.5081     3.5081
17 1     1.7541     5.2622     3.5081
18 1     1.7541     3.5081     5.2622
19 1     0.0000     5.2622     5.2622
20 1     0.0000     3.5081     7.0162
21 1     1.7541     5.2622     7.0162
22 1     1.7541     3.5081     8.7703
23 1     0.0000     5.2622     8.7703
24 1     0.0000     7.0162     0.0000
25 1     1.7541     8.7703     0.0000
26 1     1.7541     7.0162     1.7541
27 1     0.0000     8.7703     1.7541
28 1     0.0000     7.0162     3.5081
29 1     1.7541     8.7703     3.5081
30 1     1.7541     7.0162     5.2622
31 1     0.0000     8.7703     5.2622
32 1     0.0000     7.0162     7.0162
33 1     1.7541     8.7703     7.0162
34 1     1.7541     7.0162     8.7703
35 1     0.0000     8.7703     8.7703
36 1     3.5081     0.0000     0.0000
37 1     5.2622     1.7541     0.0000
38 1     5.2622     0.0000     1.7541
39 1     3.5081     1.7541     1.7541
40 1     3.5081     0.0000     3.5081
41 1     5.2622     1.7541     3.5081
42 1     5.2622     0.0000     5.2622
43 1     3.5081     1.7541     5.2622
44 1     3.5081     0.0000     7.0162
45 1     5.2622     1.7541     7.0162
46 1     5.2622     0.0000     8.7703
47 1     3.5081     1.7541     8.7703
48 1     3.5081     3.5081     0.0000
49 1     5.2622     5.2622     0.0000
50 1     5.2622     3.5081     1.7541
51 1     3.5081     5.2622     1.7541
52 1     3.5081     3.5081     3.5081
53 1     5.2622     5.2622     3.5081
54 1     5.2622     3.5081     5.2622
55 1     3.5081     5.2622     5.2622
56 1     3.5081     3.5081     7.0162
57 1     5.2622     5.2622     7.0162
58 1     5.2622     3.5081     8.7703
59 1     3.5081     5.2622     8.7703
60 1     3.5081     7.0162     0.0000
61 1     5.2622     8.7703     0.0000
62 1     5.2622     7.0162     1.7541
63 1     3.5081     8.7703     1.7541
64 1     3.5081     7.0162     3.5081
65 1     5.2622     8.7703     3.5081
66 1     5.2622     7.0162     5.2622
67 1     3.5081     8.7703     5.2622
68 1     3.5081     7.0162     7.0162
69 1     5.2622     8.7703     7.0162
70 1     5.2622     7.0162     8.7703
71 1     3.5081     8.7703     8.7703
72 1     7.0162     0.0000     0.0000
73 1     8.7703     1.7541     0.0000
74 1     8.7703     0.0000     1.7541
75 1     7.0162     1.7541     1.7541
76 1     7.0162     0.0000     3.5081
77 1     8.7703     1.7541     3.5081
78 1     8.7703     0.0000     5.2622
79 1     7.0162     1.7541     5.2622
80 1     7.0162     0.0000     7.0162
81 1     8.7703     1.7541     7.0162
82 1     8.7703     0.0000     8.7703
83 1     7.0162     1.7541     8.7703
84 1     7.0162     3.5081     0.0000
85 1     8.7703     5.2622     0.0000
86 1     8.7703     3.5081     1.7541
87 1     7.0162     5.2622     1.7541
88 1     7.0162     3.5081     3.5081
89 1     8.7703     5.2622     3.5081
90 1     8.7703     3.5081     5.2622
91 1     7.0162     5.2622     5.2622
92 1     7.0162     3.5081     7.0162
93 1     8.7703     5.2622     7.0162
94 1     8.7703     3.5081     8.7703
95 1     7.0162     5.2622     8.7703
96 1     7.0162     7.0162     0.0000
97 1     8.7703     8.7703     0.0000
98 1     8.7703     7.0162     1.7541
99 1     7.0162     8.7703     1.7541
100 1     7.0162     7.0162     3.5081
101 1     8.7703     8.7703     3.5081
102 1     8.7703     7.0162     5.2622
103 1     7.0162     8.7703     5.2622
104 1     7.0162     7.0162     7.0162
105 1     8.7703     8.7703     7.0162
106 1     8.7703     7.0162     8.7703
107 1     7.0162     8.7703     8.7703
