LAMMPS (11 Aug 2017)
# ---- initialize simulations
clear
units metal
dimension 3
boundary p p p
atom_style atomic
atom_modify map array
# ---- create atoms
read_data /home/sullberg/repos/pypospack/examples/Ni__eam__born_exp_rose/01_preconditioning_3.5NN/rank_28/Ni_fcc_vac.lmps_min_pos/lammps.structure
  triclinic box = (0 0 0) to (10.5243 10.5243 10.5243) with tilt (0 -0 -0)
  1 by 1 by 1 MPI processor grid
  reading atoms ...
  107 atoms
# ---- define interatomic potential
include potential.mod
mass 1 58.6934

group Ni type 1
107 atoms in group Ni

pair_style eam/alloy
pair_coeff * * /home/sullberg/repos/pypospack/examples/Ni__eam__born_exp_rose/01_preconditioning_3.5NN/rank_28/Ni_fcc_vac.lmps_min_pos/Ni.eam.alloy Ni

neighbor 1.0 bin
neigh_modify every 1 delay 0 check yes
# ---- define settings
compute eng all pe/atom
compute eatoms all reduce sum c_eng

# ---- run minimization
reset_timestep 0
thermo 1
thermo_style custom step pe lx ly lz xy xz yz press pxx pyy pzz pxy pxz pyz c_eatoms
min_style cg
minimize 1e-20 1e-20 1000 100000
Neighbor list info ...
  update every 1 steps, delay 0 steps, check yes
  max neighbors/atom: 2000, page size: 100000
  master list distance cutoff = 11
  ghost atom cutoff = 11
  binsize = 5.5, bins = 2 2 2
  1 neighbor lists, perpetual/occasional/extra = 1 0 0
  (1) pair eam/alloy, perpetual
      attributes: half, newton on
      pair build: half/bin/newton/tri
      stencil: half/bin/3d/newton/tri
      bin: standard
Per MPI rank memory allocation (min/avg/max) = 4.384 | 4.384 | 4.384 Mbytes
Step PotEng Lx Ly Lz Xy Xz Yz Press Pxx Pyy Pzz Pxy Pxz Pyz c_eatoms 
       0   -479.51228      10.5243      10.5243      10.5243            0           -0           -0   -6538.6367   -6538.6367   -6538.6367   -6538.6367 -0.00016241366 -0.0001624137 -0.0001624137   -479.51228 
       1   -479.69953      10.5243      10.5243      10.5243            0           -0           -0   -8583.4538   -8583.4538   -8583.4538   -8583.4538 -1.6462818e-05 -1.6462838e-05 -1.6462832e-05   -479.69953 
       2    -479.7393      10.5243      10.5243      10.5243            0           -0           -0   -8809.6219   -8809.6219   -8809.6219   -8809.6219 -6.6106463e-05 -6.6106485e-05 -6.610645e-05    -479.7393 
       3   -479.74483      10.5243      10.5243      10.5243            0           -0           -0   -9187.0136   -9187.0136   -9187.0136   -9187.0136 -6.6289395e-05 -6.6289421e-05 -6.6289416e-05   -479.74483 
       4   -479.74537      10.5243      10.5243      10.5243            0           -0           -0   -9321.5909   -9321.5909   -9321.5909   -9321.5909 -3.4717386e-05 -3.4717399e-05 -3.4717356e-05   -479.74537 
       5   -479.74541      10.5243      10.5243      10.5243            0           -0           -0   -9317.4624   -9317.4624   -9317.4624   -9317.4624 -2.0357571e-05 -2.0357564e-05 -2.0357549e-05   -479.74541 
       6   -479.74542      10.5243      10.5243      10.5243            0           -0           -0    -9317.503    -9317.503    -9317.503    -9317.503 -7.9477379e-06 -7.9477654e-06 -7.9477016e-06   -479.74542 
       7   -479.74542      10.5243      10.5243      10.5243            0           -0           -0   -9316.5204   -9316.5204   -9316.5204   -9316.5204 -8.5752277e-06 -8.5752038e-06 -8.5751963e-06   -479.74542 
       8   -479.74542      10.5243      10.5243      10.5243            0           -0           -0   -9315.8492   -9315.8492   -9315.8492   -9315.8492 -6.7481127e-06 -6.7481507e-06 -6.7481176e-06   -479.74542 
       9   -479.74542      10.5243      10.5243      10.5243            0           -0           -0   -9314.8649   -9314.8649   -9314.8649   -9314.8649 -3.6089239e-06 -3.6089152e-06 -3.6089324e-06   -479.74542 
      10   -479.74542      10.5243      10.5243      10.5243            0           -0           -0   -9314.7826   -9314.7826   -9314.7826   -9314.7826 -3.1000645e-06 -3.1001202e-06 -3.1001468e-06   -479.74542 
      11   -479.74542      10.5243      10.5243      10.5243            0           -0           -0   -9314.7567   -9314.7567   -9314.7567   -9314.7567 -2.1808857e-06 -2.1809685e-06 -2.1809418e-06   -479.74542 
      12   -479.74542      10.5243      10.5243      10.5243            0           -0           -0   -9314.7517   -9314.7517   -9314.7517   -9314.7517 -1.5838383e-06 -1.5838673e-06 -1.5838822e-06   -479.74542 
      13   -479.74542      10.5243      10.5243      10.5243            0           -0           -0   -9314.7502   -9314.7502   -9314.7502   -9314.7502 -1.2111775e-06 -1.2110925e-06 -1.2110978e-06   -479.74542 
      14   -479.74542      10.5243      10.5243      10.5243            0           -0           -0    -9314.752    -9314.752    -9314.752    -9314.752 -9.6645173e-07 -9.6644788e-07 -9.6645547e-07   -479.74542 
      15   -479.74542      10.5243      10.5243      10.5243            0           -0           -0   -9314.7532   -9314.7532   -9314.7532   -9314.7532 -6.5597604e-07 -6.5595133e-07 -6.5590978e-07   -479.74542 
      16   -479.74542      10.5243      10.5243      10.5243            0           -0           -0   -9314.7539   -9314.7539   -9314.7539   -9314.7539 -4.2031544e-07 -4.203094e-07 -4.2034971e-07   -479.74542 
      17   -479.74542      10.5243      10.5243      10.5243            0           -0           -0   -9314.7543   -9314.7543   -9314.7543   -9314.7543 -1.2984148e-07 -1.298405e-07 -1.2983304e-07   -479.74542 
      18   -479.74542      10.5243      10.5243      10.5243            0           -0           -0   -9314.7538   -9314.7538   -9314.7538   -9314.7538 7.6840497e-08  7.69289e-08 7.6897746e-08   -479.74542 
      19   -479.74542      10.5243      10.5243      10.5243            0           -0           -0   -9314.7536   -9314.7536   -9314.7536   -9314.7536 1.3546955e-07 1.3544889e-07 1.3547936e-07   -479.74542 
      20   -479.74542      10.5243      10.5243      10.5243            0           -0           -0   -9314.7535   -9314.7535   -9314.7535   -9314.7535 1.2269146e-07 1.2277759e-07 1.2270625e-07   -479.74542 
      21   -479.74542      10.5243      10.5243      10.5243            0           -0           -0   -9314.7535   -9314.7535   -9314.7535   -9314.7535 9.3449674e-08 9.3478747e-08 9.3519619e-08   -479.74542 
      22   -479.74542      10.5243      10.5243      10.5243            0           -0           -0   -9314.7536   -9314.7536   -9314.7536   -9314.7536 5.0672849e-08 5.0606956e-08 5.0630065e-08   -479.74542 
      23   -479.74542      10.5243      10.5243      10.5243            0           -0           -0   -9314.7536   -9314.7536   -9314.7536   -9314.7536 2.9753028e-08 2.9730288e-08 2.9752913e-08   -479.74542 
      24   -479.74542      10.5243      10.5243      10.5243            0           -0           -0   -9314.7536   -9314.7536   -9314.7536   -9314.7536 1.9315012e-08 1.9295035e-08 1.929181e-08   -479.74542 
      25   -479.74542      10.5243      10.5243      10.5243            0           -0           -0   -9314.7536   -9314.7536   -9314.7536   -9314.7536 1.4847619e-08 1.4866571e-08 1.4853034e-08   -479.74542 
      26   -479.74542      10.5243      10.5243      10.5243            0           -0           -0   -9314.7536   -9314.7536   -9314.7536   -9314.7536  1.16235e-08 1.1620966e-08 1.1626123e-08   -479.74542 
      27   -479.74542      10.5243      10.5243      10.5243            0           -0           -0   -9314.7536   -9314.7536   -9314.7536   -9314.7536 8.2015537e-09 8.229362e-09 8.2368897e-09   -479.74542 
      28   -479.74542      10.5243      10.5243      10.5243            0           -0           -0   -9314.7536   -9314.7536   -9314.7536   -9314.7536 4.4968716e-09 4.5000508e-09 4.4709622e-09   -479.74542 
      29   -479.74542      10.5243      10.5243      10.5243            0           -0           -0   -9314.7536   -9314.7536   -9314.7536   -9314.7536 2.6605782e-09 2.5675289e-09 2.6193234e-09   -479.74542 
      30   -479.74542      10.5243      10.5243      10.5243            0           -0           -0   -9314.7536   -9314.7536   -9314.7536   -9314.7536 1.4616764e-09 1.5243013e-09 1.5099413e-09   -479.74542 
      31   -479.74542      10.5243      10.5243      10.5243            0           -0           -0   -9314.7536   -9314.7536   -9314.7536   -9314.7536 1.0289056e-09 1.0108043e-09 9.894309e-10   -479.74542 
      32   -479.74542      10.5243      10.5243      10.5243            0           -0           -0   -9314.7536   -9314.7536   -9314.7536   -9314.7536 7.5765727e-10 7.6531189e-10 8.1780465e-10   -479.74542 
      33   -479.74542      10.5243      10.5243      10.5243            0           -0           -0   -9314.7536   -9314.7536   -9314.7536   -9314.7536 5.8661193e-10 5.901313e-10 6.128703e-10   -479.74542 
      34   -479.74542      10.5243      10.5243      10.5243            0           -0           -0   -9314.7536   -9314.7536   -9314.7536   -9314.7536 5.0350069e-10 4.6768948e-10 4.5287829e-10   -479.74542 
      35   -479.74542      10.5243      10.5243      10.5243            0           -0           -0   -9314.7536   -9314.7536   -9314.7536   -9314.7536 4.2432456e-10 3.7367656e-10 3.7353026e-10   -479.74542 
      36   -479.74542      10.5243      10.5243      10.5243            0           -0           -0   -9314.7536   -9314.7536   -9314.7536   -9314.7536 2.6836207e-10 2.6922001e-10 2.343424e-10   -479.74542 
      37   -479.74542      10.5243      10.5243      10.5243            0           -0           -0   -9314.7536   -9314.7536   -9314.7536   -9314.7536 1.9583369e-10 1.4788376e-10 1.5214409e-10   -479.74542 
      38   -479.74542      10.5243      10.5243      10.5243            0           -0           -0   -9314.7536   -9314.7536   -9314.7536   -9314.7536 8.0532806e-11 1.0164028e-10 8.5602356e-11   -479.74542 
      39   -479.74542      10.5243      10.5243      10.5243            0           -0           -0   -9314.7536   -9314.7536   -9314.7536   -9314.7536 -1.5021555e-11 4.4861025e-11 3.0282556e-11   -479.74542 
      40   -479.74542      10.5243      10.5243      10.5243            0           -0           -0   -9314.7536   -9314.7536   -9314.7536   -9314.7536 4.1216612e-12 -1.1518587e-11 2.5607478e-12   -479.74542 
      41   -479.74542      10.5243      10.5243      10.5243            0           -0           -0   -9314.7536   -9314.7536   -9314.7536   -9314.7536 2.8317506e-11 3.1061286e-11 1.6256607e-11   -479.74542 
      42   -479.74542      10.5243      10.5243      10.5243            0           -0           -0   -9314.7536   -9314.7536   -9314.7536   -9314.7536 -2.1064734e-13 1.5739772e-11 -1.7043277e-12   -479.74542 
      43   -479.74542      10.5243      10.5243      10.5243            0           -0           -0   -9314.7536   -9314.7536   -9314.7536   -9314.7536 1.5478458e-11 4.0628366e-11 -3.6638202e-11   -479.74542 
      44   -479.74542      10.5243      10.5243      10.5243            0           -0           -0   -9314.7536   -9314.7536   -9314.7536   -9314.7536 3.6273907e-11 2.2952118e-11 4.2819193e-12   -479.74542 
      45   -479.74542      10.5243      10.5243      10.5243            0           -0           -0   -9314.7536   -9314.7536   -9314.7536   -9314.7536 -3.2812532e-11 1.7577318e-11 3.1817277e-12   -479.74542 
      46   -479.74542      10.5243      10.5243      10.5243            0           -0           -0   -9314.7536   -9314.7536   -9314.7536   -9314.7536 -3.5095501e-11 1.7311473e-11 -2.5012521e-12   -479.74542 
      47   -479.74542      10.5243      10.5243      10.5243            0           -0           -0   -9314.7536   -9314.7536   -9314.7536   -9314.7536 -3.7612756e-11 -3.2664882e-11 -3.0121765e-11   -479.74542 
      48   -479.74542      10.5243      10.5243      10.5243            0           -0           -0   -9314.7536   -9314.7536   -9314.7536   -9314.7536 -3.4064919e-11 -1.1234786e-11 8.4800621e-12   -479.74542 
      49   -479.74542      10.5243      10.5243      10.5243            0           -0           -0   -9314.7536   -9314.7536   -9314.7536   -9314.7536 -7.4358596e-12 1.6909495e-11 -4.1161964e-12   -479.74542 
      50   -479.74542      10.5243      10.5243      10.5243            0           -0           -0   -9314.7536   -9314.7536   -9314.7536   -9314.7536 -7.4006539e-12 1.9621488e-11 -1.1800424e-12   -479.74542 
      51   -479.74542      10.5243      10.5243      10.5243            0           -0           -0   -9314.7536   -9314.7536   -9314.7536   -9314.7536 -2.349945e-11 9.6265007e-12 -3.7421407e-11   -479.74542 
      52   -479.74542      10.5243      10.5243      10.5243            0           -0           -0   -9314.7536   -9314.7536   -9314.7536   -9314.7536 1.8643058e-11 4.6530701e-11 -1.0394059e-12   -479.74542 
      53   -479.74542      10.5243      10.5243      10.5243            0           -0           -0   -9314.7536   -9314.7536   -9314.7536   -9314.7536 -1.5500122e-11 4.5844022e-11 3.1569999e-12   -479.74542 
      54   -479.74542      10.5243      10.5243      10.5243            0           -0           -0   -9314.7536   -9314.7536   -9314.7536   -9314.7536 -2.7817456e-11 2.1571845e-11 -2.4787037e-11   -479.74542 
      55   -479.74542      10.5243      10.5243      10.5243            0           -0           -0   -9314.7536   -9314.7536   -9314.7536   -9314.7536 -2.6058272e-12 -1.0005828e-11 -3.2097302e-11   -479.74542 
Loop time of 0.642673 on 1 procs for 55 steps with 107 atoms

31.4% CPU use with 1 MPI tasks x no OpenMP threads

Minimization stats:
  Stopping criterion = energy tolerance
  Energy initial, next-to-last, final = 
        -479.512283809     -479.745419921     -479.745419921
  Force two-norm initial, final = 1.60365 4.71141e-14
  Force max component initial, final = 0.326696 8.64239e-15
  Final line search alpha, max atom move = 1 8.64239e-15
  Iterations, force evaluations = 55 110

MPI task timing breakdown:
Section |  min time  |  avg time  |  max time  |%varavg| %total
---------------------------------------------------------------
Pair    | 0.63882    | 0.63882    | 0.63882    |   0.0 | 99.40
Neigh   | 0          | 0          | 0          |   0.0 |  0.00
Comm    | 0.0017383  | 0.0017383  | 0.0017383  |   0.0 |  0.27
Output  | 0.0013559  | 0.0013559  | 0.0013559  |   0.0 |  0.21
Modify  | 0          | 0          | 0          |   0.0 |  0.00
Other   |            | 0.0007589  |            |       |  0.12

Nlocal:    107 ave 107 max 107 min
Histogram: 1 0 0 0 0 0 0 0 0 0
Nghost:    3259 ave 3259 max 3259 min
Histogram: 1 0 0 0 0 0 0 0 0 0
Neighs:    28093 ave 28093 max 28093 min
Histogram: 1 0 0 0 0 0 0 0 0 0

Total # of neighbors = 28093
Ave neighs/atom = 262.551
Neighbor list builds = 0
Dangerous builds = 0

# ---- define output variables ----
variable natoms equal "count(all)"
variable tot_energy equal "c_eatoms"
variable a11 equal "xhi-xlo"
variable a22 equal "yhi-ylo"
variable a33 equal "zhi-zlo"
variable tilt_xy equal "xy"
variable tilt_xz equal "xz"
variable tilt_yz equal "yz"
variable tot_press equal "press"
variable press_xx equal "pxx"
variable press_yy equal "pyy"
variable press_zz equal "pzz"
variable press_xy equal "pxy"
variable press_xz equal "pxz"
variable press_yz equal "pyz"

# ---- output ----
print "pypospack:output_section:begin"
pypospack:output_section:begin
print "tot_energy = ${tot_energy}"
tot_energy = -479.745419920874
print "num_atoms = ${natoms}"
num_atoms = 107
print "a11 = ${a11}"
a11 = 10.5243
print "a22 = ${a22}"
a22 = 10.5243
print "a33 = ${a33}"
a33 = 10.5243
print "a12 = ${tilt_xy}"
a12 = 0
print "a13 = ${tilt_xz}"
a13 = -0
print "a23 = ${tilt_yz}"
a23 = -0
print "tot_press = ${tot_press}"
tot_press = -9314.75356775461
print "pxx = ${press_xx}"
pxx = -9314.75356775463
print "pyy = ${press_yy}"
pyy = -9314.75356775461
print "pzz = ${press_zz}"
pzz = -9314.7535677546
print "pxy = ${press_xy}"
pxy = -2.60582718813674e-12
print "pxz = ${press_xz}"
pxz = -1.00058280133739e-11
print "pyz = ${press_yz}"
pyz = -3.20973017492598e-11
print "pypospack:output_section:done"
pypospack:output_section:done
print "pypospack:lammps_sim:done"
pypospack:lammps_sim:done
Total wall time: 0:00:00
