# ['Ni']

18 atoms
1 atom types

    0.0000     2.4125 xlo xhi
    0.0000     4.1786 ylo yhi
    0.0000    35.4504 zlo zhi

    0.0000     0.0000    -0.0004 xy xz yz

Atoms

1 1     0.0000     0.0000     0.0000
2 1     1.2062     0.6964     1.9695
3 1     0.0000     1.3929     3.9389
4 1     1.2062     2.0893     0.0000
5 1     0.0000     2.7857     1.9695
6 1     1.2062     3.4821     3.9389
7 1     0.0000     0.0000     5.9084
8 1     1.2062     0.6964     7.8779
9 1     0.0000     1.3929     9.8473
10 1     1.2062     2.0893     5.9084
11 1     0.0000     2.7857     7.8779
12 1     1.2062     3.4821     9.8473
13 1     0.0000     0.0000    11.8168
14 1     1.2062     0.6964    13.7863
15 1     0.0000     1.3929    15.7557
16 1     1.2062     2.0893    11.8168
17 1     0.0000     2.7857    13.7863
18 1     1.2062     3.4821    15.7557
