LAMMPS (11 Aug 2017)
# ---- initialize simulations
clear
units metal
dimension 3
boundary p p p
atom_style atomic
atom_modify map array
# ---- create atoms
read_data /home/sullberg/repos/pypospack/examples/Ni__eam__born_exp_rose/01_preconditioning_3.5NN/rank_16/Ni_hcp.lmps_min_all/lammps.structure
  triclinic box = (0 0 0) to (3.6 6.2354 5.8788) with tilt (0 0 0)
  1 by 1 by 1 MPI processor grid
  reading atoms ...
  4 atoms
# ---- define interatomic potential
include potential.mod
mass 1 58.6934

group Ni type 1
4 atoms in group Ni

pair_style eam/alloy
pair_coeff * * /home/sullberg/repos/pypospack/examples/Ni__eam__born_exp_rose/01_preconditioning_3.5NN/rank_16/Ni_hcp.lmps_min_all/Ni.eam.alloy Ni

neighbor 1.0 bin
neigh_modify every 1 delay 0 check yes
# ---- define settings
compute eng all pe/atom
compute eatoms all reduce sum c_eng
# ---- run minimization
reset_timestep 0
fix 1 all box/relax aniso 0.0 vmax 0.001
thermo 10
thermo_style custom step pe xhi xlo yhi ylo zhi xy xz yz press pxx pyy pzz pxy pxz pyz c_eatoms
min_style cg
minimize 1e-25 1e-25 5000 10000
Neighbor list info ...
  update every 1 steps, delay 0 steps, check yes
  max neighbors/atom: 2000, page size: 100000
  master list distance cutoff = 11
  ghost atom cutoff = 11
  binsize = 5.5, bins = 1 2 2
  1 neighbor lists, perpetual/occasional/extra = 1 0 0
  (1) pair eam/alloy, perpetual
      attributes: half, newton on
      pair build: half/bin/newton/tri
      stencil: half/bin/3d/newton/tri
      bin: standard
Per MPI rank memory allocation (min/avg/max) = 4.231 | 4.231 | 4.231 Mbytes
Step PotEng Xhi Xlo Yhi Ylo Zhi Xy Xz Yz Press Pxx Pyy Pzz Pxy Pxz Pyz c_eatoms 
       0   -6.1306237          3.6            0       6.2354            0       5.8788            0            0            0   -123612.52    -123571.4   -123570.39   -123695.78 -6.1620233e-13 2.7180997e-11 1.1230597e-11   -6.1306237 
      10   -6.4422022    3.5820184   0.01798159    6.2042551  0.031144862     5.849406            0            0            0   -131375.49   -131330.55   -131329.52   -131466.42 7.1687117e-12 -1.9796901e-11 -1.7794332e-11   -6.4422022 
      20    -6.766565    3.5640375  0.035962493    6.1731115  0.062288541     5.820012            0            0            0   -139493.96   -139444.96   -139443.91   -139593.01 -2.7323176e-11 -5.385926e-12 -4.9819354e-11    -6.766565 
      30   -7.1038431    3.5460573  0.053942718    6.1419689  0.093431052     5.790618            0            0            0   -147964.73   -147911.47   -147910.39   -148072.33 -2.0539886e-14 1.4584446e-11 -1.6224144e-12   -7.1038431 
      40   -7.4541148    3.5280777  0.071922275    6.1108276   0.12457241     5.761224            0            0            0   -156782.11   -156724.31   -156723.23    -156898.8 2.098299e-11 2.330373e-11 1.9039262e-11   -7.4541148 
      50   -7.8173941    3.5100989  0.089901104    6.0796875   0.15571252      5.73183            0            0            0    -165932.3   -165869.47   -165868.38   -166059.06 3.3720337e-12 1.2612851e-11 1.0555385e-11   -7.8173941 
      60   -8.1936239    3.4921208   0.10787917    6.0485487   0.18685132     5.702436            0            0            0   -175394.17   -175326.07   -175324.98   -175531.46 5.0969457e-12 5.7021758e-12 -1.1885828e-11   -8.1936239 
      70   -8.5826581    3.4741435   0.12585649    6.0174112   0.21798883     5.673042            0            0            0   -185133.92   -185060.34   -185059.26   -185282.17 3.7861801e-12 -4.6987432e-12 1.9432996e-11   -8.5826581 
      80   -8.9842585    3.4561669   0.14383308    5.9862749   0.24912509     5.643648            0            0            0   -195122.39   -195043.31   -195042.25   -195281.61 -1.8649826e-11 -5.6414574e-11 -3.0862991e-11   -8.9842585 
      90   -9.3980791     3.438191   0.16180902    5.9551398   0.28026023     5.614254            0            0            0   -205304.91   -205220.37   -205219.36   -205475.01 -2.0831035e-11 -3.7223107e-11 -1.0542568e-10   -9.3980791 
     100   -9.8236426    3.4202157   0.17978435    5.9240057   0.31139433      5.58486            0            0            0   -215621.98   -215531.99   -215531.03   -215802.92 1.0451061e-11 -6.3077808e-12 -1.4035819e-11   -9.8236426 
     110   -10.260331    3.4022409   0.19775911    5.8928725   0.34252746     5.555466            0            0            0   -226006.95   -225911.64   -225910.75   -226198.45 2.9953096e-11 1.1256807e-11 -8.1764172e-12   -10.260331 
     120   -10.707366    3.3842666   0.21573337    5.8617403   0.37365974     5.526072            0            0            0   -236342.79   -236242.49   -236241.69    -236544.2 8.9852431e-13 3.2520691e-11 1.7526006e-11   -10.707366 
     130   -11.163784    3.3662928   0.23370723    5.8306087   0.40479133     5.496678            0            0            0    -246528.8   -246424.13   -246423.45   -246738.81 2.1650294e-11 -2.6083249e-11 -3.9504926e-12   -11.163784 
     140   -11.628421    3.3483192    0.2516808    5.7994776   0.43592245     5.467284            0            0            0   -256425.53   -256317.08   -256316.54   -256642.97 -3.3227065e-11 -2.4335198e-11 -5.710887e-11   -11.628421 
     150   -12.099875    3.3303459   0.26965415    5.7683468    0.4670532      5.43789            0            0            0   -265880.24   -265768.62   -265768.25   -266103.85 5.2868341e-11 -7.7717531e-13 4.6109233e-11   -12.099875 
     160   -12.576484    3.3123726   0.28762736    5.7372163   0.49818374     5.408496            0            0            0   -274660.63   -274546.73   -274546.57   -274888.59 3.249779e-12 -2.5748159e-11 -4.0322566e-11   -12.576484 
     170     -13.0563    3.2943994   0.30560058    5.7060857   0.52931432     5.379102            0            0            0   -282566.89   -282452.25   -282452.34   -282796.07 1.0756826e-11 -2.7277844e-11 1.8317771e-11     -13.0563 
     180   -13.537043     3.276426   0.32357403    5.6749547   0.56044531     5.349708            0            0            0   -289289.83    -289176.2   -289176.57   -289516.71 -2.5859995e-11 4.9174501e-11 1.8641513e-10   -13.537043 
     190   -14.016073    3.2584521    0.3415479    5.6438229   0.59157707     5.320314            0            0            0   -294504.18   -294393.37   -294394.07   -294725.11 -1.6076035e-11 -2.0811894e-11 -3.3845302e-11   -14.016073 
     200   -14.490343    3.2404776   0.35952236    5.6126901    0.6227099      5.29092            0            0            0   -297830.26   -297724.22    -297725.3   -298041.24 1.7733606e-13 7.6992714e-12 3.9034919e-11   -14.490343 
     210   -14.956352    3.2225023   0.37749772    5.5815557   0.65384432     5.261526            0            0            0   -298790.13   -298691.92   -298693.43   -298985.03 -5.1063937e-11 1.3786125e-10 2.5790981e-10   -14.956352 
     220   -15.410095    3.2045256   0.39547437     5.550419   0.68498102     5.232132            0            0            0   -296866.43   -296779.19   -296781.19   -297038.91 -1.94378e-11 -2.6192571e-11 2.1249271e-11   -15.410095 
     230   -15.847009    3.1865472    0.4134528    5.5192791   0.71612086     5.202738            0            0            0   -291397.42   -291325.03   -291327.58   -291539.66 1.4368614e-11 -4.0756398e-12 -7.6764207e-11   -15.847009 
     240   -16.261909    3.1685662   0.43143378    5.4881348   0.74726519     5.173344            0            0            0   -281680.47   -281628.48   -281631.62   -281781.32 1.1217271e-11   2.7532e-11 1.6479349e-10   -16.261909 
     250   -16.648918    3.1505816   0.44941842     5.456984   0.77841596      5.14395            0            0            0   -266838.04   -266811.59   -266815.38   -266887.15 3.2418502e-11 -6.7935412e-11 -2.4339809e-10   -16.648918 
     260   -17.001392    3.1325919   0.46740811    5.4258244   0.80957558     5.114556            0            0            0   -245877.51   -245881.48   -245885.97   -245865.08 -2.5918697e-11 -3.7451869e-11 -4.489361e-11   -17.001392 
     270   -17.311829    3.1145951   0.48540486    5.3946524   0.84074757    5.0851623            0            0            0   -217557.71   -217597.67   -217602.87   -217472.58 -8.8611324e-11 9.0547075e-12 2.0925515e-10   -17.311829 
     280   -17.571676    3.0965956   0.50340436    5.3634754   0.87192457    5.0557823            0            0            0   -180649.51      -180730   -180735.88   -180482.66 8.4885595e-11 -3.1488454e-11 -3.9663009e-10   -17.571676 
     290    -17.77142    3.0785963   0.52140366    5.3322984   0.90310157    5.0264332            0            0            0   -133472.95   -133596.28   -133602.72   -133219.83 4.7429049e-11 2.7042508e-11 5.4796106e-11    -17.77142 
     300   -17.900495    3.0605975   0.53940252    5.3011214   0.93427857    4.9971498            0            0            0   -74353.066   -74512.476   -74519.085   -74027.637 5.1419006e-11 -4.7828218e-11 1.123831e-10   -17.900495 
     310   -17.947234    3.0426011   0.55739889    5.2699444   0.96545557    4.9682221            0            0            0   -1437.1641   -1549.0181   -1553.2833   -1209.1908 2.3217369e-11 -3.5100932e-11 6.3446952e-11   -17.947234 
     320   -17.947248    3.0422117   0.55778834    5.2692724   0.96612759    4.9680464            0            0            0   0.11844989 0.0052957986   0.50216346   -0.1521096 1.1196436e-10 1.5006957e-10 -6.7656828e-11   -17.947248 
     330   -17.947248    3.0422114   0.55778858    5.2692733   0.96612672    4.9680461            0            0            0 0.0011077005 0.00094550071 0.0011327031 0.0012448976 -9.5188807e-11 7.6250964e-11 9.8690439e-11   -17.947248 
     337   -17.947248    3.0422114   0.55778858    5.2692733   0.96612671    4.9680461            0            0            0 -4.5447911e-09 -2.8443659e-09 -6.5526841e-09 -4.2373233e-09 7.7422846e-11 2.5110126e-11 -1.1305338e-11   -17.947248 
Loop time of 0.0242879 on 1 procs for 337 steps with 4 atoms

97.7% CPU use with 1 MPI tasks x no OpenMP threads

Minimization stats:
  Stopping criterion = energy tolerance
  Energy initial, next-to-last, final = 
        -6.13062370435     -17.9472484578     -17.9472484578
  Force two-norm initial, final = 17.6347 3.58598e-13
  Force max component initial, final = 10.1883 2.5706e-13
  Final line search alpha, max atom move = 1 2.5706e-13
  Iterations, force evaluations = 337 364

MPI task timing breakdown:
Section |  min time  |  avg time  |  max time  |%varavg| %total
---------------------------------------------------------------
Pair    | 0.016207   | 0.016207   | 0.016207   |   0.0 | 66.73
Neigh   | 0.00023222 | 0.00023222 | 0.00023222 |   0.0 |  0.96
Comm    | 0.0017216  | 0.0017216  | 0.0017216  |   0.0 |  7.09
Output  | 0.00047565 | 0.00047565 | 0.00047565 |   0.0 |  1.96
Modify  | 0          | 0          | 0          |   0.0 |  0.00
Other   |            | 0.005651   |            |       | 23.27

Nlocal:    4 ave 4 max 4 min
Histogram: 1 0 0 0 0 0 0 0 0 0
Nghost:    1424 ave 1424 max 1424 min
Histogram: 1 0 0 0 0 0 0 0 0 0
Neighs:    848 ave 848 max 848 min
Histogram: 1 0 0 0 0 0 0 0 0 0

Total # of neighbors = 848
Ave neighs/atom = 212
Neighbor list builds = 5
Dangerous builds = 0
# ---- define output variables ----
variable natoms equal "count(all)"
variable tot_energy equal "c_eatoms"
variable a11 equal "xhi-xlo"
variable a22 equal "yhi-ylo"
variable a33 equal "zhi-zlo"
variable tilt_xy equal "xy"
variable tilt_xz equal "xz"
variable tilt_yz equal "yz"
variable tot_press equal "press"
variable press_xx equal "pxx"
variable press_yy equal "pyy"
variable press_zz equal "pzz"
variable press_xy equal "pxy"
variable press_xz equal "pxz"
variable press_yz equal "pyz"

# ---- output ----
print "pypospack:output_section:begin"
pypospack:output_section:begin
print "tot_energy = ${tot_energy}"
tot_energy = -17.9472484578253
print "num_atoms = ${natoms}"
num_atoms = 4
print "a11 = ${a11}"
a11 = 2.48442283573526
print "a22 = ${a22}"
a22 = 4.30314657897788
print "a33 = ${a33}"
a33 = 4.05729221974103
print "a12 = ${tilt_xy}"
a12 = 0
print "a13 = ${tilt_xz}"
a13 = 0
print "a23 = ${tilt_yz}"
a23 = 0
print "tot_press = ${tot_press}"
tot_press = -4.54479110892666e-09
print "pxx = ${press_xx}"
pxx = -2.84436588574724e-09
print "pyy = ${press_yy}"
pyy = -6.55268409369171e-09
print "pzz = ${press_zz}"
pzz = -4.23732334734102e-09
print "pxy = ${press_xy}"
pxy = 7.74228462742697e-11
print "pxz = ${press_xz}"
pxz = 2.51101258346446e-11
print "pyz = ${press_yz}"
pyz = -1.13053384471923e-11
print "pypospack:output_section:done"
pypospack:output_section:done
print "pypospack:lammps_sim:done"
pypospack:lammps_sim:done
Total wall time: 0:00:00
