# ['Ni']

107 atoms
1 atom types

    0.0000    10.5405 xlo xhi
    0.0000    10.5405 ylo yhi
    0.0000    10.5405 zlo zhi

    0.0000    -0.0000    -0.0000 xy xz yz

Atoms

1 1     1.7567     1.7567     0.0000
2 1     1.7567     0.0000     1.7567
3 1     0.0000     1.7567     1.7567
4 1     0.0000     0.0000     3.5135
5 1     1.7567     1.7567     3.5135
6 1     1.7567     0.0000     5.2702
7 1     0.0000     1.7567     5.2702
8 1     0.0000     0.0000     7.0270
9 1     1.7567     1.7567     7.0270
10 1     1.7567     0.0000     8.7837
11 1     0.0000     1.7567     8.7837
12 1     0.0000     3.5135     0.0000
13 1     1.7567     5.2702     0.0000
14 1     1.7567     3.5135     1.7567
15 1     0.0000     5.2702     1.7567
16 1     0.0000     3.5135     3.5135
17 1     1.7567     5.2702     3.5135
18 1     1.7567     3.5135     5.2702
19 1     0.0000     5.2702     5.2702
20 1     0.0000     3.5135     7.0270
21 1     1.7567     5.2702     7.0270
22 1     1.7567     3.5135     8.7837
23 1     0.0000     5.2702     8.7837
24 1     0.0000     7.0270     0.0000
25 1     1.7567     8.7837     0.0000
26 1     1.7567     7.0270     1.7567
27 1     0.0000     8.7837     1.7567
28 1     0.0000     7.0270     3.5135
29 1     1.7567     8.7837     3.5135
30 1     1.7567     7.0270     5.2702
31 1     0.0000     8.7837     5.2702
32 1     0.0000     7.0270     7.0270
33 1     1.7567     8.7837     7.0270
34 1     1.7567     7.0270     8.7837
35 1     0.0000     8.7837     8.7837
36 1     3.5135     0.0000     0.0000
37 1     5.2702     1.7567     0.0000
38 1     5.2702     0.0000     1.7567
39 1     3.5135     1.7567     1.7567
40 1     3.5135     0.0000     3.5135
41 1     5.2702     1.7567     3.5135
42 1     5.2702     0.0000     5.2702
43 1     3.5135     1.7567     5.2702
44 1     3.5135     0.0000     7.0270
45 1     5.2702     1.7567     7.0270
46 1     5.2702     0.0000     8.7837
47 1     3.5135     1.7567     8.7837
48 1     3.5135     3.5135     0.0000
49 1     5.2702     5.2702     0.0000
50 1     5.2702     3.5135     1.7567
51 1     3.5135     5.2702     1.7567
52 1     3.5135     3.5135     3.5135
53 1     5.2702     5.2702     3.5135
54 1     5.2702     3.5135     5.2702
55 1     3.5135     5.2702     5.2702
56 1     3.5135     3.5135     7.0270
57 1     5.2702     5.2702     7.0270
58 1     5.2702     3.5135     8.7837
59 1     3.5135     5.2702     8.7837
60 1     3.5135     7.0270     0.0000
61 1     5.2702     8.7837     0.0000
62 1     5.2702     7.0270     1.7567
63 1     3.5135     8.7837     1.7567
64 1     3.5135     7.0270     3.5135
65 1     5.2702     8.7837     3.5135
66 1     5.2702     7.0270     5.2702
67 1     3.5135     8.7837     5.2702
68 1     3.5135     7.0270     7.0270
69 1     5.2702     8.7837     7.0270
70 1     5.2702     7.0270     8.7837
71 1     3.5135     8.7837     8.7837
72 1     7.0270     0.0000     0.0000
73 1     8.7837     1.7567     0.0000
74 1     8.7837     0.0000     1.7567
75 1     7.0270     1.7567     1.7567
76 1     7.0270     0.0000     3.5135
77 1     8.7837     1.7567     3.5135
78 1     8.7837     0.0000     5.2702
79 1     7.0270     1.7567     5.2702
80 1     7.0270     0.0000     7.0270
81 1     8.7837     1.7567     7.0270
82 1     8.7837     0.0000     8.7837
83 1     7.0270     1.7567     8.7837
84 1     7.0270     3.5135     0.0000
85 1     8.7837     5.2702     0.0000
86 1     8.7837     3.5135     1.7567
87 1     7.0270     5.2702     1.7567
88 1     7.0270     3.5135     3.5135
89 1     8.7837     5.2702     3.5135
90 1     8.7837     3.5135     5.2702
91 1     7.0270     5.2702     5.2702
92 1     7.0270     3.5135     7.0270
93 1     8.7837     5.2702     7.0270
94 1     8.7837     3.5135     8.7837
95 1     7.0270     5.2702     8.7837
96 1     7.0270     7.0270     0.0000
97 1     8.7837     8.7837     0.0000
98 1     8.7837     7.0270     1.7567
99 1     7.0270     8.7837     1.7567
100 1     7.0270     7.0270     3.5135
101 1     8.7837     8.7837     3.5135
102 1     8.7837     7.0270     5.2702
103 1     7.0270     8.7837     5.2702
104 1     7.0270     7.0270     7.0270
105 1     8.7837     8.7837     7.0270
106 1     8.7837     7.0270     8.7837
107 1     7.0270     8.7837     8.7837
