   2   2   0   0
  0.1090254E+02  0.2793739E-09  0.2793739E-09  0.2793739E-09  0.5000000E-15
  1.000000000000000E-004
  CAR 
 automatically generated by pyflamestk   
     29.83093301     -0.72077458  301      9.24786330      1.00000000
     -0.721  0.0000E+00  0.0000E+00  0.0000E+00  0.0000E+00
     -0.619  0.0000E+00  0.0000E+00  0.0000E+00  0.0000E+00
     -0.517  0.0000E+00  0.0000E+00  0.0000E+00  0.0000E+00
     -0.415  0.0000E+00 -0.1963E-30  0.0000E+00 -0.1999E-31
     -0.313 -0.1727E-27 -0.7953E-27 -0.1759E-28 -0.8101E-28
     -0.212 -0.4578E-24 -0.1910E-23 -0.4664E-25 -0.1946E-24
     -0.110 -0.7193E-21 -0.2719E-20 -0.7330E-22 -0.2771E-21
     -0.008 -0.6692E-18 -0.2292E-17 -0.6822E-19 -0.2336E-18
      0.094 -0.3683E-15 -0.1142E-14 -0.3758E-16 -0.1166E-15
      0.196 -0.1159E-12 -0.3249E-12 -0.1184E-13 -0.3321E-13
      0.298 -0.2207E-10 -0.5598E-10 -0.2259E-11 -0.5734E-11
      0.399 -0.2466E-08 -0.5654E-08 -0.2534E-09 -0.5816E-09
      0.501 -0.1609E-06 -0.3331E-06 -0.1664E-07 -0.3450E-07
      0.603 -0.6081E-05 -0.1134E-04 -0.6359E-06 -0.1189E-05
      0.705 -0.1312E-03 -0.2195E-03 -0.1400E-04 -0.2355E-04
      0.807 -0.1573E-02 -0.2343E-02 -0.1741E-03 -0.2621E-03
      0.909 -0.9822E-02 -0.1275E-01 -0.1174E-02 -0.1560E-02
      1.010 -0.2558E-01 -0.2594E-01 -0.3779E-02 -0.4202E-02
      1.112  0.1705E-01  0.4328E-01 -0.2042E-02  0.2060E-03
      1.214  0.2362E+00  0.2928E+00  0.2201E-01  0.3002E-01
      1.316  0.4884E+00  0.5064E+00  0.7175E-01  0.8159E-01
      1.418  0.4230E+00  0.3740E+00  0.1148E+00  0.1197E+00
      1.520  0.1402E+00  0.9566E-01  0.1291E+00  0.1294E+00
      1.622 -0.1298E-01 -0.2127E-01  0.1278E+00  0.1273E+00
      1.723 -0.2101E-01 -0.1764E-01  0.1257E+00  0.1255E+00
      1.825 -0.5661E-02 -0.4035E-02  0.1251E+00  0.1250E+00
      1.927 -0.7154E-03 -0.4507E-03  0.1250E+00  0.1250E+00
      2.029 -0.4851E-04 -0.2734E-04  0.1250E+00  0.1250E+00
      2.131 -0.1849E-05 -0.9376E-06  0.1250E+00  0.1250E+00
      2.233 -0.4048E-07 -0.1852E-07  0.1250E+00  0.1250E+00
      2.334 -0.5150E-09 -0.2128E-09  0.1250E+00  0.1250E+00
      2.436 -0.1263E-10 -0.5240E-11  0.1250E+00  0.1250E+00
      2.538 -0.1215E-08 -0.5728E-09  0.1250E+00  0.1250E+00
      2.640 -0.9824E-07 -0.5046E-07  0.1250E+00  0.1250E+00
      2.742 -0.4616E-05 -0.2587E-05  0.1250E+00  0.1250E+00
      2.844 -0.1247E-03 -0.7642E-04  0.1250E+00  0.1250E+00
      2.945 -0.1895E-02 -0.1277E-02  0.1248E+00  0.1249E+00
      3.047 -0.1552E-01 -0.1160E-01  0.1232E+00  0.1237E+00
      3.149 -0.6034E-01 -0.5168E-01  0.1171E+00  0.1184E+00
      3.251 -0.4723E-01 -0.6587E-01  0.1123E+00  0.1117E+00
      3.353  0.3822E+00  0.2722E+00  0.1512E+00  0.1394E+00
      3.455  0.1231E+01  0.1103E+01  0.2765E+00  0.2517E+00
      3.556  0.1484E+01  0.1523E+01  0.4277E+00  0.4068E+00
      3.658  0.7547E+00  0.8990E+00  0.5045E+00  0.4984E+00
      3.760  0.7046E-01  0.1409E+00  0.5117E+00  0.5127E+00
      3.862 -0.7766E-01 -0.7745E-01  0.5038E+00  0.5048E+00
      3.964 -0.3195E-01 -0.3939E-01  0.5006E+00  0.5008E+00
      4.066 -0.8123E-02 -0.7374E-02  0.4997E+00  0.5001E+00
      4.167 -0.2126E-01 -0.9339E-03  0.4976E+00  0.5000E+00
      4.269 -0.6891E-01 -0.3169E-02  0.4906E+00  0.4997E+00
      4.371 -0.1469E-01 -0.2224E-01  0.4891E+00  0.4974E+00
      4.473  0.5159E+00 -0.7069E-01  0.5416E+00  0.4902E+00
      4.575  0.1350E+01 -0.4726E-02  0.6791E+00  0.4897E+00
      4.677  0.1406E+01  0.5499E+00  0.8222E+00  0.5457E+00
      4.779  0.5771E+00  0.1375E+01  0.8810E+00  0.6857E+00
      4.880 -0.6355E-01  0.1387E+01  0.8745E+00  0.8270E+00
      4.982 -0.6108E-01  0.5664E+00  0.8683E+00  0.8847E+00
      5.084  0.5607E+00 -0.1437E-01  0.9254E+00  0.8832E+00
      5.186  0.1345E+01 -0.1334E+00  0.1062E+01  0.8697E+00
      5.288  0.1506E+01 -0.9104E-01  0.1216E+01  0.8604E+00
      5.390  0.1520E+01  0.2874E+00  0.1371E+01  0.8897E+00
      5.491  0.2011E+01  0.1118E+01  0.1575E+01  0.1004E+01
      5.593  0.2119E+01  0.1913E+01  0.1791E+01  0.1198E+01
      5.695  0.1335E+01  0.2513E+01  0.1927E+01  0.1454E+01
      5.797  0.4992E+00  0.2553E+01  0.1978E+01  0.1714E+01
      5.899  0.7039E+00  0.1441E+01  0.2050E+01  0.1861E+01
      6.001  0.2265E+01  0.3006E+00  0.2280E+01  0.1892E+01
      6.102  0.3929E+01  0.2883E+00  0.2680E+01  0.1921E+01
      6.204  0.4226E+01  0.7890E+00  0.3111E+01  0.2001E+01
      6.306  0.3401E+01  0.1151E+01  0.3457E+01  0.2119E+01
      6.408  0.2059E+01  0.1808E+01  0.3667E+01  0.2303E+01
      6.510  0.1087E+01  0.2507E+01  0.3777E+01  0.2558E+01
      6.612  0.1857E+01  0.2826E+01  0.3967E+01  0.2846E+01
      6.713  0.3237E+01  0.3336E+01  0.4296E+01  0.3185E+01
      6.815  0.2878E+01  0.3278E+01  0.4589E+01  0.3519E+01
      6.917  0.1746E+01  0.1869E+01  0.4767E+01  0.3710E+01
      7.019  0.2397E+01  0.7665E+00  0.5011E+01  0.3788E+01
      7.121  0.3848E+01  0.1370E+01  0.5403E+01  0.3927E+01
      7.223  0.3349E+01  0.2821E+01  0.5744E+01  0.4214E+01
      7.325  0.1494E+01  0.3938E+01  0.5896E+01  0.4615E+01
      7.426  0.4462E+00  0.4295E+01  0.5942E+01  0.5053E+01
      7.528  0.2312E+00  0.3892E+01  0.5965E+01  0.5449E+01
      7.630  0.1153E+00  0.2843E+01  0.5977E+01  0.5739E+01
      7.732  0.6897E+00  0.1329E+01  0.6047E+01  0.5874E+01
      7.834  0.2256E+01  0.1785E+00  0.6277E+01  0.5892E+01
      7.936  0.3167E+01 -0.4012E-01  0.6600E+01  0.5888E+01
      8.037  0.2734E+01  0.2433E+00  0.6878E+01  0.5913E+01
      8.139  0.2955E+01  0.5133E+00  0.7179E+01  0.5965E+01
      8.241  0.4218E+01  0.9483E+00  0.7609E+01  0.6062E+01
      8.343  0.4645E+01  0.1708E+01  0.8082E+01  0.6236E+01
      8.445  0.4265E+01  0.2353E+01  0.8516E+01  0.6475E+01
      8.547  0.3993E+01  0.2732E+01  0.8923E+01  0.6753E+01
      8.648  0.3973E+01  0.3225E+01  0.9327E+01  0.7082E+01
      8.750  0.4465E+01  0.4261E+01  0.9782E+01  0.7516E+01
      8.852  0.4245E+01  0.5321E+01  0.1021E+02  0.8058E+01
      8.954  0.2473E+01  0.5340E+01  0.1047E+02  0.8602E+01
      9.056  0.6118E+00  0.4046E+01  0.1053E+02  0.9014E+01
      9.158 -0.1555E+00  0.2640E+01  0.1051E+02  0.9282E+01
      9.259 -0.2032E+00  0.2521E+01  0.1049E+02  0.9539E+01
      9.361  0.7367E-01  0.3237E+01  0.1050E+02  0.9869E+01
      9.463  0.8319E+00  0.3443E+01  0.1058E+02  0.1022E+02
      9.565  0.1510E+01  0.2314E+01  0.1074E+02  0.1046E+02
      9.667  0.1160E+01  0.6661E+00  0.1086E+02  0.1052E+02
      9.769  0.3177E+00 -0.1613E+00  0.1089E+02  0.1051E+02
      9.870 -0.5906E-01 -0.1301E+00  0.1088E+02  0.1049E+02
      9.972 -0.5544E-01  0.5010E+00  0.1088E+02  0.1054E+02
     10.074 -0.1318E-01  0.1359E+01  0.1088E+02  0.1068E+02
     10.176 -0.1517E-02  0.1398E+01  0.1088E+02  0.1083E+02
     10.278 -0.9453E-04  0.5841E+00  0.1088E+02  0.1088E+02
     10.380 -0.3326E-05  0.5986E-02  0.1088E+02  0.1089E+02
     10.482 -0.6739E-07 -0.7233E-01  0.1088E+02  0.1088E+02
     10.583 -0.5166E-08 -0.2372E-01  0.1087E+02  0.1088E+02
     10.685 -0.3040E-06 -0.3436E-02  0.1087E+02  0.1088E+02
     10.787 -0.1226E-04 -0.2629E-03  0.1087E+02  0.1088E+02
     10.889 -0.2827E-03 -0.1127E-04  0.1087E+02  0.1088E+02
     10.991 -0.3639E-02 -0.2269E-05  0.1087E+02  0.1087E+02
     11.093 -0.2468E-01 -0.6128E-04  0.1087E+02  0.1087E+02
     11.194 -0.7328E-01 -0.1067E-02  0.1086E+02  0.1087E+02
     11.296  0.1316E-01 -0.1014E-01  0.1087E+02  0.1087E+02
     11.398  0.6057E+00 -0.4784E-01  0.1093E+02  0.1087E+02
     11.500  0.1410E+01 -0.7112E-01  0.1107E+02  0.1086E+02
     11.602  0.1335E+01  0.2285E+00  0.1121E+02  0.1089E+02
     11.704  0.4566E+00  0.1042E+01  0.1125E+02  0.1099E+02
     11.805 -0.9322E-01  0.1524E+01  0.1124E+02  0.1115E+02
     11.907  0.2015E+00  0.9259E+00  0.1126E+02  0.1124E+02
     12.009  0.1221E+01  0.8820E-01  0.1139E+02  0.1125E+02
     12.111  0.1949E+01 -0.4243E-02  0.1159E+02  0.1125E+02
     12.213  0.1394E+01  0.7968E+00  0.1173E+02  0.1133E+02
     12.315  0.3608E+00  0.1753E+01  0.1177E+02  0.1151E+02
     12.416 -0.7476E-01  0.1677E+01  0.1176E+02  0.1168E+02
     12.518 -0.6631E-01  0.7405E+00  0.1175E+02  0.1175E+02
     12.620 -0.1583E-01  0.6629E-01  0.1175E+02  0.1176E+02
     12.722 -0.1851E-02 -0.7357E-01  0.1175E+02  0.1175E+02
     12.824 -0.1180E-03 -0.3355E-01  0.1175E+02  0.1175E+02
     12.926 -0.4261E-05 -0.6603E-02  0.1175E+02  0.1175E+02
     13.027 -0.8878E-07 -0.7031E-03  0.1175E+02  0.1175E+02
     13.129 -0.1078E-08 -0.4268E-04  0.1175E+02  0.1175E+02
     13.231 -0.7668E-11 -0.1504E-05  0.1175E+02  0.1175E+02
     13.333 -0.3189E-13 -0.3096E-07  0.1175E+02  0.1175E+02
     13.435  0.0000E+00 -0.3741E-09  0.1175E+02  0.1175E+02
     13.537  0.0000E+00 -0.2660E-11  0.1175E+02  0.1175E+02
     13.639  0.0000E+00 -0.1117E-13  0.1175E+02  0.1175E+02
     13.740  0.0000E+00  0.0000E+00  0.1175E+02  0.1175E+02
     13.842  0.0000E+00  0.0000E+00  0.1175E+02  0.1175E+02
     13.944  0.0000E+00  0.0000E+00  0.1175E+02  0.1175E+02
     14.046 -0.9662E-29  0.0000E+00  0.1175E+02  0.1175E+02
     14.148 -0.3212E-25  0.0000E+00  0.1175E+02  0.1175E+02
     14.250 -0.6331E-22 -0.1675E-28  0.1175E+02  0.1175E+02
     14.351 -0.7392E-19 -0.5379E-25  0.1175E+02  0.1175E+02
     14.453 -0.5108E-16 -0.1024E-21  0.1175E+02  0.1175E+02
     14.555 -0.2018E-13 -0.1155E-18  0.1175E+02  0.1175E+02
     14.657 -0.4850E-11 -0.7712E-16  0.1175E+02  0.1175E+02
     14.759 -0.6831E-09 -0.2948E-13  0.1175E+02  0.1175E+02
     14.861 -0.5631E-07 -0.6829E-11  0.1175E+02  0.1175E+02
     14.962 -0.2700E-05 -0.9286E-09  0.1175E+02  0.1175E+02
     15.064 -0.7445E-04 -0.7388E-07  0.1175E+02  0.1175E+02
     15.166 -0.1158E-02 -0.3416E-05  0.1175E+02  0.1175E+02
     15.268 -0.9757E-02 -0.9075E-04  0.1175E+02  0.1175E+02
     15.370 -0.3999E-01 -0.1356E-02  0.1174E+02  0.1175E+02
     15.472 -0.4506E-01 -0.1090E-01  0.1174E+02  0.1175E+02
     15.573  0.1893E+00 -0.4145E-01  0.1176E+02  0.1174E+02
     15.675  0.7309E+00 -0.3121E-01  0.1183E+02  0.1174E+02
     15.777  0.1226E+01  0.2489E+00  0.1196E+02  0.1177E+02
     15.879  0.1567E+01  0.7670E+00  0.1212E+02  0.1184E+02
     15.981  0.1587E+01  0.9650E+00  0.1228E+02  0.1194E+02
     16.083  0.9106E+00  0.9914E+00  0.1237E+02  0.1204E+02
     16.185  0.1551E+00  0.1382E+01  0.1239E+02  0.1218E+02
     16.286 -0.7934E-01  0.1365E+01  0.1238E+02  0.1232E+02
     16.388 -0.4337E-01  0.5937E+00  0.1238E+02  0.1238E+02
     16.490 -0.8510E-02  0.1263E-01  0.1238E+02  0.1239E+02
     16.592 -0.8444E-03 -0.7390E-01  0.1238E+02  0.1238E+02
     16.694 -0.4612E-04 -0.2506E-01  0.1238E+02  0.1238E+02
     16.796 -0.6101E-05 -0.3717E-02  0.1237E+02  0.1238E+02
     16.897 -0.1182E-03 -0.2970E-03  0.1237E+02  0.1238E+02
     16.999 -0.1675E-02 -0.1696E-03  0.1237E+02  0.1237E+02
     17.101 -0.1268E-01 -0.2099E-02  0.1237E+02  0.1237E+02
     17.203 -0.4424E-01 -0.1488E-01  0.1237E+02  0.1237E+02
     17.305 -0.1765E-01 -0.4719E-01  0.1237E+02  0.1237E+02
     17.407  0.3145E+00 -0.2781E-02  0.1240E+02  0.1237E+02
     17.508  0.8724E+00  0.3678E+00  0.1249E+02  0.1241E+02
     17.610  0.9390E+00  0.9165E+00  0.1258E+02  0.1250E+02
     17.712  0.4139E+00  0.9171E+00  0.1263E+02  0.1259E+02
     17.814  0.1271E+00  0.3545E+00  0.1264E+02  0.1263E+02
     17.916  0.3390E+00 -0.3956E-02  0.1267E+02  0.1263E+02
     18.018  0.4836E+00  0.1267E+00  0.1272E+02  0.1264E+02
     18.119  0.2653E+00  0.4354E+00  0.1275E+02  0.1269E+02
     18.221  0.1024E-01  0.4579E+00  0.1275E+02  0.1273E+02
     18.323 -0.2224E-01  0.1739E+00  0.1275E+02  0.1275E+02
     18.425  0.1884E+00  0.7413E-02  0.1277E+02  0.1275E+02
     18.527  0.4672E+00  0.1771E+00  0.1282E+02  0.1277E+02
     18.629  0.4483E+00  0.4620E+00  0.1286E+02  0.1282E+02
     18.730  0.1561E+00  0.4483E+00  0.1288E+02  0.1286E+02
     18.832 -0.6709E-01  0.1671E+00  0.1287E+02  0.1288E+02
     18.934 -0.6399E-01 -0.3343E-01  0.1286E+02  0.1287E+02
     19.036  0.4046E+00 -0.9911E-01  0.1290E+02  0.1286E+02
     19.138  0.1259E+01  0.3580E-01  0.1303E+02  0.1287E+02
     19.240  0.1470E+01  0.6863E+00  0.1318E+02  0.1294E+02
     19.342  0.7193E+00  0.1455E+01  0.1326E+02  0.1309E+02
     19.443  0.5552E-01  0.1286E+01  0.1326E+02  0.1322E+02
     19.545 -0.7698E-01  0.4392E+00  0.1325E+02  0.1326E+02
     19.647 -0.2999E-01 -0.3466E-01  0.1325E+02  0.1326E+02
     19.749 -0.4843E-02 -0.6426E-01  0.1325E+02  0.1325E+02
     19.851 -0.4077E-03 -0.1770E-01  0.1325E+02  0.1325E+02
     19.953 -0.4321E-04 -0.2273E-02  0.1325E+02  0.1325E+02
     20.054 -0.5070E-03 -0.1673E-03  0.1325E+02  0.1325E+02
     20.156 -0.5936E-02 -0.2678E-03  0.1325E+02  0.1325E+02
     20.258 -0.3688E-01 -0.3532E-02  0.1325E+02  0.1325E+02
     20.360 -0.1006E+00 -0.2574E-01  0.1324E+02  0.1325E+02
     20.462  0.2931E-01 -0.8863E-01  0.1324E+02  0.1324E+02
     20.564  0.8386E+00 -0.4675E-01  0.1332E+02  0.1323E+02
     20.665  0.2018E+01  0.5842E+00  0.1353E+02  0.1329E+02
     20.767  0.2174E+01  0.1798E+01  0.1375E+02  0.1348E+02
     20.869  0.1081E+01  0.2289E+01  0.1386E+02  0.1371E+02
     20.971  0.2822E+00  0.1362E+01  0.1389E+02  0.1385E+02
     21.073  0.7272E+00  0.3701E+00  0.1396E+02  0.1389E+02
     21.175  0.1453E+01  0.6012E+00  0.1411E+02  0.1395E+02
     21.276  0.1162E+01  0.1386E+01  0.1423E+02  0.1409E+02
     21.378  0.3278E+00  0.1272E+01  0.1426E+02  0.1422E+02
     21.480 -0.5726E-01  0.4400E+00  0.1426E+02  0.1426E+02
     21.582 -0.5633E-01 -0.3412E-01  0.1425E+02  0.1426E+02
     21.684 -0.1358E-01 -0.6445E-01  0.1425E+02  0.1425E+02
     21.786 -0.1579E-02 -0.1781E-01  0.1425E+02  0.1425E+02
     21.887 -0.9940E-04 -0.2293E-02  0.1425E+02  0.1425E+02
     21.989 -0.3530E-05 -0.1580E-03  0.1425E+02  0.1425E+02
     22.091 -0.7224E-07 -0.6119E-05  0.1425E+02  0.1425E+02
     22.193 -0.1326E-07 -0.1363E-06  0.1425E+02  0.1425E+02
     22.295 -0.7595E-06 -0.2507E-07  0.1425E+02  0.1425E+02
     22.397 -0.2690E-04 -0.1320E-05  0.1425E+02  0.1425E+02
     22.499 -0.5429E-03 -0.4313E-04  0.1425E+02  0.1425E+02
     22.600 -0.6057E-02 -0.8004E-03  0.1425E+02  0.1425E+02
     22.702 -0.3476E-01 -0.8158E-02  0.1425E+02  0.1425E+02
     22.804 -0.7818E-01 -0.4198E-01  0.1424E+02  0.1424E+02
     22.906  0.9729E-01 -0.7622E-01  0.1425E+02  0.1424E+02
     23.008  0.8136E+00  0.1666E+00  0.1433E+02  0.1425E+02
     23.110  0.1504E+01  0.9446E+00  0.1448E+02  0.1435E+02
     23.211  0.1180E+01  0.1528E+01  0.1460E+02  0.1451E+02
     23.313  0.3354E+00  0.1060E+01  0.1464E+02  0.1461E+02
     23.415 -0.5607E-01  0.2406E+00  0.1463E+02  0.1464E+02
     23.517 -0.5683E-01 -0.6980E-01  0.1463E+02  0.1463E+02
     23.619 -0.1381E-01 -0.4892E-01  0.1463E+02  0.1463E+02
     23.721 -0.1616E-02 -0.1054E-01  0.1463E+02  0.1463E+02
     23.822 -0.1022E-03 -0.1123E-02  0.1463E+02  0.1463E+02
     23.924 -0.3650E-05 -0.6525E-04  0.1463E+02  0.1463E+02
     24.026 -0.7495E-07 -0.2147E-05  0.1463E+02  0.1463E+02
     24.128 -0.8953E-09 -0.4074E-07  0.1463E+02  0.1463E+02
     24.230 -0.1992E-10 -0.4503E-09  0.1462E+02  0.1463E+02
     24.332 -0.1803E-08 -0.5122E-10  0.1462E+02  0.1462E+02
     24.433 -0.1392E-06 -0.5584E-08  0.1462E+02  0.1462E+02
     24.535 -0.6243E-05 -0.3770E-06  0.1462E+02  0.1462E+02
     24.637 -0.1607E-03 -0.1475E-04  0.1462E+02  0.1462E+02
     24.739 -0.2324E-02 -0.3299E-03  0.1462E+02  0.1462E+02
     24.841 -0.1799E-01 -0.4108E-02  0.1462E+02  0.1462E+02
     24.943 -0.6473E-01 -0.2683E-01  0.1462E+02  0.1462E+02
     25.044 -0.3292E-01 -0.7509E-01  0.1461E+02  0.1461E+02
     25.146  0.4464E+00  0.2976E-01  0.1466E+02  0.1462E+02
     25.248  0.1293E+01  0.6530E+00  0.1479E+02  0.1468E+02
     25.350  0.1451E+01  0.1438E+01  0.1494E+02  0.1483E+02
     25.452  0.6785E+00  0.1313E+01  0.1501E+02  0.1496E+02
     25.554  0.3370E-01  0.4690E+00  0.1501E+02  0.1501E+02
     25.656 -0.1098E+00 -0.3431E-01  0.1500E+02  0.1501E+02
     25.757 -0.1062E+00 -0.1049E+00  0.1499E+02  0.1500E+02
     25.859  0.8473E-01 -0.9658E-01  0.1500E+02  0.1499E+02
     25.961  0.7958E+00  0.1321E+00  0.1508E+02  0.1500E+02
     26.063  0.1498E+01  0.8871E+00  0.1523E+02  0.1509E+02
     26.165  0.1196E+01  0.1521E+01  0.1535E+02  0.1525E+02
     26.267  0.3487E+00  0.1114E+01  0.1539E+02  0.1536E+02
     26.368 -0.5702E-01  0.2780E+00  0.1538E+02  0.1539E+02
     26.470 -0.8129E-01 -0.8435E-01  0.1537E+02  0.1538E+02
     26.572 -0.8631E-01 -0.1197E+00  0.1537E+02  0.1537E+02
     26.674  0.2115E-02 -0.3432E-01  0.1537E+02  0.1536E+02
     26.776  0.5772E+00  0.4864E+00  0.1542E+02  0.1541E+02
     26.878  0.1393E+01  0.1328E+01  0.1557E+02  0.1555E+02
     26.979  0.1369E+01  0.1427E+01  0.1571E+02  0.1569E+02
     27.081  0.5410E+00  0.6333E+00  0.1576E+02  0.1576E+02
     27.183 -0.7616E-02  0.2260E-01  0.1576E+02  0.1576E+02
     27.285 -0.7268E-01 -0.7528E-01  0.1575E+02  0.1575E+02
     27.387 -0.3843E-01 -0.3399E-01  0.1575E+02  0.1575E+02
     27.489 -0.5202E-01 -0.3919E-01  0.1574E+02  0.1575E+02
     27.590  0.9479E-02 -0.4285E-01  0.1574E+02  0.1574E+02
     27.692  0.4066E+00  0.1913E+00  0.1579E+02  0.1576E+02
     27.794  0.9426E+00  0.7480E+00  0.1588E+02  0.1584E+02
     27.896  0.8968E+00  0.1013E+01  0.1597E+02  0.1594E+02
     27.998  0.3397E+00  0.5856E+00  0.1601E+02  0.1600E+02
     28.100 -0.1099E-01  0.8656E-01  0.1601E+02  0.1601E+02
     28.202 -0.4569E-01 -0.5187E-01  0.1600E+02  0.1600E+02
     28.303 -0.1369E-01 -0.2550E-01  0.1600E+02  0.1600E+02
     28.405 -0.1866E-02 -0.4686E-02  0.1600E+02  0.1600E+02
     28.507 -0.1353E-03 -0.4391E-03  0.1600E+02  0.1600E+02
     28.609 -0.5494E-05 -0.2267E-04  0.1600E+02  0.1600E+02
     28.711 -0.1279E-06 -0.6661E-06  0.1600E+02  0.1600E+02
     28.813 -0.1730E-08 -0.1131E-07  0.1600E+02  0.1600E+02
     28.914 -0.1367E-10 -0.1120E-09  0.1600E+02  0.1600E+02
     29.016 -0.6323E-13 -0.6497E-12  0.1600E+02  0.1600E+02
     29.118  0.0000E+00 -0.2180E-14  0.1600E+02  0.1600E+02
     29.220  0.0000E+00  0.0000E+00  0.1600E+02  0.1600E+02
     29.322  0.0000E+00  0.0000E+00  0.1600E+02  0.1600E+02
     29.424  0.0000E+00  0.0000E+00  0.1600E+02  0.1600E+02
     29.525  0.0000E+00  0.0000E+00  0.1600E+02  0.1600E+02
     29.627  0.0000E+00  0.0000E+00  0.1600E+02  0.1600E+02
     29.729  0.0000E+00  0.0000E+00  0.1600E+02  0.1600E+02
     29.831  0.0000E+00  0.0000E+00  0.1600E+02  0.1600E+02
