    2    2    1    2
  0.1090254E+02  0.2793739E-09  0.2793739E-09  0.2793739E-09  0.5000000E-15
  1.000000000000000E-004
  CAR 
 automatically generated by pyflamestk   
     20      4     16
 
  0.1250000E+00  0.1250000E+00  0.1250000E+00  0.1250000E+00
    1        1.298440      1.279225   1.000000   1.000000
    2        5.411526      5.711996   1.000000   1.000000
    3        5.411526      5.711996   1.000000   1.000000
    4        6.788387      7.363894   1.000000   1.000000
    5        6.788387      7.363894   1.000000   1.000000
    6        7.456629      8.061747   1.000000   1.000000
    7        7.939975      8.535477   1.000000   1.000003
    8        8.307214      8.764581   1.000000   1.001669
    9        8.307214      8.764581   1.000000   1.001669
   10        8.790715      9.439023   1.002857  -0.019911
   11        8.790715      9.439023   1.002857  -0.019911
   12       17.519199     17.611136   0.000000   0.000000
   13       17.519199     17.611136   0.000000   0.000000
   14       18.521784     18.623230   0.000000   0.000000
   15       27.788056     27.830933   0.000000   0.000000
   16       27.788056     27.830933   0.000000   0.000000
 
  0.3750000E+00  0.1250000E+00  0.1250000E+00  0.3750000E+00
    1        3.477446      3.493733   1.000000   1.000000
    2        5.536714      5.757684   1.000000   1.000000
    3        6.082199      6.433249   1.000000   1.000000
    4        6.638271      7.131449   1.000000   1.000000
    5        6.702314      7.252721   1.000000   1.000000
    6        7.058907      7.599931   1.000000   1.000000
    7        7.828082      8.313525   1.000000   1.000000
    8        7.905276      8.483645   1.000000   1.000000
    9        8.223707      8.834854   1.000000   1.006443
   10        8.685048      9.188670   1.000254   0.738720
   11        8.728691      9.313253   1.000747   0.239025
   12       11.494299     11.749894  -0.000000  -0.000000
   13       20.639803     20.765568   0.000000   0.000000
   14       21.144197     21.261714   0.000000   0.000000
   15       25.262338     25.338869   0.000000   0.000000
   16       26.035373     26.126950   0.000000   0.000000
 
  0.3750000E+00  0.3750000E+00  0.1250000E+00  0.3750000E+00
    1        4.580154      4.779642   1.000000   1.000000
    2        5.176704      5.515588   1.000000   1.000000
    3        6.132654      6.669743   1.000000   1.000000
    4        6.280416      6.807076   1.000000   1.000000
    5        7.069233      7.368932   1.000000   1.000000
    6        7.178182      7.499419   1.000000   1.000000
    7        8.126640      8.643534   1.000000   1.000083
    8        8.271858      8.778296   1.000000   1.002224
    9        8.492881      8.961599   1.000001   1.030572
   10        8.864237      9.461729   1.010321  -0.030907
   11        9.532879     10.077182  -0.030820  -0.000000
   12       12.085321     12.285148  -0.000000  -0.000000
   13       15.925314     16.191074   0.000000   0.000000
   14       19.156628     19.326395   0.000000   0.000000
   15       23.080081     23.167127   0.000000   0.000000
   16       26.875394     26.886447   0.000000   0.000000
 
  0.3750000E+00  0.3750000E+00  0.3750000E+00  0.1250000E+00
    1        5.692107      6.166101   1.000000   1.000000
    2        5.938325      6.201776   1.000000   1.000000
    3        6.015413      6.492848   1.000000   1.000000
    4        6.015413      6.492848   1.000000   1.000000
    5        6.337945      6.730583   1.000000   1.000000
    6        6.337945      6.730583   1.000000   1.000000
    7        8.478837      8.965167   1.000000   1.031269
    8        8.478837      8.965167   1.000000   1.031269
    9        8.486180      8.982920   1.000001   1.034118
   10        8.486180      8.982920   1.000001   1.034118
   11       12.008189     12.391529  -0.000000  -0.000000
   12       15.701852     15.898825   0.000000   0.000000
   13       15.701852     15.898825   0.000000   0.000000
   14       17.946913     18.123804   0.000000   0.000000
   15       20.739633     20.862077   0.000000   0.000000
   16       20.739633     20.862077   0.000000   0.000000
