<?xml version="1.0" encoding="ISO-8859-1"?>
<modeling>
 <generator>
  <i name="program" type="string">vasp </i>
  <i name="version" type="string">5.4.1  </i>
  <i name="subversion" type="string">24Jun15 (build Jun 05 2017 10:38:15) complex                          parallel </i>
  <i name="platform" type="string">IFC91_ompi </i>
  <i name="date" type="string">2017 08 15 </i>
  <i name="time" type="string">18:18:37 </i>
 </generator>
 <incar>
  <i type="string" name="SYSTEM"> automatically generated by pyflamestk</i>
  <i type="int" name="ISTART">     0</i>
  <i type="string" name="PREC">high                   ! avoid wrap aro</i>
  <i type="string" name="ALGO"> Normal                 ! blocked Davids</i>
  <i type="int" name="ISPIN">     2</i>
  <i type="int" name="ICHARG">     0</i>
  <i type="int" name="NELM">    40</i>
  <i name="EDIFF">      0.00000100</i>
  <i name="ENCUT">    600.00000000</i>
  <v name="MAGMOM">      1.00000000      1.00000000</v>
  <i type="logical" name="LREAL"> F  </i>
  <i type="int" name="ISMEAR">     1</i>
  <i name="SIGMA">      0.20000000</i>
  <i type="logical" name="LWAVE"> F  </i>
  <i type="logical" name="LCHARG"> F  </i>
  <i type="logical" name="LVTOT"> F  </i>
  <v type="int" name="KPOINT_BSE">    -1     0     0     0</v>
  <i type="int" name="NELM">    40</i>
 </incar>
 <kpoints>
  <generation param="Monkhorst-Pack">
   <v type="int" name="divisions">       4        4        4 </v>
   <v name="usershift">      0.00000000       0.00000000       0.00000000 </v>
   <v name="genvec1">      0.25000000       0.00000000       0.00000000 </v>
   <v name="genvec2">      0.00000000       0.25000000       0.00000000 </v>
   <v name="genvec3">      0.00000000       0.00000000       0.25000000 </v>
   <v name="shift">      0.50000000       0.50000000       0.50000000 </v>
  </generation>
  <varray name="kpointlist" >
   <v>       0.12500000       0.12500000       0.12500000 </v>
   <v>       0.37500000       0.12500000       0.12500000 </v>
   <v>       0.37500000       0.37500000       0.12500000 </v>
   <v>       0.37500000       0.37500000       0.37500000 </v>
  </varray>
  <varray name="weights" >
   <v>       0.12500000 </v>
   <v>       0.37500000 </v>
   <v>       0.37500000 </v>
   <v>       0.12500000 </v>
  </varray>
 </kpoints>
 <parameters>
  <separator name="general" >
   <i type="string" name="SYSTEM">automatically generated by pyflamestk</i>
   <i type="logical" name="LCOMPAT"> F  </i>
  </separator>
  <separator name="electronic" >
   <i type="string" name="PREC">high</i>
   <i name="ENMAX">    600.00000000</i>
   <i name="ENAUG">    544.56500000</i>
   <i name="EDIFF">      0.00000100</i>
   <i type="int" name="IALGO">    38</i>
   <i type="int" name="IWAVPR">    10</i>
   <i type="int" name="NBANDS">    16</i>
   <i name="NELECT">     20.00000000</i>
   <i type="int" name="TURBO">     0</i>
   <i type="int" name="IRESTART">     0</i>
   <i type="int" name="NREBOOT">     0</i>
   <i type="int" name="NMIN">     0</i>
   <i name="EREF">      0.00000000</i>
   <separator name="electronic smearing" >
    <i type="int" name="ISMEAR">     1</i>
    <i name="SIGMA">      0.20000000</i>
    <i name="KSPACING">      0.50000000</i>
    <i type="logical" name="KGAMMA"> T  </i>
   </separator>
   <separator name="electronic projectors" >
    <i type="logical" name="LREAL"> F  </i>
    <v name="ROPT">      0.00000000</v>
    <i type="int" name="LMAXPAW">  -100</i>
    <i type="int" name="LMAXMIX">     2</i>
    <i type="logical" name="NLSPLINE"> F  </i>
   </separator>
   <separator name="electronic startup" >
    <i type="int" name="ISTART">     0</i>
    <i type="int" name="ICHARG">     0</i>
    <i type="int" name="INIWAV">     1</i>
   </separator>
   <separator name="electronic spin" >
    <i type="int" name="ISPIN">     2</i>
    <i type="logical" name="LNONCOLLINEAR"> F  </i>
    <v name="MAGMOM">      1.00000000      1.00000000</v>
    <i name="NUPDOWN">     -1.00000000</i>
    <i type="logical" name="LSORBIT"> F  </i>
    <v name="SAXIS">      0.00000000      0.00000000      1.00000000</v>
    <i type="logical" name="LSPIRAL"> F  </i>
    <v name="QSPIRAL">      0.00000000      0.00000000      0.00000000</v>
    <i type="logical" name="LZEROZ"> F  </i>
   </separator>
   <separator name="electronic exchange-correlation" >
    <i type="logical" name="LASPH"> F  </i>
    <i type="logical" name="LMETAGGA"> F  </i>
   </separator>
   <separator name="electronic convergence" >
    <i type="int" name="NELM">    40</i>
    <i type="int" name="NELMDL">    -5</i>
    <i type="int" name="NELMIN">     2</i>
    <i name="ENINI">    600.00000000</i>
    <separator name="electronic convergence detail" >
     <i type="logical" name="LDIAG"> T  </i>
     <i type="logical" name="LSUBROT"> F  </i>
     <i name="WEIMIN">      0.00000000</i>
     <i name="EBREAK">      0.00000002</i>
     <i name="DEPER">      0.30000000</i>
     <i type="int" name="NRMM">     4</i>
     <i name="TIME">      0.40000000</i>
    </separator>
   </separator>
   <separator name="electronic mixer" >
    <i name="AMIX">      0.40000000</i>
    <i name="BMIX">      1.00000000</i>
    <i name="AMIN">      0.10000000</i>
    <i name="AMIX_MAG">      1.60000000</i>
    <i name="BMIX_MAG">      1.00000000</i>
    <separator name="electronic mixer details" >
     <i type="int" name="IMIX">     4</i>
     <i type="logical" name="MIXFIRST"> F  </i>
     <i type="int" name="MAXMIX">   -45</i>
     <i name="WC">    100.00000000</i>
     <i type="int" name="INIMIX">     1</i>
     <i type="int" name="MIXPRE">     1</i>
     <i type="int" name="MREMOVE">     5</i>
    </separator>
   </separator>
   <separator name="electronic dipolcorrection" >
    <i type="logical" name="LDIPOL"> F  </i>
    <i type="logical" name="LMONO"> F  </i>
    <i type="int" name="IDIPOL">     0</i>
    <i name="EPSILON">      1.00000000</i>
    <v name="DIPOL">   -100.00000000   -100.00000000   -100.00000000</v>
    <i name="EFIELD">      0.00000000</i>
   </separator>
  </separator>
  <separator name="grids" >
   <i type="int" name="NGX">    24</i>
   <i type="int" name="NGY">    24</i>
   <i type="int" name="NGZ">    24</i>
   <i type="int" name="NGXF">    28</i>
   <i type="int" name="NGYF">    28</i>
   <i type="int" name="NGZF">    28</i>
   <i type="logical" name="ADDGRID"> F  </i>
  </separator>
  <separator name="ionic" >
   <i type="int" name="NSW">     0</i>
   <i type="int" name="IBRION">    -1</i>
   <i type="int" name="ISIF">     2</i>
   <i name="PSTRESS">      0.00000000</i>
   <i name="EDIFFG">      0.00001000</i>
   <i type="int" name="NFREE">     0</i>
   <i name="POTIM">      0.50000000</i>
   <i name="SMASS">     -3.00000000</i>
   <i name="SCALEE">      1.00000000</i>
  </separator>
  <separator name="ionic md" >
   <i name="TEBEG">      0.00010000</i>
   <i name="TEEND">      0.00010000</i>
   <i type="int" name="NBLOCK">     1</i>
   <i type="int" name="KBLOCK">     1</i>
   <i type="int" name="NPACO">   256</i>
   <i name="APACO">     16.00000000</i>
  </separator>
  <separator name="symmetry" >
   <i type="int" name="ISYM">     2</i>
   <i name="SYMPREC">      0.00001000</i>
  </separator>
  <separator name="dos" >
   <i type="logical" name="LORBIT"> F  </i>
   <v name="RWIGS">     -1.00000000</v>
   <i type="int" name="NEDOS">   301</i>
   <i name="EMIN">     10.00000000</i>
   <i name="EMAX">    -10.00000000</i>
   <i name="EFERMI">      0.00000000</i>
  </separator>
  <separator name="writing" >
   <i type="int" name="NWRITE">     2</i>
   <i type="logical" name="LWAVE"> F  </i>
   <i type="logical" name="LCHARG"> F  </i>
   <i type="logical" name="LPARD"> F  </i>
   <i type="logical" name="LVTOT"> F  </i>
   <i type="logical" name="LVHAR"> F  </i>
   <i type="logical" name="LELF"> F  </i>
   <i type="logical" name="LOPTICS"> F  </i>
   <v name="STM">      0.00000000      0.00000000      0.00000000      0.00000000      0.00000000      0.00000000      0.00000000</v>
  </separator>
  <separator name="performance" >
   <i type="int" name="NPAR">    16</i>
   <i type="int" name="NSIM">     4</i>
   <i type="int" name="NBLK">    -1</i>
   <i type="logical" name="LPLANE"> T  </i>
   <i type="logical" name="LSCALAPACK"> T  </i>
   <i type="logical" name="LSCAAWARE"> F  </i>
   <i type="logical" name="LSCALU"> F  </i>
   <i type="logical" name="LASYNC"> F  </i>
   <i type="logical" name="LORBITALREAL"> F  </i>
  </separator>
  <separator name="miscellaneous" >
   <i type="int" name="IDIOT">     3</i>
   <i type="logical" name="LMUSIC"> F  </i>
   <v name="POMASS">     58.69000000</v>
   <v name="DARWINR">      0.00000000</v>
   <v name="DARWINV">      1.00000000</v>
   <i type="logical" name="LCORR"> T  </i>
  </separator>
  <i type="logical" name="GGA_COMPAT"> T  </i>
  <i type="logical" name="LBERRY"> F  </i>
  <i type="int" name="ICORELEVEL">     0</i>
  <i type="logical" name="LDAU"> F  </i>
  <i type="int" name="I_CONSTRAINED_M">     0</i>
  <separator name="electronic exchange-correlation" >
   <i type="string" name="GGA">--</i>
   <i type="int" name="VOSKOWN">     0</i>
   <i type="logical" name="LHFCALC"> F  </i>
   <i type="string" name="PRECFOCK"></i>
   <i type="logical" name="LSYMGRAD"> F  </i>
   <i type="logical" name="LHFONE"> F  </i>
   <i type="logical" name="LRHFCALC"> F  </i>
   <i type="logical" name="LTHOMAS"> F  </i>
   <i type="logical" name="LMODELHF"> F  </i>
   <i name="ENCUT4O">     -1.00000000</i>
   <i type="int" name="EXXOEP">     0</i>
   <i type="int" name="FOURORBIT">     0</i>
   <i name="AEXX">      0.00000000</i>
   <i name="HFALPHA">      0.00000000</i>
   <i name="MCALPHA">      0.00000000</i>
   <i name="ALDAX">      1.00000000</i>
   <i name="AGGAX">      1.00000000</i>
   <i name="ALDAC">      1.00000000</i>
   <i name="AGGAC">      1.00000000</i>
   <i type="int" name="NKREDX">     1</i>
   <i type="int" name="NKREDY">     1</i>
   <i type="int" name="NKREDZ">     1</i>
   <i type="logical" name="SHIFTRED"> F  </i>
   <i type="logical" name="ODDONLY"> F  </i>
   <i type="logical" name="EVENONLY"> F  </i>
   <i type="int" name="LMAXFOCK">     0</i>
   <i type="int" name="NMAXFOCKAE">     0</i>
   <i type="logical" name="LFOCKAEDFT"> F  </i>
   <i name="HFSCREEN">      0.00000000</i>
   <i name="HFSCREENC">      0.00000000</i>
   <i type="int" name="NBANDSGWLOW">     0</i>
  </separator>
  <separator name="vdW DFT" >
   <i type="logical" name="LUSE_VDW"> F  </i>
   <i name="Zab_VDW">     -0.84910000</i>
   <i name="PARAM1">      0.12340000</i>
   <i name="PARAM2">      1.00000000</i>
   <i name="PARAM3">      0.00000000</i>
  </separator>
  <separator name="model GW" >
   <i type="int" name="MODEL_GW">     0</i>
   <i name="MODEL_EPS0">      6.54152109</i>
   <i name="MODEL_ALPHA">      1.00000000</i>
  </separator>
  <separator name="linear response parameters" >
   <i type="logical" name="LEPSILON"> F  </i>
   <i type="logical" name="LRPA"> F  </i>
   <i type="logical" name="LNABLA"> F  </i>
   <i type="logical" name="LVEL"> F  </i>
   <i type="int" name="KINTER">     0</i>
   <i name="CSHIFT">      0.10000000</i>
   <i name="OMEGAMAX">     -1.00000000</i>
   <i name="DEG_THRESHOLD">      0.00200000</i>
  </separator>
  <separator name="orbital magnetization" >
   <i type="logical" name="NUCIND"> F  </i>
   <v name="MAGPOS">      0.00000000      0.00000000      0.00000000</v>
   <i type="logical" name="LNICSALL"> T  </i>
   <i type="logical" name="ORBITALMAG"> F  </i>
   <i type="logical" name="LMAGBLOCH"> F  </i>
   <i type="logical" name="LCHIMAG"> F  </i>
   <i type="logical" name="LGAUGE"> T  </i>
   <i type="int" name="MAGATOM">     0</i>
   <v name="MAGDIPOL">      0.00000000      0.00000000      0.00000000</v>
   <v name="AVECCONST">      0.00000000      0.00000000      0.00000000</v>
  </separator>
  <separator name="response functions" >
   <i type="logical" name="LADDER"> F  </i>
   <i type="logical" name="LFXC"> F  </i>
   <i type="logical" name="LHARTREE"> T  </i>
   <i type="int" name="IBSE">     0</i>
   <v type="int" name="KPOINT">    -1     0     0     0</v>
   <i type="logical" name="LTCTE"> F  </i>
   <i type="logical" name="LTETE"> F  </i>
   <i type="logical" name="LTRIPLET"> F  </i>
   <i type="logical" name="LFXCEPS"> F  </i>
   <i type="logical" name="LFXHEG"> F  </i>
   <i type="int" name="NATURALO">     0</i>
   <i type="logical" name="L2ORDER"> F  </i>
   <i type="logical" name="LUSEW"> F  </i>
   <i name="ENCUTGW">     -2.00000000</i>
   <i name="ENCUTGWSOFT">     -2.00000000</i>
   <i name="ENCUTLF">     -1.00000000</i>
   <i type="int" name="LMAXMP2">    -1</i>
   <i name="SCISSOR">      0.00000000</i>
   <i type="int" name="NOMEGA">     0</i>
   <i type="int" name="NOMEGAR">     0</i>
   <i type="int" name="NBANDSGW">    -1</i>
   <i type="int" name="NBANDSO">    -1</i>
   <i type="int" name="NBANDSV">    -1</i>
   <i type="int" name="NELM">    40</i>
   <i type="int" name="NELMHF">     1</i>
   <i type="int" name="DIM">     3</i>
   <i type="int" name="ANTIRES">     0</i>
   <i name="OMEGAMAX">    -30.00000000</i>
   <i name="OMEGAMIN">    -30.00000000</i>
   <i name="OMEGATL">   -200.00000000</i>
   <i type="int" name="OMEGAGRID">     0</i>
   <i name="CSHIFT">     -0.10000000</i>
   <i type="logical" name="SELFENERGY"> F  </i>
   <i type="logical" name="LSPECTRAL"> F  </i>
   <i type="logical" name="LSPECTRALGW"> F  </i>
   <i type="logical" name="LSINGLES"> F  </i>
   <i type="logical" name="LFERMIGW"> F  </i>
   <i type="logical" name="ODDONLYGW"> F  </i>
   <i type="logical" name="EVENONLYGW"> F  </i>
   <i type="int" name="NKREDLFX">     1</i>
   <i type="int" name="NKREDLFY">     1</i>
   <i type="int" name="NKREDLFZ">     1</i>
   <i type="int" name="MAXMEM">  1800</i>
   <i type="int" name="TELESCOPE">     0</i>
   <i type="int" name="TAUPAR">     1</i>
   <i type="int" name="OMEGAPAR">    -1</i>
   <i name="LAMBDA">      1.00000000</i>
  </separator>
  <separator name="External order field" >
   <i name="OFIELD_KAPPA">      0.00000000</i>
   <v name="OFIELD_K">      0.00000000      0.00000000      0.00000000</v>
   <i name="OFIELD_Q6_NEAR">      0.00000000</i>
   <i name="OFIELD_Q6_FAR">      0.00000000</i>
   <i name="OFIELD_A">      0.00000000</i>
  </separator>
 </parameters>
 <atominfo>
  <atoms>       2 </atoms>
  <types>       1 </types>
  <array name="atoms" >
   <dimension dim="1">ion</dimension>
   <field type="string">element</field>
   <field type="int">atomtype</field>
   <set>
    <rc><c>Ni</c><c>   1</c></rc>
    <rc><c>Ni</c><c>   1</c></rc>
   </set>
  </array>
  <array name="atomtypes" >
   <dimension dim="1">type</dimension>
   <field type="int">atomspertype</field>
   <field type="string">element</field>
   <field>mass</field>
   <field>valence</field>
   <field type="string">pseudopotential</field>
   <set>
    <rc><c>   2</c><c>Ni</c><c>     58.69000000</c><c>     10.00000000</c><c>  PAW_PBE Ni 02Aug2007                  </c></rc>
   </set>
  </array>
 </atominfo>
 <structure name="initialpos" >
  <crystal>
   <varray name="basis" >
    <v>       2.79373900       0.00000000       0.00000000 </v>
    <v>       0.00000000       2.79373900       0.00000000 </v>
    <v>       0.00000000       0.00000000       2.79373900 </v>
   </varray>
   <i name="volume">     21.80507032 </i>
   <varray name="rec_basis" >
    <v>       0.35794324       0.00000000       0.00000000 </v>
    <v>       0.00000000       0.35794324       0.00000000 </v>
    <v>       0.00000000       0.00000000       0.35794324 </v>
   </varray>
  </crystal>
  <varray name="positions" >
   <v>       0.00000000       0.00000000       0.00000000 </v>
   <v>       0.50000000       0.50000000       0.50000000 </v>
  </varray>
 </structure>
 <calculation>
  <scstep>
   <time name="dav">    0.03    0.03</time>
   <time name="total">    0.04    0.05</time>
   <energy>
    <i name="alphaZ">     93.55617618 </i>
    <i name="ewald">  -1875.77248328 </i>
    <i name="hartreedc">    -81.30701948 </i>
    <i name="XCdc">     46.19106629 </i>
    <i name="pawpsdc">  92510.86246375 </i>
    <i name="pawaedc"> -92536.31807075 </i>
    <i name="eentropy">      0.00336739 </i>
    <i name="bandstr">   -724.73090004 </i>
    <i name="atom">   2155.34300719 </i>
    <i name="e_fr_energy">   -412.17239275 </i>
    <i name="e_wo_entrp">   -412.17576013 </i>
    <i name="e_0_energy">   -412.17351521 </i>
   </energy>
  </scstep>
  <scstep>
   <time name="dav">    0.07    0.07</time>
   <time name="total">    0.07    0.07</time>
   <energy>
    <i name="e_fr_energy">   -426.61539737 </i>
    <i name="e_wo_entrp">   -426.74573066 </i>
    <i name="e_0_energy">   -426.65884180 </i>
   </energy>
  </scstep>
  <scstep>
   <time name="dav">    0.03    0.03</time>
   <time name="total">    0.03    0.03</time>
   <energy>
    <i name="e_fr_energy">   -426.63856768 </i>
    <i name="e_wo_entrp">   -426.76892863 </i>
    <i name="e_0_energy">   -426.68202133 </i>
   </energy>
  </scstep>
  <scstep>
   <time name="dav">    0.05    0.05</time>
   <time name="total">    0.05    0.05</time>
   <energy>
    <i name="e_fr_energy">   -426.63874696 </i>
    <i name="e_wo_entrp">   -426.76910837 </i>
    <i name="e_0_energy">   -426.68220076 </i>
   </energy>
  </scstep>
  <scstep>
   <time name="dav">    0.03    0.04</time>
   <time name="total">    0.04    0.05</time>
   <energy>
    <i name="e_fr_energy">   -426.63874988 </i>
    <i name="e_wo_entrp">   -426.76911130 </i>
    <i name="e_0_energy">   -426.68220368 </i>
   </energy>
  </scstep>
  <scstep>
   <time name="dav">    0.05    0.05</time>
   <time name="total">    0.06    0.07</time>
   <energy>
    <i name="e_fr_energy">    -45.02132689 </i>
    <i name="e_wo_entrp">    -45.03555147 </i>
    <i name="e_0_energy">    -45.02606842 </i>
   </energy>
  </scstep>
  <scstep>
   <time name="dav">    0.03    0.03</time>
   <time name="total">    0.05    0.05</time>
   <energy>
    <i name="e_fr_energy">   -109.17788875 </i>
    <i name="e_wo_entrp">   -109.16746495 </i>
    <i name="e_0_energy">   -109.17441415 </i>
   </energy>
  </scstep>
  <scstep>
   <time name="dav">    0.03    0.03</time>
   <time name="total">    0.04    0.05</time>
   <energy>
    <i name="e_fr_energy">    -10.98082474 </i>
    <i name="e_wo_entrp">    -10.96751455 </i>
    <i name="e_0_energy">    -10.97638801 </i>
   </energy>
  </scstep>
  <scstep>
   <time name="dav">    0.04    0.04</time>
   <time name="total">    0.06    0.06</time>
   <energy>
    <i name="e_fr_energy">    -21.29405746 </i>
    <i name="e_wo_entrp">    -21.28264178 </i>
    <i name="e_0_energy">    -21.29025224 </i>
   </energy>
  </scstep>
  <scstep>
   <time name="dav">    0.03    0.03</time>
   <time name="total">    0.04    0.05</time>
   <energy>
    <i name="e_fr_energy">    -10.93587988 </i>
    <i name="e_wo_entrp">    -10.94480408 </i>
    <i name="e_0_energy">    -10.93885461 </i>
   </energy>
  </scstep>
  <scstep>
   <time name="dav">    0.03    0.03</time>
   <time name="total">    0.04    0.05</time>
   <energy>
    <i name="e_fr_energy">    -10.98883829 </i>
    <i name="e_wo_entrp">    -10.99161551 </i>
    <i name="e_0_energy">    -10.98976403 </i>
   </energy>
  </scstep>
  <scstep>
   <time name="dav">    0.04    0.04</time>
   <time name="total">    0.06    0.06</time>
   <energy>
    <i name="e_fr_energy">    -10.95313919 </i>
    <i name="e_wo_entrp">    -10.95660673 </i>
    <i name="e_0_energy">    -10.95429504 </i>
   </energy>
  </scstep>
  <scstep>
   <time name="dav">    0.03    0.03</time>
   <time name="total">    0.04    0.05</time>
   <energy>
    <i name="e_fr_energy">    -10.81907116 </i>
    <i name="e_wo_entrp">    -10.82780732 </i>
    <i name="e_0_energy">    -10.82198321 </i>
   </energy>
  </scstep>
  <scstep>
   <time name="dav">    0.04    0.04</time>
   <time name="total">    0.06    0.06</time>
   <energy>
    <i name="e_fr_energy">    -10.81412899 </i>
    <i name="e_wo_entrp">    -10.82338899 </i>
    <i name="e_0_energy">    -10.81721565 </i>
   </energy>
  </scstep>
  <scstep>
   <time name="dav">    0.03    0.03</time>
   <time name="total">    0.05    0.05</time>
   <energy>
    <i name="e_fr_energy">    -10.81337294 </i>
    <i name="e_wo_entrp">    -10.82267066 </i>
    <i name="e_0_energy">    -10.81647218 </i>
   </energy>
  </scstep>
  <scstep>
   <time name="dav">    0.03    0.03</time>
   <time name="total">    0.04    0.05</time>
   <energy>
    <i name="e_fr_energy">    -10.81271355 </i>
    <i name="e_wo_entrp">    -10.82223357 </i>
    <i name="e_0_energy">    -10.81588689 </i>
   </energy>
  </scstep>
  <scstep>
   <time name="dav">    0.03    0.03</time>
   <time name="total">    0.05    0.05</time>
   <energy>
    <i name="e_fr_energy">    -10.81257812 </i>
    <i name="e_wo_entrp">    -10.82223548 </i>
    <i name="e_0_energy">    -10.81579724 </i>
   </energy>
  </scstep>
  <scstep>
   <time name="dav">    0.03    0.03</time>
   <time name="total">    0.05    0.05</time>
   <energy>
    <i name="e_fr_energy">    -10.81256515 </i>
    <i name="e_wo_entrp">    -10.82222706 </i>
    <i name="e_0_energy">    -10.81578579 </i>
   </energy>
  </scstep>
  <scstep>
   <time name="dav">    0.02    0.02</time>
   <time name="total">    0.03    0.03</time>
   <energy>
    <i name="alphaZ">     93.55617618 </i>
    <i name="ewald">  -1875.77248328 </i>
    <i name="hartreedc">   -450.23605704 </i>
    <i name="XCdc">     61.42035389 </i>
    <i name="pawpsdc">   2132.66760818 </i>
    <i name="pawaedc">  -2269.73001844 </i>
    <i name="eentropy">      0.00966883 </i>
    <i name="bandstr">    141.92917947 </i>
    <i name="atom">   2155.34300719 </i>
    <i name="e_fr_energy">    -10.81256503 </i>
    <i name="e_wo_entrp">    -10.82223386 </i>
    <i name="e_0_energy">    -10.81578797 </i>
   </energy>
  </scstep>
  <structure>
   <crystal>
    <varray name="basis" >
     <v>       2.79373900       0.00000000       0.00000000 </v>
     <v>       0.00000000       2.79373900       0.00000000 </v>
     <v>       0.00000000       0.00000000       2.79373900 </v>
    </varray>
    <i name="volume">     21.80507032 </i>
    <varray name="rec_basis" >
     <v>       0.35794324       0.00000000       0.00000000 </v>
     <v>       0.00000000       0.35794324       0.00000000 </v>
     <v>       0.00000000       0.00000000       0.35794324 </v>
    </varray>
   </crystal>
   <varray name="positions" >
    <v>       0.00000000       0.00000000       0.00000000 </v>
    <v>       0.50000000       0.50000000       0.50000000 </v>
   </varray>
  </structure>
  <varray name="forces" >
   <v>      -0.00000000       0.00000000      -0.00000000 </v>
   <v>       0.00000000      -0.00000000       0.00000000 </v>
  </varray>
  <varray name="stress" >
   <v>       2.18749480       0.00000000      -0.00000000 </v>
   <v>       0.00000000       2.18749480       0.00000000 </v>
   <v>       0.00000000       0.00000000       2.18749480 </v>
  </varray>
  <energy>
   <i name="e_fr_energy">    -10.81256503 </i>
   <i name="e_wo_entrp">    -10.81578797 </i>
   <i name="e_0_energy">      0.00966883 </i>
  </energy>
  <time name="totalsc">    0.97    1.03</time>
  <eigenvalues>
   <array>
    <dimension dim="1">band</dimension>
    <dimension dim="2">kpoint</dimension>
    <dimension dim="3">spin</dimension>
    <field>eigene</field>
    <field>occ</field>
    <set>
     <set comment="spin 1">
      <set comment="kpoint 1">
       <r>    1.2984    1.0000 </r>
       <r>    5.4115    1.0000 </r>
       <r>    5.4115    1.0000 </r>
       <r>    6.7884    1.0000 </r>
       <r>    6.7884    1.0000 </r>
       <r>    7.4566    1.0000 </r>
       <r>    7.9400    1.0000 </r>
       <r>    8.3072    1.0000 </r>
       <r>    8.3072    1.0000 </r>
       <r>    8.7907    1.0029 </r>
       <r>    8.7907    1.0029 </r>
       <r>   17.5192    0.0000 </r>
       <r>   17.5192    0.0000 </r>
       <r>   18.5218    0.0000 </r>
       <r>   27.7881    0.0000 </r>
       <r>   27.7881    0.0000 </r>
      </set>
      <set comment="kpoint 2">
       <r>    3.4774    1.0000 </r>
       <r>    5.5367    1.0000 </r>
       <r>    6.0822    1.0000 </r>
       <r>    6.6383    1.0000 </r>
       <r>    6.7023    1.0000 </r>
       <r>    7.0589    1.0000 </r>
       <r>    7.8281    1.0000 </r>
       <r>    7.9053    1.0000 </r>
       <r>    8.2237    1.0000 </r>
       <r>    8.6850    1.0003 </r>
       <r>    8.7287    1.0007 </r>
       <r>   11.4943   -0.0000 </r>
       <r>   20.6398    0.0000 </r>
       <r>   21.1442    0.0000 </r>
       <r>   25.2623    0.0000 </r>
       <r>   26.0354    0.0000 </r>
      </set>
      <set comment="kpoint 3">
       <r>    4.5802    1.0000 </r>
       <r>    5.1767    1.0000 </r>
       <r>    6.1327    1.0000 </r>
       <r>    6.2804    1.0000 </r>
       <r>    7.0692    1.0000 </r>
       <r>    7.1782    1.0000 </r>
       <r>    8.1266    1.0000 </r>
       <r>    8.2719    1.0000 </r>
       <r>    8.4929    1.0000 </r>
       <r>    8.8642    1.0103 </r>
       <r>    9.5329   -0.0308 </r>
       <r>   12.0853   -0.0000 </r>
       <r>   15.9253    0.0000 </r>
       <r>   19.1566    0.0000 </r>
       <r>   23.0801    0.0000 </r>
       <r>   26.8754    0.0000 </r>
      </set>
      <set comment="kpoint 4">
       <r>    5.6921    1.0000 </r>
       <r>    5.9383    1.0000 </r>
       <r>    6.0154    1.0000 </r>
       <r>    6.0154    1.0000 </r>
       <r>    6.3379    1.0000 </r>
       <r>    6.3379    1.0000 </r>
       <r>    8.4788    1.0000 </r>
       <r>    8.4788    1.0000 </r>
       <r>    8.4862    1.0000 </r>
       <r>    8.4862    1.0000 </r>
       <r>   12.0082   -0.0000 </r>
       <r>   15.7019    0.0000 </r>
       <r>   15.7019    0.0000 </r>
       <r>   17.9469    0.0000 </r>
       <r>   20.7396    0.0000 </r>
       <r>   20.7396    0.0000 </r>
      </set>
     </set>
     <set comment="spin 2">
      <set comment="kpoint 1">
       <r>    1.2792    1.0000 </r>
       <r>    5.7120    1.0000 </r>
       <r>    5.7120    1.0000 </r>
       <r>    7.3639    1.0000 </r>
       <r>    7.3639    1.0000 </r>
       <r>    8.0617    1.0000 </r>
       <r>    8.5355    1.0000 </r>
       <r>    8.7646    1.0017 </r>
       <r>    8.7646    1.0017 </r>
       <r>    9.4390   -0.0199 </r>
       <r>    9.4390   -0.0199 </r>
       <r>   17.6111    0.0000 </r>
       <r>   17.6111    0.0000 </r>
       <r>   18.6232    0.0000 </r>
       <r>   27.8309    0.0000 </r>
       <r>   27.8309    0.0000 </r>
      </set>
      <set comment="kpoint 2">
       <r>    3.4937    1.0000 </r>
       <r>    5.7577    1.0000 </r>
       <r>    6.4332    1.0000 </r>
       <r>    7.1314    1.0000 </r>
       <r>    7.2527    1.0000 </r>
       <r>    7.5999    1.0000 </r>
       <r>    8.3135    1.0000 </r>
       <r>    8.4836    1.0000 </r>
       <r>    8.8349    1.0064 </r>
       <r>    9.1887    0.7387 </r>
       <r>    9.3133    0.2390 </r>
       <r>   11.7499   -0.0000 </r>
       <r>   20.7656    0.0000 </r>
       <r>   21.2617    0.0000 </r>
       <r>   25.3389    0.0000 </r>
       <r>   26.1269    0.0000 </r>
      </set>
      <set comment="kpoint 3">
       <r>    4.7796    1.0000 </r>
       <r>    5.5156    1.0000 </r>
       <r>    6.6697    1.0000 </r>
       <r>    6.8071    1.0000 </r>
       <r>    7.3689    1.0000 </r>
       <r>    7.4994    1.0000 </r>
       <r>    8.6435    1.0001 </r>
       <r>    8.7783    1.0022 </r>
       <r>    8.9616    1.0306 </r>
       <r>    9.4617   -0.0309 </r>
       <r>   10.0772   -0.0000 </r>
       <r>   12.2851   -0.0000 </r>
       <r>   16.1911    0.0000 </r>
       <r>   19.3264    0.0000 </r>
       <r>   23.1671    0.0000 </r>
       <r>   26.8864    0.0000 </r>
      </set>
      <set comment="kpoint 4">
       <r>    6.1661    1.0000 </r>
       <r>    6.2018    1.0000 </r>
       <r>    6.4928    1.0000 </r>
       <r>    6.4928    1.0000 </r>
       <r>    6.7306    1.0000 </r>
       <r>    6.7306    1.0000 </r>
       <r>    8.9652    1.0313 </r>
       <r>    8.9652    1.0313 </r>
       <r>    8.9829    1.0341 </r>
       <r>    8.9829    1.0341 </r>
       <r>   12.3915   -0.0000 </r>
       <r>   15.8988    0.0000 </r>
       <r>   15.8988    0.0000 </r>
       <r>   18.1238    0.0000 </r>
       <r>   20.8621    0.0000 </r>
       <r>   20.8621    0.0000 </r>
      </set>
     </set>
    </set>
   </array>
  </eigenvalues>
  <separator name="orbital magnetization" >
   <v name="MAGDIPOLOUT">      0.00000000      0.00000000      0.00000000</v>
  </separator>
  <dos>
   <i name="efermi">      9.24786330 </i>
   <total>
    <array>
     <dimension dim="1">gridpoints</dimension>
     <dimension dim="2">spin</dimension>
     <field>energy</field>
     <field>total</field>
     <field>integrated</field>
     <set>
      <set comment="spin 1">
       <r>    -0.7208     0.0000     0.0000 </r>
       <r>    -0.6189     0.0000     0.0000 </r>
       <r>    -0.5171     0.0000     0.0000 </r>
       <r>    -0.4153     0.0000     0.0000 </r>
       <r>    -0.3134    -0.0000    -0.0000 </r>
       <r>    -0.2116    -0.0000    -0.0000 </r>
       <r>    -0.1097    -0.0000    -0.0000 </r>
       <r>    -0.0079    -0.0000    -0.0000 </r>
       <r>     0.0939    -0.0000    -0.0000 </r>
       <r>     0.1958    -0.0000    -0.0000 </r>
       <r>     0.2976    -0.0000    -0.0000 </r>
       <r>     0.3995    -0.0000    -0.0000 </r>
       <r>     0.5013    -0.0000    -0.0000 </r>
       <r>     0.6031    -0.0000    -0.0000 </r>
       <r>     0.7050    -0.0001    -0.0000 </r>
       <r>     0.8068    -0.0016    -0.0002 </r>
       <r>     0.9086    -0.0098    -0.0012 </r>
       <r>     1.0105    -0.0256    -0.0038 </r>
       <r>     1.1123     0.0171    -0.0020 </r>
       <r>     1.2142     0.2362     0.0220 </r>
       <r>     1.3160     0.4884     0.0718 </r>
       <r>     1.4178     0.4230     0.1148 </r>
       <r>     1.5197     0.1402     0.1291 </r>
       <r>     1.6215    -0.0130     0.1278 </r>
       <r>     1.7234    -0.0210     0.1257 </r>
       <r>     1.8252    -0.0057     0.1251 </r>
       <r>     1.9270    -0.0007     0.1250 </r>
       <r>     2.0289    -0.0000     0.1250 </r>
       <r>     2.1307    -0.0000     0.1250 </r>
       <r>     2.2326    -0.0000     0.1250 </r>
       <r>     2.3344    -0.0000     0.1250 </r>
       <r>     2.4362    -0.0000     0.1250 </r>
       <r>     2.5381    -0.0000     0.1250 </r>
       <r>     2.6399    -0.0000     0.1250 </r>
       <r>     2.7418    -0.0000     0.1250 </r>
       <r>     2.8436    -0.0001     0.1250 </r>
       <r>     2.9454    -0.0019     0.1248 </r>
       <r>     3.0473    -0.0155     0.1232 </r>
       <r>     3.1491    -0.0603     0.1171 </r>
       <r>     3.2509    -0.0472     0.1123 </r>
       <r>     3.3528     0.3822     0.1512 </r>
       <r>     3.4546     1.2311     0.2765 </r>
       <r>     3.5565     1.4841     0.4277 </r>
       <r>     3.6583     0.7547     0.5045 </r>
       <r>     3.7601     0.0705     0.5117 </r>
       <r>     3.8620    -0.0777     0.5038 </r>
       <r>     3.9638    -0.0319     0.5006 </r>
       <r>     4.0657    -0.0081     0.4997 </r>
       <r>     4.1675    -0.0213     0.4976 </r>
       <r>     4.2693    -0.0689     0.4906 </r>
       <r>     4.3712    -0.0147     0.4891 </r>
       <r>     4.4730     0.5159     0.5416 </r>
       <r>     4.5749     1.3498     0.6791 </r>
       <r>     4.6767     1.4059     0.8222 </r>
       <r>     4.7785     0.5771     0.8810 </r>
       <r>     4.8804    -0.0635     0.8745 </r>
       <r>     4.9822    -0.0611     0.8683 </r>
       <r>     5.0840     0.5607     0.9254 </r>
       <r>     5.1859     1.3453     1.0624 </r>
       <r>     5.2877     1.5060     1.2158 </r>
       <r>     5.3896     1.5198     1.3705 </r>
       <r>     5.4914     2.0112     1.5754 </r>
       <r>     5.5932     2.1192     1.7912 </r>
       <r>     5.6951     1.3350     1.9271 </r>
       <r>     5.7969     0.4992     1.9780 </r>
       <r>     5.8988     0.7039     2.0497 </r>
       <r>     6.0006     2.2649     2.2803 </r>
       <r>     6.1024     3.9289     2.6804 </r>
       <r>     6.2043     4.2257     3.1108 </r>
       <r>     6.3061     3.4007     3.4571 </r>
       <r>     6.4080     2.0586     3.6667 </r>
       <r>     6.5098     1.0873     3.7775 </r>
       <r>     6.6116     1.8574     3.9666 </r>
       <r>     6.7135     3.2369     4.2963 </r>
       <r>     6.8153     2.8778     4.5893 </r>
       <r>     6.9172     1.7456     4.7671 </r>
       <r>     7.0190     2.3975     5.0113 </r>
       <r>     7.1208     3.8478     5.4031 </r>
       <r>     7.2227     3.3489     5.7442 </r>
       <r>     7.3245     1.4942     5.8963 </r>
       <r>     7.4263     0.4462     5.9418 </r>
       <r>     7.5282     0.2312     5.9653 </r>
       <r>     7.6300     0.1153     5.9771 </r>
       <r>     7.7319     0.6897     6.0473 </r>
       <r>     7.8337     2.2560     6.2771 </r>
       <r>     7.9355     3.1674     6.5996 </r>
       <r>     8.0374     2.7343     6.8781 </r>
       <r>     8.1392     2.9554     7.1790 </r>
       <r>     8.2411     4.2181     7.6086 </r>
       <r>     8.3429     4.6447     8.0816 </r>
       <r>     8.4447     4.2647     8.5159 </r>
       <r>     8.5466     3.9925     8.9225 </r>
       <r>     8.6484     3.9731     9.3271 </r>
       <r>     8.7503     4.4649     9.7818 </r>
       <r>     8.8521     4.2452    10.2142 </r>
       <r>     8.9539     2.4725    10.4660 </r>
       <r>     9.0558     0.6118    10.5283 </r>
       <r>     9.1576    -0.1555    10.5124 </r>
       <r>     9.2594    -0.2032    10.4917 </r>
       <r>     9.3613     0.0737    10.4992 </r>
       <r>     9.4631     0.8319    10.5840 </r>
       <r>     9.5650     1.5095    10.7377 </r>
       <r>     9.6668     1.1598    10.8558 </r>
       <r>     9.7686     0.3177    10.8882 </r>
       <r>     9.8705    -0.0591    10.8822 </r>
       <r>     9.9723    -0.0554    10.8765 </r>
       <r>    10.0742    -0.0132    10.8752 </r>
       <r>    10.1760    -0.0015    10.8750 </r>
       <r>    10.2778    -0.0001    10.8750 </r>
       <r>    10.3797    -0.0000    10.8750 </r>
       <r>    10.4815    -0.0000    10.8750 </r>
       <r>    10.5834    -0.0000    10.8750 </r>
       <r>    10.6852    -0.0000    10.8750 </r>
       <r>    10.7870    -0.0000    10.8750 </r>
       <r>    10.8889    -0.0003    10.8750 </r>
       <r>    10.9907    -0.0036    10.8746 </r>
       <r>    11.0926    -0.0247    10.8721 </r>
       <r>    11.1944    -0.0733    10.8646 </r>
       <r>    11.2962     0.0132    10.8660 </r>
       <r>    11.3981     0.6057    10.9277 </r>
       <r>    11.4999     1.4098    11.0712 </r>
       <r>    11.6017     1.3350    11.2072 </r>
       <r>    11.7036     0.4566    11.2537 </r>
       <r>    11.8054    -0.0932    11.2442 </r>
       <r>    11.9073     0.2015    11.2647 </r>
       <r>    12.0091     1.2209    11.3890 </r>
       <r>    12.1109     1.9488    11.5875 </r>
       <r>    12.2128     1.3937    11.7294 </r>
       <r>    12.3146     0.3608    11.7662 </r>
       <r>    12.4165    -0.0748    11.7586 </r>
       <r>    12.5183    -0.0663    11.7518 </r>
       <r>    12.6201    -0.0158    11.7502 </r>
       <r>    12.7220    -0.0019    11.7500 </r>
       <r>    12.8238    -0.0001    11.7500 </r>
       <r>    12.9257    -0.0000    11.7500 </r>
       <r>    13.0275    -0.0000    11.7500 </r>
       <r>    13.1293    -0.0000    11.7500 </r>
       <r>    13.2312    -0.0000    11.7500 </r>
       <r>    13.3330    -0.0000    11.7500 </r>
       <r>    13.4348     0.0000    11.7500 </r>
       <r>    13.5367     0.0000    11.7500 </r>
       <r>    13.6385     0.0000    11.7500 </r>
       <r>    13.7404     0.0000    11.7500 </r>
       <r>    13.8422     0.0000    11.7500 </r>
       <r>    13.9440     0.0000    11.7500 </r>
       <r>    14.0459    -0.0000    11.7500 </r>
       <r>    14.1477    -0.0000    11.7500 </r>
       <r>    14.2496    -0.0000    11.7500 </r>
       <r>    14.3514    -0.0000    11.7500 </r>
       <r>    14.4532    -0.0000    11.7500 </r>
       <r>    14.5551    -0.0000    11.7500 </r>
       <r>    14.6569    -0.0000    11.7500 </r>
       <r>    14.7588    -0.0000    11.7500 </r>
       <r>    14.8606    -0.0000    11.7500 </r>
       <r>    14.9624    -0.0000    11.7500 </r>
       <r>    15.0643    -0.0001    11.7500 </r>
       <r>    15.1661    -0.0012    11.7499 </r>
       <r>    15.2680    -0.0098    11.7489 </r>
       <r>    15.3698    -0.0400    11.7448 </r>
       <r>    15.4716    -0.0451    11.7402 </r>
       <r>    15.5735     0.1893    11.7595 </r>
       <r>    15.6753     0.7309    11.8339 </r>
       <r>    15.7771     1.2255    11.9587 </r>
       <r>    15.8790     1.5672    12.1183 </r>
       <r>    15.9808     1.5867    12.2799 </r>
       <r>    16.0827     0.9106    12.3727 </r>
       <r>    16.1845     0.1551    12.3885 </r>
       <r>    16.2863    -0.0793    12.3804 </r>
       <r>    16.3882    -0.0434    12.3760 </r>
       <r>    16.4900    -0.0085    12.3751 </r>
       <r>    16.5919    -0.0008    12.3750 </r>
       <r>    16.6937    -0.0000    12.3750 </r>
       <r>    16.7955    -0.0000    12.3750 </r>
       <r>    16.8974    -0.0001    12.3750 </r>
       <r>    16.9992    -0.0017    12.3748 </r>
       <r>    17.1011    -0.0127    12.3735 </r>
       <r>    17.2029    -0.0442    12.3690 </r>
       <r>    17.3047    -0.0176    12.3672 </r>
       <r>    17.4066     0.3145    12.3992 </r>
       <r>    17.5084     0.8724    12.4881 </r>
       <r>    17.6102     0.9390    12.5837 </r>
       <r>    17.7121     0.4139    12.6259 </r>
       <r>    17.8139     0.1271    12.6388 </r>
       <r>    17.9158     0.3390    12.6733 </r>
       <r>    18.0176     0.4836    12.7226 </r>
       <r>    18.1194     0.2653    12.7496 </r>
       <r>    18.2213     0.0102    12.7507 </r>
       <r>    18.3231    -0.0222    12.7484 </r>
       <r>    18.4250     0.1884    12.7676 </r>
       <r>    18.5268     0.4672    12.8152 </r>
       <r>    18.6286     0.4483    12.8608 </r>
       <r>    18.7305     0.1561    12.8767 </r>
       <r>    18.8323    -0.0671    12.8699 </r>
       <r>    18.9342    -0.0640    12.8634 </r>
       <r>    19.0360     0.4046    12.9046 </r>
       <r>    19.1378     1.2595    13.0328 </r>
       <r>    19.2397     1.4699    13.1825 </r>
       <r>    19.3415     0.7193    13.2558 </r>
       <r>    19.4434     0.0555    13.2614 </r>
       <r>    19.5452    -0.0770    13.2536 </r>
       <r>    19.6470    -0.0300    13.2505 </r>
       <r>    19.7489    -0.0048    13.2500 </r>
       <r>    19.8507    -0.0004    13.2500 </r>
       <r>    19.9525    -0.0000    13.2500 </r>
       <r>    20.0544    -0.0005    13.2499 </r>
       <r>    20.1562    -0.0059    13.2493 </r>
       <r>    20.2581    -0.0369    13.2456 </r>
       <r>    20.3599    -0.1006    13.2353 </r>
       <r>    20.4617     0.0293    13.2383 </r>
       <r>    20.5636     0.8386    13.3237 </r>
       <r>    20.6654     2.0182    13.5293 </r>
       <r>    20.7673     2.1740    13.7507 </r>
       <r>    20.8691     1.0805    13.8607 </r>
       <r>    20.9709     0.2822    13.8894 </r>
       <r>    21.0728     0.7272    13.9635 </r>
       <r>    21.1746     1.4527    14.1114 </r>
       <r>    21.2765     1.1617    14.2297 </r>
       <r>    21.3783     0.3278    14.2631 </r>
       <r>    21.4801    -0.0573    14.2573 </r>
       <r>    21.5820    -0.0563    14.2516 </r>
       <r>    21.6838    -0.0136    14.2502 </r>
       <r>    21.7857    -0.0016    14.2500 </r>
       <r>    21.8875    -0.0001    14.2500 </r>
       <r>    21.9893    -0.0000    14.2500 </r>
       <r>    22.0912    -0.0000    14.2500 </r>
       <r>    22.1930    -0.0000    14.2500 </r>
       <r>    22.2948    -0.0000    14.2500 </r>
       <r>    22.3967    -0.0000    14.2500 </r>
       <r>    22.4985    -0.0005    14.2499 </r>
       <r>    22.6004    -0.0061    14.2493 </r>
       <r>    22.7022    -0.0348    14.2458 </r>
       <r>    22.8040    -0.0782    14.2378 </r>
       <r>    22.9059     0.0973    14.2477 </r>
       <r>    23.0077     0.8136    14.3306 </r>
       <r>    23.1096     1.5036    14.4837 </r>
       <r>    23.2114     1.1804    14.6039 </r>
       <r>    23.3132     0.3354    14.6381 </r>
       <r>    23.4151    -0.0561    14.6324 </r>
       <r>    23.5169    -0.0568    14.6266 </r>
       <r>    23.6188    -0.0138    14.6252 </r>
       <r>    23.7206    -0.0016    14.6250 </r>
       <r>    23.8224    -0.0001    14.6250 </r>
       <r>    23.9243    -0.0000    14.6250 </r>
       <r>    24.0261    -0.0000    14.6250 </r>
       <r>    24.1279    -0.0000    14.6250 </r>
       <r>    24.2298    -0.0000    14.6250 </r>
       <r>    24.3316    -0.0000    14.6250 </r>
       <r>    24.4335    -0.0000    14.6250 </r>
       <r>    24.5353    -0.0000    14.6250 </r>
       <r>    24.6371    -0.0002    14.6250 </r>
       <r>    24.7390    -0.0023    14.6247 </r>
       <r>    24.8408    -0.0180    14.6229 </r>
       <r>    24.9427    -0.0647    14.6163 </r>
       <r>    25.0445    -0.0329    14.6130 </r>
       <r>    25.1463     0.4464    14.6584 </r>
       <r>    25.2482     1.2928    14.7901 </r>
       <r>    25.3500     1.4514    14.9379 </r>
       <r>    25.4519     0.6785    15.0070 </r>
       <r>    25.5537     0.0337    15.0104 </r>
       <r>    25.6555    -0.1098    14.9992 </r>
       <r>    25.7574    -0.1062    14.9884 </r>
       <r>    25.8592     0.0847    14.9971 </r>
       <r>    25.9611     0.7958    15.0781 </r>
       <r>    26.0629     1.4984    15.2307 </r>
       <r>    26.1647     1.1956    15.3525 </r>
       <r>    26.2666     0.3487    15.3880 </r>
       <r>    26.3684    -0.0570    15.3822 </r>
       <r>    26.4702    -0.0813    15.3739 </r>
       <r>    26.5721    -0.0863    15.3651 </r>
       <r>    26.6739     0.0021    15.3653 </r>
       <r>    26.7758     0.5772    15.4241 </r>
       <r>    26.8776     1.3935    15.5660 </r>
       <r>    26.9794     1.3686    15.7054 </r>
       <r>    27.0813     0.5410    15.7605 </r>
       <r>    27.1831    -0.0076    15.7597 </r>
       <r>    27.2850    -0.0727    15.7523 </r>
       <r>    27.3868    -0.0384    15.7484 </r>
       <r>    27.4886    -0.0520    15.7431 </r>
       <r>    27.5905     0.0095    15.7440 </r>
       <r>    27.6923     0.4066    15.7855 </r>
       <r>    27.7942     0.9426    15.8814 </r>
       <r>    27.8960     0.8968    15.9728 </r>
       <r>    27.9978     0.3397    16.0074 </r>
       <r>    28.0997    -0.0110    16.0063 </r>
       <r>    28.2015    -0.0457    16.0016 </r>
       <r>    28.3033    -0.0137    16.0002 </r>
       <r>    28.4052    -0.0019    16.0000 </r>
       <r>    28.5070    -0.0001    16.0000 </r>
       <r>    28.6089    -0.0000    16.0000 </r>
       <r>    28.7107    -0.0000    16.0000 </r>
       <r>    28.8125    -0.0000    16.0000 </r>
       <r>    28.9144    -0.0000    16.0000 </r>
       <r>    29.0162    -0.0000    16.0000 </r>
       <r>    29.1181     0.0000    16.0000 </r>
       <r>    29.2199     0.0000    16.0000 </r>
       <r>    29.3217     0.0000    16.0000 </r>
       <r>    29.4236     0.0000    16.0000 </r>
       <r>    29.5254     0.0000    16.0000 </r>
       <r>    29.6273     0.0000    16.0000 </r>
       <r>    29.7291     0.0000    16.0000 </r>
       <r>    29.8309     0.0000    16.0000 </r>
      </set>
      <set comment="spin 2">
       <r>    -0.7208     0.0000     0.0000 </r>
       <r>    -0.6189     0.0000     0.0000 </r>
       <r>    -0.5171     0.0000     0.0000 </r>
       <r>    -0.4153    -0.0000    -0.0000 </r>
       <r>    -0.3134    -0.0000    -0.0000 </r>
       <r>    -0.2116    -0.0000    -0.0000 </r>
       <r>    -0.1097    -0.0000    -0.0000 </r>
       <r>    -0.0079    -0.0000    -0.0000 </r>
       <r>     0.0939    -0.0000    -0.0000 </r>
       <r>     0.1958    -0.0000    -0.0000 </r>
       <r>     0.2976    -0.0000    -0.0000 </r>
       <r>     0.3995    -0.0000    -0.0000 </r>
       <r>     0.5013    -0.0000    -0.0000 </r>
       <r>     0.6031    -0.0000    -0.0000 </r>
       <r>     0.7050    -0.0002    -0.0000 </r>
       <r>     0.8068    -0.0023    -0.0003 </r>
       <r>     0.9086    -0.0127    -0.0016 </r>
       <r>     1.0105    -0.0259    -0.0042 </r>
       <r>     1.1123     0.0433     0.0002 </r>
       <r>     1.2142     0.2928     0.0300 </r>
       <r>     1.3160     0.5064     0.0816 </r>
       <r>     1.4178     0.3740     0.1197 </r>
       <r>     1.5197     0.0957     0.1294 </r>
       <r>     1.6215    -0.0213     0.1273 </r>
       <r>     1.7234    -0.0176     0.1255 </r>
       <r>     1.8252    -0.0040     0.1250 </r>
       <r>     1.9270    -0.0005     0.1250 </r>
       <r>     2.0289    -0.0000     0.1250 </r>
       <r>     2.1307    -0.0000     0.1250 </r>
       <r>     2.2326    -0.0000     0.1250 </r>
       <r>     2.3344    -0.0000     0.1250 </r>
       <r>     2.4362    -0.0000     0.1250 </r>
       <r>     2.5381    -0.0000     0.1250 </r>
       <r>     2.6399    -0.0000     0.1250 </r>
       <r>     2.7418    -0.0000     0.1250 </r>
       <r>     2.8436    -0.0001     0.1250 </r>
       <r>     2.9454    -0.0013     0.1249 </r>
       <r>     3.0473    -0.0116     0.1237 </r>
       <r>     3.1491    -0.0517     0.1184 </r>
       <r>     3.2509    -0.0659     0.1117 </r>
       <r>     3.3528     0.2722     0.1394 </r>
       <r>     3.4546     1.1028     0.2517 </r>
       <r>     3.5565     1.5228     0.4068 </r>
       <r>     3.6583     0.8990     0.4984 </r>
       <r>     3.7601     0.1409     0.5127 </r>
       <r>     3.8620    -0.0775     0.5048 </r>
       <r>     3.9638    -0.0394     0.5008 </r>
       <r>     4.0657    -0.0074     0.5001 </r>
       <r>     4.1675    -0.0009     0.5000 </r>
       <r>     4.2693    -0.0032     0.4997 </r>
       <r>     4.3712    -0.0222     0.4974 </r>
       <r>     4.4730    -0.0707     0.4902 </r>
       <r>     4.5749    -0.0047     0.4897 </r>
       <r>     4.6767     0.5499     0.5457 </r>
       <r>     4.7785     1.3749     0.6857 </r>
       <r>     4.8804     1.3873     0.8270 </r>
       <r>     4.9822     0.5664     0.8847 </r>
       <r>     5.0840    -0.0144     0.8832 </r>
       <r>     5.1859    -0.1334     0.8697 </r>
       <r>     5.2877    -0.0910     0.8604 </r>
       <r>     5.3896     0.2874     0.8897 </r>
       <r>     5.4914     1.1180     1.0035 </r>
       <r>     5.5932     1.9135     1.1984 </r>
       <r>     5.6951     2.5125     1.4543 </r>
       <r>     5.7969     2.5529     1.7142 </r>
       <r>     5.8988     1.4405     1.8609 </r>
       <r>     6.0006     0.3006     1.8916 </r>
       <r>     6.1024     0.2883     1.9209 </r>
       <r>     6.2043     0.7890     2.0013 </r>
       <r>     6.3061     1.1513     2.1185 </r>
       <r>     6.4080     1.8078     2.3026 </r>
       <r>     6.5098     2.5068     2.5579 </r>
       <r>     6.6116     2.8256     2.8457 </r>
       <r>     6.7135     3.3361     3.1854 </r>
       <r>     6.8153     3.2775     3.5192 </r>
       <r>     6.9172     1.8688     3.7095 </r>
       <r>     7.0190     0.7665     3.7876 </r>
       <r>     7.1208     1.3700     3.9271 </r>
       <r>     7.2227     2.8205     4.2143 </r>
       <r>     7.3245     3.9375     4.6153 </r>
       <r>     7.4263     4.2950     5.0527 </r>
       <r>     7.5282     3.8918     5.4490 </r>
       <r>     7.6300     2.8435     5.7386 </r>
       <r>     7.7319     1.3286     5.8739 </r>
       <r>     7.8337     0.1785     5.8921 </r>
       <r>     7.9355    -0.0401     5.8880 </r>
       <r>     8.0374     0.2433     5.9128 </r>
       <r>     8.1392     0.5133     5.9651 </r>
       <r>     8.2411     0.9483     6.0616 </r>
       <r>     8.3429     1.7079     6.2356 </r>
       <r>     8.4447     2.3529     6.4752 </r>
       <r>     8.5466     2.7317     6.7534 </r>
       <r>     8.6484     3.2254     7.0819 </r>
       <r>     8.7503     4.2612     7.5158 </r>
       <r>     8.8521     5.3211     8.0577 </r>
       <r>     8.9539     5.3403     8.6015 </r>
       <r>     9.0558     4.0457     9.0136 </r>
       <r>     9.1576     2.6398     9.2824 </r>
       <r>     9.2594     2.5207     9.5391 </r>
       <r>     9.3613     3.2373     9.8688 </r>
       <r>     9.4631     3.4432    10.2194 </r>
       <r>     9.5650     2.3142    10.4551 </r>
       <r>     9.6668     0.6661    10.5229 </r>
       <r>     9.7686    -0.1613    10.5065 </r>
       <r>     9.8705    -0.1301    10.4933 </r>
       <r>     9.9723     0.5010    10.5443 </r>
       <r>    10.0742     1.3594    10.6827 </r>
       <r>    10.1760     1.3975    10.8251 </r>
       <r>    10.2778     0.5841    10.8845 </r>
       <r>    10.3797     0.0060    10.8852 </r>
       <r>    10.4815    -0.0723    10.8778 </r>
       <r>    10.5834    -0.0237    10.8754 </r>
       <r>    10.6852    -0.0034    10.8750 </r>
       <r>    10.7870    -0.0003    10.8750 </r>
       <r>    10.8889    -0.0000    10.8750 </r>
       <r>    10.9907    -0.0000    10.8750 </r>
       <r>    11.0926    -0.0001    10.8750 </r>
       <r>    11.1944    -0.0011    10.8749 </r>
       <r>    11.2962    -0.0101    10.8739 </r>
       <r>    11.3981    -0.0478    10.8690 </r>
       <r>    11.4999    -0.0711    10.8617 </r>
       <r>    11.6017     0.2285    10.8850 </r>
       <r>    11.7036     1.0417    10.9911 </r>
       <r>    11.8054     1.5237    11.1463 </r>
       <r>    11.9073     0.9259    11.2406 </r>
       <r>    12.0091     0.0882    11.2495 </r>
       <r>    12.1109    -0.0042    11.2491 </r>
       <r>    12.2128     0.7968    11.3302 </r>
       <r>    12.3146     1.7529    11.5088 </r>
       <r>    12.4165     1.6765    11.6795 </r>
       <r>    12.5183     0.7405    11.7549 </r>
       <r>    12.6201     0.0663    11.7617 </r>
       <r>    12.7220    -0.0736    11.7542 </r>
       <r>    12.8238    -0.0336    11.7507 </r>
       <r>    12.9257    -0.0066    11.7501 </r>
       <r>    13.0275    -0.0007    11.7500 </r>
       <r>    13.1293    -0.0000    11.7500 </r>
       <r>    13.2312    -0.0000    11.7500 </r>
       <r>    13.3330    -0.0000    11.7500 </r>
       <r>    13.4348    -0.0000    11.7500 </r>
       <r>    13.5367    -0.0000    11.7500 </r>
       <r>    13.6385    -0.0000    11.7500 </r>
       <r>    13.7404     0.0000    11.7500 </r>
       <r>    13.8422     0.0000    11.7500 </r>
       <r>    13.9440     0.0000    11.7500 </r>
       <r>    14.0459     0.0000    11.7500 </r>
       <r>    14.1477     0.0000    11.7500 </r>
       <r>    14.2496    -0.0000    11.7500 </r>
       <r>    14.3514    -0.0000    11.7500 </r>
       <r>    14.4532    -0.0000    11.7500 </r>
       <r>    14.5551    -0.0000    11.7500 </r>
       <r>    14.6569    -0.0000    11.7500 </r>
       <r>    14.7588    -0.0000    11.7500 </r>
       <r>    14.8606    -0.0000    11.7500 </r>
       <r>    14.9624    -0.0000    11.7500 </r>
       <r>    15.0643    -0.0000    11.7500 </r>
       <r>    15.1661    -0.0000    11.7500 </r>
       <r>    15.2680    -0.0001    11.7500 </r>
       <r>    15.3698    -0.0014    11.7499 </r>
       <r>    15.4716    -0.0109    11.7487 </r>
       <r>    15.5735    -0.0415    11.7445 </r>
       <r>    15.6753    -0.0312    11.7413 </r>
       <r>    15.7771     0.2489    11.7667 </r>
       <r>    15.8790     0.7670    11.8448 </r>
       <r>    15.9808     0.9650    11.9431 </r>
       <r>    16.0827     0.9914    12.0440 </r>
       <r>    16.1845     1.3818    12.1848 </r>
       <r>    16.2863     1.3648    12.3237 </r>
       <r>    16.3882     0.5937    12.3842 </r>
       <r>    16.4900     0.0126    12.3855 </r>
       <r>    16.5919    -0.0739    12.3780 </r>
       <r>    16.6937    -0.0251    12.3754 </r>
       <r>    16.7955    -0.0037    12.3750 </r>
       <r>    16.8974    -0.0003    12.3750 </r>
       <r>    16.9992    -0.0002    12.3750 </r>
       <r>    17.1011    -0.0021    12.3748 </r>
       <r>    17.2029    -0.0149    12.3733 </r>
       <r>    17.3047    -0.0472    12.3684 </r>
       <r>    17.4066    -0.0028    12.3682 </r>
       <r>    17.5084     0.3678    12.4056 </r>
       <r>    17.6102     0.9165    12.4990 </r>
       <r>    17.7121     0.9171    12.5924 </r>
       <r>    17.8139     0.3545    12.6285 </r>
       <r>    17.9158    -0.0040    12.6281 </r>
       <r>    18.0176     0.1267    12.6410 </r>
       <r>    18.1194     0.4354    12.6853 </r>
       <r>    18.2213     0.4579    12.7319 </r>
       <r>    18.3231     0.1739    12.7496 </r>
       <r>    18.4250     0.0074    12.7504 </r>
       <r>    18.5268     0.1771    12.7684 </r>
       <r>    18.6286     0.4620    12.8155 </r>
       <r>    18.7305     0.4483    12.8611 </r>
       <r>    18.8323     0.1671    12.8782 </r>
       <r>    18.9342    -0.0334    12.8748 </r>
       <r>    19.0360    -0.0991    12.8647 </r>
       <r>    19.1378     0.0358    12.8683 </r>
       <r>    19.2397     0.6863    12.9382 </r>
       <r>    19.3415     1.4554    13.0864 </r>
       <r>    19.4434     1.2862    13.2174 </r>
       <r>    19.5452     0.4392    13.2621 </r>
       <r>    19.6470    -0.0347    13.2586 </r>
       <r>    19.7489    -0.0643    13.2521 </r>
       <r>    19.8507    -0.0177    13.2502 </r>
       <r>    19.9525    -0.0023    13.2500 </r>
       <r>    20.0544    -0.0002    13.2500 </r>
       <r>    20.1562    -0.0003    13.2500 </r>
       <r>    20.2581    -0.0035    13.2496 </r>
       <r>    20.3599    -0.0257    13.2470 </r>
       <r>    20.4617    -0.0886    13.2380 </r>
       <r>    20.5636    -0.0468    13.2332 </r>
       <r>    20.6654     0.5842    13.2927 </r>
       <r>    20.7673     1.7981    13.4758 </r>
       <r>    20.8691     2.2890    13.7089 </r>
       <r>    20.9709     1.3621    13.8476 </r>
       <r>    21.0728     0.3701    13.8853 </r>
       <r>    21.1746     0.6012    13.9465 </r>
       <r>    21.2765     1.3864    14.0877 </r>
       <r>    21.3783     1.2722    14.2173 </r>
       <r>    21.4801     0.4400    14.2621 </r>
       <r>    21.5820    -0.0341    14.2586 </r>
       <r>    21.6838    -0.0645    14.2521 </r>
       <r>    21.7857    -0.0178    14.2503 </r>
       <r>    21.8875    -0.0023    14.2500 </r>
       <r>    21.9893    -0.0002    14.2500 </r>
       <r>    22.0912    -0.0000    14.2500 </r>
       <r>    22.1930    -0.0000    14.2500 </r>
       <r>    22.2948    -0.0000    14.2500 </r>
       <r>    22.3967    -0.0000    14.2500 </r>
       <r>    22.4985    -0.0000    14.2500 </r>
       <r>    22.6004    -0.0008    14.2499 </r>
       <r>    22.7022    -0.0082    14.2491 </r>
       <r>    22.8040    -0.0420    14.2448 </r>
       <r>    22.9059    -0.0762    14.2370 </r>
       <r>    23.0077     0.1666    14.2540 </r>
       <r>    23.1096     0.9446    14.3502 </r>
       <r>    23.2114     1.5285    14.5059 </r>
       <r>    23.3132     1.0596    14.6138 </r>
       <r>    23.4151     0.2406    14.6383 </r>
       <r>    23.5169    -0.0698    14.6312 </r>
       <r>    23.6188    -0.0489    14.6262 </r>
       <r>    23.7206    -0.0105    14.6251 </r>
       <r>    23.8224    -0.0011    14.6250 </r>
       <r>    23.9243    -0.0001    14.6250 </r>
       <r>    24.0261    -0.0000    14.6250 </r>
       <r>    24.1279    -0.0000    14.6250 </r>
       <r>    24.2298    -0.0000    14.6250 </r>
       <r>    24.3316    -0.0000    14.6250 </r>
       <r>    24.4335    -0.0000    14.6250 </r>
       <r>    24.5353    -0.0000    14.6250 </r>
       <r>    24.6371    -0.0000    14.6250 </r>
       <r>    24.7390    -0.0003    14.6250 </r>
       <r>    24.8408    -0.0041    14.6245 </r>
       <r>    24.9427    -0.0268    14.6218 </r>
       <r>    25.0445    -0.0751    14.6142 </r>
       <r>    25.1463     0.0298    14.6172 </r>
       <r>    25.2482     0.6530    14.6837 </r>
       <r>    25.3500     1.4382    14.8302 </r>
       <r>    25.4519     1.3130    14.9639 </r>
       <r>    25.5537     0.4690    15.0116 </r>
       <r>    25.6555    -0.0343    15.0081 </r>
       <r>    25.7574    -0.1049    14.9975 </r>
       <r>    25.8592    -0.0966    14.9876 </r>
       <r>    25.9611     0.1321    15.0011 </r>
       <r>    26.0629     0.8871    15.0914 </r>
       <r>    26.1647     1.5208    15.2463 </r>
       <r>    26.2666     1.1136    15.3597 </r>
       <r>    26.3684     0.2780    15.3880 </r>
       <r>    26.4702    -0.0844    15.3794 </r>
       <r>    26.5721    -0.1197    15.3672 </r>
       <r>    26.6739    -0.0343    15.3637 </r>
       <r>    26.7758     0.4864    15.4133 </r>
       <r>    26.8776     1.3279    15.5485 </r>
       <r>    26.9794     1.4274    15.6938 </r>
       <r>    27.0813     0.6333    15.7583 </r>
       <r>    27.1831     0.0226    15.7606 </r>
       <r>    27.2850    -0.0753    15.7530 </r>
       <r>    27.3868    -0.0340    15.7495 </r>
       <r>    27.4886    -0.0392    15.7455 </r>
       <r>    27.5905    -0.0428    15.7412 </r>
       <r>    27.6923     0.1913    15.7606 </r>
       <r>    27.7942     0.7480    15.8368 </r>
       <r>    27.8960     1.0128    15.9400 </r>
       <r>    27.9978     0.5856    15.9996 </r>
       <r>    28.0997     0.0866    16.0084 </r>
       <r>    28.2015    -0.0519    16.0031 </r>
       <r>    28.3033    -0.0255    16.0005 </r>
       <r>    28.4052    -0.0047    16.0000 </r>
       <r>    28.5070    -0.0004    16.0000 </r>
       <r>    28.6089    -0.0000    16.0000 </r>
       <r>    28.7107    -0.0000    16.0000 </r>
       <r>    28.8125    -0.0000    16.0000 </r>
       <r>    28.9144    -0.0000    16.0000 </r>
       <r>    29.0162    -0.0000    16.0000 </r>
       <r>    29.1181    -0.0000    16.0000 </r>
       <r>    29.2199     0.0000    16.0000 </r>
       <r>    29.3217     0.0000    16.0000 </r>
       <r>    29.4236     0.0000    16.0000 </r>
       <r>    29.5254     0.0000    16.0000 </r>
       <r>    29.6273     0.0000    16.0000 </r>
       <r>    29.7291     0.0000    16.0000 </r>
       <r>    29.8309     0.0000    16.0000 </r>
      </set>
     </set>
    </array>
   </total>
  </dos>
 </calculation>
 <structure name="finalpos" >
  <crystal>
   <varray name="basis" >
    <v>       2.79373900       0.00000000       0.00000000 </v>
    <v>       0.00000000       2.79373900       0.00000000 </v>
    <v>       0.00000000       0.00000000       2.79373900 </v>
   </varray>
   <i name="volume">     21.80507032 </i>
   <varray name="rec_basis" >
    <v>       0.35794324       0.00000000       0.00000000 </v>
    <v>       0.00000000       0.35794324       0.00000000 </v>
    <v>       0.00000000       0.00000000       0.35794324 </v>
   </varray>
  </crystal>
  <varray name="positions" >
   <v>       0.00000000       0.00000000       0.00000000 </v>
   <v>       0.50000000       0.50000000       0.50000000 </v>
  </varray>
 </structure>
</modeling>
