    2    2    1    1
  0.9639684E+01  0.3009788E-09  0.3009788E-09  0.3009788E-09  0.5000000E-15
  1.000000000000000E-004
  CAR 
 automatically generated by pyflamestk   
      8     10     16
 
  0.1250000E+00  0.1250000E+00  0.1250000E+00  0.3125000E-01
    1      -13.596949   1.000000
    2        2.410204   1.000000
    3        3.255415   1.000000
    4        3.255416   1.000000
    5        8.698874   0.000000
    6       17.308498   0.000000
    7       19.317794   0.000000
    8       19.317797   0.000000
    9       23.529736   0.000000
   10       23.529737   0.000000
   11       24.862248   0.000000
   12       27.257949   0.000000
   13       28.679972   0.000000
   14       28.679973   0.000000
   15       38.891883   0.000000
   16       40.798803   0.000000
 
  0.3750000E+00  0.1250000E+00  0.1250000E+00  0.9375000E-01
    1      -12.947858   1.000000
    2        0.254504   1.000000
    3        2.401879   1.000000
    4        2.961822   1.000000
    5       11.117377   0.000000
    6       15.239467   0.000000
    7       18.616897   0.000000
    8       20.290787   0.000000
    9       22.114224   0.000000
   10       24.329433   0.000000
   11       26.407790   0.000000
   12       31.059698   0.000000
   13       32.314007   0.000000
   14       33.206518   0.000000
   15       35.573705   0.000000
   16       38.845374   0.000000
 
 -0.3750000E+00  0.1250000E+00  0.1250000E+00  0.9375000E-01
    1      -12.514242   1.000000
    2       -0.866778   1.000000
    3        2.253058   1.000000
    4        2.624999   1.000000
    5       11.722846   0.000000
    6       15.417013   0.000000
    7       17.910113   0.000000
    8       19.721079   0.000000
    9       23.697582   0.000000
   10       25.946805   0.000000
   11       26.023588   0.000000
   12       32.285335   0.000000
   13       32.870261   0.000000
   14       33.239136   0.000000
   15       35.793533   0.000000
   16       37.501946   0.000000
 
 -0.1250000E+00  0.1250000E+00  0.1250000E+00  0.9375000E-01
    1      -13.235367   1.000000
    2        1.135543   1.000000
    3        2.888596   1.000000
    4        2.891976   1.000000
    5       10.285871   0.000000
    6       15.495790   0.000000
    7       19.417893   0.000000
    8       19.905037   0.000000
    9       21.069972   0.000000
   10       24.910759   0.000000
   11       26.869020   0.000000
   12       29.950584   0.000000
   13       30.257993   0.000000
   14       30.981618   0.000000
   15       37.177362   0.000000
   16       38.949037   0.000000
 
  0.3750000E+00  0.3750000E+00  0.1250000E+00  0.9375000E-01
    1      -12.713306   1.000000
    2        0.071310   1.000000
    3        2.202696   1.000000
    4        2.433481   1.000000
    5       12.213438   0.000000
    6       13.906827   0.000000
    7       17.160029   0.000000
    8       20.779241   0.000000
    9       21.234879   0.000000
   10       27.083160   0.000000
   11       30.145271   0.000000
   12       30.398665   0.000000
   13       32.327718   0.000000
   14       34.817929   0.000000
   15       36.464746   0.000000
   16       37.868284   0.000000
 
 -0.3750000E+00  0.3750000E+00  0.1250000E+00  0.1875000E+00
    1      -12.304003   1.000000
    2       -0.042099   1.000000
    3        0.951569   1.000000
    4        2.025487   1.000000
    5       13.757448   0.000000
    6       14.766048   0.000000
    7       15.560606   0.000000
    8       19.546258   0.000000
    9       22.990596   0.000000
   10       26.444014   0.000000
   11       29.974351   0.000000
   12       31.398967   0.000000
   13       32.667484   0.000000
   14       36.333109   0.000000
   15       38.880525   0.000000
   16       41.085403   0.000000
 
 -0.1250000E+00  0.3750000E+00  0.1250000E+00  0.1875000E+00
    1      -12.558900   1.000000
    2       -0.246770   1.000000
    3        1.689188   1.000000
    4        2.523707   1.000000
    5       12.582662   0.000000
    6       14.788354   0.000000
    7       16.931301   0.000000
    8       20.117114   0.000000
    9       22.695886   0.000000
   10       25.354465   0.000000
   11       28.862545   0.000000
   12       31.629656   0.000000
   13       32.232643   0.000000
   14       34.881297   0.000000
   15       35.523440   0.000000
   16       41.005971   0.000000
 
 -0.3750000E+00 -0.3750000E+00  0.1250000E+00  0.9375000E-01
    1      -12.339825   1.000000
    2       -0.404237   1.000000
    3        1.687619   1.000000
    4        2.140971   1.000000
    5       12.852765   0.000000
    6       13.485574   0.000000
    7       16.007466   0.000000
    8       21.472287   0.000000
    9       21.484387   0.000000
   10       28.914252   0.000000
   11       29.390915   0.000000
   12       31.963057   0.000000
   13       32.659500   0.000000
   14       37.793170   0.000000
   15       38.168705   0.000000
   16       41.096391   0.000000
 
  0.3750000E+00  0.3750000E+00  0.3750000E+00  0.3125000E-01
    1      -12.749620   1.000000
    2       -0.600269   1.000000
    3        2.818776   1.000000
    4        2.818776   1.000000
    5       10.929068   0.000000
    6       15.430027   0.000000
    7       19.524314   0.000000
    8       19.524315   0.000000
    9       24.069785   0.000000
   10       24.441334   0.000000
   11       24.441337   0.000000
   12       31.898358   0.000000
   13       33.209962   0.000000
   14       33.209964   0.000000
   15       36.839013   0.000000
   16       36.839017   0.000000
 
 -0.3750000E+00  0.3750000E+00  0.3750000E+00  0.9375000E-01
    1      -12.387258   1.000000
    2       -0.283461   1.000000
    3        1.056960   1.000000
    4        2.493732   1.000000
    5       13.072834   0.000000
    6       15.230645   0.000000
    7       16.121253   0.000000
    8       20.426327   0.000000
    9       22.510119   0.000000
   10       25.548732   0.000000
   11       29.074837   0.000000
   12       31.613416   0.000000
   13       32.036007   0.000000
   14       35.363506   0.000000
   15       37.237403   0.000000
   16       40.109920   0.000000
