<?xml version="1.0" encoding="ISO-8859-1"?>
<modeling>
 <generator>
  <i name="program" type="string">vasp </i>
  <i name="version" type="string">5.4.1  </i>
  <i name="subversion" type="string">24Jun15 (build Jun 05 2017 10:38:15) complex                          parallel </i>
  <i name="platform" type="string">IFC91_ompi </i>
  <i name="date" type="string">2017 10 17 </i>
  <i name="time" type="string">23:07:04 </i>
 </generator>
 <incar>
  <i type="string" name="SYSTEM"> automatically generated by pyflamestk</i>
  <i type="int" name="ISTART">     0</i>
  <i type="string" name="PREC">high                   ! avoid wrap aro</i>
  <i type="string" name="ALGO"> Normal                 ! blocked Davids</i>
  <i type="int" name="ISPIN">     1</i>
  <i type="int" name="ICHARG">     0</i>
  <i type="int" name="NELM">    40</i>
  <i name="EDIFF">      0.00000100</i>
  <i name="ENCUT">    925.00000000</i>
  <i type="logical" name="LREAL"> F  </i>
  <i type="int" name="ISMEAR">     0</i>
  <i name="SIGMA">      0.05000000</i>
  <i type="logical" name="LWAVE"> F  </i>
  <i type="logical" name="LCHARG"> F  </i>
  <i type="logical" name="LVTOT"> F  </i>
  <v type="int" name="KPOINT_BSE">    -1     0     0     0</v>
  <i type="int" name="NELM">    40</i>
 </incar>
 <kpoints>
  <generation param="Monkhorst-Pack">
   <v type="int" name="divisions">       4        4        4 </v>
   <v name="usershift">      0.00000000       0.00000000       0.00000000 </v>
   <v name="genvec1">      0.25000000      -0.00000000      -0.00000000 </v>
   <v name="genvec2">      0.00000000       0.25000000       0.00000000 </v>
   <v name="genvec3">      0.00000000       0.00000000       0.25000000 </v>
   <v name="shift">      0.50000000       0.50000000       0.50000000 </v>
  </generation>
  <varray name="kpointlist" >
   <v>       0.12500000       0.12500000       0.12500000 </v>
   <v>       0.37500000       0.12500000       0.12500000 </v>
   <v>      -0.37500000       0.12500000       0.12500000 </v>
   <v>      -0.12500000       0.12500000       0.12500000 </v>
   <v>       0.37500000       0.37500000       0.12500000 </v>
   <v>      -0.37500000       0.37500000       0.12500000 </v>
   <v>      -0.12500000       0.37500000       0.12500000 </v>
   <v>      -0.37500000      -0.37500000       0.12500000 </v>
   <v>       0.37500000       0.37500000       0.37500000 </v>
   <v>      -0.37500000       0.37500000       0.37500000 </v>
  </varray>
  <varray name="weights" >
   <v>       0.03125000 </v>
   <v>       0.09375000 </v>
   <v>       0.09375000 </v>
   <v>       0.09375000 </v>
   <v>       0.09375000 </v>
   <v>       0.18750000 </v>
   <v>       0.18750000 </v>
   <v>       0.09375000 </v>
   <v>       0.03125000 </v>
   <v>       0.09375000 </v>
  </varray>
 </kpoints>
 <parameters>
  <separator name="general" >
   <i type="string" name="SYSTEM">automatically generated by pyflamestk</i>
   <i type="logical" name="LCOMPAT"> F  </i>
  </separator>
  <separator name="electronic" >
   <i type="string" name="PREC">high</i>
   <i name="ENMAX">    925.00000000</i>
   <i name="ENAUG">    888.80400000</i>
   <i name="EDIFF">      0.00000100</i>
   <i type="int" name="IALGO">    38</i>
   <i type="int" name="IWAVPR">    10</i>
   <i type="int" name="NBANDS">    16</i>
   <i name="NELECT">      8.00000000</i>
   <i type="int" name="TURBO">     0</i>
   <i type="int" name="IRESTART">     0</i>
   <i type="int" name="NREBOOT">     0</i>
   <i type="int" name="NMIN">     0</i>
   <i name="EREF">      0.00000000</i>
   <separator name="electronic smearing" >
    <i type="int" name="ISMEAR">     0</i>
    <i name="SIGMA">      0.05000000</i>
    <i name="KSPACING">      0.50000000</i>
    <i type="logical" name="KGAMMA"> T  </i>
   </separator>
   <separator name="electronic projectors" >
    <i type="logical" name="LREAL"> F  </i>
    <v name="ROPT">      0.00000000      0.00000000</v>
    <i type="int" name="LMAXPAW">  -100</i>
    <i type="int" name="LMAXMIX">     2</i>
    <i type="logical" name="NLSPLINE"> F  </i>
   </separator>
   <separator name="electronic startup" >
    <i type="int" name="ISTART">     0</i>
    <i type="int" name="ICHARG">     0</i>
    <i type="int" name="INIWAV">     1</i>
   </separator>
   <separator name="electronic spin" >
    <i type="int" name="ISPIN">     1</i>
    <i type="logical" name="LNONCOLLINEAR"> F  </i>
    <v name="MAGMOM">      1.00000000      1.00000000</v>
    <i name="NUPDOWN">     -1.00000000</i>
    <i type="logical" name="LSORBIT"> F  </i>
    <v name="SAXIS">      0.00000000      0.00000000      1.00000000</v>
    <i type="logical" name="LSPIRAL"> F  </i>
    <v name="QSPIRAL">      0.00000000      0.00000000      0.00000000</v>
    <i type="logical" name="LZEROZ"> F  </i>
   </separator>
   <separator name="electronic exchange-correlation" >
    <i type="logical" name="LASPH"> F  </i>
    <i type="logical" name="LMETAGGA"> F  </i>
   </separator>
   <separator name="electronic convergence" >
    <i type="int" name="NELM">    40</i>
    <i type="int" name="NELMDL">    -5</i>
    <i type="int" name="NELMIN">     2</i>
    <i name="ENINI">    925.00000000</i>
    <separator name="electronic convergence detail" >
     <i type="logical" name="LDIAG"> T  </i>
     <i type="logical" name="LSUBROT"> F  </i>
     <i name="WEIMIN">      0.00000000</i>
     <i name="EBREAK">      0.00000002</i>
     <i name="DEPER">      0.30000000</i>
     <i type="int" name="NRMM">     4</i>
     <i name="TIME">      0.40000000</i>
    </separator>
   </separator>
   <separator name="electronic mixer" >
    <i name="AMIX">      0.40000000</i>
    <i name="BMIX">      1.00000000</i>
    <i name="AMIN">      0.10000000</i>
    <i name="AMIX_MAG">      1.60000000</i>
    <i name="BMIX_MAG">      1.00000000</i>
    <separator name="electronic mixer details" >
     <i type="int" name="IMIX">     4</i>
     <i type="logical" name="MIXFIRST"> F  </i>
     <i type="int" name="MAXMIX">   -45</i>
     <i name="WC">    100.00000000</i>
     <i type="int" name="INIMIX">     1</i>
     <i type="int" name="MIXPRE">     1</i>
     <i type="int" name="MREMOVE">     5</i>
    </separator>
   </separator>
   <separator name="electronic dipolcorrection" >
    <i type="logical" name="LDIPOL"> F  </i>
    <i type="logical" name="LMONO"> F  </i>
    <i type="int" name="IDIPOL">     0</i>
    <i name="EPSILON">      1.00000000</i>
    <v name="DIPOL">   -100.00000000   -100.00000000   -100.00000000</v>
    <i name="EFIELD">      0.00000000</i>
   </separator>
  </separator>
  <separator name="grids" >
   <i type="int" name="NGX">    30</i>
   <i type="int" name="NGY">    30</i>
   <i type="int" name="NGZ">    30</i>
   <i type="int" name="NGXF">    40</i>
   <i type="int" name="NGYF">    40</i>
   <i type="int" name="NGZF">    40</i>
   <i type="logical" name="ADDGRID"> F  </i>
  </separator>
  <separator name="ionic" >
   <i type="int" name="NSW">     0</i>
   <i type="int" name="IBRION">    -1</i>
   <i type="int" name="ISIF">     2</i>
   <i name="PSTRESS">      0.00000000</i>
   <i name="EDIFFG">      0.00001000</i>
   <i type="int" name="NFREE">     0</i>
   <i name="POTIM">      0.50000000</i>
   <i name="SMASS">     -3.00000000</i>
   <i name="SCALEE">      1.00000000</i>
  </separator>
  <separator name="ionic md" >
   <i name="TEBEG">      0.00010000</i>
   <i name="TEEND">      0.00010000</i>
   <i type="int" name="NBLOCK">     1</i>
   <i type="int" name="KBLOCK">     1</i>
   <i type="int" name="NPACO">   256</i>
   <i name="APACO">     16.00000000</i>
  </separator>
  <separator name="symmetry" >
   <i type="int" name="ISYM">     2</i>
   <i name="SYMPREC">      0.00001000</i>
  </separator>
  <separator name="dos" >
   <i type="logical" name="LORBIT"> F  </i>
   <v name="RWIGS">     -1.00000000     -1.00000000</v>
   <i type="int" name="NEDOS">   301</i>
   <i name="EMIN">     10.00000000</i>
   <i name="EMAX">    -10.00000000</i>
   <i name="EFERMI">      0.00000000</i>
  </separator>
  <separator name="writing" >
   <i type="int" name="NWRITE">     2</i>
   <i type="logical" name="LWAVE"> F  </i>
   <i type="logical" name="LCHARG"> F  </i>
   <i type="logical" name="LPARD"> F  </i>
   <i type="logical" name="LVTOT"> F  </i>
   <i type="logical" name="LVHAR"> F  </i>
   <i type="logical" name="LELF"> F  </i>
   <i type="logical" name="LOPTICS"> F  </i>
   <v name="STM">      0.00000000      0.00000000      0.00000000      0.00000000      0.00000000      0.00000000      0.00000000</v>
  </separator>
  <separator name="performance" >
   <i type="int" name="NPAR">    16</i>
   <i type="int" name="NSIM">     4</i>
   <i type="int" name="NBLK">    -1</i>
   <i type="logical" name="LPLANE"> T  </i>
   <i type="logical" name="LSCALAPACK"> T  </i>
   <i type="logical" name="LSCAAWARE"> F  </i>
   <i type="logical" name="LSCALU"> F  </i>
   <i type="logical" name="LASYNC"> F  </i>
   <i type="logical" name="LORBITALREAL"> F  </i>
  </separator>
  <separator name="miscellaneous" >
   <i type="int" name="IDIOT">     3</i>
   <i type="logical" name="LMUSIC"> F  </i>
   <v name="POMASS">     16.00000000     24.30500000</v>
   <v name="DARWINR">      0.00000000      0.00000000</v>
   <v name="DARWINV">      1.00000000      1.00000000</v>
   <i type="logical" name="LCORR"> T  </i>
  </separator>
  <i type="logical" name="GGA_COMPAT"> T  </i>
  <i type="logical" name="LBERRY"> F  </i>
  <i type="int" name="ICORELEVEL">     0</i>
  <i type="logical" name="LDAU"> F  </i>
  <i type="int" name="I_CONSTRAINED_M">     0</i>
  <separator name="electronic exchange-correlation" >
   <i type="string" name="GGA">--</i>
   <i type="int" name="VOSKOWN">     0</i>
   <i type="logical" name="LHFCALC"> F  </i>
   <i type="string" name="PRECFOCK"></i>
   <i type="logical" name="LSYMGRAD"> F  </i>
   <i type="logical" name="LHFONE"> F  </i>
   <i type="logical" name="LRHFCALC"> F  </i>
   <i type="logical" name="LTHOMAS"> F  </i>
   <i type="logical" name="LMODELHF"> F  </i>
   <i name="ENCUT4O">     -1.00000000</i>
   <i type="int" name="EXXOEP">     0</i>
   <i type="int" name="FOURORBIT">     0</i>
   <i name="AEXX">      0.00000000</i>
   <i name="HFALPHA">      0.00000000</i>
   <i name="MCALPHA">      0.00000000</i>
   <i name="ALDAX">      1.00000000</i>
   <i name="AGGAX">      1.00000000</i>
   <i name="ALDAC">      1.00000000</i>
   <i name="AGGAC">      1.00000000</i>
   <i type="int" name="NKREDX">     1</i>
   <i type="int" name="NKREDY">     1</i>
   <i type="int" name="NKREDZ">     1</i>
   <i type="logical" name="SHIFTRED"> F  </i>
   <i type="logical" name="ODDONLY"> F  </i>
   <i type="logical" name="EVENONLY"> F  </i>
   <i type="int" name="LMAXFOCK">     0</i>
   <i type="int" name="NMAXFOCKAE">     0</i>
   <i type="logical" name="LFOCKAEDFT"> F  </i>
   <i name="HFSCREEN">      0.00000000</i>
   <i name="HFSCREENC">      0.00000000</i>
   <i type="int" name="NBANDSGWLOW">     0</i>
  </separator>
  <separator name="vdW DFT" >
   <i type="logical" name="LUSE_VDW"> F  </i>
   <i name="Zab_VDW">     -0.84910000</i>
   <i name="PARAM1">      0.12340000</i>
   <i name="PARAM2">      1.00000000</i>
   <i name="PARAM3">      0.00000000</i>
  </separator>
  <separator name="model GW" >
   <i type="int" name="MODEL_GW">     0</i>
   <i name="MODEL_EPS0">      5.78381065</i>
   <i name="MODEL_ALPHA">      1.00000000</i>
  </separator>
  <separator name="linear response parameters" >
   <i type="logical" name="LEPSILON"> F  </i>
   <i type="logical" name="LRPA"> F  </i>
   <i type="logical" name="LNABLA"> F  </i>
   <i type="logical" name="LVEL"> F  </i>
   <i type="int" name="KINTER">     0</i>
   <i name="CSHIFT">      0.10000000</i>
   <i name="OMEGAMAX">     -1.00000000</i>
   <i name="DEG_THRESHOLD">      0.00200000</i>
  </separator>
  <separator name="orbital magnetization" >
   <i type="logical" name="NUCIND"> F  </i>
   <v name="MAGPOS">      0.00000000      0.00000000      0.00000000</v>
   <i type="logical" name="LNICSALL"> T  </i>
   <i type="logical" name="ORBITALMAG"> F  </i>
   <i type="logical" name="LMAGBLOCH"> F  </i>
   <i type="logical" name="LCHIMAG"> F  </i>
   <i type="logical" name="LGAUGE"> T  </i>
   <i type="int" name="MAGATOM">     0</i>
   <v name="MAGDIPOL">      0.00000000      0.00000000      0.00000000</v>
   <v name="AVECCONST">      0.00000000      0.00000000      0.00000000</v>
  </separator>
  <separator name="response functions" >
   <i type="logical" name="LADDER"> F  </i>
   <i type="logical" name="LFXC"> F  </i>
   <i type="logical" name="LHARTREE"> T  </i>
   <i type="int" name="IBSE">     0</i>
   <v type="int" name="KPOINT">    -1     0     0     0</v>
   <i type="logical" name="LTCTE"> F  </i>
   <i type="logical" name="LTETE"> F  </i>
   <i type="logical" name="LTRIPLET"> F  </i>
   <i type="logical" name="LFXCEPS"> F  </i>
   <i type="logical" name="LFXHEG"> F  </i>
   <i type="int" name="NATURALO">     0</i>
   <i type="logical" name="L2ORDER"> F  </i>
   <i type="logical" name="LUSEW"> F  </i>
   <i name="ENCUTGW">     -2.00000000</i>
   <i name="ENCUTGWSOFT">     -2.00000000</i>
   <i name="ENCUTLF">     -1.00000000</i>
   <i type="int" name="LMAXMP2">    -1</i>
   <i name="SCISSOR">      0.00000000</i>
   <i type="int" name="NOMEGA">     0</i>
   <i type="int" name="NOMEGAR">     0</i>
   <i type="int" name="NBANDSGW">    -1</i>
   <i type="int" name="NBANDSO">    -1</i>
   <i type="int" name="NBANDSV">    -1</i>
   <i type="int" name="NELM">    40</i>
   <i type="int" name="NELMHF">     1</i>
   <i type="int" name="DIM">     3</i>
   <i type="int" name="ANTIRES">     0</i>
   <i name="OMEGAMAX">    -30.00000000</i>
   <i name="OMEGAMIN">    -30.00000000</i>
   <i name="OMEGATL">   -200.00000000</i>
   <i type="int" name="OMEGAGRID">     0</i>
   <i name="CSHIFT">     -0.10000000</i>
   <i type="logical" name="SELFENERGY"> F  </i>
   <i type="logical" name="LSPECTRAL"> F  </i>
   <i type="logical" name="LSPECTRALGW"> F  </i>
   <i type="logical" name="LSINGLES"> F  </i>
   <i type="logical" name="LFERMIGW"> F  </i>
   <i type="logical" name="ODDONLYGW"> F  </i>
   <i type="logical" name="EVENONLYGW"> F  </i>
   <i type="int" name="NKREDLFX">     1</i>
   <i type="int" name="NKREDLFY">     1</i>
   <i type="int" name="NKREDLFZ">     1</i>
   <i type="int" name="MAXMEM">  1800</i>
   <i type="int" name="TELESCOPE">     0</i>
   <i type="int" name="TAUPAR">     1</i>
   <i type="int" name="OMEGAPAR">    -1</i>
   <i name="LAMBDA">      1.00000000</i>
  </separator>
  <separator name="External order field" >
   <i name="OFIELD_KAPPA">      0.00000000</i>
   <v name="OFIELD_K">      0.00000000      0.00000000      0.00000000</v>
   <i name="OFIELD_Q6_NEAR">      0.00000000</i>
   <i name="OFIELD_Q6_FAR">      0.00000000</i>
   <i name="OFIELD_A">      0.00000000</i>
  </separator>
 </parameters>
 <atominfo>
  <atoms>       2 </atoms>
  <types>       2 </types>
  <array name="atoms" >
   <dimension dim="1">ion</dimension>
   <field type="string">element</field>
   <field type="int">atomtype</field>
   <set>
    <rc><c>O </c><c>   1</c></rc>
    <rc><c>Mg</c><c>   2</c></rc>
   </set>
  </array>
  <array name="atomtypes" >
   <dimension dim="1">type</dimension>
   <field type="int">atomspertype</field>
   <field type="string">element</field>
   <field>mass</field>
   <field>valence</field>
   <field type="string">pseudopotential</field>
   <set>
    <rc><c>   1</c><c>O </c><c>     16.00000000</c><c>      6.00000000</c><c>  PAW_PBE O_h 06Feb2004                 </c></rc>
    <rc><c>   1</c><c>Mg</c><c>     24.30500000</c><c>      2.00000000</c><c>  PAW_PBE Mg 13Apr2007                  </c></rc>
   </set>
  </array>
 </atominfo>
 <structure name="initialpos" >
  <crystal>
   <varray name="basis" >
    <v>       3.00978800       0.00000000       0.00000000 </v>
    <v>       1.50489400       2.60655300       0.00000000 </v>
    <v>       1.50489400       0.86885100       2.45748200 </v>
   </varray>
   <i name="volume">     19.27936883 </i>
   <varray name="rec_basis" >
    <v>       0.33224931      -0.19182422      -0.13564019 </v>
    <v>       0.00000000       0.38364844      -0.13564019 </v>
    <v>       0.00000000       0.00000000       0.40692058 </v>
   </varray>
  </crystal>
  <varray name="positions" >
   <v>       0.50000000       0.50000000       0.50000000 </v>
   <v>       0.00000000       0.00000000       0.00000000 </v>
  </varray>
 </structure>
 <calculation>
  <scstep>
   <time name="dav">    0.07    0.07</time>
   <time name="total">    0.08    0.08</time>
   <energy>
    <i name="alphaZ">     15.79325893 </i>
    <i name="ewald">   -354.45312954 </i>
    <i name="hartreedc">    -25.98018984 </i>
    <i name="XCdc">    -30.10192312 </i>
    <i name="pawpsdc"> 140917.44297196 </i>
    <i name="pawaedc">-140863.90999808 </i>
    <i name="eentropy">     -0.00000000 </i>
    <i name="bandstr">   -358.83718654 </i>
    <i name="atom">    455.39746584 </i>
    <i name="e_fr_energy">   -244.64873039 </i>
    <i name="e_wo_entrp">   -244.64873039 </i>
    <i name="e_0_energy">   -244.64873039 </i>
   </energy>
  </scstep>
  <scstep>
   <time name="dav">    0.08    0.08</time>
   <time name="total">    0.08    0.08</time>
   <energy>
    <i name="e_fr_energy">   -303.89762151 </i>
    <i name="e_wo_entrp">   -303.89762151 </i>
    <i name="e_0_energy">   -303.89762151 </i>
   </energy>
  </scstep>
  <scstep>
   <time name="dav">    0.06    0.06</time>
   <time name="total">    0.06    0.07</time>
   <energy>
    <i name="e_fr_energy">   -304.16364987 </i>
    <i name="e_wo_entrp">   -304.16364987 </i>
    <i name="e_0_energy">   -304.16364987 </i>
   </energy>
  </scstep>
  <scstep>
   <time name="dav">    0.11    0.11</time>
   <time name="total">    0.11    0.11</time>
   <energy>
    <i name="e_fr_energy">   -304.16488854 </i>
    <i name="e_wo_entrp">   -304.16488854 </i>
    <i name="e_0_energy">   -304.16488854 </i>
   </energy>
  </scstep>
  <scstep>
   <time name="dav">    0.06    0.06</time>
   <time name="total">    0.07    0.08</time>
   <energy>
    <i name="e_fr_energy">   -304.16488861 </i>
    <i name="e_wo_entrp">   -304.16488861 </i>
    <i name="e_0_energy">   -304.16488861 </i>
   </energy>
  </scstep>
  <scstep>
   <time name="dav">    0.05    0.06</time>
   <time name="total">    0.07    0.08</time>
   <energy>
    <i name="e_fr_energy">    -65.30754191 </i>
    <i name="e_wo_entrp">    -65.30754191 </i>
    <i name="e_0_energy">    -65.30754191 </i>
   </energy>
  </scstep>
  <scstep>
   <time name="dav">    0.09    0.09</time>
   <time name="total">    0.11    0.11</time>
   <energy>
    <i name="e_fr_energy">    -22.48139711 </i>
    <i name="e_wo_entrp">    -22.48139711 </i>
    <i name="e_0_energy">    -22.48139711 </i>
   </energy>
  </scstep>
  <scstep>
   <time name="dav">    0.06    0.06</time>
   <time name="total">    0.08    0.08</time>
   <energy>
    <i name="e_fr_energy">    -20.89234227 </i>
    <i name="e_wo_entrp">    -20.89234227 </i>
    <i name="e_0_energy">    -20.89234227 </i>
   </energy>
  </scstep>
  <scstep>
   <time name="dav">    0.06    0.06</time>
   <time name="total">    0.08    0.08</time>
   <energy>
    <i name="e_fr_energy">    -11.96915477 </i>
    <i name="e_wo_entrp">    -11.96915477 </i>
    <i name="e_0_energy">    -11.96915477 </i>
   </energy>
  </scstep>
  <scstep>
   <time name="dav">    0.07    0.07</time>
   <time name="total">    0.09    0.09</time>
   <energy>
    <i name="e_fr_energy">    -11.98252064 </i>
    <i name="e_wo_entrp">    -11.98252064 </i>
    <i name="e_0_energy">    -11.98252064 </i>
   </energy>
  </scstep>
  <scstep>
   <time name="dav">    0.06    0.06</time>
   <time name="total">    0.08    0.08</time>
   <energy>
    <i name="e_fr_energy">    -11.92272988 </i>
    <i name="e_wo_entrp">    -11.92272988 </i>
    <i name="e_0_energy">    -11.92272988 </i>
   </energy>
  </scstep>
  <scstep>
   <time name="dav">    0.07    0.07</time>
   <time name="total">    0.09    0.09</time>
   <energy>
    <i name="e_fr_energy">    -11.91937780 </i>
    <i name="e_wo_entrp">    -11.91937780 </i>
    <i name="e_0_energy">    -11.91937780 </i>
   </energy>
  </scstep>
  <scstep>
   <time name="dav">    0.07    0.07</time>
   <time name="total">    0.09    0.09</time>
   <energy>
    <i name="e_fr_energy">    -11.91941391 </i>
    <i name="e_wo_entrp">    -11.91941391 </i>
    <i name="e_0_energy">    -11.91941391 </i>
   </energy>
  </scstep>
  <scstep>
   <time name="dav">    0.08    0.08</time>
   <time name="total">    0.10    0.10</time>
   <energy>
    <i name="e_fr_energy">    -11.91939110 </i>
    <i name="e_wo_entrp">    -11.91939110 </i>
    <i name="e_0_energy">    -11.91939110 </i>
   </energy>
  </scstep>
  <scstep>
   <time name="dav">    0.06    0.06</time>
   <time name="total">    0.08    0.09</time>
   <energy>
    <i name="e_fr_energy">    -11.91939060 </i>
    <i name="e_wo_entrp">    -11.91939060 </i>
    <i name="e_0_energy">    -11.91939060 </i>
   </energy>
  </scstep>
  <scstep>
   <time name="dav">    0.03    0.03</time>
   <time name="total">    0.04    0.04</time>
   <energy>
    <i name="alphaZ">     15.79325893 </i>
    <i name="ewald">   -354.45312954 </i>
    <i name="hartreedc">   -141.81104114 </i>
    <i name="XCdc">    -20.67805330 </i>
    <i name="pawpsdc">    632.01391905 </i>
    <i name="pawaedc">   -581.63563962 </i>
    <i name="eentropy">     -0.00000000 </i>
    <i name="bandstr">    -16.54617080 </i>
    <i name="atom">    455.39746584 </i>
    <i name="e_fr_energy">    -11.91939057 </i>
    <i name="e_wo_entrp">    -11.91939057 </i>
    <i name="e_0_energy">    -11.91939057 </i>
   </energy>
  </scstep>
  <structure>
   <crystal>
    <varray name="basis" >
     <v>       3.00978800       0.00000000       0.00000000 </v>
     <v>       1.50489400       2.60655300       0.00000000 </v>
     <v>       1.50489400       0.86885100       2.45748200 </v>
    </varray>
    <i name="volume">     19.27936883 </i>
    <varray name="rec_basis" >
     <v>       0.33224931      -0.19182422      -0.13564019 </v>
     <v>       0.00000000       0.38364844      -0.13564019 </v>
     <v>       0.00000000       0.00000000       0.40692058 </v>
    </varray>
   </crystal>
   <varray name="positions" >
    <v>       0.50000000       0.50000000       0.50000000 </v>
    <v>       0.00000000       0.00000000       0.00000000 </v>
   </varray>
  </structure>
  <varray name="forces" >
   <v>       0.00000000       0.00000000       0.00000000 </v>
   <v>      -0.00000000      -0.00000000      -0.00000000 </v>
  </varray>
  <varray name="stress" >
   <v>     -12.02246045      -0.00000000      -0.00000000 </v>
   <v>      -0.00000000     -12.02246167      -0.00000000 </v>
   <v>       0.00000000      -0.00000000     -12.02246425 </v>
  </varray>
  <energy>
   <i name="e_fr_energy">    -11.91939057 </i>
   <i name="e_wo_entrp">    -11.91939057 </i>
   <i name="e_0_energy">     -0.00000000 </i>
  </energy>
  <time name="totalsc">    1.41    1.45</time>
  <eigenvalues>
   <array>
    <dimension dim="1">band</dimension>
    <dimension dim="2">kpoint</dimension>
    <dimension dim="3">spin</dimension>
    <field>eigene</field>
    <field>occ</field>
    <set>
     <set comment="spin 1">
      <set comment="kpoint 1">
       <r>  -13.5969    1.0000 </r>
       <r>    2.4102    1.0000 </r>
       <r>    3.2554    1.0000 </r>
       <r>    3.2554    1.0000 </r>
       <r>    8.6989    0.0000 </r>
       <r>   17.3085    0.0000 </r>
       <r>   19.3178    0.0000 </r>
       <r>   19.3178    0.0000 </r>
       <r>   23.5297    0.0000 </r>
       <r>   23.5297    0.0000 </r>
       <r>   24.8622    0.0000 </r>
       <r>   27.2579    0.0000 </r>
       <r>   28.6800    0.0000 </r>
       <r>   28.6800    0.0000 </r>
       <r>   38.8919    0.0000 </r>
       <r>   40.7988    0.0000 </r>
      </set>
      <set comment="kpoint 2">
       <r>  -12.9479    1.0000 </r>
       <r>    0.2545    1.0000 </r>
       <r>    2.4019    1.0000 </r>
       <r>    2.9618    1.0000 </r>
       <r>   11.1174    0.0000 </r>
       <r>   15.2395    0.0000 </r>
       <r>   18.6169    0.0000 </r>
       <r>   20.2908    0.0000 </r>
       <r>   22.1142    0.0000 </r>
       <r>   24.3294    0.0000 </r>
       <r>   26.4078    0.0000 </r>
       <r>   31.0597    0.0000 </r>
       <r>   32.3140    0.0000 </r>
       <r>   33.2065    0.0000 </r>
       <r>   35.5737    0.0000 </r>
       <r>   38.8454    0.0000 </r>
      </set>
      <set comment="kpoint 3">
       <r>  -12.5142    1.0000 </r>
       <r>   -0.8668    1.0000 </r>
       <r>    2.2531    1.0000 </r>
       <r>    2.6250    1.0000 </r>
       <r>   11.7228    0.0000 </r>
       <r>   15.4170    0.0000 </r>
       <r>   17.9101    0.0000 </r>
       <r>   19.7211    0.0000 </r>
       <r>   23.6976    0.0000 </r>
       <r>   25.9468    0.0000 </r>
       <r>   26.0236    0.0000 </r>
       <r>   32.2853    0.0000 </r>
       <r>   32.8703    0.0000 </r>
       <r>   33.2391    0.0000 </r>
       <r>   35.7935    0.0000 </r>
       <r>   37.5019    0.0000 </r>
      </set>
      <set comment="kpoint 4">
       <r>  -13.2354    1.0000 </r>
       <r>    1.1355    1.0000 </r>
       <r>    2.8886    1.0000 </r>
       <r>    2.8920    1.0000 </r>
       <r>   10.2859    0.0000 </r>
       <r>   15.4958    0.0000 </r>
       <r>   19.4179    0.0000 </r>
       <r>   19.9050    0.0000 </r>
       <r>   21.0700    0.0000 </r>
       <r>   24.9108    0.0000 </r>
       <r>   26.8690    0.0000 </r>
       <r>   29.9506    0.0000 </r>
       <r>   30.2580    0.0000 </r>
       <r>   30.9816    0.0000 </r>
       <r>   37.1774    0.0000 </r>
       <r>   38.9490    0.0000 </r>
      </set>
      <set comment="kpoint 5">
       <r>  -12.7133    1.0000 </r>
       <r>    0.0713    1.0000 </r>
       <r>    2.2027    1.0000 </r>
       <r>    2.4335    1.0000 </r>
       <r>   12.2134    0.0000 </r>
       <r>   13.9068    0.0000 </r>
       <r>   17.1600    0.0000 </r>
       <r>   20.7792    0.0000 </r>
       <r>   21.2349    0.0000 </r>
       <r>   27.0832    0.0000 </r>
       <r>   30.1453    0.0000 </r>
       <r>   30.3987    0.0000 </r>
       <r>   32.3277    0.0000 </r>
       <r>   34.8179    0.0000 </r>
       <r>   36.4647    0.0000 </r>
       <r>   37.8683    0.0000 </r>
      </set>
      <set comment="kpoint 6">
       <r>  -12.3040    1.0000 </r>
       <r>   -0.0421    1.0000 </r>
       <r>    0.9516    1.0000 </r>
       <r>    2.0255    1.0000 </r>
       <r>   13.7574    0.0000 </r>
       <r>   14.7660    0.0000 </r>
       <r>   15.5606    0.0000 </r>
       <r>   19.5463    0.0000 </r>
       <r>   22.9906    0.0000 </r>
       <r>   26.4440    0.0000 </r>
       <r>   29.9744    0.0000 </r>
       <r>   31.3990    0.0000 </r>
       <r>   32.6675    0.0000 </r>
       <r>   36.3331    0.0000 </r>
       <r>   38.8805    0.0000 </r>
       <r>   41.0854    0.0000 </r>
      </set>
      <set comment="kpoint 7">
       <r>  -12.5589    1.0000 </r>
       <r>   -0.2468    1.0000 </r>
       <r>    1.6892    1.0000 </r>
       <r>    2.5237    1.0000 </r>
       <r>   12.5827    0.0000 </r>
       <r>   14.7884    0.0000 </r>
       <r>   16.9313    0.0000 </r>
       <r>   20.1171    0.0000 </r>
       <r>   22.6959    0.0000 </r>
       <r>   25.3545    0.0000 </r>
       <r>   28.8625    0.0000 </r>
       <r>   31.6297    0.0000 </r>
       <r>   32.2326    0.0000 </r>
       <r>   34.8813    0.0000 </r>
       <r>   35.5234    0.0000 </r>
       <r>   41.0060    0.0000 </r>
      </set>
      <set comment="kpoint 8">
       <r>  -12.3398    1.0000 </r>
       <r>   -0.4042    1.0000 </r>
       <r>    1.6876    1.0000 </r>
       <r>    2.1410    1.0000 </r>
       <r>   12.8528    0.0000 </r>
       <r>   13.4856    0.0000 </r>
       <r>   16.0075    0.0000 </r>
       <r>   21.4723    0.0000 </r>
       <r>   21.4844    0.0000 </r>
       <r>   28.9143    0.0000 </r>
       <r>   29.3909    0.0000 </r>
       <r>   31.9631    0.0000 </r>
       <r>   32.6595    0.0000 </r>
       <r>   37.7932    0.0000 </r>
       <r>   38.1687    0.0000 </r>
       <r>   41.0964    0.0000 </r>
      </set>
      <set comment="kpoint 9">
       <r>  -12.7496    1.0000 </r>
       <r>   -0.6003    1.0000 </r>
       <r>    2.8188    1.0000 </r>
       <r>    2.8188    1.0000 </r>
       <r>   10.9291    0.0000 </r>
       <r>   15.4300    0.0000 </r>
       <r>   19.5243    0.0000 </r>
       <r>   19.5243    0.0000 </r>
       <r>   24.0698    0.0000 </r>
       <r>   24.4413    0.0000 </r>
       <r>   24.4413    0.0000 </r>
       <r>   31.8984    0.0000 </r>
       <r>   33.2100    0.0000 </r>
       <r>   33.2100    0.0000 </r>
       <r>   36.8390    0.0000 </r>
       <r>   36.8390    0.0000 </r>
      </set>
      <set comment="kpoint 10">
       <r>  -12.3873    1.0000 </r>
       <r>   -0.2835    1.0000 </r>
       <r>    1.0570    1.0000 </r>
       <r>    2.4937    1.0000 </r>
       <r>   13.0728    0.0000 </r>
       <r>   15.2306    0.0000 </r>
       <r>   16.1213    0.0000 </r>
       <r>   20.4263    0.0000 </r>
       <r>   22.5101    0.0000 </r>
       <r>   25.5487    0.0000 </r>
       <r>   29.0748    0.0000 </r>
       <r>   31.6134    0.0000 </r>
       <r>   32.0360    0.0000 </r>
       <r>   35.3635    0.0000 </r>
       <r>   37.2374    0.0000 </r>
       <r>   40.1099    0.0000 </r>
      </set>
     </set>
    </set>
   </array>
  </eigenvalues>
  <separator name="orbital magnetization" >
   <v name="MAGDIPOLOUT">      0.00000000      0.00000000      0.00000000</v>
  </separator>
  <dos>
   <i name="efermi">      3.54713430 </i>
   <total>
    <array>
     <dimension dim="1">gridpoints</dimension>
     <dimension dim="2">spin</dimension>
     <field>energy</field>
     <field>total</field>
     <field>integrated</field>
     <set>
      <set comment="spin 1">
       <r>   -16.3316     0.0000     0.0000 </r>
       <r>   -16.1311     0.0000     0.0000 </r>
       <r>   -15.9305     0.0000     0.0000 </r>
       <r>   -15.7300     0.0000     0.0000 </r>
       <r>   -15.5294     0.0000     0.0000 </r>
       <r>   -15.3289     0.0000     0.0000 </r>
       <r>   -15.1284     0.0000     0.0000 </r>
       <r>   -14.9278     0.0000     0.0000 </r>
       <r>   -14.7273     0.0000     0.0000 </r>
       <r>   -14.5267     0.0000     0.0000 </r>
       <r>   -14.3262     0.0000     0.0000 </r>
       <r>   -14.1257     0.0000     0.0000 </r>
       <r>   -13.9251     0.0000     0.0000 </r>
       <r>   -13.7246     0.0000     0.0000 </r>
       <r>   -13.5240     0.3055     0.0613 </r>
       <r>   -13.3235     0.0120     0.0637 </r>
       <r>   -13.1229     0.9283     0.2499 </r>
       <r>   -12.9224     0.7153     0.3933 </r>
       <r>   -12.7219     0.8428     0.5623 </r>
       <r>   -12.5213     2.6185     1.0875 </r>
       <r>   -12.3208     2.9706     1.6832 </r>
       <r>   -12.1202     1.5798     2.0000 </r>
       <r>   -11.9197     0.0000     2.0000 </r>
       <r>   -11.7191     0.0000     2.0000 </r>
       <r>   -11.5186     0.0000     2.0000 </r>
       <r>   -11.3181     0.0000     2.0000 </r>
       <r>   -11.1175     0.0000     2.0000 </r>
       <r>   -10.9170     0.0000     2.0000 </r>
       <r>   -10.7164     0.0000     2.0000 </r>
       <r>   -10.5159     0.0000     2.0000 </r>
       <r>   -10.3153     0.0000     2.0000 </r>
       <r>   -10.1148     0.0000     2.0000 </r>
       <r>    -9.9143     0.0000     2.0000 </r>
       <r>    -9.7137     0.0000     2.0000 </r>
       <r>    -9.5132     0.0000     2.0000 </r>
       <r>    -9.3126     0.0000     2.0000 </r>
       <r>    -9.1121     0.0000     2.0000 </r>
       <r>    -8.9116     0.0000     2.0000 </r>
       <r>    -8.7110     0.0000     2.0000 </r>
       <r>    -8.5105     0.0000     2.0000 </r>
       <r>    -8.3099     0.0000     2.0000 </r>
       <r>    -8.1094     0.0000     2.0000 </r>
       <r>    -7.9088     0.0000     2.0000 </r>
       <r>    -7.7083     0.0000     2.0000 </r>
       <r>    -7.5078     0.0000     2.0000 </r>
       <r>    -7.3072     0.0000     2.0000 </r>
       <r>    -7.1067     0.0000     2.0000 </r>
       <r>    -6.9061     0.0000     2.0000 </r>
       <r>    -6.7056     0.0000     2.0000 </r>
       <r>    -6.5050     0.0000     2.0000 </r>
       <r>    -6.3045     0.0000     2.0000 </r>
       <r>    -6.1040     0.0000     2.0000 </r>
       <r>    -5.9034     0.0000     2.0000 </r>
       <r>    -5.7029     0.0000     2.0000 </r>
       <r>    -5.5023     0.0000     2.0000 </r>
       <r>    -5.3018     0.0000     2.0000 </r>
       <r>    -5.1012     0.0000     2.0000 </r>
       <r>    -4.9007     0.0000     2.0000 </r>
       <r>    -4.7002     0.0000     2.0000 </r>
       <r>    -4.4996     0.0000     2.0000 </r>
       <r>    -4.2991     0.0000     2.0000 </r>
       <r>    -4.0985     0.0000     2.0000 </r>
       <r>    -3.8980     0.0000     2.0000 </r>
       <r>    -3.6975     0.0000     2.0000 </r>
       <r>    -3.4969     0.0000     2.0000 </r>
       <r>    -3.2964     0.0000     2.0000 </r>
       <r>    -3.0958     0.0000     2.0000 </r>
       <r>    -2.8953     0.0000     2.0000 </r>
       <r>    -2.6947     0.0000     2.0000 </r>
       <r>    -2.4942     0.0000     2.0000 </r>
       <r>    -2.2937     0.0000     2.0000 </r>
       <r>    -2.0931     0.0000     2.0000 </r>
       <r>    -1.8926     0.0000     2.0000 </r>
       <r>    -1.6920     0.0000     2.0000 </r>
       <r>    -1.4915     0.0000     2.0000 </r>
       <r>    -1.2909     0.0000     2.0000 </r>
       <r>    -1.0904     0.0000     2.0000 </r>
       <r>    -0.8899     0.2402     2.0482 </r>
       <r>    -0.6893     0.6966     2.1879 </r>
       <r>    -0.4888     0.3174     2.2515 </r>
       <r>    -0.2882     1.5693     2.5662 </r>
       <r>    -0.0877     2.3473     3.0370 </r>
       <r>     0.1128     2.5083     3.5400 </r>
       <r>     0.3134     1.0024     3.7410 </r>
       <r>     0.5139     0.0448     3.7500 </r>
       <r>     0.7145     0.0000     3.7500 </r>
       <r>     0.9150     0.2817     3.8065 </r>
       <r>     1.1156     2.7451     4.3570 </r>
       <r>     1.3161     0.7132     4.5000 </r>
       <r>     1.5166     0.0000     4.5000 </r>
       <r>     1.7172     2.2159     4.9444 </r>
       <r>     1.9177     0.5911     5.0629 </r>
       <r>     2.1183     2.1111     5.4863 </r>
       <r>     2.3188     2.5425     5.9962 </r>
       <r>     2.5194     3.7534     6.7489 </r>
       <r>     2.7199     2.1853     7.1871 </r>
       <r>     2.9204     2.2382     7.6360 </r>
       <r>     3.1210     1.1919     7.8750 </r>
       <r>     3.3215     0.6041     7.9962 </r>
       <r>     3.5221     0.0192     8.0000 </r>
       <r>     3.7226     0.0000     8.0000 </r>
       <r>     3.9232     0.0000     8.0000 </r>
       <r>     4.1237     0.0000     8.0000 </r>
       <r>     4.3242     0.0000     8.0000 </r>
       <r>     4.5248     0.0000     8.0000 </r>
       <r>     4.7253     0.0000     8.0000 </r>
       <r>     4.9259     0.0000     8.0000 </r>
       <r>     5.1264     0.0000     8.0000 </r>
       <r>     5.3269     0.0000     8.0000 </r>
       <r>     5.5275     0.0000     8.0000 </r>
       <r>     5.7280     0.0000     8.0000 </r>
       <r>     5.9286     0.0000     8.0000 </r>
       <r>     6.1291     0.0000     8.0000 </r>
       <r>     6.3297     0.0000     8.0000 </r>
       <r>     6.5302     0.0000     8.0000 </r>
       <r>     6.7307     0.0000     8.0000 </r>
       <r>     6.9313     0.0000     8.0000 </r>
       <r>     7.1318     0.0000     8.0000 </r>
       <r>     7.3324     0.0000     8.0000 </r>
       <r>     7.5329     0.0000     8.0000 </r>
       <r>     7.7335     0.0000     8.0000 </r>
       <r>     7.9340     0.0000     8.0000 </r>
       <r>     8.1345     0.0000     8.0000 </r>
       <r>     8.3351     0.0000     8.0000 </r>
       <r>     8.5356     0.0000     8.0000 </r>
       <r>     8.7362     0.2662     8.0534 </r>
       <r>     8.9367     0.0454     8.0625 </r>
       <r>     9.1372     0.0000     8.0625 </r>
       <r>     9.3378     0.0000     8.0625 </r>
       <r>     9.5383     0.0000     8.0625 </r>
       <r>     9.7389     0.0000     8.0625 </r>
       <r>     9.9394     0.0000     8.0625 </r>
       <r>    10.1400     0.0000     8.0625 </r>
       <r>    10.3405     0.8778     8.2385 </r>
       <r>    10.5410     0.0572     8.2500 </r>
       <r>    10.7416     0.0000     8.2500 </r>
       <r>    10.9421     0.2007     8.2903 </r>
       <r>    11.1427     0.8241     8.4555 </r>
       <r>    11.3432     0.2217     8.5000 </r>
       <r>    11.5438     0.0000     8.5000 </r>
       <r>    11.7443     0.6807     8.6365 </r>
       <r>    11.9448     0.2543     8.6875 </r>
       <r>    12.1454     0.0254     8.6926 </r>
       <r>    12.3459     0.9095     8.8750 </r>
       <r>    12.5465     0.2861     8.9324 </r>
       <r>    12.7470     1.5852     9.2503 </r>
       <r>    12.9476     0.9304     9.4368 </r>
       <r>    13.1481     0.9227     9.6219 </r>
       <r>    13.3486     0.0156     9.6250 </r>
       <r>    13.5492     0.9012     9.8057 </r>
       <r>    13.7497     0.8069     9.9676 </r>
       <r>    13.9503     1.9292    10.3544 </r>
       <r>    14.1508     0.1025    10.3750 </r>
       <r>    14.3513     0.0000    10.3750 </r>
       <r>    14.5519     0.0000    10.3750 </r>
       <r>    14.7524     0.9441    10.5643 </r>
       <r>    14.9530     2.7957    11.1250 </r>
       <r>    15.1535     0.0207    11.1291 </r>
       <r>    15.3541     1.8885    11.5079 </r>
       <r>    15.5546     2.9061    12.0907 </r>
       <r>    15.7551     1.1062    12.3125 </r>
       <r>    15.9557     0.0669    12.3259 </r>
       <r>    16.1562     1.6523    12.6573 </r>
       <r>    16.3568     0.1508    12.6875 </r>
       <r>    16.5573     0.0000    12.6875 </r>
       <r>    16.7579     0.0000    12.6875 </r>
       <r>    16.9584     1.4553    12.9794 </r>
       <r>    17.1589     0.8706    13.1539 </r>
       <r>    17.3595     0.7674    13.3078 </r>
       <r>    17.5600     0.0233    13.3125 </r>
       <r>    17.7606     0.0000    13.3125 </r>
       <r>    17.9611     0.8652    13.4860 </r>
       <r>    18.1617     0.0697    13.5000 </r>
       <r>    18.3622     0.0000    13.5000 </r>
       <r>    18.5627     0.0587    13.5118 </r>
       <r>    18.7633     0.8763    13.6875 </r>
       <r>    18.9638     0.0000    13.6875 </r>
       <r>    19.1644     0.0000    13.6875 </r>
       <r>    19.3649     0.6290    13.8136 </r>
       <r>    19.5654     2.7971    14.3746 </r>
       <r>    19.7660     1.4650    14.6684 </r>
       <r>    19.9665     0.9920    14.8673 </r>
       <r>    20.1671     1.7611    15.2205 </r>
       <r>    20.3676     1.1135    15.4438 </r>
       <r>    20.5682     0.9036    15.6250 </r>
       <r>    20.7687     0.3579    15.6968 </r>
       <r>    20.9692     0.5791    15.8129 </r>
       <r>    21.1698     0.9614    16.0057 </r>
       <r>    21.3703     0.9089    16.1880 </r>
       <r>    21.5709     1.8583    16.5606 </r>
       <r>    21.7714     0.0092    16.5625 </r>
       <r>    21.9720     0.0000    16.5625 </r>
       <r>    22.1725     0.8885    16.7407 </r>
       <r>    22.3730     0.0465    16.7500 </r>
       <r>    22.5736     0.9015    16.9308 </r>
       <r>    22.7741     1.8782    17.3075 </r>
       <r>    22.9747     0.6350    17.4348 </r>
       <r>    23.1752     1.2601    17.6875 </r>
       <r>    23.3757     0.0000    17.6875 </r>
       <r>    23.5763     0.5650    17.8008 </r>
       <r>    23.7768     0.9816    17.9977 </r>
       <r>    23.9774     0.0131    18.0003 </r>
       <r>    24.1779     0.3099    18.0624 </r>
       <r>    24.3785     0.8814    18.2392 </r>
       <r>    24.5790     0.6772    18.3750 </r>
       <r>    24.7795     0.0031    18.3756 </r>
       <r>    24.9801     1.2201    18.6203 </r>
       <r>    25.1806     0.0235    18.6250 </r>
       <r>    25.3812     1.4492    18.9156 </r>
       <r>    25.5817     1.1917    19.1546 </r>
       <r>    25.7823     0.1640    19.1875 </r>
       <r>    25.9828     0.9069    19.3694 </r>
       <r>    26.1833     0.9630    19.5625 </r>
       <r>    26.3839     0.3164    19.6260 </r>
       <r>    26.5844     2.4884    20.1250 </r>
       <r>    26.7850     0.0082    20.1266 </r>
       <r>    26.9855     0.9290    20.3129 </r>
       <r>    27.1861     0.9376    20.5010 </r>
       <r>    27.3866     0.3068    20.5625 </r>
       <r>    27.5871     0.0000    20.5625 </r>
       <r>    27.7877     0.0000    20.5625 </r>
       <r>    27.9882     0.0000    20.5625 </r>
       <r>    28.1888     0.0000    20.5625 </r>
       <r>    28.3893     0.0000    20.5625 </r>
       <r>    28.5898     0.0034    20.5632 </r>
       <r>    28.7904     0.6582    20.6952 </r>
       <r>    28.9909     2.7606    21.2488 </r>
       <r>    29.1915     0.9406    21.4374 </r>
       <r>    29.3920     0.4796    21.5336 </r>
       <r>    29.5926     0.4559    21.6250 </r>
       <r>    29.7931     0.0000    21.6250 </r>
       <r>    29.9936     2.1533    22.0568 </r>
       <r>    30.1942     1.5420    22.3661 </r>
       <r>    30.3947     1.4055    22.6479 </r>
       <r>    30.5953     0.5090    22.7500 </r>
       <r>    30.7958     0.0000    22.7500 </r>
       <r>    30.9964     0.6528    22.8809 </r>
       <r>    31.1969     1.2171    23.1250 </r>
       <r>    31.3974     0.9028    23.3060 </r>
       <r>    31.5980     1.6231    23.6315 </r>
       <r>    31.7985     2.1498    24.0626 </r>
       <r>    31.9991     1.2394    24.3112 </r>
       <r>    32.1996     1.2766    24.5672 </r>
       <r>    32.4001     4.3132    25.4322 </r>
       <r>    32.6007     0.1264    25.4576 </r>
       <r>    32.8012     2.7285    26.0047 </r>
       <r>    33.0018     0.9113    26.1875 </r>
       <r>    33.2023     0.8209    26.3521 </r>
       <r>    33.4029     1.6725    26.6875 </r>
       <r>    33.6034     0.0000    26.6875 </r>
       <r>    33.8039     0.0000    26.6875 </r>
       <r>    34.0045     0.0000    26.6875 </r>
       <r>    34.2050     0.0000    26.6875 </r>
       <r>    34.4056     0.0000    26.6875 </r>
       <r>    34.6061     0.0000    26.6875 </r>
       <r>    34.8067     0.3830    26.7643 </r>
       <r>    35.0072     2.4215    27.2499 </r>
       <r>    35.2077     0.0004    27.2500 </r>
       <r>    35.4083     0.8400    27.4185 </r>
       <r>    35.6088     2.7353    27.9670 </r>
       <r>    35.8094     0.7937    28.1262 </r>
       <r>    36.0099     0.3059    28.1875 </r>
       <r>    36.2105     0.0005    28.1876 </r>
       <r>    36.4110     1.9037    28.5694 </r>
       <r>    36.6115     0.9007    28.7500 </r>
       <r>    36.8121     0.1391    28.7779 </r>
       <r>    37.0126     0.4843    28.8750 </r>
       <r>    37.2132     1.0199    29.0795 </r>
       <r>    37.4137     0.8559    29.2512 </r>
       <r>    37.6142     0.9284    29.4374 </r>
       <r>    37.8148     0.7437    29.5865 </r>
       <r>    38.0153     1.1269    29.8125 </r>
       <r>    38.2159     0.8498    29.9829 </r>
       <r>    38.4164     0.0852    30.0000 </r>
       <r>    38.6170     0.0000    30.0000 </r>
       <r>    38.8175     0.2767    30.0555 </r>
       <r>    39.0180     3.7509    30.8077 </r>
       <r>    39.2186     0.0240    30.8125 </r>
       <r>    39.4191     0.0000    30.8125 </r>
       <r>    39.6197     0.0000    30.8125 </r>
       <r>    39.8202     0.0000    30.8125 </r>
       <r>    40.0208     0.0055    30.8136 </r>
       <r>    40.2213     0.9287    30.9998 </r>
       <r>    40.4218     0.0008    31.0000 </r>
       <r>    40.6224     0.0000    31.0000 </r>
       <r>    40.8229     0.2345    31.0470 </r>
       <r>    41.0235     1.4596    31.3397 </r>
       <r>    41.2240     3.2921    32.0000 </r>
       <r>    41.4246     0.0002    32.0000 </r>
       <r>    41.6251     0.0000    32.0000 </r>
       <r>    41.8256     0.0000    32.0000 </r>
       <r>    42.0262     0.0000    32.0000 </r>
       <r>    42.2267     0.0000    32.0000 </r>
       <r>    42.4273     0.0000    32.0000 </r>
       <r>    42.6278     0.0000    32.0000 </r>
       <r>    42.8283     0.0000    32.0000 </r>
       <r>    43.0289     0.0000    32.0000 </r>
       <r>    43.2294     0.0000    32.0000 </r>
       <r>    43.4300     0.0000    32.0000 </r>
       <r>    43.6305     0.0000    32.0000 </r>
       <r>    43.8311     0.0000    32.0000 </r>
      </set>
     </set>
    </array>
   </total>
  </dos>
 </calculation>
 <structure name="finalpos" >
  <crystal>
   <varray name="basis" >
    <v>       3.00978800       0.00000000       0.00000000 </v>
    <v>       1.50489400       2.60655300       0.00000000 </v>
    <v>       1.50489400       0.86885100       2.45748200 </v>
   </varray>
   <i name="volume">     19.27936883 </i>
   <varray name="rec_basis" >
    <v>       0.33224931      -0.19182422      -0.13564019 </v>
    <v>       0.00000000       0.38364844      -0.13564019 </v>
    <v>       0.00000000       0.00000000       0.40692058 </v>
   </varray>
  </crystal>
  <varray name="positions" >
   <v>       0.50000000       0.50000000       0.50000000 </v>
   <v>       0.00000000       0.00000000       0.00000000 </v>
  </varray>
 </structure>
</modeling>
