LAMMPS (10 Feb 2015)
# ---- initialize simulations
clear
units metal
dimension 3
boundary p p p
atom_style charge
atom_modify map array
# ---- create atoms
read_data /Users/eugeneragasa/pyflamestk_git/pypospack/tests/tests_integration/workflow/WorkflowLammpsThermalExpansion/MgO_NaCl_unit.npt.T1900/lammps.structure
  triclinic box = (0 0 0) to (4.2565 4.2565 4.2565) with tilt (0 0 0)
  1 by 1 by 1 MPI processor grid
  reading atoms ...
  8 atoms
# ---- define interatomic potential
include potential.mod
mass 1 24.305
mass 2 15.999

group Mg type 1
4 atoms in group Mg
group O type 2
4 atoms in group O

set group Mg charge 2.0
  4 settings made for charge
set group O charge -2.0
  4 settings made for charge

variable R_cut equal 10.0

pair_style buck/coul/long ${R_cut}
pair_style buck/coul/long 10
pair_coeff 1 1 0.0 0.5 0.0 ${R_cut}
pair_coeff 1 1 0.0 0.5 0.0 10
pair_coeff 1 2 821.6 0.3242 0.0 ${R_cut}
pair_coeff 1 2 821.6 0.3242 0.0 10
pair_coeff 2 2 2274.0 0.149 27.88 ${R_cut}
pair_coeff 2 2 2274.0 0.149 27.88 10

kspace_style pppm 1.0e-5

neighbor 1.0 bin
neigh_modify every 1 delay 0 check yes
# ---- define settings
compute eng all pe/atom
compute eatoms all reduce sum c_eng
# ---- run minimization
reset_timestep 0
fix 1 all box/relax iso 0.0 vmax 0.001
thermo 10
thermo_style custom step pe lx ly lz xy xz yz press pxx pyy pzz pxy pxz pyz c_eatoms
min_style cg
minimize 1e-25 1e-25 5000 10000
PPPM initialization ...
  G vector (1/distance) = 0.354854
  grid = 8 8 8
  stencil order = 5
  estimated absolute RMS force accuracy = 5.34408e-05
  estimated relative force accuracy = 3.71126e-06
  using double precision FFTs
  3d grid and FFT values/proc = 3375 512
Neighbor list info ...
  1 neighbor list requests
  update every 1 steps, delay 0 steps, check yes
  master list distance cutoff = 11
Memory usage per processor = 4.06549 Mbytes
Step PotEng Lx Ly Lz Xy Xz Yz Press Pxx Pyy Pzz Pxy Pxz Pyz eatoms 
       0   -162.12848       4.2565       4.2565       4.2565            0            0            0    -64012.53    -64012.53    -64012.53    -64012.53 -3.8759874e-11 -1.4292379e-10 -3.6687737e-10   -162.12848 
      10   -162.17871     4.213935     4.213935     4.213935            0            0            0   -4821.7526   -4821.7526   -4821.7526   -4821.7526 8.9106085e-11 8.5332225e-11 -4.2335946e-10   -162.17871 
      14   -162.17896    4.2106915    4.2106915    4.2106915            0            0            0    -1.347652    -1.347652    -1.347652    -1.347652 2.5597609e-11 1.0162971e-11 2.8091283e-10   -162.17896 
Loop time of 0.0558519 on 1 procs for 14 steps with 8 atoms

Minimization stats:
  Stopping criterion = linesearch alpha is zero
  Energy initial, next-to-last, final = 
        -162.128476026     -162.178964554     -162.178964554
  Force two-norm initial, final = 9.24344 0.000276677
  Force max component initial, final = 9.24344 0.000190436
  Final line search alpha, max atom move = 0.125 2.38044e-05
  Iterations, force evaluations = 14 33

Pair  time (%) = 0.0135455 (24.2525)
Kspce time (%) = 0.00432134 (7.73713)
Neigh time (%) = 0 (0)
Comm  time (%) = 0.00110912 (1.98583)
Outpt time (%) = 8.70228e-05 (0.15581)
Other time (%) = 0.0367889 (65.8687)

Nlocal:    8 ave 8 max 8 min
Histogram: 1 0 0 0 0 0 0 0 0 0
Nghost:    2189 ave 2189 max 2189 min
Histogram: 1 0 0 0 0 0 0 0 0 0
Neighs:    2344 ave 2344 max 2344 min
Histogram: 1 0 0 0 0 0 0 0 0 0

Total # of neighbors = 2344
Ave neighs/atom = 293
Neighbor list builds = 0
Dangerous builds = 0
unfix 1
# ---- define output variables ----
variable natoms equal "count(all)"
variable tot_energy equal "c_eatoms"
variable length_x equal "lx"
variable length_y equal "ly"
variable length_z equal "lz"
variable tilt_xy equal "xy"
variable tilt_xz equal "xz"
variable tilt_yz equal "yz"
variable tot_press equal "press"
variable press_xx equal "pxx"
variable press_yy equal "pyy"
variable press_zz equal "pzz"
variable press_xy equal "pxy"
variable press_xz equal "pxz"
variable press_yz equal "pyz"

# ---- output ----
print "pypospack:output_section:begin"
pypospack:output_section:begin
print "tot_energy = ${tot_energy}"
tot_energy = -162.17896455406
print "num_atoms = ${natoms}"
num_atoms = 8
print "xx = ${length_x}"
xx = 4.21069146013408
print "yy = ${length_y}"
yy = 4.21069146013408
print "zz = ${length_z}"
zz = 4.21069146013408
print "xy = ${tilt_xy}"
xy = 0
print "xz = ${tilt_xz}"
xz = 0
print "yz = ${tilt_yz}"
yz = 0
print "tot_press = ${tot_press}"
tot_press = -1.34765197939399
print "pxx = ${press_xx}"
pxx = -1.34765197919426
print "pyy = ${press_yy}"
pyy = -1.3476519793348
print "pzz = ${press_zz}"
pzz = -1.34765197965291
print "pxy = ${press_xy}"
pxy = 2.55976090046832e-11
print "pxz = ${press_xz}"
pxz = 1.01629705561986e-11
print "pyz = ${press_yz}"
pyz = 2.80912827691917e-10
print "pypospack:output_section:done"
pypospack:output_section:done
print "pypospack:lammps_sim:done"
pypospack:lammps_sim:done
#------------------------------------------------------------------------------
# RUN THERMOSTAT
# running using an NPT Nose-Hoover style thermostat
#------------------------------------------------------------------------------
variable tempdamp equal 0.1
variable pressdamp equal 1.0
# set initial velocities
velocity all create 1900 7161578 mom yes dist gaussian loop all
# fix for Nose-Hoover style thermostat
fix 20 all npt temp 1900 1900 0.1 aniso 0.0 0.0 1.0 drag 1.0 couple xyz
variable boxx equal lx
variable boxy equal ly
variable boxz equal lz
variable boxp equal press
variable boxt equal temp
# calculate averages every 10000 steps
reset_timestep 0
fix 21 all ave/time 10 10 100 v_boxx v_boxy v_boxz v_boxp v_boxt file lattice.out
thermo_style custom step temp pe ke etotal press lx ly lz press pxx pyy pzz pxy pxz pyz vol
thermo_modify flush yes
thermo 100
run 100000
PPPM initialization ...
  G vector (1/distance) = 0.355384
  grid = 8 8 8
  stencil order = 5
  estimated absolute RMS force accuracy = 5.2136e-05
  estimated relative force accuracy = 3.62065e-06
  using double precision FFTs
  3d grid and FFT values/proc = 3375 512
Memory usage per processor = 3.06549 Mbytes
Step Temp PotEng KinEng TotEng Press Lx Ly Lz Press Pxx Pyy Pzz Pxy Pxz Pyz Volume 
       0         1900   -162.17896    1.7191599    -160.4598    24596.109    4.2106915    4.2106915    4.2106915    24596.109    25075.882    26636.302    22076.143   -7377.8949   -3680.9518    9452.0237    74.655234 
     100    1276.9259   -161.39543    1.1553894   -160.24004    27662.526    4.2398198    4.2398198    4.2398198    27662.526    24079.061    40776.991    18131.528   -5781.4922   -12030.327   -2917.2576    76.215307 
     200    1662.4996   -161.30117    1.5042646    -159.7969   -30829.091    4.2926915    4.2926915    4.2926915   -30829.091   -22773.021   -8264.2831   -61449.971    6119.2297   -9580.1413    805.15669    79.102288 
     300    1550.8443   -160.77128    1.4032365   -159.36805   -36032.651    4.3166655    4.3166655    4.3166655   -36032.651   -20069.868   -25461.133   -62566.953   -17320.124    7864.9553    20518.042    80.435022 
     400    1516.3101   -160.38655    1.3719893   -159.01456   -30710.844    4.2992027    4.2992027    4.2992027   -30710.844   -45984.433    -44114.49   -2033.6099   -12669.614       1594.9    15481.316     79.46278 
     500    1031.8454   -159.71484   0.93363536   -158.78121    45925.341    4.2774727    4.2774727    4.2774727    45925.341    53600.745    71199.287    12975.991    25738.872    27325.202    732.37489    78.263944 
     600    982.58578   -159.60154   0.88906426   -158.71247    43807.474    4.2918659    4.2918659    4.2918659    43807.474     64724.93     87827.82   -21130.328   -1285.5043    37528.257   -5054.0059    79.056656 
     700    2205.0352   -160.67977    1.9951622   -158.68461   -70666.433    4.3115237    4.3115237    4.3115237   -70666.433   -68793.371   -56848.761   -86357.165   -2022.3953    17019.997   -19214.487    80.147933 
     800    1680.4301   -160.18085    1.5204885   -158.66036    557.40302    4.2968061    4.2968061    4.2968061    557.40302    80024.288   -24995.498   -53356.581    -26360.58    1219.7056    10008.753    79.329965 
     900    2141.4426   -160.61032    1.9376222    -158.6727    23126.932    4.2828007    4.2828007    4.2828007    23126.932    84529.286    22704.821    -37853.31    7002.3362   -8351.5055    17380.088    78.556768 
    1000    2534.9103    -161.0078    2.2936401   -158.71416   -22795.799    4.2909045    4.2909045    4.2909045   -22795.799    46372.471   -50091.283   -64668.586     18477.04   -15285.387    20338.727    79.003539 
    1100    2053.6587   -160.57594    1.8581936   -158.71775    5696.0481    4.2997408    4.2997408    4.2997408    5696.0481     35803.42   -23537.215    4821.9396   -18340.277    11015.595   -1923.8274    79.492625 
    1200    1678.1525   -160.21516    1.5184276   -158.69673     32619.93    4.2974405    4.2974405    4.2974405     32619.93    32455.758   -19464.993    84869.026   -34068.942    12280.817    2888.5751    79.365107 
    1300    1923.5276   -160.43596    1.7404482   -158.69551   -4708.7307    4.3038789    4.3038789    4.3038789   -4708.7307   -35814.918    -24325.28    46014.006    20062.927    27792.452    10064.853    79.722359 
    1400    2213.6992   -160.68186    2.0030015   -158.67885    -33707.36    4.3036615    4.3036615    4.3036615    -33707.36   -32726.311   -34881.562   -33514.205    15206.691    17969.274   -17318.641    79.710276 
    1500    1267.5554    -159.8092    1.1469108   -158.66229    36076.539     4.275686     4.275686     4.275686    36076.539    87762.743   -4620.9209    25087.795   -32786.097   -6129.3769    3342.6686    78.165917 
    1600    1519.1866   -160.08181     1.374592   -158.70722    57944.556    4.2807566    4.2807566    4.2807566    57944.556    112824.03    66133.203   -5123.5699    34643.031    -21017.15   -10593.692     78.44434 
    1700    1775.7581   -160.36693    1.6067432   -158.76019   -46497.521    4.3424874    4.3424874    4.3424874   -46497.521   -44301.078   -53168.188   -42023.296   -3011.7875   -10455.397   -4129.9012     81.88714 
    1800    1987.0904    -160.4435    1.7979611   -158.64554   -63528.483    4.3459134    4.3459134    4.3459134   -63528.483   -31274.641   -82173.991   -77136.816   -27861.202    5766.1645   -1714.9111    82.081106 
    1900    1550.8649   -159.98165    1.4032551   -158.57839    67357.408    4.2712514    4.2712514    4.2712514    67357.408    103372.47      90701.5    7998.2567   -2343.3095    42127.835    5642.6603    77.922955 
    2000    2371.9511   -160.74646    2.1461912   -158.60027    56457.646     4.252825     4.252825     4.252825    56457.646    164657.63    7167.9538   -2452.6471    10925.494      15372.6   -5197.9793    76.918808 
    2100    1352.3427   -159.98551    1.2236281   -158.76188   -14406.245    4.3265727    4.3265727    4.3265727   -14406.245    60660.518   -9349.1591   -94530.093     26477.26    34517.047     7936.634    80.990114 
    2200    1022.4496   -159.56358   0.92513392   -158.63845   -16958.244    4.3577504    4.3577504    4.3577504   -16958.244    110850.88   -27349.544   -134376.07     29243.66    -12444.32    19630.709    82.753632 
    2300    1973.0853   -160.35154     1.785289   -158.56625     -3665.17    4.3163804    4.3163804    4.3163804     -3665.17    133650.39   -52896.168   -91749.728    27882.986   -25721.855    7622.4887    80.419085 
    2400    2012.4567   -160.41745    1.8209131   -158.59654   -6742.4299    4.2887981    4.2887981    4.2887981   -6742.4299    37810.006   -28561.604   -29475.691   -25613.273   -9848.5137   -18146.458     78.88725 
    2500    1759.8987   -160.27325    1.5923934   -158.68086    18849.612    4.2987938    4.2987938    4.2987938    18849.612    28478.844    32180.803   -4110.8103   -6750.5035   -1187.5554   -14429.604    79.440108 
    2600    1946.9147   -160.44801    1.7616093    -158.6864    19686.197    4.3117326    4.3117326    4.3117326    19686.197    58237.936    29194.778   -28374.123   -1387.4454    6202.0112    22838.289    80.159583 
    2700    1894.8699   -160.39445    1.7145181   -158.67993    11752.357     4.316481     4.316481     4.316481    11752.357    91129.372   -51245.875    -4626.427   -24394.727   -2232.4941   -6995.0672    80.424709 
    2800    1464.4694   -160.00076    1.3250827   -158.67568   -19446.847    4.3234337    4.3234337    4.3234337   -19446.847   -26164.598   -103344.66    71168.714    -20623.04   -7995.8794    2455.5306    80.813966 
    2900    1540.5089   -160.05667    1.3938848   -158.66279    -18738.68    4.2992927    4.2992927    4.2992927    -18738.68   -51820.015   -71483.284    67087.258   -32644.338   -6895.0951   -309.19563    79.467775 
    3000    2005.4174   -160.46974    1.8145438   -158.65519    30214.781    4.2590729    4.2590729    4.2590729    30214.781   -5923.3299   -6748.9666    103316.64   -3184.1306   -5091.7786   -26000.047    77.258315 
    3100    2225.9319   -160.73818      2.01407   -158.72411    47342.795    4.2715052    4.2715052    4.2715052    47342.795    11659.181    19989.706     110379.5   -12790.986   -13456.544   -5691.2385    77.936845 
    3200    1814.1904   -160.40246    1.6415176   -158.76094   -8893.2731    4.3403532    4.3403532    4.3403532   -8893.2731     4216.642   -38371.506    7475.0444     548.3965   -1710.1441   -25729.534    81.766461 
    3300    2344.6243   -160.73711    2.1214654   -158.61565   -103308.82    4.3761054    4.3761054    4.3761054   -103308.82   -75962.206   -107508.88   -126455.37   -21156.435   -7365.3675    6430.6186    83.803725 
    3400    1317.0846   -159.72959    1.1917258   -158.53786    17658.855    4.3375725    4.3375725    4.3375725    17658.855   -52005.815   -44540.927    149523.31   -6495.8408    23720.024   -2714.8878    81.609412 
    3500    1443.9638   -159.85054    1.3065288   -158.54401   -9692.4044    4.2894111    4.2894111    4.2894111   -9692.4044   -45776.488   -49421.952    66121.227    25343.572    20887.344    8989.5433    78.921079 
    3600    1370.3861    -159.8419    1.2399542   -158.60195    7986.3775    4.2605794    4.2605794    4.2605794    7986.3775    7084.4716    34397.017   -17522.356    26226.398    43020.108    19178.965    77.340325 
    3700    1884.5478   -160.37592    1.7051784   -158.67074   -34519.473    4.2691244    4.2691244    4.2691244   -34519.473   -20154.262   -24948.233   -58455.926    12971.561    33844.005    44446.226    77.806599 
    3800    1642.1858   -160.17791    1.4858842   -158.69202    8358.4772    4.2911854    4.2911854    4.2911854    8358.4772    28716.289   -7473.8482    3832.9906   -612.16751   -1129.6356    41663.506    79.019057 
    3900     1680.291   -160.20662    1.5203626   -158.68626    20546.062    4.3169335    4.3169335    4.3169335    20546.062    81213.264   -43452.337    23877.258    209.82623    15607.563    35386.546    80.450005 
    4000    1695.4677   -160.19443    1.5340948   -158.66034    -16029.72    4.3388502    4.3388502    4.3388502    -16029.72    44429.286   -110962.77    18444.324    3592.8134     27152.64    2260.0586    81.681548 
    4100    2587.6569   -160.95122    2.3413664   -158.60986    -63816.49    4.3262412    4.3262412    4.3262412    -63816.49   -42406.879   -114214.11    -34828.48   -26004.393    14450.206   -38734.544    80.971499 
    4200    2019.9136   -160.41732    1.8276603   -158.58966   -8335.9614    4.2903433    4.2903433    4.2903433   -8335.9614   -11467.673   -43416.062    29875.851   -28303.983   -6656.5159    8451.7317    78.972544 
    4300    1614.1063   -160.09353    1.4604773   -158.63306    38787.595    4.2742591    4.2742591    4.2742591    38787.595    12491.626    3889.5563    99981.602   -8127.8036   -8000.5175    4462.9685    78.087682 
    4400    1844.4606   -160.37349    1.6689067   -158.70459    11690.127    4.3003477    4.3003477    4.3003477    11690.127    836.06128    -24939.26    59173.581   -7136.7677    18274.706   -10733.498    79.526288 
    4500    2054.6309   -160.55477    1.8590732    -158.6957   -42486.473    4.3399254    4.3399254    4.3399254   -42486.473   -38977.857   -29484.651   -58996.911   -717.77058    18916.437    10148.789    81.742291 
    4600    1552.8811   -160.03632    1.4050794   -158.63124    19079.622    4.3356159    4.3356159    4.3356159    19079.622   -12417.858    7034.2095    62622.513   -6474.7631    -16502.66     -6057.75     81.49902 
    4700    2090.0765   -160.48095    1.8911451   -158.58981    47689.484    4.2897667    4.2897667    4.2897667    47689.484    89173.787    3506.9343     50387.73    21675.191   -49045.451   -10277.075    78.940709 
    4800    2626.8849   -160.95712    2.3768607   -158.58026    31494.589    4.2492784    4.2492784    4.2492784    31494.589    67704.797     30819.12   -4040.1489    9035.7454   -28472.112    1569.7433    76.726528 
    4900    2545.3879   -160.97763    2.3031204   -158.67451    7622.5117    4.2591687    4.2591687    4.2591687    7622.5117   -13835.952    35433.854    1269.6334    21575.838   -32395.715    1312.8007    77.263526 
    5000    1791.4135   -160.34109    1.6209086   -158.72018   -27298.591    4.3125609    4.3125609    4.3125609   -27298.591   -62087.639   -58509.121    38700.988    17700.519    3482.1222   -20165.984     80.20579 
    5100    1474.5544   -159.96142    1.3342078   -158.62721    14633.885     4.331524     4.331524     4.331524    14633.885    2252.6952   -21565.855    63214.816    -3597.118     5792.593   -34663.189    81.268486 
    5200    2232.1529    -160.5863    2.0196989    -158.5666    250.57298    4.3183289    4.3183289    4.3183289    250.57298    28682.866    -22204.67   -5726.4774   -1587.2428    7955.6226   -40380.362    80.528044 
    5300    1936.0707   -160.34759    1.7517975   -158.59579    23152.856    4.3082775    4.3082775    4.3082775    23152.856    52530.685     10513.63    6414.2548   -2187.3524    5262.6152   -38786.964    79.967037 
    5400    1544.4266   -160.03987    1.3974296   -158.64244    3475.5449    4.3090127    4.3090127    4.3090127    3475.5449   -28621.391    46807.729   -7759.7041   -2894.3237    18332.291   -16004.408    80.007985 
    5500    1342.3093   -159.87371    1.2145497   -158.65916    -27781.44    4.3003769    4.3003769    4.3003769    -27781.44   -38826.096   -31184.463    -13333.76    -10265.59    59625.405   -33651.043    79.527908 
    5600    1815.1527   -160.27813    1.6423883   -158.63574    7854.8659    4.2673324    4.2673324    4.2673324    7854.8659    33515.089   -2309.8199   -7640.6711   -27969.798    36102.042    3886.8852    77.708659 
    5700    2069.6275    -160.5597    1.8726424   -158.68706    35393.951    4.2825396    4.2825396    4.2825396    35393.951    18382.528    7226.6465    80572.679   -23946.735   -1753.3575   -2704.3593    78.542398 
    5800     2415.998   -160.87585    2.1860458   -158.68981   -69432.697    4.3457437    4.3457437    4.3457437   -69432.697   -63731.892   -129193.53   -15372.675   -368.89376   -32649.549   -10896.697    82.071494 
    5900    1399.2868   -159.82569    1.2661041   -158.55958   -8306.2014    4.3499871    4.3499871    4.3499871   -8306.2014    30368.568   -80867.106    25579.934     -19153.4     26644.31     7362.993    82.312144 
    6000    1397.3054   -159.75091    1.2643113    -158.4866    29729.397    4.3009074    4.3009074    4.3009074    29729.397     7988.802   -41633.524    122832.91    37360.404    24955.312   -25345.204    79.557342 
    6100    1925.5336   -160.24056    1.7422633    -158.4983    35658.156    4.2689034    4.2689034    4.2689034    35658.156    28948.698    7178.8525    70846.917    39370.442    10168.284   -6802.3621    77.794515 
    6200    2137.4363   -160.52289    1.9339973   -158.58889   -1703.1645     4.270304     4.270304     4.270304   -1703.1645   -21379.389   -28544.933    44814.828    34925.233    7252.8112   -13657.883    77.871114 
    6300    2018.9136   -160.47759    1.8267555   -158.65084    1111.7696    4.2763115    4.2763115    4.2763115    1111.7696    15273.686   -37528.977      25590.6    23436.073    8675.9164   -12444.687    78.200226 
    6400    2522.2662   -160.96963    2.2821994   -158.68743   -7504.4369    4.2967604    4.2967604    4.2967604   -7504.4369   -32412.804   -45979.444    55878.937   -2365.8268   -11194.015    5937.9395    79.327432 
    6500    2866.0617   -161.25669    2.5932728   -158.66342   -65966.436    4.3198931    4.3198931    4.3198931   -65966.436   -70896.395   -93317.243   -33685.671    4825.4357   -9557.1448    601.57436    80.615584 
    6600    2265.2701   -160.67674     2.049664   -158.62707   -47398.504    4.2972619    4.2972619    4.2972619   -47398.504   -62407.399    -54028.39   -25759.724    3162.0812   -10331.572    10958.952    79.355216 
    6700    1943.2066   -160.37616    1.7582542   -158.61791    5429.7841    4.2608139    4.2608139    4.2608139    5429.7841   -14529.114    6294.6575    24523.809      49451.8   -930.92577    21449.802    77.353098 
    6800    1681.3573   -160.18433    1.5213274   -158.66301    3875.1592    4.2529321    4.2529321    4.2529321    3875.1592    5899.3372   -25534.782    31260.923    84236.744    -1406.272    23021.469    76.924616 
    6900     1609.179    -160.1592     1.456019   -158.70318    9494.9627    4.2668706    4.2668706    4.2668706    9494.9627   -640.30441    -17878.42    47003.613    57026.965    5847.1947     8184.659    77.683433 
    7000    1998.3971   -160.51109    1.8081917    -158.7029    7360.4301     4.292382     4.292382     4.292382    7360.4301    30964.603    -5062.368   -3820.9444     15642.16    10584.311    7977.2244    79.085175 
    7100     1880.671   -160.38028    1.7016707   -158.67861   -606.08034    4.3166798    4.3166798    4.3166798   -606.08034    18426.315    3154.8011   -23399.358   -9649.6469    28357.365    4945.8508    80.435823 
    7200    1504.4474   -159.99071    1.3612556   -158.62945   -4945.2142    4.3169942    4.3169942    4.3169942   -4945.2142    6260.8914   -6159.0198   -14937.514   -7333.8458    40713.997   -12525.692    80.453397 
    7300    1916.7471   -160.33228    1.7343131   -158.59797    53598.871    4.2854371    4.2854371    4.2854371    53598.871    90975.674    44122.649    25698.292    19639.021    28252.137    167.24374    78.701928 
    7400    2291.3718   -160.69243    2.0732813   -158.61915    30666.896    4.2855954    4.2855954    4.2855954    30666.896    74773.881   -851.30374    18078.111   -5959.8871    -1039.552    24717.503    78.710653 
    7500    2293.8812   -160.74659    2.0755519   -158.67103   -29246.077    4.3227696    4.3227696    4.3227696   -29246.077   -38624.795   -67828.543    18715.107    -12513.92   -10018.714    9143.1999    80.776728 
    7600    2842.0848   -161.21483    2.5715781   -158.64325   -78037.305    4.3449918    4.3449918    4.3449918   -78037.305   -85438.305    -112820.6   -35853.012    14455.435   -14125.785   -9728.9583    82.028898 
    7700    2046.3704   -160.45353     1.851599   -158.60193   -54225.004    4.3312246    4.3312246    4.3312246   -54225.004   -2597.0817    -91068.63     -69009.3   -2921.2487   -19385.499   -3683.6109    81.251634 
    7800    1673.6637   -160.09704    1.5143661   -158.58268   -4365.0477    4.2980631    4.2980631    4.2980631   -4365.0477   -40567.457    49234.899   -21762.585   -16090.079   -28734.633   -8655.6857    79.399608 
    7900    1539.1616   -159.98819    1.3926658   -158.59553    28514.819    4.2716369    4.2716369    4.2716369    28514.819     28091.59    80270.334   -22817.468    4278.9522    18060.631   -23113.564    77.944054 
    8000    1763.6552   -160.25488    1.5957922   -158.65909    13495.162    4.2799733    4.2799733    4.2799733    13495.162    30606.719    25256.856   -15378.088    1061.9775    48538.931   -3406.2534    78.401286 
    8100    1784.7288   -160.30407    1.6148602   -158.68921   -11101.611    4.3107644    4.3107644    4.3107644   -11101.611    33084.742   -22762.008   -43627.568    1598.8884    52039.304    580.16905    80.105598 
    8200    1622.5608   -160.11373    1.4681271    -158.6456   -30572.351    4.3260529    4.3260529    4.3260529   -30572.351   -20773.733   -43139.177   -27804.144    11152.321    9141.7619   -1186.2032    80.960928 
    8300    2141.4794   -160.53462    1.9376556   -158.59697   -11069.297    4.3079917    4.3079917    4.3079917   -11069.297    1987.3647   -55638.417     20443.16    14920.362   -45374.879    22227.264    79.951123 
    8400    2613.0925   -160.93211     2.364381   -158.56773    4006.9153    4.2853193    4.2853193    4.2853193    4006.9153   -30121.345   -24199.544    66341.634    12884.058   -13552.583    2624.7639    78.695438 
    8500    2119.5469   -160.53512    1.9178106   -158.61731   -11108.806     4.293304     4.293304     4.293304   -11108.806   -69096.315   -37261.368    73031.266   -6691.7092    17807.282    27595.155    79.136149 
    8600    2010.1263   -160.46494    1.8188046   -158.64613    1325.2496    4.3034975    4.3034975    4.3034975    1325.2496   -45206.615    17846.393    31335.971   -5145.6414    29868.574    3864.2521    79.701164 
    8700    1761.5021   -160.23366    1.5938441   -158.63982    28594.026    4.3024908    4.3024908    4.3024908    28594.026   -33476.168    70139.723    49118.522   -5349.4522    28903.308   -6586.8849    79.645247 
    8800    1722.0534   -160.19263    1.5581501   -158.63447    25519.908    4.3049484    4.3049484    4.3049484    25519.908   -61580.866    70412.807    67727.784   -6796.7038    4952.1836   -2903.7845    79.781805 
    8900     1980.882   -160.41385    1.7923437   -158.62151    39704.846    4.2958388    4.2958388    4.2958388    39704.846   -8820.0382    109350.33    18584.244   -4871.2841   -4569.1035   -11771.045    79.276404 
    9000     2318.906   -160.70105    2.0981949   -158.60285   -10206.918    4.2819933    4.2819933    4.2819933   -10206.918   -57058.797    13687.203     12750.84    24471.962   -16916.804     18058.35    78.512343 
    9100    2225.6321   -160.64901    2.0137987   -158.63521    18301.752    4.2823915    4.2823915    4.2823915    18301.752    16080.826   -33906.568    72730.998    22642.261   -37222.788    947.64377    78.534253 
    9200    2398.0272   -160.84727    2.1697854   -158.67749   -6098.4975    4.3176642    4.3176642    4.3176642   -6098.4975    41670.049   -25306.461   -34659.081    13675.538   -27282.129   -32923.709    80.490863 
    9300    2466.0834   -160.83898    2.2313641   -158.60761   -86574.719    4.3484668    4.3484668    4.3484668   -86574.719    -94896.91   -117246.34   -47580.908   -7618.1414    7907.9281    14090.701    82.225872 
    9400    1313.8818   -159.74146    1.1888279   -158.55263    12896.394    4.3192254    4.3192254    4.3192254    12896.394    73699.352   -15152.383   -19857.787    1215.3253   -25503.002    58538.731    80.578208 
    9500     1990.164   -160.30147    1.8007422   -158.50072    26197.406    4.2719043    4.2719043    4.2719043    26197.406    84763.762    -63345.29    57173.745   -7286.0417    -11687.41    -294.2436    77.958692 
    9600    2683.0516   -160.99819    2.4276815   -158.57051   -8433.6569    4.2756266    4.2756266    4.2756266   -8433.6569   -42848.639   -65112.588    82660.256    -33124.31    5987.0439   -27056.446    78.162656 
    9700    1929.4162   -160.37575    1.7457763   -158.62998    -18943.77    4.2995466    4.2995466    4.2995466    -18943.77   -29380.221   -75922.173    48471.086   -32437.975   -2163.3595    2321.4069    79.481855 
    9800    1018.6867   -159.54404   0.92172911   -158.62231    36688.671    4.3006549    4.3006549    4.3006549    36688.671    44547.414   -5926.2479    71444.848   -17247.876    -2128.651    63206.168    79.543333 
    9900    1390.8414   -159.88109    1.2584625   -158.62263    54809.912    4.3022825    4.3022825    4.3022825    54809.912    33189.696    80089.297    51150.743   -27184.272    2132.8812    51698.523    79.633678 
   10000    1998.1129   -160.41806    1.8079346   -158.61013   -4503.2816    4.3093069    4.3093069    4.3093069   -4503.2816    9231.4717   -27342.445    4601.1287    -26740.88   -11909.788   -11659.775    80.024374 
   10100    2347.7983   -160.72132    2.1243373   -158.59699    3573.1252    4.2932688    4.2932688    4.2932688    3573.1252    16429.215   -38.006963   -5671.8324   -25538.447   -13838.843     2383.796    79.134207 
   10200    2575.0891   -160.96447    2.3299947   -158.63448    12700.915    4.2842657    4.2842657    4.2842657    12700.915    54545.049   -4589.8699   -11852.434   -1232.1344    2833.2388   -1888.9985    78.637406 
   10300    2274.2358   -160.72986    2.0577764   -158.67208     968.5081    4.2986108    4.2986108    4.2986108     968.5081    54064.188   -29834.929   -21323.735    5317.6783    11468.084   -26143.198    79.429964 
   10400    2288.4981   -160.72992    2.0706811   -158.65924   -3634.6114     4.306548     4.306548     4.306548   -3634.6114      13338.9    7420.1285   -31662.863    31336.292   -2456.4094   -4736.3188    79.870774 
   10500    2100.3443   -160.53425    1.9004357   -158.63381    21388.098    4.2977321    4.2977321    4.2977321    21388.098    48558.024    -9747.519    25353.787    39597.903   -14886.012    12906.191    79.381263 
   10600    1920.4513   -160.36607    1.7376647    -158.6284   -8971.1312    4.2966865    4.2966865    4.2966865   -8971.1312    48185.572   -51442.374   -23656.592    10853.736    11980.987    694.32108    79.323343 
   10700    2288.0982   -160.71914    2.0703193   -158.64882   -14830.705    4.3044071    4.3044071    4.3044071   -14830.705   -31240.659   -40061.368    26809.911    5670.7406   -5445.1297    8326.9593    79.751714 
   10800    2021.4364   -160.46956    1.8290381   -158.64052    18165.583    4.3007801    4.3007801    4.3007801    18165.583    100391.97   -6527.7385    -39367.48    24971.096   -4575.4544    20669.841    79.550282 
   10900    2720.2324   -161.09641    2.4613234   -158.63509   -18108.181     4.281872     4.281872     4.281872   -18108.181    13268.443   -23798.019   -43794.966   -2515.2306     12290.24     8184.851    78.505673 
   11000    2169.9611   -160.60583    1.9634264    -158.6424    33793.567    4.2571461    4.2571461    4.2571461    33793.567    79784.209    24215.029   -2618.5367   -16625.608   -5629.8997    358.54924    77.153506 
   11100    1930.2097   -160.45132    1.7464943   -158.70483    46758.655    4.2709752    4.2709752    4.2709752    46758.655    91304.261    26717.264     22254.44    -39111.54   -2164.0117   -1316.0619    77.907835 
   11200    1280.4805   -159.88038    1.1586057   -158.72178   -4640.7321    4.3257251    4.3257251    4.3257251   -4640.7321    103743.79   -45998.864    -71667.12   -26008.731    3264.8984    11432.545    80.942528 
   11300    1400.5072   -159.89571    1.2672083    -158.6285    11105.085    4.3405923    4.3405923    4.3405923    11105.085    143350.81   -29014.417   -81021.136    27471.946    5809.5271   -3886.9697    81.779977 
   11400    2206.6961   -160.57587     1.996665    -158.5792    12361.479    4.3100121    4.3100121    4.3100121    12361.479    41161.471    26303.816    -30380.85   -1420.3754   -31668.386    16571.775    80.063663 
   11500    1913.1061    -160.3219    1.7310186   -158.59088    27746.845    4.2950877    4.2950877    4.2950877    27746.845    67238.057     45108.83   -29106.351     7107.808   -9200.6137    6178.2761    79.234826 
   11600    1732.2194   -160.21586    1.5673485   -158.64851    8056.7397    4.3139289    4.3139289    4.3139289    8056.7397    81116.865   -48760.413   -8186.2322    1785.5724    -10759.36   -55505.748     80.28214 
   11700    1983.7668    -160.4102    1.7949539   -158.61525    -26251.37    4.3130255    4.3130255    4.3130255    -26251.37    49625.207   -79716.068    -48663.25    9499.4396   -6139.7982   -17899.265    80.231717 
   11800    2725.5398   -161.06527    2.4661257   -158.59915   -21695.465    4.3001994    4.3001994    4.3001994   -21695.465   -78862.142    -35101.67    48877.416    1911.0358   -13105.551    26382.405    79.518061 
   11900    1594.7403   -160.08211    1.4429545   -158.63915   -39783.628    4.3165088    4.3165088    4.3165088   -39783.628   -26281.538   -25393.974   -67675.373   -8853.1534    32808.818   -14806.453    80.426263 
   12000     1162.311   -159.65601    1.0516835   -158.60433   -12555.793    4.3034486    4.3034486    4.3034486   -12555.793   -9154.3321    12502.235   -41015.283   -5870.8178    17986.193   -18133.218    79.698447 
   12100    1721.9723   -160.12928    1.5580767    -158.5712    47510.776    4.2817938    4.2817938    4.2817938    47510.776   -10004.296    86753.081    65783.542   -10442.251   -5236.1464   -16376.577    78.501373 
   12200    1820.9324     -160.292    1.6476179   -158.64438    24471.483    4.3047942    4.3047942    4.3047942    24471.483    18462.664    74173.775   -19221.991    17475.449   -8769.2652   -11687.164    79.773231 
   12300    2355.1133   -160.74339    2.1309561   -158.61244   -44395.891    4.3153705    4.3153705    4.3153705   -44395.891   -87935.171     41429.07   -86681.573   -8689.2738   -20364.877    17835.614    80.362656 
   12400    2602.6824   -160.92035    2.3549617   -158.56539    34044.883     4.275142     4.275142     4.275142    34044.883    36648.433    72819.556   -7333.3404   -19894.763   -13032.048    4898.6417    78.136085 
   12500    1980.6452   -160.43064    1.7921294   -158.63852      39613.9    4.2774672    4.2774672    4.2774672      39613.9    45489.924    40103.113    33248.665   -15391.812     22933.85   -8148.7323    78.263646 
   12600    2428.9195   -160.86229    2.1977374   -158.66455   -83863.786    4.3243464    4.3243464    4.3243464   -83863.786   -75718.475   -77181.526   -98691.359    4415.1507   -16778.925   -45751.955    80.865157 
   12700    1511.1841   -159.97974    1.3673511   -158.61239    35803.104    4.3226057    4.3226057    4.3226057    35803.104    31502.832   -4300.5138    80206.993   -12375.285    24963.858    992.94686     80.76754 
   12800    1474.6782    -159.9067    1.3343198   -158.57238    20834.642    4.2948122    4.2948122    4.2948122    20834.642   -8614.8942    31821.555    39297.266    3615.5542     22292.34   -11678.594    79.219582 
   12900    2139.5311   -160.52643    1.9358927   -158.59053   -23088.445    4.2907255    4.2907255    4.2907255   -23088.445    39401.793   -43077.367   -65589.761    11816.363   -15174.787   -43878.467     78.99365 
   13000    1167.5903   -159.68479    1.0564602   -158.62833    53311.378     4.310586     4.310586     4.310586    53311.378    30161.255    76083.337    53689.543   -18434.924    8277.9427   -2113.0155    80.095654 
   13100    1936.4854   -160.34187    1.7521727    -158.5897   -39408.027    4.3257156    4.3257156    4.3257156   -39408.027   -75792.138   -53627.197    11195.253    29360.948    4938.3791   -16528.023    80.941991 
   13200     2345.897   -160.67883    2.1226169   -158.55621   -8844.8238    4.3139419    4.3139419    4.3139419   -8844.8238    19333.856   -21322.895   -24545.432    22342.585   -30681.096   -15826.666    80.282866 
   13300    1846.2757   -160.24836    1.6705491   -158.57781    21822.983    4.2957226    4.2957226    4.2957226    21822.983   -6928.8176    62443.126     9954.641    9542.9084    7471.0357    31538.214    79.269968 
   13400    1927.2676   -160.35096    1.7438322   -158.60713   -8189.8323     4.287546     4.287546     4.287546   -8189.8323   -8446.2018   -9243.1332   -6880.1617     21370.63   -24033.652   -7090.1296    78.818177 
   13500    1945.8971   -160.37791    1.7606886   -158.61722   -7441.5431    4.2846532    4.2846532    4.2846532   -7441.5431   -47035.985    33043.298   -8331.9424   -6585.0474   -6651.5081   -5385.6554    78.658746 
   13600    1296.8255     -159.813     1.173395    -158.6396    39376.414    4.2831892    4.2831892    4.2831892    39376.414    54605.786    71634.873    -8111.418   -51552.855    22890.028    8059.5634    78.578148 
   13700    1160.1647   -159.70311    1.0497414   -158.65337    16801.322    4.2950628    4.2950628    4.2950628    16801.322     72323.59    27115.202   -49034.826   -53003.839    6571.7743    -34336.39    79.233446 
   13800    1792.3936    -160.2267    1.6217954   -158.60491   -18578.741    4.3046399    4.3046399    4.3046399   -18578.741   -14680.682   -24457.643   -16597.897    7338.9272   -2228.6709   -37152.878    79.764655 
   13900    2431.3595    -160.7731    2.1999452   -158.57316   -44742.801    4.3021286    4.3021286    4.3021286   -44742.801    5280.6339   -82065.601   -57443.435    30930.228    11202.934   -23006.147    79.625132 
   14000     2287.715    -160.6513    2.0699726   -158.58133   -7071.3158    4.2868955    4.2868955    4.2868955   -7071.3158    41636.468    7984.8399   -70835.256    12172.067    1720.4651    2897.9754    78.782304 
   14100    1681.0949    -160.1366      1.52109   -158.61551    34510.709    4.2788875    4.2788875    4.2788875    34510.709    66231.697    23214.511     14085.92   -38005.927   -19776.825    13342.774     78.34163 
   14200    2134.3615   -160.56259    1.9312151   -158.63137   -15532.093    4.2899421    4.2899421    4.2899421   -15532.093    10653.165    5483.9488   -62733.392   -23398.377   -21248.796    2911.7668    78.950392 
   14300    2198.9623   -160.62231    1.9896673   -158.63264   -13066.057    4.3049482    4.3049482    4.3049482   -13066.057   -51451.813    -1955.776    14209.417    14914.514    12315.183    5900.1604    79.781792 
   14400     1974.882   -160.40939    1.7869148   -158.62248    -27354.65    4.3131463    4.3131463    4.3131463    -27354.65   -37844.384   -22423.164   -21796.402   -7961.7648   -14578.304   -37244.789    80.238455 
   14500    2057.3635   -160.45914    1.8615457   -158.59759    8959.7042    4.2973738    4.2973738    4.2973738    8959.7042    45913.787   -1736.2216   -17298.453   -9156.0525    13784.617   -10898.115    79.361416 
   14600    2386.3962   -160.73978    2.1592615   -158.58052    17709.368    4.2725844    4.2725844    4.2725844    17709.368    26980.828   -16343.757    42491.035    9523.9094    38619.241    17713.629    77.995931 
   14700    1874.6449   -160.33257    1.6962181   -158.63636    46718.911    4.2748982    4.2748982    4.2748982    46718.911    69810.416     29166.19    41180.126   -5940.1532    31176.415   -22880.657    78.122718 
   14800    1794.1974   -160.31304    1.6234275   -158.68961   -3433.3865    4.3140235    4.3140235    4.3140235   -3433.3865    32947.548    23828.773   -67076.481    25084.115   -2510.1473   -6035.3368    80.287425 
   14900    2542.1019   -160.93778    2.3001473   -158.63764   -67926.511    4.3370446    4.3370446    4.3370446   -67926.511   -76957.145   -67258.044   -59564.344   -4431.7441   -7621.5338    11956.493    81.579616 
   15000    2080.3696   -160.47619    1.8823621   -158.59382    20615.554    4.3176035    4.3176035    4.3176035    20615.554    44344.361   -4295.0767    21797.377    23390.203     27036.79   -13396.632    80.487468 
   15100     1979.349   -160.36383    1.7909566   -158.57287    32461.163    4.2888379    4.2888379    4.2888379    32461.163     66848.53   -15277.996    45812.955   -10584.562    9178.1876    12561.026    78.889446 
   15200    2531.6159   -160.89556    2.2906592    -158.6049    2408.8868    4.2855983    4.2855983    4.2855983    2408.8868    -11465.84    48885.452   -30192.952   -29121.859   -17437.141    14851.592    78.710812 
   15300    1543.8417   -160.07187    1.3969004   -158.67497     36011.86    4.3162159    4.3162159    4.3162159     36011.86     27421.82    74540.502    6073.2582   -12089.745   -32396.222   -18810.373    80.409892 
   15400    1569.3468   -160.05542     1.419978   -158.63544    -27551.57    4.3447243    4.3447243    4.3447243    -27551.57   -49623.013    -23311.34   -9720.3574    18731.311    6303.2175    1325.8124    82.013749 
   15500    2461.5088   -160.80683    2.2272249    -158.5796   -32574.362    4.3293215    4.3293215    4.3293215   -32574.362    38083.235   -62930.261    -72876.06     6241.399   -15229.531    8011.4699    81.144582 
   15600    2142.2066   -160.49862    1.9383135   -158.56031   -25721.672    4.3025784    4.3025784    4.3025784   -25721.672    18425.684   -33854.333   -61736.368   -23593.157    15337.375   -2714.7543    79.650111 
   15700    2098.8932   -160.53526    1.8991227   -158.63613   -43125.042    4.3073042    4.3073042    4.3073042   -43125.042   -23277.122   -58108.294    -47989.71   -32401.938    27004.518    4343.0475    79.912854 
   15800    1980.6082   -160.45913    1.7920959   -158.66704   -33529.512    4.3119676    4.3119676    4.3119676   -33529.512   -49634.409   -13694.772   -37259.354    -20441.52    20106.689    8574.8247    80.172693 
   15900    1216.6072   -159.75168    1.1008117   -158.65087     56151.16    4.2995313    4.2995313    4.2995313     56151.16    53494.281    59381.667    55577.533     -7944.34    4185.0794     7775.376    79.481003 
   16000    2431.8617   -160.83262    2.2003996   -158.63222    14100.732     4.290463     4.290463     4.290463    14100.732    32912.756    14297.853   -4908.4123    7936.9346   -10951.381   -4444.3687    78.979157 
   16100    2267.4698   -160.68284    2.0516543   -158.63118    28603.617    4.2781914    4.2781914    4.2781914    28603.617    25012.383    71585.669   -10787.201    2610.4228   -13478.462    12189.622      78.3034 
   16200    2110.7853   -160.56545    1.9098829   -158.65557   -47465.868    4.2980394    4.2980394    4.2980394   -47465.868   -62354.963   -39479.677   -40562.964    3336.0431    1101.8328   -18347.143    79.398294 
   16300    1805.3326    -160.2789    1.6335029    -158.6454   -32986.607     4.306067     4.306067     4.306067   -32986.607   -18005.726   -34495.407   -46458.687    16974.644    18918.339   -11234.868     79.84401 
   16400    1342.3452   -159.83257    1.2145821   -158.61799     22187.45    4.2840473    4.2840473    4.2840473     22187.45    26868.998     46689.73   -6996.3779    12550.927    18550.054   -7519.1979    78.625381 
   16500    1183.9085    -159.7216    1.0712253   -158.65038    47834.978    4.2715435    4.2715435    4.2715435    47834.978   -4613.1185    121300.18     26817.87    16310.065     9367.619    2020.8939    77.938944 
   16600    2018.6699   -160.50592     1.826535   -158.67938   -6806.3157    4.2687093    4.2687093    4.2687093   -6806.3157   -44735.237     26548.94   -2232.6499   -18452.955    20633.032    306.10103    77.783905 
   16700    1980.5443   -160.46482    1.7920381   -158.67278   -3254.2082     4.263861     4.263861     4.263861   -3254.2082   -27562.005   -21463.481    39262.862   -4779.1929    17091.175   -8162.2374    77.519169 
   16800    2365.1445   -160.83313    2.1400325   -158.69309   -685.07815    4.2873055    4.2873055    4.2873055   -685.07815   -11121.834    40944.201   -31877.602   -2636.5733   -6099.3239   -14217.445    78.804914 
   16900    2022.1689   -160.50544     1.829701   -158.67574   -6741.2197    4.3108963    4.3108963    4.3108963   -6741.2197   -50145.704    67541.133   -37619.088     1375.962   -10825.726    7733.1643    80.112953 
   17000    1232.2486   -159.76143    1.1149644   -158.64647    3728.9817    4.3023478    4.3023478    4.3023478    3728.9817   -25239.157   -7791.1806    44217.283    23547.742   -25414.063    28349.498    79.637304 
   17100    1327.2128   -159.82683      1.20089   -158.62594    54298.034     4.284447     4.284447     4.284447    54298.034    102885.28    41914.798    18094.019    4957.6092    4580.3316     29577.97    78.647392 
   17200    2023.0724   -160.46008    1.8305184   -158.62956    17086.079    4.2755842    4.2755842    4.2755842    17086.079    36627.244   -1005.0254    15636.018   -12736.552    5536.3944    10930.941    78.160331 
   17300    1538.3095   -160.03198    1.3918948   -158.64009    23321.811    4.2762531    4.2762531    4.2762531    23321.811    8667.1399   -3796.0564     65094.35   -2038.7306    -19570.38    3.6936706     78.19702 
   17400    1778.9512   -160.27829    1.6096324   -158.66866    10831.876    4.2988496    4.2988496    4.2988496    10831.876     17755.81   -32252.009    46991.827    8234.6088   -37253.609   -3696.0296    79.443204 
   17500    1943.5725   -160.40701    1.7585853   -158.64842   -24945.029    4.3226602    4.3226602    4.3226602   -24945.029    -63140.36   -75923.213    64228.487    19148.305   -30356.447   -1794.7444    80.770595 
   17600    2156.0623   -160.56621    1.9508505   -158.61536   -66639.045    4.3211262    4.3211262    4.3211262   -66639.045   -105780.81   -70673.801   -23462.523    3638.5721    14555.015    11072.572    80.684636 
   17700    1995.7964   -160.39969    1.8058386   -158.59385   -1762.7451    4.3026237    4.3026237    4.3026237   -1762.7451    -30615.98    20435.134    4892.6115   -12189.287    19769.861   -6593.0358    79.652626 
   17800    1298.3206   -159.76911    1.1747477   -158.59436    8975.7523    4.2927019    4.2927019    4.2927019    8975.7523   -66895.779   -554.94982    94377.986    3760.8487   -1873.7211    25509.889    79.102861 
   17900    1885.4576   -160.31919    1.7060016   -158.61319   -5015.7818    4.2908902    4.2908902    4.2908902   -5015.7818   -40792.444    869.51277    24875.586   -3907.6293    17305.264    1874.2764    79.002752 
   18000    2065.9439   -160.51069    1.8693095   -158.64138     16902.76    4.2871583    4.2871583    4.2871583     16902.76   -16142.352    48585.682    18264.951    12064.371    18336.474    7943.6074    78.796794 
   18100    1660.4657   -160.15784    1.5024242   -158.65542    11561.641    4.2931781    4.2931781    4.2931781    11561.641   -19126.062    24563.661    29247.324   -11405.884    9282.6505    13466.385    79.129192 
   18200    2593.8854    -160.9852     2.347002   -158.63819   -33617.679    4.2996381    4.2996381    4.2996381   -33617.679   -46984.591   -20832.441   -33036.005   -24681.453    4146.9997    11853.196    79.486929 
   18300    1874.8262    -160.3234    1.6963821   -158.62702    5450.0678    4.2957403    4.2957403    4.2957403    5450.0678    13313.442   -29741.152    32777.913    15170.149     17114.33   -12805.929    79.270947 
   18400    1428.5573   -159.93481    1.2925886   -158.64222   -1730.4285     4.295272     4.295272     4.295272   -1730.4285   -23704.493   -13888.346    32401.553    1450.6538    856.82101   -62315.435    79.245028 
   18500    1865.5745   -160.32198    1.6880111   -158.63397    5661.4114    4.2954215    4.2954215    4.2954215    5661.4114    33230.839    1696.6732   -17943.278   -25433.792   -25765.326   -33446.311    79.253301 
   18600    2087.3737    -160.5122    1.8886996    -158.6235   -39471.872    4.2920427    4.2920427    4.2920427   -39471.872   -36288.482   -8531.6222   -73595.512    1798.9432    11044.844    9850.0136    79.066426 
   18700    2656.5042   -161.02331    2.4036608   -158.61965   -31717.241    4.2856037    4.2856037    4.2856037   -31717.241    -75539.88    4963.9192   -24575.761    11351.852      5931.84     16748.31    78.711106 
   18800    2527.9621   -160.91402    2.2873532   -158.62667     6457.965    4.2775087    4.2775087    4.2775087     6457.965   -36909.176    38698.573    17584.499   -39339.523   -19320.709     10451.17    78.265923 
   18900    1365.6862   -159.88907    1.2357015   -158.65337   -11422.929    4.2817001    4.2817001    4.2817001   -11422.929    3074.8078   -59824.854     22481.26   -12680.809    5170.6377   -25195.454    78.496216 
   19000    1535.0139   -160.05833    1.3889128   -158.66941   -10135.843     4.284542     4.284542     4.284542   -10135.843    -27429.31    8064.3393   -11042.559   -991.54634    -7624.801   -45848.483    78.652622 
   19100    1656.3138   -160.17072    1.4986675   -158.67205    45432.829    4.2757998    4.2757998    4.2757998    45432.829    54095.884    63554.678    18647.924    1266.0475    -9741.504   -41331.947    78.172156 
   19200    1489.7823   -160.01984    1.3479863   -158.67185    22589.419    4.2863435    4.2863435    4.2863435    22589.419    36346.105   -20743.416    52165.569    7312.7459   -15189.213   -28045.073    78.751877 
   19300    2123.7505   -160.58146    1.9216141   -158.65985   -13880.697    4.3106537    4.3106537    4.3106537   -13880.697   -39088.804    2382.2418   -4935.5293    19788.282   -579.35976   -6790.1703    80.099426 
   19400    2154.0405   -160.57852    1.9490211    -158.6295    -964.3742    4.3026535    4.3026535    4.3026535    -964.3742   -11262.208   -783.47487      9152.56    6649.7922    11730.758    4154.3619    79.654281 
   19500    2573.0492   -160.92527     2.328149   -158.59712   -31904.661    4.2801115    4.2801115    4.2801115   -31904.661   -46129.636    -36057.53   -13526.816   -20373.876   -26425.029     24503.35     78.40888 
   19600    1831.2317   -160.30985    1.6569369   -158.65292    20306.121    4.2884253    4.2884253    4.2884253    20306.121    86777.336    18638.915   -44497.889    14256.799   -8592.0469   -9003.3743     78.86668 
   19700    1355.9221   -159.90165    1.2268668   -158.67478    17278.212     4.315826     4.315826     4.315826    17278.212    139762.37   -60242.935   -27684.803    12474.615    16950.274   -12546.951    80.388101 
   19800    1651.9389   -160.13737     1.494709   -158.64266   -2732.6081    4.3165113    4.3165113    4.3165113   -2732.6081    17326.977   -47722.263    22197.462   -3142.0313   -4576.6279   -10669.759    80.426403 
   19900    2324.4844   -160.71704    2.1032423    -158.6138   -32949.074    4.2963644    4.2963644    4.2963644   -32949.074   -9402.0175   -42333.574    -47111.63    16088.863   -22918.586     -8943.66    79.305506 
   20000    2140.0425   -160.56064    1.9363555   -158.62428   -15672.097    4.2881147    4.2881147    4.2881147   -15672.097   -10792.693    -59672.83    23449.233    734.16189   -29501.134   -6189.0002    78.849543 
   20100    2098.4857    -160.5583    1.8987539   -158.65955   -28360.758    4.2978863    4.2978863    4.2978863   -28360.758   -32208.116   -53051.319    177.16112    3649.2243   -6944.6466    23007.029     79.38981 
   20200    1712.3578   -160.21625    1.5493773   -158.66687    -21899.07    4.3083562    4.3083562    4.3083562    -21899.07   -33368.425   -78268.632    45939.847    8886.2844    21488.456    16909.404    79.971417 
   20300    2227.1773   -160.67248    2.0151968   -158.65728   -28360.088    4.2926768    4.2926768    4.2926768   -28360.088   -41305.252   -85765.531     41990.52    19201.738   -14480.391   -12167.234    79.101476 
   20400    2130.1153   -160.56946    1.9273731   -158.64209    21806.817    4.2508812    4.2508812    4.2508812    21806.817    40677.909   -23737.908     48480.45    18348.271   -10561.236   -41582.716    76.813386 
   20500    2368.0182   -160.80037    2.1426327   -158.65774    32390.658    4.2409371    4.2409371    4.2409371    32390.658      79999.1   -12812.669    29985.543    10039.667    33188.593   -30054.054    76.275574 
   20600    2437.6846   -160.91935    2.2056682   -158.71368   -7842.2804    4.2820834    4.2820834    4.2820834   -7842.2804   -12155.289   -41114.423    29742.871    433.05956   -11392.007   -10259.735    78.517299 
   20700    2158.8174   -160.62141    1.9533433   -158.66807   -31665.383    4.3038618    4.3038618    4.3038618   -31665.383   -37933.915   -63873.886    6811.6522   -25161.239   -3275.2144    11517.527    79.721406 
   20800    2238.9146   -160.66935     2.025817   -158.64353   -3997.4738    4.2848085    4.2848085    4.2848085   -3997.4738    6136.9683   -40756.912    22627.522   -17036.285    6683.7186    14570.058    78.667299 
   20900    1995.9996   -160.46389    1.8060224   -158.65787    34423.194    4.2605397    4.2605397    4.2605397    34423.194   -39199.943   -40892.904    183362.43   -8294.3179    5769.3295   -2020.4075    77.338161 
   21000    1490.3566    -160.0538    1.3485059   -158.70529    49562.622    4.2610357    4.2610357    4.2610357    49562.622   -47304.316   -8780.1194     204772.3    11965.458    13771.843   -14191.148    77.365177 
   21100    2279.7649   -160.80572    2.0627792   -158.74294   -36374.537    4.2934097    4.2934097    4.2934097   -36374.537   -59029.096   -91959.755    41865.239   -7519.8337     33864.31   -21653.337    79.141996 
   21200    2063.7883   -160.56858     1.867359   -158.70122   -9648.6316    4.3044517    4.3044517    4.3044517   -9648.6316   -27662.668   -62706.295    61423.069    6252.7522   -15457.939   -6421.1909    79.754194 
   21300      1713.29   -160.20622    1.5502208     -158.656    51144.144    4.2761487    4.2761487    4.2761487    51144.144    80862.055   -12609.785    85180.161   -9564.2885   -10251.299    6424.7121    78.191295 
   21400    2312.7466   -160.73935    2.0926217   -158.64673    28160.802    4.2654801    4.2654801    4.2654801    28160.802     29561.69     10373.63    44547.086    16581.046    4404.4813    16317.281    77.607513 
   21500    2907.1059   -161.30891    2.6304105   -158.67849   -26806.301    4.2811052    4.2811052    4.2811052   -26806.301   -46764.307   -51961.522    18306.925    1556.6952    5845.9909     11740.71    78.463506 
   21600    2088.6717    -160.5759     1.889874   -158.68603    -27936.55    4.2910516    4.2910516    4.2910516    -27936.55   -29546.122   -45570.952    -8692.576    6955.5377    12009.307    17513.398    79.011665 
   21700    2136.4884   -160.60973    1.9331396   -158.67659   -9369.6878    4.2805461    4.2805461    4.2805461   -9369.6878   -1730.1209   -6453.2635   -19925.679    4533.4423   -8688.7024    32315.146    78.432769 
   21800    2490.2338   -160.93335    2.2532159   -158.68014   -146.55161    4.2706836    4.2706836    4.2706836   -146.55161    10188.404   -32911.183    22283.124    1413.8461   -21893.257     52289.87     77.89188 
   21900    1635.1733   -160.17388    1.4795391   -158.69434   -7626.1203    4.2713929    4.2713929    4.2713929   -7626.1203    29625.916   -48559.316   -3944.9608   -11384.645    2535.5883    53532.813    77.930697 
   22000    1882.3665   -160.39204    1.7032047   -158.68883   -7201.4951    4.2732688    4.2732688    4.2732688   -7201.4951    35213.492   -38371.992   -18445.984   -16716.571    7515.2565    40652.469    78.033419 
   22100    2942.6861   -161.34366    2.6626042   -158.68105   -13125.108    4.2726463    4.2726463    4.2726463   -13125.108    7622.2771   -56772.414    9774.8128    10706.189   -12234.988     4031.631    77.999321 
   22200    2167.3256   -160.64264    1.9610417    -158.6816    -22647.29    4.2796238    4.2796238    4.2796238    -22647.29   -34522.939   -82690.106    49271.174    179.84112    8109.8399   -15916.078     78.38208 
   22300    1214.7157   -159.77172    1.0991003   -158.67262    925.38922    4.2874359    4.2874359    4.2874359    925.38922    42655.551   -70256.705    30377.322   -16367.087    2582.7499    2673.0503    78.812104 
   22400    1916.0472   -160.38207    1.7336797   -158.64839    23974.895    4.2832321    4.2832321    4.2832321    23974.895    117619.46   -67499.375    21804.602   -11491.587   -13874.613    12109.699    78.580508 
   22500     1631.783      -160.13    1.4764716   -158.65353    7889.8012    4.2818245    4.2818245    4.2818245    7889.8012    88561.131   -53089.514   -11802.214   -3329.1982   -1038.0334    15971.675    78.503063 
   22600    2181.5095   -160.64159    1.9738756   -158.66772   -29971.488    4.2887975    4.2887975    4.2887975   -29971.488    10843.631   -69695.687   -31062.408    9369.6822   -9762.1223    21616.539    78.887214 
   22700    1941.5882   -160.42685    1.7567898   -158.67006   -9219.6325     4.281997     4.281997     4.281997   -9219.6325    38983.759   -24935.421   -41707.236    19918.899    14049.677   -5863.2139    78.512547 
   22800    861.60467   -159.44272   0.77959801   -158.66312    27298.232    4.2637891    4.2637891    4.2637891    27298.232    52511.445    32941.893   -3558.6422   -4306.8418    39975.914   -19181.837    77.515247 
   22900    1355.4513   -159.89818    1.2264408   -158.67174    14938.065     4.265867     4.265867     4.265867    14938.065   -1761.6424    22122.131    24453.707   -6688.6636    34539.089   -25031.516    77.628634 
   23000    1624.6203   -160.15052    1.4699906   -158.68053    915.54398    4.2781503    4.2781503    4.2781503    915.54398    6170.3411   -19867.199    16443.489    -12194.47    30736.404    2349.2033    78.301148 
   23100    1302.4827   -159.84165    1.1785137   -158.66313   -20354.884     4.283188     4.283188     4.283188   -20354.884    31979.024   -39925.665    -53118.01     -16317.2   -1315.4442    12044.817    78.578078 
   23200    1672.2372   -160.17867    1.5130754    -158.6656    9662.7419    4.2838218    4.2838218    4.2838218    9662.7419    17611.773    11729.105   -352.65143   -14168.005   -10329.574   -10727.955    78.612966 
   23300    1447.3156   -159.98584    1.3095615   -158.67628   -2597.5485    4.2902326    4.2902326    4.2902326   -2597.5485   -47852.041    29896.357    10163.039   -11646.412    6599.3544    40.387575    78.966433 
   23400    1614.9628   -160.11872    1.4612523   -158.65747   -42721.332    4.2896198    4.2896198    4.2896198   -42721.332    -52021.41   -37325.307   -38817.278   -28390.338   -1750.7948    2838.3202    78.932599 
   23500    2469.0634   -160.89195    2.2340605   -158.65789   -28151.874    4.2902393    4.2902393    4.2902393   -28151.874   -39784.541   -73998.308    29327.227   -26860.607    2710.1155      12161.6    78.966802 
   23600    2004.4588   -160.47752    1.8136764   -158.66384    4655.4892    4.3038561    4.3038561    4.3038561    4655.4892    5841.0744    14004.451   -5879.0579    5633.3635    12465.162   -16898.989    79.721089 
   23700    1456.8069   -159.96391    1.3181495   -158.64577   -1313.6101    4.3036562    4.3036562    4.3036562   -1313.6101   -14626.161   -21986.187    32671.517   -18875.814    11308.052   -16445.502    79.709983 
   23800    2548.8773   -160.93526    2.3062778   -158.62898   -15804.084    4.2895205    4.2895205    4.2895205   -15804.084   -15176.564   -38912.307    6676.6187   -35651.744   -20565.065    14463.537    78.927118 
   23900    1184.8003   -159.70773    1.0720322    -158.6357    52468.377    4.2854791    4.2854791    4.2854791    52468.377    15972.652    78188.037    63244.441   -15203.533    5576.6266   -7431.4448    78.704245 
   24000    1381.4307   -159.87899    1.2499475   -158.62904    2395.1502    4.2999508    4.2999508    4.2999508    2395.1502    17097.563   -15983.824    6071.7111   -36040.939   -2111.5465   -18742.859     79.50427 
   24100    2566.8162   -160.93556    2.3225092   -158.61305   -46807.166    4.3035658    4.3035658    4.3035658   -46807.166   -58001.787   -50373.494   -32046.217   -36297.531   -7194.8471   -2314.0244    79.704958 
   24200    1361.6657   -159.87128    1.2320637   -158.63921    36981.497     4.291441     4.291441     4.291441    36981.497    79853.911   -14136.274    45226.855    -25205.41    2686.3756    3874.1325    79.033174 
   24300    2074.9117   -160.51932    1.8774237    -158.6419   -11248.859    4.2895805    4.2895805    4.2895805   -11248.859    47948.108   -23040.576   -58654.108    8441.1246   -3241.5917    2204.9366    78.930428 
   24400     2032.442   -160.48333    1.8389962   -158.64434    11808.803    4.2857267    4.2857267    4.2857267    11808.803     -43141.5    53984.336    24583.575    24607.671   -4795.8974   -2218.9749    78.717885 
   24500    1961.7199   -160.42539    1.7750054   -158.65039    9265.8893    4.2806568    4.2806568    4.2806568    9265.8893   -16843.653   -9252.0778    53893.398   -5258.6029   -9503.2467   -24593.677    78.438855 
   24600    1843.7624   -160.33984     1.668275   -158.67156    20779.124    4.2835792    4.2835792    4.2835792    20779.124   -9534.5449   -26269.714    98141.631   -13001.654   -15204.096   -18984.566    78.599615 
   24700    1979.2408   -160.46046    1.7908586    -158.6696   -12401.758    4.2929404    4.2929404    4.2929404   -12401.758   -50598.102   -954.28999    14347.119    25341.011     20219.99   -9161.3482    79.116047 
   24800    1610.1081   -160.10046    1.4568596    -158.6436   -8871.1517    4.2919143    4.2919143    4.2919143   -8871.1517    43446.846   -22962.163   -47098.138   -8436.8476    3596.3003   -15939.547     79.05933 
   24900    1938.3349   -160.39101    1.7538461   -158.63716    11905.683    4.2907713    4.2907713    4.2907713    11905.683   -22579.629    73516.702   -15220.024   -11479.817   -14402.236   -19685.186    78.996184 
   25000    1663.6726   -160.16681    1.5053259   -158.66148   -24121.687    4.3042061    4.3042061    4.3042061   -24121.687   -85220.347   -32480.354    45335.641   -19219.734    -21258.53   -14165.861    79.740539 
   25100    1863.3436    -160.3358    1.6859924   -158.64981   -33761.238     4.297333     4.297333     4.297333   -33761.238   -46085.137   -41759.953   -13438.626    10247.774   -17209.951    15463.603    79.359152 
   25200    1864.1083   -160.32227    1.6866844   -158.63559     30032.57    4.2767478    4.2767478    4.2767478     30032.57      46401.2    57203.924   -13507.414   -17377.177   -3926.5471    2823.0398    78.224162 
   25300    1784.4517   -160.27862    1.6146094   -158.66401    20926.527     4.281062     4.281062     4.281062    20926.527    69594.281    20730.697   -27545.397   -11832.163   -8153.8901   -11420.851    78.461127 
   25400    2333.0422   -160.78456    2.1109856   -158.67358   -47864.482    4.2890462    4.2890462    4.2890462   -47864.482   -20236.174   -50994.456   -72362.815    9751.6538    8575.9086   -16865.139    78.900938 
   25500    2101.6552    -160.5612    1.9016218   -158.65958    23467.116    4.2672805    4.2672805    4.2672805    23467.116    13402.541    50315.947    6682.8605    3185.1032    34325.404   -4267.6499    77.705826 
   25600    1731.0657   -160.23359    1.5663046   -158.66728    7668.1126    4.2668816    4.2668816    4.2668816    7668.1126   -2081.4848    94121.813    -69035.99   -8514.8339    31433.096   -1770.7099    77.684036 
   25700      1834.18   -160.33373    1.6596046   -158.67413   -2754.0449    4.2880144    4.2880144    4.2880144   -2754.0449    24795.048    44053.615   -77110.798   -14383.562    20410.383    7321.6756    78.844012 
   25800    1903.4853   -160.37951    1.7223135   -158.65719   -1400.1038    4.2998818    4.2998818    4.2998818   -1400.1038    15730.295   -11402.095   -8528.5112   -22930.886      -4450.2    17753.529    79.500445 
   25900    1653.8816   -160.14097    1.4964668    -158.6445   -1007.9798    4.2978279    4.2978279    4.2978279   -1007.9798   -21378.274    16702.493    1651.8425    4873.9259    6797.5965     1958.098    79.386577 
   26000    2298.8304   -160.72226      2.08003   -158.64223    16496.448    4.2850936    4.2850936    4.2850936    16496.448    2648.7007    7202.6429        39638   -3450.9697    8344.0296    15868.472    78.683003 
   26100    2198.9394   -160.63908    1.9896466   -158.64943   -16938.282    4.2823857    4.2823857    4.2823857   -16938.282   -43223.364    2592.3634   -10183.844    -209.5071   -21202.666    21269.324    78.533934 
   26200    2125.2114   -160.58424     1.922936    -158.6613   -15814.048    4.2857523    4.2857523    4.2857523   -15814.048   -29970.927    50223.146   -67694.364    5880.6862   -19822.963    19734.118    78.719295 
   26300    2035.6371   -160.50521    1.8418872   -158.66332   -2888.1778    4.2777187    4.2777187    4.2777187   -2888.1778    -50782.89    66620.178   -24501.821   -13742.367   -10678.981   -16978.645     78.27745 
   26400    1437.4618   -159.98484    1.3006456    -158.6842    23846.439    4.2710606    4.2710606    4.2710606    23846.439    8308.9916    63617.685   -387.35874   -6955.3636    -12147.72    6357.4339    77.912514 
   26500    1764.9733   -160.31699     1.596985      -158.72     26231.08    4.2928564    4.2928564    4.2928564     26231.08    23629.879    26226.351     28837.01    5862.7566   -18772.767   -7652.1132    79.111402 
   26600    1556.6386   -160.08227    1.4084793   -158.67379   -35409.001      4.31605      4.31605      4.31605   -35409.001    -70631.13   -14800.547   -20795.328    199.65808   -14366.696    7396.1031    80.400623 
   26700    1737.9568   -160.20303    1.5725398   -158.63049   -34427.262    4.2965015    4.2965015    4.2965015   -34427.262   -32494.059   -10088.896   -60698.831    5560.4974    24548.755    28643.929    79.313099 
   26800    1805.0631   -160.25647     1.633259   -158.62321    42605.484      4.26064      4.26064      4.26064    42605.484    61659.343    12484.149    53672.962    9242.4798    45118.898    -5181.236    77.343625 
   26900    1454.8662   -159.99487    1.3163935   -158.67848   -2926.4306    4.2685031    4.2685031    4.2685031   -2926.4306   -52807.242   -11244.692    55272.642     8242.433    50858.035   -9422.4579    77.772631 
   27000     1433.022   -159.98997    1.2966284   -158.69334   -20072.013    4.3008647    4.3008647    4.3008647   -20072.013   -65939.589    14702.153   -8978.6018    18221.747    16023.131   -17802.387    79.554976 
   27100    2386.0112   -160.80281    2.1589131    -158.6439   -46338.159    4.3088685    4.3088685    4.3088685   -46338.159    15144.131      -118823   -35335.612   -8071.0872    3019.9017    4562.2842    79.999949 
   27200    1719.2155   -160.18017    1.5555823   -158.62459    4817.4203    4.2921785    4.2921785    4.2921785    4817.4203    22557.783   -1237.2898   -6868.2322   -4802.0116   -14502.798    4949.8688     79.07393 
   27300    2449.0787   -160.85566    2.2159779   -158.63969     12724.96    4.2658125    4.2658125    4.2658125     12724.96   -5559.1207     55388.32   -11654.319   -29259.221   -8976.7312   -27439.763    77.625658 
   27400    2205.8418   -160.65199     1.995892   -158.65609    21054.704    4.2399306    4.2399306    4.2399306    21054.704   -18759.923    40278.077     41645.96    -14899.03   -12881.412   -6692.1396    76.221281 
   27500    1877.3678   -160.40347    1.6986819   -158.70479   -6080.7922    4.2587644    4.2587644    4.2587644   -6080.7922    3337.5353   -21687.813    107.90089   -20091.345   -45836.638     10070.13    77.241527 
   27600    2423.4761   -160.90098    2.1928121   -158.70816   -15756.659    4.2972478    4.2972478    4.2972478   -15756.659   -8167.6166   -1423.7142   -37678.646   -3310.4587   -30824.921   -1172.4364    79.354436 
   27700    1941.4197   -160.41393    1.7566373   -158.65729    -5799.242    4.2969901    4.2969901    4.2969901    -5799.242   -56810.667    6246.9527    33165.988   -19251.384   -20929.595   -15660.817    79.340159 
   27800    2096.1474   -160.53192    1.8966382   -158.63528   -27757.848    4.2808245    4.2808245    4.2808245   -27757.848   -69108.049   -49383.855    35218.359   -16047.323   -19163.658   -12516.191    78.448073 
   27900    2111.7896   -160.57198    1.9107916   -158.66118    27087.423    4.2792353    4.2792353    4.2792353    27087.423   -36290.775   -76.424877    117629.47    9398.2422   -13173.037    10396.432    78.360736 
   28000    1446.6952   -159.97537    1.3090002   -158.66637    18817.254    4.2799093    4.2799093    4.2799093    18817.254   -74348.889   -12604.292    143404.94    16996.795     -5326.88    9303.2332    78.397765 
   28100    1414.3651   -159.96582    1.2797472   -158.68607    39729.123    4.2889827    4.2889827    4.2889827    39729.123   -29071.408    23510.129    124748.65    6307.9603    981.59042    27043.449    78.897434 
   28200    1925.7393    -160.4352    1.7424494   -158.69275   -8181.4676    4.3059383    4.3059383    4.3059383   -8181.4676   -36427.274    1431.1938    10451.677    4464.4936    28611.986   -11319.476    79.836853 
   28300    720.63288   -159.31521   0.65204377   -158.66317   -41196.027    4.2995014    4.2995014    4.2995014   -41196.027   -76461.897    -18997.53   -28128.655   -3829.3826    41533.164    7975.2141    79.479346 
   28400    1811.5247   -160.28254    1.6391056   -158.64344    33867.692    4.2603124    4.2603124    4.2603124    33867.692    47809.557      57201.5   -3407.9802   -8323.2663    31957.292   -828.57828    77.325788 
   28500    1929.7604   -160.39676    1.7460878   -158.65068    58131.988    4.2534812    4.2534812    4.2534812    58131.988    -6997.955    119570.05     61823.87     -16627.2    1641.5524   -5770.5244    76.954419 
   28600    1613.4744   -160.16856    1.4599055   -158.70865   -10570.541    4.2976679    4.2976679    4.2976679   -10570.541   -69525.234    19912.365    17901.246   -13528.994   -4587.7329   -10588.679    79.377711 
   28700    2731.9018   -161.12627    2.4718822   -158.65438   -58480.052    4.3237541    4.3237541    4.3237541   -58480.052    -75042.72   -5762.4213   -94635.014     7555.821    1235.2625   -17860.109    80.831932 
   28800    1992.6124   -160.42959    1.8029576   -158.62663   -11280.462    4.2826263    4.2826263    4.2826263   -11280.462   -55429.565    19685.178    1902.9994    8350.5601   -6972.3391    13091.909    78.547168 
   28900     2238.084   -160.61612    2.0250655   -158.59106    26654.545    4.2414695    4.2414695    4.2414695    26654.545   -4576.0157    47406.214    37133.439    18186.838   -2555.3966    10761.114    76.304306 
   29000    2739.4974   -161.14761    2.4787548   -158.66886   -14911.842    4.2623756    4.2623756    4.2623756   -14911.842   -14226.955    8852.1045   -39360.674    14508.117    12310.722   -3353.1369    77.438182 
   29100    1857.4047   -160.36328    1.6806188   -158.68266   -40710.581    4.2985062    4.2985062    4.2985062   -40710.581   -66434.321    -19221.97   -36475.453    9457.0621    32551.627    5077.4397    79.424169 
   29200    1764.6492   -160.23946    1.5966917   -158.64277    -18550.01     4.295974     4.295974     4.295974    -18550.01   -39178.566   -10893.339   -5578.1243    -5194.846    26325.765   -23822.238    79.283889 
   29300    2345.4264   -160.75554    2.1221911   -158.63335   -6374.1248     4.281533     4.281533     4.281533   -6374.1248   -28437.001    36368.346   -27053.719   -6927.2848    31146.852    3726.1386    78.487027 
   29400    2006.5654   -160.48786    1.8155825   -158.67228   -45480.679    4.2939834    4.2939834    4.2939834   -45480.679   -93291.661   -302.93882   -42847.438    11226.169    4617.7038    20775.473    79.173724 
   29500    1665.8261   -160.17784    1.5072745   -158.67057    9078.1402    4.2915101    4.2915101    4.2915101    9078.1402     57504.92   -49798.431    19527.932   -7648.0344   -29943.721    4086.0954    79.036992 
   29600    2105.9046    -160.5398    1.9054667   -158.63433    25287.155    4.2617223    4.2617223    4.2617223    25287.155      41022.6    9462.2391    25376.627   -998.87303    8018.5427    11986.587    77.402582 
   29700    2202.6371   -160.64822    1.9929924   -158.65523        23639     4.265328     4.265328     4.265328        23639   -7037.2822    6593.7721     71360.51    2270.7598    1335.4617    21251.571    77.599211 
   29800    1770.7382   -160.29839    1.6022012   -158.69619    2942.0323    4.3046128    4.3046128    4.3046128    2942.0323      59332.3   -24602.103   -25904.099   -26716.888   -27029.807   -24811.127    79.763144 
   29900    1322.9766   -159.82749     1.197057   -158.63043   -32467.533    4.3127193    4.3127193    4.3127193   -32467.533   -75361.633   -37573.888    15532.921   -16155.847   -11446.302   -3263.8591    80.214629 
   30000    2780.5864   -161.09153     2.515933   -158.57559   -24996.548    4.2831631    4.2831631    4.2831631   -24996.548   -37078.323   -22522.932    -15388.39   -18047.436   -2229.6723    12150.328     78.57671 
   30100    1906.3997    -160.3295    1.7249505   -158.60455     41991.48    4.2685873    4.2685873    4.2685873     41991.48    46672.116    23157.129    56145.196   -26629.716    -22535.28   -11884.459    77.777235 
   30200    2176.1175   -160.63562    1.9689968   -158.66663    -24123.29    4.2956164    4.2956164    4.2956164    -24123.29   -30890.554    1642.2641    -43121.58   -16292.647    12636.667   -7109.1697     79.26409 
   30300    1966.8904   -160.42711    1.7796837   -158.64743    19906.903    4.3216709    4.3216709    4.3216709    19906.903   -40926.675    118263.82   -17616.433   -6765.2946    4687.4681    23112.657    80.715153 
   30400    1572.3346    -160.0098    1.4226814   -158.58711    1418.1895    4.3160434    4.3160434    4.3160434    1418.1895   -49679.439    82644.671   -28710.664    14209.484   -8726.3909    13955.575     80.40025 
   30500    2956.9969   -161.23524    2.6755529   -158.55969   -22208.858    4.3007355    4.3007355    4.3007355   -22208.858    5877.9291   -60225.658   -12278.845    4027.6816    11400.286   -16760.418    79.547806 
   30600      1547.69   -160.00346    1.4003824   -158.60307    20597.601    4.3040568    4.3040568    4.3040568    20597.601   -18152.495    21164.859     58780.44    7328.4748   -5440.5891    14696.795    79.732244 
   30700    1547.3598   -159.99721    1.4000836   -158.59712   -37397.407    4.3086969    4.3086969    4.3086969   -37397.407   -70428.482   -49760.224    7996.4839    9056.9795   -21081.206   -4986.1483    79.990392 
   30800    2194.0765   -160.56306    1.9852465   -158.57781    29409.844    4.2960676    4.2960676    4.2960676    29409.844    62434.689    40899.531   -15104.687   -14398.276    3456.2481    -2745.749     79.28907 
   30900    867.76432   -159.37436   0.78517139   -158.58919    51014.483    4.2908033    4.2908033    4.2908033    51014.483    96195.609    2751.4651    54096.374   -28422.554    37046.951    22663.011    78.997952 
   31000    1969.3461   -160.39487    1.7819057   -158.61297    -39723.85    4.2980373    4.2980373    4.2980373    -39723.85    3977.2359   -81214.803   -41933.983    21461.742    5400.8736   -12281.884    79.398179 
   31100    2024.8068    -160.4636    1.8320877   -158.63151    1459.6749    4.3001771    4.3001771    4.3001771    1459.6749   -21694.112    13817.272    12255.864    20107.013   -17767.583    17654.722    79.516821 
   31200    1120.2211   -159.63589    1.0135996   -158.62229   -5866.8618    4.2945567    4.2945567    4.2945567   -5866.8618   -66586.519   -36431.852    85417.786   -9036.1032   -107.61024    17478.595    79.205442 
   31300    2119.1877   -160.55378    1.9174856   -158.63629    29985.864    4.2941119    4.2941119    4.2941119    29985.864    34393.267   -31859.272    87423.597   -10671.408    20669.112   -16112.148    79.180836 
   31400    2716.5436   -161.09759    2.4579858    -158.6396   -67390.255    4.3140294    4.3140294    4.3140294   -67390.255   -81884.768   -60677.662   -59608.336    5950.0935   -14358.171    -21072.32    80.287752 
   31500    878.73896   -159.42216   0.79510148   -158.62706     18060.07    4.3269247    4.3269247    4.3269247     18060.07   -8032.6456    15154.616     47058.24   -24658.519    21858.849    15477.986    81.009886 
   31600    2623.6752     -160.949    2.3739565   -158.57505   -3948.0252    4.3062582    4.3062582    4.3062582   -3948.0252    -7086.593   -12005.635    7248.1524   -4676.6382    -763.7388    3244.0423    79.854646 
   31700    2119.4993   -160.46602    1.9177676   -158.54825   -6115.2963    4.2828481    4.2828481    4.2828481   -6115.2963   -42013.376    25854.111   -2186.6237   -1199.7575   -12710.217    4170.8162    78.559375 
   31800    1296.0038   -159.78074    1.1726514   -158.60808    59188.073    4.2926893    4.2926893    4.2926893    59188.073    10708.969    68182.783    98672.467   -9609.5996    34309.718    22589.162    79.102165 
   31900    2772.7788    -161.0876    2.5088686   -158.57873   -71633.302    4.3209289    4.3209289    4.3209289   -71633.302   -92540.226   -29294.162   -93065.518    24232.305    899.01456   -22554.618    80.673585 
   32000    876.11544   -159.34701   0.79272766   -158.55428    13571.245    4.3267373    4.3267373    4.3267373    13571.245    43947.732   -4147.7462    913.74815   -16345.825    14785.471    534.98561    80.999361 
   32100    2969.7243   -161.20341     2.687069   -158.51634   -43040.458     4.306268     4.306268     4.306268   -43040.458   -17468.605   -55769.646   -55883.122     14586.94   -12990.367   -17829.439    79.855192 
   32200    2040.1496   -160.39897    1.8459703     -158.553   -4655.3665    4.2857485    4.2857485    4.2857485   -4655.3665   -20904.131    38473.258   -31535.226    6929.6848   -23721.634    6095.3759    78.719087 
   32300    1730.0841   -160.19967    1.5654165   -158.63425   -29361.456    4.2962961    4.2962961    4.2962961   -29361.456   -60718.728   -27354.455   -11.185105   -594.91347   -14552.711    27922.963    79.301724 
   32400    1979.4585   -160.44222    1.7910557   -158.65116     18678.27     4.305623     4.305623     4.305623     18678.27    47034.432   -60885.285    69885.664    3468.9054    30125.867    3868.8851    79.819317 
   32500    1292.5705   -159.81711    1.1695449   -158.64756    6233.9503    4.3035421    4.3035421    4.3035421    6233.9503    28271.113   -40439.711    30870.448   -12413.757    11861.527   -10363.217    79.703644 
   32600    1905.8424   -160.35822    1.7244462   -158.63377   -8989.0542    4.3023989    4.3023989    4.3023989   -8989.0542   -48922.719   -30035.842    51991.398    7027.3451   -34441.841    14730.964     79.64014 
   32700     2086.773   -160.49374    1.8881561   -158.60559   -17491.887    4.2928257    4.2928257    4.2928257   -17491.887   -33392.152   -27757.639    8674.1284   -15.847392   -29202.316   -19371.437    79.109703 
   32800    1986.8576   -160.39359    1.7977505   -158.59584   -24261.379    4.2961883    4.2961883    4.2961883   -24261.379   -27615.446   -41029.517   -4139.1748   -19266.262    20665.545   -25298.042    79.295752 
   32900    1731.2821   -160.18271    1.5665004   -158.61621    20450.615    4.3119079    4.3119079    4.3119079    20450.615     34411.47   -14667.983    41608.358   -36520.754    36164.588     18087.17     80.16936 
   33000    1874.3626   -160.28372    1.6959627   -158.58775   -52406.706    4.3102437    4.3102437    4.3102437   -52406.706   -75342.357   -32983.875   -48893.886   -4618.1498   -9583.8563   -24174.696    80.076572 
   33100    1593.2321    -160.0185    1.4415899   -158.57691    70194.183     4.292524     4.292524     4.292524    70194.183    92833.693     109232.6    8516.2602   -19676.688    16713.116    13099.985    79.093025 
   33200    2114.1234   -160.49243    1.9129033   -158.57952    37566.337    4.2945705    4.2945705    4.2945705    37566.337    63558.965    67697.234   -18557.187   -11868.585   -573.78211    10036.974    79.206203 
   33300    2314.1399   -160.68954    2.0938824   -158.59566   -53486.468    4.3182471    4.3182471    4.3182471   -53486.468    -74855.88   -35544.131   -50059.393    8729.2607   -17539.795    -16542.04    80.523469 
   33400    1746.0821   -160.17493    1.5798918   -158.59504    14562.479    4.3246662    4.3246662    4.3246662    14562.479    52901.805   -35368.407    26154.039   -25478.282    6824.5481    8476.9975    80.883098 
   33500    1298.4438   -159.74068    1.1748593   -158.56582   -24176.399    4.2984209    4.2984209    4.2984209   -24176.399   -50155.398   -20485.206   -1888.5931   -22209.526   -21750.777   -19489.637     79.41944 
   33600    2496.5198     -160.818    2.2589036   -158.55909   -6606.6468    4.2741444    4.2741444    4.2741444   -6606.6468   -9112.1111    4329.8451   -15037.675    -7642.853   -14325.168   -15756.931    78.081397 
   33700    2235.7461   -160.63795    2.0229501     -158.615    20690.595    4.2797958    4.2797958    4.2797958    20690.595   -50401.169    98182.385     14290.57   -3296.4544   -12247.202    978.64597    78.391533 
[...]
   91300    1794.2658    -160.2993    1.6234894   -158.67581   -6312.3046    4.2450961    4.2450961    4.2450961   -6312.3046   -26817.048    14597.695   -6717.5605   -1757.8825   -3241.4783   -1009.5738    76.500202 
   91400    1370.8065   -159.92183    1.2403345    -158.6815    5682.2718    4.2389692    4.2389692    4.2389692    5682.2718   -100555.12     65519.25    52082.684   -5113.5023    16266.428   -3624.0589    76.169443 
   91500    2287.5154   -160.77064     2.069792   -158.70084    26484.973    4.2467467    4.2467467    4.2467467    26484.973    34075.523    37159.457    8219.9396   -4096.8965    9974.1241    6983.2397    76.589469 
   91600    1966.4113   -160.47602    1.7792503   -158.69677   -3926.8155     4.259521     4.259521     4.259521   -3926.8155    17974.254    1853.7317   -31608.432   -18249.187    13843.931   -288.50486    77.282702 
   91700    1029.8827   -159.61572   0.93185953   -158.68387   -22017.587    4.2613292    4.2613292    4.2613292   -22017.587   -132423.29    28871.141    37499.383    4165.2073     15406.34   -9615.9139    77.381163 
   91800    2387.6618   -160.84005    2.1604066   -158.67964   -11183.601    4.2550432    4.2550432    4.2550432   -11183.601   -25851.366   -7078.3824   -621.05413    10161.272    4118.2221   -5055.8976    77.039226 
   91900     2837.311    -161.2489    2.5672586   -158.68164     14826.81    4.2448114    4.2448114    4.2448114     14826.81    98986.357   -1444.0909   -53061.836   -7269.7081    8105.7283    -5632.631    76.484813 
   92000    1229.6782   -159.79816    1.1126387   -158.68552     3614.593    4.2436018    4.2436018    4.2436018     3614.593   -30054.849    45072.725   -4174.0975   -212.78412   -5946.7146   -2610.5288    76.419447 
   92100    1705.0074   -160.23751    1.5427266   -158.69479   -8575.9315    4.2533203    4.2533203    4.2533203   -8575.9315   -63084.919    34872.496    2484.6284   -5593.6056   -7866.5493    3998.4766    76.945684 
   92200    3401.2053   -161.77123     3.077482   -158.69375   -10065.998     4.263417     4.263417     4.263417   -10065.998    55543.359   -31196.067   -54545.286   -12840.513   -8329.5161   -7220.6647    77.494954 
   92300    1868.7129   -160.37294    1.6908507   -158.68209    -39874.77    4.2650591    4.2650591    4.2650591    -39874.77   -84014.255   -10216.182   -25393.872    14716.369    512.47098   -807.64258    77.584537 
   92400    1086.5467   -159.65549    0.9831303   -158.67236   -33998.922    4.2584563    4.2584563    4.2584563   -33998.922   -142829.73    34749.712    6083.2533    6643.6075    9882.4054    6608.5538    77.224765 
   92500    2956.6083    -161.3583    2.6752014    -158.6831    24343.603    4.2481769    4.2481769    4.2481769    24343.603    73045.669    15364.546   -15379.405   -27114.397    6664.2583   -7939.0072    76.666876 
   92600    2176.9057   -160.66167      1.96971   -158.69196    26172.464     4.243127     4.243127     4.243127    26172.464    38161.471    37219.995    3135.9266   -7402.5797   -7693.7942    -1853.286    76.393795 
   92700    614.83425   -159.25089   0.55631495   -158.69458   -12156.899    4.2493832    4.2493832    4.2493832   -12156.899   -114588.95    54437.588    23680.661   -9304.8302    2796.5149   -1565.2889    76.732209 
   92800    2383.6245   -160.85438    2.1567536   -158.69763   -14150.761     4.261368     4.261368     4.261368   -14150.761   -29170.221    8498.2953   -21780.357   -10800.452    6579.1946    1797.2459    77.383277 
   92900    3052.6829   -161.45214    2.7621316   -158.69001   -10305.143    4.2652819    4.2652819    4.2652819   -10305.143   -1312.8403   -7713.5909   -21888.997    10272.385   -1315.1542    1179.1986    77.596694 
   93000    981.24201   -159.56624   0.88784839   -158.67839    -26840.03    4.2556101    4.2556101    4.2556101    -26840.03      -123257    41050.019    1686.8936    3907.8601    3317.6087   -9579.9214    77.070025 
   93100    1566.4064   -160.09698    1.4173174   -158.67966    12017.234    4.2437463    4.2437463    4.2437463    12017.234    6576.7292    40821.979   -11347.008   -10116.135   -3099.6336    2768.3363    76.427249 
   93200    3055.8834   -161.45737    2.7650275   -158.69235    31164.076    4.2437378    4.2437378    4.2437378    31164.076    85200.608    20488.985   -12197.364    13778.578   -717.49451    4784.1592    76.426793 
   93300    1624.3161   -160.16524    1.4697153   -158.69552   -1134.7192    4.2547752    4.2547752    4.2547752   -1134.7192   -84948.428     58846.56    22697.711   -3345.3182   -3533.9523    173.64473    77.024672 
   93400     1253.261   -159.82154    1.1339769   -158.68756   -25926.334    4.2637084    4.2637084    4.2637084   -25926.334   -107219.03    28955.201    484.82938    10149.633   -7910.7396    5163.0269    77.510849 
   93500    2783.7806   -161.20085    2.5188232   -158.68203    1850.1419    4.2609268    4.2609268    4.2609268    1850.1419    68393.275   -42136.143   -20706.707    22067.148     3144.838    -4824.317    77.359244 
   93600    1756.2652   -160.27054    1.5891057   -158.68144    11399.579    4.2509836    4.2509836    4.2509836    11399.579   -24364.509    15282.136     43281.11   -9.0123809    149.21905    5680.1736    76.818938 
   93700    976.55747   -159.57139   0.88360972   -158.68778   -6802.7977    4.2481655    4.2481655    4.2481655   -6802.7977   -98772.573    48066.261    30297.919    9766.4598   -7905.4445      3274.79     76.66626 
   93800    2378.3977   -160.84917    2.1520243   -158.69714    8712.4889    4.2500424    4.2500424    4.2500424    8712.4889    52814.675    7761.2739   -34438.482    17331.382   -17783.283   -4626.5984     76.76792 
   93900    2130.3536   -160.61846    1.9275887   -158.69087    2220.8124    4.2529494    4.2529494    4.2529494    2220.8124   -1024.2926    10244.516   -2557.7866   -805.64474   -7520.3391   -4122.8451    76.925554 
   94000    969.12161   -159.56294    0.8768816   -158.68606   -22618.632    4.2580352    4.2580352    4.2580352   -22618.632   -141144.23    42038.366    31249.968    20665.664    7349.6143   -9277.6803    77.201856 
   94100    2324.2545   -160.78727    2.1030344   -158.68423   -8742.1326    4.2583629    4.2583629    4.2583629   -8742.1326    24892.791   -12042.035   -39077.154    16030.036    2753.5658    2682.5497    77.219683 
   94200     2417.276   -160.86857    2.1872021   -158.68137    4901.7654     4.248838     4.248838     4.248838    4901.7654    54646.498   -10363.472    -29577.73   -2793.5227    7751.5177    -620.3929    76.702678 
   94300    985.20916    -159.5737   0.89143795   -158.68226   -4821.1695    4.2413433    4.2413433    4.2413433   -4821.1695   -124311.99    63696.676    46151.804    1858.2367    5999.9544   -12598.567    76.297496 
   94400    1994.4527    -160.5028    1.8046227   -158.69818   -1204.8307    4.2504209    4.2504209    4.2504209   -1204.8307   -71806.401    59408.007    8783.9021    4924.1742   -1080.0711   -7584.2272    76.788437 
   94500    2787.5252    -161.2201    2.5222114   -158.69788    3635.0491    4.2616246    4.2616246    4.2616246    3635.0491    41571.681    20950.624   -51617.158   -9344.1806    18699.283   -4645.2231    77.397258 
   94600    1165.3873   -159.73458    1.0544669   -158.68011   -22409.628    4.2591585    4.2591585    4.2591585   -22409.628   -111070.11    30286.707    13554.516    5322.8644   -3383.5442    8073.5832    77.262972 
   94700    1643.5156   -160.16659    1.4870874   -158.67951     13.92649    4.2489021    4.2489021    4.2489021     13.92649   -83437.645    45986.243    37493.182   -1179.4245   -5659.0071    11058.952    76.706148 
   94800    3374.6149   -161.74394    3.0534225   -158.69051    8048.0592     4.249907     4.249907     4.249907    8048.0592    52029.752   -456.34164   -27429.233   -16093.019    5614.0692    4643.8011    76.760584 
   94900    2030.3177   -160.52863    1.8370741   -158.69155   -22041.227    4.2532102    4.2532102    4.2532102   -22041.227   -46572.692    836.00828   -20386.996    2288.2492   -6909.6036    1561.2198    76.939711 
   95000    944.52636   -159.54235    0.8546273   -158.68773   -23234.464    4.2536046    4.2536046    4.2536046   -23234.464   -113142.41    13129.851    30309.167   -5288.4603   -2546.5321     7999.157    76.961116 
   95100    2853.6941   -161.27626    2.5820824   -158.69418     11461.92    4.2521305    4.2521305    4.2521305     11461.92    62382.997   -3153.7024   -24843.536    4299.6232   -13485.831    7829.1686    76.881132 
   95200    2380.8242   -160.84967    2.1542198   -158.69545    3423.0747     4.254737     4.254737     4.254737    3423.0747    1566.0923    48029.666   -39326.534    15308.666    1668.5543    1564.7329    77.022596 
   95300    714.68266   -159.33515   0.64665989   -158.68849    -20540.99    4.2553368    4.2553368    4.2553368    -20540.99      -142142     76207.76    4311.2685   -6548.3601    7695.2024    2560.5997    77.055177 
   95400    2146.2418   -160.62971    1.9419647   -158.68774   -5287.5709    4.2505946    4.2505946    4.2505946   -5287.5709    -5366.059    6508.1361    -17004.79   -5959.6635    3616.8088   -3.3619436    76.797851 
   95500    2714.8587   -161.14736    2.4564612    -158.6909    10028.285    4.2459314    4.2459314    4.2459314    10028.285     56985.47    3025.8637   -29926.479   -1897.5751    14068.965    8201.6182    76.545368 
   95600    959.22142   -159.56239   0.86792369   -158.69447   -11111.594    4.2523381    4.2523381    4.2523381   -11111.594    -84077.76     37649.92    13093.058   -908.42817    3431.5192   -3667.8904    76.892389 
   95700    1480.8556   -160.03699    1.3399092   -158.69708   -1743.9235    4.2613002    4.2613002    4.2613002   -1743.9235    34685.191   -23372.955   -16544.007    10408.932    3885.8917   -3383.3145    77.379583 
   95800    2482.8842   -160.94361    2.2465658   -158.69704    21116.221    4.2596501    4.2596501    4.2596501    21116.221    131837.29   -35059.509   -33429.124    31928.822   -13692.565    738.77403    77.289728 
   95900    1085.5381   -159.66828    0.9822177   -158.68607    5922.0562    4.2524143    4.2524143    4.2524143    5922.0562   -43555.596    49281.376    12040.389   -5.4719787   -3203.6663   -1616.3151    76.896523 
   96000    1498.0731    -160.0367     1.355488   -158.68121   -18600.775      4.25172      4.25172      4.25172   -18600.775   -59999.369    7300.1061   -3103.0624    1377.7251    14396.425   -5841.6099    76.858867 
   96100    2911.1799   -161.32091    2.6340967   -158.68681    -1848.339    4.2545628    4.2545628    4.2545628    -1848.339    67241.436   -58286.639   -14499.814    3387.3542    5233.3138     256.9269    77.013137 
   96200    1725.0229   -160.24632     1.560837   -158.68548   -2203.9065    4.2551631    4.2551631    4.2551631   -2203.9065   -48155.925    32550.462     8993.743   -3534.7285   -2513.4234    9947.0747    77.045742 
   96300    1295.7055   -159.85236    1.1723816   -158.67998   -12955.536    4.2571082    4.2571082    4.2571082   -12955.536   -109100.07    81921.006   -11687.541    4212.6932   -2549.3998    491.93893    77.151444 
   96400    2670.1654   -161.10201    2.4160218   -158.68599    18315.664    4.2554859    4.2554859    4.2554859    18315.664    63733.234    16765.607   -25551.848    10302.891    4673.3575    -8701.106    77.063275 
   96500    2161.1646   -160.63315    1.9554671   -158.67768   -16093.716    4.2539057    4.2539057    4.2539057   -16093.716   -42075.933    7025.3557    -13230.57   -14976.205   -6491.0314    4881.3552    76.977462 
   96600    1452.8862   -159.98966     1.314602   -158.67506   -27569.007    4.2499024    4.2499024    4.2499024   -27569.007    -147060.4    52959.134     11394.25   -14186.774   -4286.3929    2258.3185    76.760336 
   96700    2555.3418   -160.99457     2.312127   -158.68244    12972.233    4.2513899    4.2513899    4.2513899    12972.233     49058.71   -10187.456    45.444829     4114.038    8107.5146    373.58092    76.840967 
   96800    2049.6008     -160.543    1.8545218   -158.68848    9847.2076    4.2588117    4.2588117    4.2588117    9847.2076    81776.559   -46023.439   -6211.4972    5455.5097    3531.2799   -869.25785    77.244097 
   96900    804.62708   -159.41546   0.72804349   -158.68742   -13404.619    4.2626988    4.2626988    4.2626988   -13404.619   -88994.903    33420.017     15361.03    21866.202   -10479.661    30.877797    77.455797 
   97000    2110.7162   -160.59512    1.9098204    -158.6853    11990.655    4.2564027    4.2564027    4.2564027    11990.655     20545.24    19402.601   -3975.8766    19862.514   -188.62027    4484.5431    77.113095 
   97100    2623.9568   -161.04676    2.3742112   -158.67255   -7944.2938    4.2505203    4.2505203    4.2505203   -7944.2938     38967.62   -38382.367   -24418.134   -6969.6948   -2790.5905   -5527.3724    76.793822 
   97200    983.77484   -159.56325   0.89014015   -158.67311   -20741.622    4.2502151    4.2502151    4.2502151   -20741.622   -116587.57    18894.973    35467.736    -4380.645    4651.6191    3150.6038     76.77728 
   97300    1785.1832   -160.29808    1.6152713   -158.68281    5958.0769    4.2585153    4.2585153    4.2585153    5958.0769   -45374.069    65158.755    -1910.455    14204.437    11242.807      8405.59    77.227972 
   97400    2868.8867   -161.27979     2.595829   -158.68396    13220.159    4.2628515    4.2628515    4.2628515    13220.159    85437.996    12890.525   -58668.046    2582.7647    342.55131   -2764.8971    77.464125 
   97500    1232.6097   -159.78685    1.1152911   -158.67155   -27891.462    4.2595565    4.2595565    4.2595565   -27891.462   -94829.681    4624.0913    6531.2032    117.21136     6988.727   -2502.6399    77.284633 
   97600    1530.3957   -160.06282    1.3847342   -158.67809   -18686.528    4.2516065    4.2516065    4.2516065   -18686.528   -96752.867    3934.0413    36759.241   -2947.6027    -2268.858   -4289.9744     76.85271 
   97700    3470.8554   -161.83032    3.1405029   -158.68982    6310.5386    4.2503489    4.2503489    4.2503489    6310.5386    55930.474   -21174.027   -15824.831   -5339.5891   -6250.7798    8414.7742    76.784531 
   97800      1983.85   -160.48836    1.7950292   -158.69333    7201.5419    4.2534542    4.2534542    4.2534542    7201.5419   -19055.192    28108.493    12551.325    8011.6986    11375.059     1061.356    76.952951 
   97900    728.62554    -159.3487    0.6592757   -158.68942   -14693.326    4.2607019    4.2607019    4.2607019   -14693.326   -110334.82     30286.44    35968.404    1133.1655   -5356.4581   -5161.0041    77.346998 
   98000      2590.56   -161.03348    2.3439932   -158.68949   -1318.4228    4.2614819    4.2614819    4.2614819   -1318.4228    28203.621   -7040.4288    -25118.46   -1751.7783     6902.969   -6710.8759    77.389481 
   98100    2607.2756   -161.04159    2.3591178   -158.68247    -6473.892    4.2518745    4.2518745    4.2518745    -6473.892   -18653.738    18468.958   -19236.895    515.52979   -17731.975   -7.9465028    76.867242 
   98200    971.11306   -159.55693   0.87868351   -158.67825    -21026.23    4.2468152    4.2468152    4.2468152    -21026.23   -132194.17     27796.21    41319.271    5566.0365   -6474.6529    1918.4709    76.593178 
   98300    1899.0516   -160.40725    1.7183018   -158.68895    3391.4143    4.2539778    4.2539778    4.2539778    3391.4143     22006.57   -24050.136     12217.81    14433.812    19953.518   -8662.6539    76.981374 
   98400    2608.5619   -161.05143    2.3602816   -158.69114    23088.966    4.2618515    4.2618515    4.2618515    23088.966    79858.097    18803.755   -29394.955    27889.117   -3313.9644   -2443.2098    77.409621 
   98500    1075.6055   -159.65174    0.9732305   -158.67851   -11298.619    4.2619967    4.2619967    4.2619967   -11298.619   -115142.96    74457.406    6789.6959    9252.7161     2059.972    3751.9426    77.417533 
   98600    1676.9013   -160.19378    1.5172955   -158.67649   -12947.152    4.2560507    4.2560507    4.2560507   -12947.152   -53456.143    -9963.252    24577.939   -1538.2998   -517.74664    2557.6719    77.093965 
   98700    3020.4619   -161.41338    2.7329774    -158.6804   -2179.1834     4.251524     4.251524     4.251524   -2179.1834    49182.271   -52189.339   -3530.4824   -1039.6967   -8621.8863    1664.3307    76.848237 
   98800    1679.0163   -160.20295    1.5192092   -158.68374   -17623.682    4.2520624    4.2520624    4.2520624   -17623.682   -83385.047    26807.382    3706.6192    919.91674    17269.741    2564.2066    76.877437 
   98900    1100.8558    -159.6836   0.99607746   -158.68752   -4282.6336    4.2564111    4.2564111    4.2564111   -4282.6336   -37672.695    15253.952    9570.8431    14166.258   -6602.3122    7649.5408     77.11355 
   99000    2582.6662   -161.02794    2.3368506   -158.69109     10593.35     4.264724     4.264724     4.264724     10593.35    111332.97   -44341.065   -35211.855    7692.2686    5880.3814     7817.367    77.566248 
   99100    2156.5837   -160.62534    1.9513223   -158.67401   -36393.363    4.2683108    4.2683108    4.2683108   -36393.363   -78448.287   -5255.1327   -25476.668   -6485.6829   -1101.2283   -5612.7016    77.762124 
   99200    1481.7352   -160.00378    1.3407052   -158.66308   -36695.632     4.255408     4.255408     4.255408   -36695.632    -137822.1    6731.5108    21003.698   -3649.6642   -8740.8853   -2356.7654    77.059047 
   99300    2331.8018   -160.78032    2.1098632   -158.67046    22446.624    4.2429442    4.2429442    4.2429442    22446.624    80903.156   -43438.158    29874.873    -6722.426    4819.0135     5554.702    76.383923 
   99400    2157.7845   -160.63895    1.9524088   -158.68654     22620.06    4.2490143    4.2490143    4.2490143     22620.06    49077.545    14207.877    4574.7571    13847.785   -7187.9854   -2654.8579    76.712227 
   99500    1349.4263    -159.9087    1.2209892   -158.68771   -13952.317    4.2623844    4.2623844    4.2623844   -13952.317    -108468.5    61550.431    5061.1225    20687.767    11852.123    -2530.063    77.438662 
   99600    1841.1047   -160.34735    1.6658702   -158.68148   -12421.332    4.2630436    4.2630436    4.2630436   -12421.332    5373.9319   -63152.271    20514.344    3282.0919    14057.237   -6325.0699    77.474594 
   99700    2314.2274   -160.76924    2.0939616   -158.67528    4369.0291    4.2538245    4.2538245    4.2538245    4369.0291    44229.024   -52712.821    21590.884    17691.735   -12938.676   -4441.2387    76.973053 
   99800    1614.8602   -160.13799    1.4611594   -158.67683   -101.43062    4.2459618    4.2459618    4.2459618   -101.43062   -90153.579    57782.457     32066.83    5594.1351   -9653.5418    12679.785    76.547013 
   99900    1955.9576   -160.45233    1.7697915   -158.68254   -3257.1077    4.2433066    4.2433066    4.2433066   -3257.1077   -31845.121    18912.323    3161.4743   -1157.9909   -6309.3751     5411.114    76.403497 
  100000    2454.9152   -160.91207    2.2212588   -158.69081    8293.0713    4.2501745    4.2501745    4.2501745    8293.0713    77005.841   -57424.362    5297.7342    130.51581    2603.5245   -430.85486    76.775081 
Loop time of 59.8885 on 1 procs for 100000 steps with 8 atoms

Pair  time (%) = 20.4469 (34.1417)
Kspce time (%) = 14.143 (23.6155)
Neigh time (%) = 0.268651 (0.448585)
Comm  time (%) = 2.95777 (4.93879)
Outpt time (%) = 0.302454 (0.50503)
Other time (%) = 21.7697 (36.3504)

Nlocal:    8 ave 8 max 8 min
Histogram: 1 0 0 0 0 0 0 0 0 0
Nghost:    2189 ave 2189 max 2189 min
Histogram: 1 0 0 0 0 0 0 0 0 0
Neighs:    2361 ave 2361 max 2361 min
Histogram: 1 0 0 0 0 0 0 0 0 0

Total # of neighbors = 2361
Ave neighs/atom = 295.125
Neighbor list builds = 1440
Dangerous builds = 0
unfix 20
unfix 21
print "seeds:7161578"
seeds:7161578
