# ['Ni']

107 atoms
1 atom types

    0.0000     9.4079 xlo xhi
    0.0000     9.4079 ylo yhi
    0.0000     9.4079 zlo zhi

    0.0000    -0.0000    -0.0000 xy xz yz

Atoms

1 1     1.5680     1.5680     0.0000
2 1     1.5680     0.0000     1.5680
3 1     0.0000     1.5680     1.5680
4 1     0.0000     0.0000     3.1360
5 1     1.5680     1.5680     3.1360
6 1     1.5680     0.0000     4.7039
7 1     0.0000     1.5680     4.7039
8 1     0.0000     0.0000     6.2719
9 1     1.5680     1.5680     6.2719
10 1     1.5680     0.0000     7.8399
11 1     0.0000     1.5680     7.8399
12 1     0.0000     3.1360     0.0000
13 1     1.5680     4.7039     0.0000
14 1     1.5680     3.1360     1.5680
15 1     0.0000     4.7039     1.5680
16 1     0.0000     3.1360     3.1360
17 1     1.5680     4.7039     3.1360
18 1     1.5680     3.1360     4.7039
19 1     0.0000     4.7039     4.7039
20 1     0.0000     3.1360     6.2719
21 1     1.5680     4.7039     6.2719
22 1     1.5680     3.1360     7.8399
23 1     0.0000     4.7039     7.8399
24 1     0.0000     6.2719     0.0000
25 1     1.5680     7.8399     0.0000
26 1     1.5680     6.2719     1.5680
27 1     0.0000     7.8399     1.5680
28 1     0.0000     6.2719     3.1360
29 1     1.5680     7.8399     3.1360
30 1     1.5680     6.2719     4.7039
31 1     0.0000     7.8399     4.7039
32 1     0.0000     6.2719     6.2719
33 1     1.5680     7.8399     6.2719
34 1     1.5680     6.2719     7.8399
35 1     0.0000     7.8399     7.8399
36 1     3.1360     0.0000     0.0000
37 1     4.7039     1.5680     0.0000
38 1     4.7039     0.0000     1.5680
39 1     3.1360     1.5680     1.5680
40 1     3.1360     0.0000     3.1360
41 1     4.7039     1.5680     3.1360
42 1     4.7039     0.0000     4.7039
43 1     3.1360     1.5680     4.7039
44 1     3.1360     0.0000     6.2719
45 1     4.7039     1.5680     6.2719
46 1     4.7039     0.0000     7.8399
47 1     3.1360     1.5680     7.8399
48 1     3.1360     3.1360     0.0000
49 1     4.7039     4.7039     0.0000
50 1     4.7039     3.1360     1.5680
51 1     3.1360     4.7039     1.5680
52 1     3.1360     3.1360     3.1360
53 1     4.7039     4.7039     3.1360
54 1     4.7039     3.1360     4.7039
55 1     3.1360     4.7039     4.7039
56 1     3.1360     3.1360     6.2719
57 1     4.7039     4.7039     6.2719
58 1     4.7039     3.1360     7.8399
59 1     3.1360     4.7039     7.8399
60 1     3.1360     6.2719     0.0000
61 1     4.7039     7.8399     0.0000
62 1     4.7039     6.2719     1.5680
63 1     3.1360     7.8399     1.5680
64 1     3.1360     6.2719     3.1360
65 1     4.7039     7.8399     3.1360
66 1     4.7039     6.2719     4.7039
67 1     3.1360     7.8399     4.7039
68 1     3.1360     6.2719     6.2719
69 1     4.7039     7.8399     6.2719
70 1     4.7039     6.2719     7.8399
71 1     3.1360     7.8399     7.8399
72 1     6.2719     0.0000     0.0000
73 1     7.8399     1.5680     0.0000
74 1     7.8399     0.0000     1.5680
75 1     6.2719     1.5680     1.5680
76 1     6.2719     0.0000     3.1360
77 1     7.8399     1.5680     3.1360
78 1     7.8399     0.0000     4.7039
79 1     6.2719     1.5680     4.7039
80 1     6.2719     0.0000     6.2719
81 1     7.8399     1.5680     6.2719
82 1     7.8399     0.0000     7.8399
83 1     6.2719     1.5680     7.8399
84 1     6.2719     3.1360     0.0000
85 1     7.8399     4.7039     0.0000
86 1     7.8399     3.1360     1.5680
87 1     6.2719     4.7039     1.5680
88 1     6.2719     3.1360     3.1360
89 1     7.8399     4.7039     3.1360
90 1     7.8399     3.1360     4.7039
91 1     6.2719     4.7039     4.7039
92 1     6.2719     3.1360     6.2719
93 1     7.8399     4.7039     6.2719
94 1     7.8399     3.1360     7.8399
95 1     6.2719     4.7039     7.8399
96 1     6.2719     6.2719     0.0000
97 1     7.8399     7.8399     0.0000
98 1     7.8399     6.2719     1.5680
99 1     6.2719     7.8399     1.5680
100 1     6.2719     6.2719     3.1360
101 1     7.8399     7.8399     3.1360
102 1     7.8399     6.2719     4.7039
103 1     6.2719     7.8399     4.7039
104 1     6.2719     6.2719     6.2719
105 1     7.8399     7.8399     6.2719
106 1     7.8399     6.2719     7.8399
107 1     6.2719     7.8399     7.8399
