# ['Ni']

28 atoms
1 atom types

    0.0000     2.3533 xlo xhi
    0.0000     4.0759 ylo yhi
    0.0000    26.8999 zlo zhi

    0.0000     0.0000     0.0000 xy xz yz

Atoms

1 1     0.0000     0.0000     0.0000
2 1     1.1766     2.0380     0.0000
3 1     1.1766     0.6793     1.9214
4 1     0.0000     2.7173     1.9214
5 1     0.0000     1.3586     3.8428
6 1     1.1766     3.3966     3.8428
7 1     0.0000     0.0000     5.7643
8 1     1.1766     2.0380     5.7643
9 1     1.1766     0.6793     7.6857
10 1     0.0000     2.7173     7.6857
11 1     0.0000     1.3586     9.6071
12 1     1.1766     3.3966     9.6071
13 1     0.0000     0.0000    11.5285
14 1     1.1766     2.0380    11.5285
15 1     0.0000     1.3586    13.4499
16 1     1.1766     3.3966    13.4499
17 1     0.0000     0.0000    15.3714
18 1     1.1766     2.0380    15.3714
19 1     1.1766     0.6793    17.2928
20 1     0.0000     2.7173    17.2928
21 1     0.0000     1.3586    19.2142
22 1     1.1766     3.3966    19.2142
23 1     0.0000     0.0000    21.1356
24 1     1.1766     2.0380    21.1356
25 1     1.1766     0.6793    23.0571
26 1     0.0000     2.7173    23.0571
27 1     0.0000     1.3586    24.9785
28 1     1.1766     3.3966    24.9785
