# ['Ni']

28 atoms
1 atom types

    0.0000     2.3039 xlo xhi
    0.0000     3.9905 ylo yhi
    0.0000    26.3362 zlo zhi

    0.0000     0.0000     0.0000 xy xz yz

Atoms

1 1     0.0000     0.0000     0.0000
2 1     1.1520     1.9953     0.0000
3 1     1.1520     0.6651     1.8812
4 1     0.0000     2.6604     1.8812
5 1     0.0000     1.3302     3.7623
6 1     1.1520     3.3255     3.7623
7 1     0.0000     0.0000     5.6435
8 1     1.1520     1.9953     5.6435
9 1     1.1520     0.6651     7.5246
10 1     0.0000     2.6604     7.5246
11 1     0.0000     1.3302     9.4058
12 1     1.1520     3.3255     9.4058
13 1     0.0000     0.0000    11.2869
14 1     1.1520     1.9953    11.2869
15 1     0.0000     1.3302    13.1681
16 1     1.1520     3.3255    13.1681
17 1     0.0000     0.0000    15.0493
18 1     1.1520     1.9953    15.0493
19 1     1.1520     0.6651    16.9304
20 1     0.0000     2.6604    16.9304
21 1     0.0000     1.3302    18.8116
22 1     1.1520     3.3255    18.8116
23 1     0.0000     0.0000    20.6927
24 1     1.1520     1.9953    20.6927
25 1     1.1520     0.6651    22.5739
26 1     0.0000     2.6604    22.5739
27 1     0.0000     1.3302    24.4551
28 1     1.1520     3.3255    24.4551
