# ['Ni']

28 atoms
1 atom types

    0.0000     2.3498 xlo xhi
    0.0000     4.0700 ylo yhi
    0.0000    26.8609 zlo zhi

    0.0000     0.0000     0.0000 xy xz yz

Atoms

1 1     0.0000     0.0000     0.0000
2 1     1.1749     2.0350     0.0000
3 1     1.1749     0.6783     1.9186
4 1     0.0000     2.7134     1.9186
5 1     0.0000     1.3567     3.8373
6 1     1.1749     3.3917     3.8373
7 1     0.0000     0.0000     5.7559
8 1     1.1749     2.0350     5.7559
9 1     1.1749     0.6783     7.6745
10 1     0.0000     2.7134     7.6745
11 1     0.0000     1.3567     9.5932
12 1     1.1749     3.3917     9.5932
13 1     0.0000     0.0000    11.5118
14 1     1.1749     2.0350    11.5118
15 1     0.0000     1.3567    13.4305
16 1     1.1749     3.3917    13.4305
17 1     0.0000     0.0000    15.3491
18 1     1.1749     2.0350    15.3491
19 1     1.1749     0.6783    17.2677
20 1     0.0000     2.7134    17.2677
21 1     0.0000     1.3567    19.1864
22 1     1.1749     3.3917    19.1864
23 1     0.0000     0.0000    21.1050
24 1     1.1749     2.0350    21.1050
25 1     1.1749     0.6783    23.0237
26 1     0.0000     2.7134    23.0237
27 1     0.0000     1.3567    24.9423
28 1     1.1749     3.3917    24.9423
