   2   2   0   0
  0.1090254E+02  0.2793739E-09  0.2793739E-09  0.2793739E-09  0.5000000E-15
  1.000000000000000E-004
  CAR 
 automatically generated by pyflamestk   
     29.83155438     -0.72064184  301      9.24994227      1.00000000
     -0.721  0.0000E+00  0.0000E+00  0.0000E+00  0.0000E+00
     -0.619  0.0000E+00  0.0000E+00  0.0000E+00  0.0000E+00
     -0.517  0.0000E+00  0.0000E+00  0.0000E+00  0.0000E+00
     -0.415 -0.1964E-30  0.0000E+00 -0.2000E-31  0.0000E+00
     -0.313 -0.7957E-27 -0.1718E-27 -0.8105E-28 -0.1749E-28
     -0.211 -0.1912E-23 -0.4556E-24 -0.1948E-24 -0.4641E-25
     -0.110 -0.2721E-20 -0.7161E-21 -0.2773E-21 -0.7297E-22
     -0.008 -0.2293E-17 -0.6665E-18 -0.2338E-18 -0.6795E-19
      0.094 -0.1143E-14 -0.3670E-15 -0.1166E-15 -0.3744E-16
      0.196 -0.3252E-12 -0.1155E-12 -0.3323E-13 -0.1180E-13
      0.298 -0.5602E-10 -0.2201E-10 -0.5739E-11 -0.2253E-11
      0.400 -0.5659E-08 -0.2460E-08 -0.5820E-09 -0.2528E-09
      0.501 -0.3333E-06 -0.1606E-06 -0.3452E-07 -0.1661E-07
      0.603 -0.1134E-04 -0.6070E-05 -0.1190E-05 -0.6348E-06
      0.705 -0.2197E-03 -0.1310E-03 -0.2356E-04 -0.1398E-04
      0.807 -0.2344E-02 -0.1571E-02 -0.2623E-03 -0.1740E-03
      0.909 -0.1275E-01 -0.9815E-02 -0.1561E-02 -0.1174E-02
      1.011 -0.2593E-01 -0.2557E-01 -0.4202E-02 -0.3778E-02
      1.112  0.4333E-01  0.1700E-01  0.2101E-03 -0.2047E-02
      1.214  0.2929E+00  0.2361E+00  0.3004E-01  0.2200E-01
      1.316  0.5064E+00  0.4884E+00  0.8161E-01  0.7173E-01
      1.418  0.3739E+00  0.4231E+00  0.1197E+00  0.1148E+00
      1.520  0.9559E-01  0.1403E+00  0.1294E+00  0.1291E+00
      1.622 -0.2128E-01 -0.1296E-01  0.1273E+00  0.1278E+00
      1.724 -0.1763E-01 -0.2102E-01  0.1255E+00  0.1257E+00
      1.825 -0.4032E-02 -0.5665E-02  0.1250E+00  0.1251E+00
      1.927 -0.4502E-03 -0.7159E-03  0.1250E+00  0.1250E+00
      2.029 -0.2731E-04 -0.4855E-04  0.1250E+00  0.1250E+00
      2.131 -0.9361E-06 -0.1851E-05  0.1250E+00  0.1250E+00
      2.233 -0.1848E-07 -0.4052E-07  0.1250E+00  0.1250E+00
      2.335 -0.2123E-09 -0.5156E-09  0.1250E+00  0.1250E+00
      2.436 -0.5218E-11 -0.1256E-10  0.1250E+00  0.1250E+00
      2.538 -0.5703E-09 -0.1206E-08  0.1250E+00  0.1250E+00
      2.640 -0.5027E-07 -0.9754E-07  0.1250E+00  0.1250E+00
      2.742 -0.2579E-05 -0.4587E-05  0.1250E+00  0.1250E+00
      2.844 -0.7622E-04 -0.1240E-03  0.1250E+00  0.1250E+00
      2.946 -0.1274E-02 -0.1888E-02  0.1249E+00  0.1248E+00
      3.047 -0.1158E-01 -0.1548E-01  0.1237E+00  0.1232E+00
      3.149 -0.5163E-01 -0.6025E-01  0.1184E+00  0.1171E+00
      3.251 -0.6594E-01 -0.4747E-01  0.1117E+00  0.1122E+00
      3.353  0.2717E+00  0.3810E+00  0.1394E+00  0.1510E+00
      3.455  0.1102E+01  0.1230E+01  0.2516E+00  0.2763E+00
      3.557  0.1523E+01  0.1485E+01  0.4067E+00  0.4275E+00
      3.659  0.8997E+00  0.7561E+00  0.4983E+00  0.5045E+00
      3.760  0.1413E+00  0.7108E-01  0.5127E+00  0.5117E+00
      3.862 -0.7744E-01 -0.7768E-01  0.5048E+00  0.5038E+00
      3.964 -0.3942E-01 -0.3201E-01  0.5008E+00  0.5006E+00
      4.066 -0.7384E-02 -0.8098E-02  0.5001E+00  0.4997E+00
      4.168 -0.9316E-03 -0.2104E-01  0.5000E+00  0.4976E+00
      4.270 -0.3132E-02 -0.6862E-01  0.4997E+00  0.4906E+00
      4.371 -0.2205E-01 -0.1615E-01  0.4974E+00  0.4890E+00
      4.473 -0.7047E-01  0.5108E+00  0.4902E+00  0.5410E+00
      4.575 -0.6046E-02  0.1346E+01  0.4896E+00  0.6780E+00
      4.677  0.5456E+00  0.1409E+01  0.5452E+00  0.8216E+00
      4.779  0.1372E+01  0.5829E+00  0.6849E+00  0.8809E+00
      4.881  0.1390E+01 -0.6136E-01  0.8265E+00  0.8747E+00
      4.982  0.5708E+00 -0.6418E-01  0.8846E+00  0.8681E+00
      5.084 -0.1273E-01  0.5522E+00  0.8833E+00  0.9244E+00
      5.186 -0.1330E+00  0.1340E+01  0.8698E+00  0.1061E+01
      5.288 -0.9230E-01  0.1507E+01  0.8604E+00  0.1214E+01
      5.390  0.2810E+00  0.1518E+01  0.8890E+00  0.1369E+01
      5.492  0.1109E+01  0.2008E+01  0.1002E+01  0.1573E+01
      5.593  0.1907E+01  0.2123E+01  0.1196E+01  0.1790E+01
      5.695  0.2509E+01  0.1344E+01  0.1452E+01  0.1926E+01
      5.797  0.2559E+01  0.5037E+00  0.1712E+01  0.1978E+01
      5.899  0.1453E+01  0.6935E+00  0.1860E+01  0.2048E+01
      6.001  0.3055E+00  0.2240E+01  0.1891E+01  0.2276E+01
      6.103  0.2842E+00  0.3912E+01  0.1920E+01  0.2675E+01
      6.205  0.7851E+00  0.4229E+01  0.2000E+01  0.3106E+01
      6.306  0.1145E+01  0.3416E+01  0.2117E+01  0.3453E+01
      6.408  0.1796E+01  0.2078E+01  0.2300E+01  0.3665E+01
      6.510  0.2500E+01  0.1089E+01  0.2554E+01  0.3776E+01
      6.612  0.2820E+01  0.1835E+01  0.2842E+01  0.3963E+01
      6.714  0.3329E+01  0.3226E+01  0.3181E+01  0.4291E+01
      6.816  0.3288E+01  0.2895E+01  0.3515E+01  0.4586E+01
      6.917  0.1890E+01  0.1754E+01  0.3708E+01  0.4765E+01
      7.019  0.7694E+00  0.2381E+01  0.3786E+01  0.5007E+01
      7.121  0.1352E+01  0.3842E+01  0.3924E+01  0.5399E+01
      7.223  0.2802E+01  0.3369E+01  0.4209E+01  0.5742E+01
      7.325  0.3932E+01  0.1511E+01  0.4610E+01  0.5896E+01
      7.427  0.4300E+01  0.4492E+00  0.5048E+01  0.5941E+01
      7.528  0.3900E+01  0.2333E+00  0.5445E+01  0.5965E+01
      7.630  0.2856E+01  0.1150E+00  0.5736E+01  0.5977E+01
      7.732  0.1347E+01  0.6712E+00  0.5873E+01  0.6045E+01
      7.834  0.1883E+00  0.2231E+01  0.5892E+01  0.6272E+01
      7.936 -0.4211E-01  0.3166E+01  0.5888E+01  0.6595E+01
      8.038  0.2386E+00  0.2741E+01  0.5912E+01  0.6874E+01
      8.139  0.5087E+00  0.2939E+01  0.5964E+01  0.7173E+01
      8.241  0.9375E+00  0.4200E+01  0.6059E+01  0.7601E+01
      8.343  0.1695E+01  0.4647E+01  0.6232E+01  0.8074E+01
      8.445  0.2345E+01  0.4270E+01  0.6471E+01  0.8509E+01
      8.547  0.2726E+01  0.3995E+01  0.6748E+01  0.8916E+01
      8.649  0.3212E+01  0.3968E+01  0.7076E+01  0.9320E+01
      8.751  0.4239E+01  0.4457E+01  0.7507E+01  0.9774E+01
      8.852  0.5308E+01  0.4262E+01  0.8048E+01  0.1021E+02
      8.954  0.5351E+01  0.2508E+01  0.8593E+01  0.1046E+02
      9.056  0.4075E+01  0.6348E+00  0.9008E+01  0.1053E+02
      9.158  0.2656E+01 -0.1506E+00  0.9278E+01  0.1051E+02
      9.260  0.2512E+01 -0.2050E+00  0.9534E+01  0.1049E+02
      9.362  0.3224E+01  0.6658E-01  0.9862E+01  0.1050E+02
      9.463  0.3450E+01  0.8193E+00  0.1021E+02  0.1058E+02
      9.565  0.2344E+01  0.1506E+01  0.1045E+02  0.1074E+02
      9.667  0.6904E+00  0.1171E+01  0.1052E+02  0.1085E+02
      9.769 -0.1555E+00  0.3272E+00  0.1051E+02  0.1089E+02
      9.871 -0.1355E+00 -0.5749E-01  0.1049E+02  0.1088E+02
      9.973  0.4874E+00 -0.5618E-01  0.1054E+02  0.1088E+02
     10.074  0.1350E+01 -0.1351E-01  0.1068E+02  0.1088E+02
     10.176  0.1406E+01 -0.1569E-02  0.1082E+02  0.1088E+02
     10.278  0.5971E+00 -0.9857E-04  0.1088E+02  0.1088E+02
     10.380  0.1025E-01 -0.3495E-05  0.1089E+02  0.1088E+02
     10.482 -0.7291E-01 -0.7133E-07  0.1088E+02  0.1088E+02
     10.584 -0.2429E-01 -0.5068E-08  0.1088E+02  0.1087E+02
     10.686 -0.3556E-02 -0.2948E-06  0.1088E+02  0.1087E+02
     10.787 -0.2746E-03 -0.1193E-04  0.1088E+02  0.1087E+02
     10.889 -0.1187E-04 -0.2765E-03  0.1088E+02  0.1087E+02
     10.991 -0.2220E-05 -0.3576E-02  0.1087E+02  0.1087E+02
     11.093 -0.5956E-04 -0.2439E-01  0.1087E+02  0.1087E+02
     11.195 -0.1042E-02 -0.7300E-01  0.1087E+02  0.1086E+02
     11.297 -0.9963E-02  0.1096E-01  0.1087E+02  0.1087E+02
     11.398 -0.4735E-01  0.5992E+00  0.1087E+02  0.1093E+02
     11.500 -0.7166E-01  0.1406E+01  0.1086E+02  0.1107E+02
     11.602  0.2232E+00  0.1340E+01  0.1088E+02  0.1121E+02
     11.704  0.1034E+01  0.4632E+00  0.1099E+02  0.1125E+02
     11.806  0.1524E+01 -0.9224E-01  0.1115E+02  0.1124E+02
     11.908  0.9341E+00  0.1964E+00  0.1124E+02  0.1126E+02
     12.009  0.9317E-01  0.1214E+01  0.1125E+02  0.1139E+02
     12.111 -0.6620E-02  0.1949E+01  0.1125E+02  0.1159E+02
     12.213  0.7891E+00  0.1400E+01  0.1133E+02  0.1173E+02
     12.315  0.1748E+01  0.3653E+00  0.1151E+02  0.1177E+02
     12.417  0.1680E+01 -0.7418E-01  0.1168E+02  0.1176E+02
     12.519  0.7476E+00 -0.6669E-01  0.1175E+02  0.1175E+02
     12.620  0.6965E-01 -0.1599E-01  0.1176E+02  0.1175E+02
     12.722 -0.7341E-01 -0.1875E-02  0.1175E+02  0.1175E+02
     12.824 -0.3390E-01 -0.1199E-03  0.1175E+02  0.1175E+02
     12.926 -0.6723E-02 -0.4340E-05  0.1175E+02  0.1175E+02
     13.028 -0.7207E-03 -0.9066E-07  0.1175E+02  0.1175E+02
     13.130 -0.4404E-04 -0.1103E-08  0.1175E+02  0.1175E+02
     13.232 -0.1561E-05 -0.7870E-11  0.1175E+02  0.1175E+02
     13.333 -0.3232E-07 -0.3352E-13  0.1175E+02  0.1175E+02
     13.435 -0.3928E-09  0.0000E+00  0.1175E+02  0.1175E+02
     13.537 -0.2809E-11  0.0000E+00  0.1175E+02  0.1175E+02
     13.639 -0.1199E-13  0.0000E+00  0.1175E+02  0.1175E+02
     13.741  0.0000E+00  0.0000E+00  0.1175E+02  0.1175E+02
     13.843  0.0000E+00  0.0000E+00  0.1175E+02  0.1175E+02
     13.944  0.0000E+00  0.0000E+00  0.1175E+02  0.1175E+02
     14.046  0.0000E+00 -0.9283E-29  0.1175E+02  0.1175E+02
     14.148  0.0000E+00 -0.3094E-25  0.1175E+02  0.1175E+02
     14.250 -0.1604E-28 -0.6115E-22  0.1175E+02  0.1175E+02
     14.352 -0.5167E-25 -0.7158E-19  0.1175E+02  0.1175E+02
     14.454 -0.9868E-22 -0.4959E-16  0.1175E+02  0.1175E+02
     14.555 -0.1116E-18 -0.1976E-13  0.1175E+02  0.1175E+02
     14.657 -0.7471E-16 -0.4733E-11  0.1175E+02  0.1175E+02
     14.759 -0.2861E-13 -0.6683E-09  0.1175E+02  0.1175E+02
     14.861 -0.6652E-11 -0.5524E-07  0.1175E+02  0.1175E+02
     14.963 -0.9071E-09 -0.2655E-05  0.1175E+02  0.1175E+02
     15.065 -0.7237E-07 -0.7341E-04  0.1175E+02  0.1175E+02
     15.167 -0.3356E-05 -0.1145E-02  0.1175E+02  0.1175E+02
     15.268 -0.8940E-04 -0.9676E-02  0.1175E+02  0.1175E+02
     15.370 -0.1340E-02 -0.3981E-01  0.1175E+02  0.1174E+02
     15.472 -0.1081E-01 -0.4533E-01  0.1175E+02  0.1174E+02
     15.574 -0.4128E-01  0.1875E+00  0.1174E+02  0.1176E+02
     15.676 -0.3169E-01  0.7281E+00  0.1174E+02  0.1183E+02
     15.778  0.2467E+00  0.1222E+01  0.1177E+02  0.1196E+02
     15.879  0.7649E+00  0.1564E+01  0.1184E+02  0.1212E+02
     15.981  0.9645E+00  0.1588E+01  0.1194E+02  0.1228E+02
     16.083  0.9881E+00  0.9167E+00  0.1204E+02  0.1237E+02
     16.185  0.1378E+01  0.1587E+00  0.1218E+02  0.1239E+02
     16.287  0.1369E+01 -0.7913E-01  0.1232E+02  0.1238E+02
     16.389  0.6001E+00 -0.4373E-01  0.1238E+02  0.1238E+02
     16.490  0.1484E-01 -0.8626E-02  0.1239E+02  0.1238E+02
     16.592 -0.7416E-01 -0.8596E-03  0.1238E+02  0.1238E+02
     16.694 -0.2535E-01 -0.4713E-04  0.1238E+02  0.1238E+02
     16.796 -0.3781E-02 -0.6114E-05  0.1238E+02  0.1237E+02
     16.898 -0.3032E-03 -0.1177E-03  0.1238E+02  0.1237E+02
     17.000 -0.1693E-03 -0.1670E-02  0.1237E+02  0.1237E+02
     17.101 -0.2092E-02 -0.1265E-01  0.1237E+02  0.1237E+02
     17.203 -0.1484E-01 -0.4420E-01  0.1237E+02  0.1237E+02
     17.305 -0.4715E-01 -0.1783E-01  0.1237E+02  0.1237E+02
     17.407 -0.3018E-02  0.3138E+00  0.1237E+02  0.1240E+02
     17.509  0.3670E+00  0.8719E+00  0.1241E+02  0.1249E+02
     17.611  0.9160E+00  0.9395E+00  0.1250E+02  0.1258E+02
     17.713  0.9177E+00  0.4145E+00  0.1259E+02  0.1263E+02
     17.814  0.3553E+00  0.1265E+00  0.1263E+02  0.1264E+02
     17.916 -0.4064E-02  0.3379E+00  0.1263E+02  0.1267E+02
     18.018  0.1255E+00  0.4839E+00  0.1264E+02  0.1272E+02
     18.120  0.4345E+00  0.2664E+00  0.1269E+02  0.1275E+02
     18.222  0.4587E+00  0.1082E-01  0.1273E+02  0.1275E+02
     18.324  0.1751E+00 -0.2233E-01  0.1275E+02  0.1275E+02
     18.425  0.7708E-02  0.1881E+00  0.1275E+02  0.1277E+02
     18.527  0.1767E+00  0.4670E+00  0.1277E+02  0.1282E+02
     18.629  0.4618E+00  0.4485E+00  0.1282E+02  0.1286E+02
     18.731  0.4485E+00  0.1565E+00  0.1286E+02  0.1288E+02
     18.833  0.1674E+00 -0.6683E-01  0.1288E+02  0.1287E+02
     18.935 -0.3318E-01 -0.6462E-01  0.1287E+02  0.1286E+02
     19.036 -0.9903E-01  0.4018E+00  0.1286E+02  0.1290E+02
     19.138  0.3442E-01  0.1257E+01  0.1287E+02  0.1303E+02
     19.240  0.6828E+00  0.1471E+01  0.1294E+02  0.1318E+02
     19.342  0.1454E+01  0.7226E+00  0.1309E+02  0.1326E+02
     19.444  0.1289E+01  0.5687E-01  0.1322E+02  0.1326E+02
     19.546  0.4422E+00 -0.7705E-01  0.1326E+02  0.1325E+02
     19.647 -0.3394E-01 -0.3015E-01  0.1326E+02  0.1325E+02
     19.749 -0.6445E-01 -0.4881E-02  0.1325E+02  0.1325E+02
     19.851 -0.1782E-01 -0.4118E-03  0.1325E+02  0.1325E+02
     19.953 -0.2294E-02 -0.4324E-04  0.1325E+02  0.1325E+02
     20.055 -0.1690E-03 -0.5036E-03  0.1325E+02  0.1325E+02
     20.157 -0.2660E-03 -0.5905E-02  0.1325E+02  0.1325E+02
     20.259 -0.3512E-02 -0.3675E-01  0.1325E+02  0.1325E+02
     20.360 -0.2564E-01 -0.1005E+00  0.1325E+02  0.1324E+02
     20.462 -0.8849E-01  0.2834E-01  0.1324E+02  0.1324E+02
     20.564 -0.4738E-01  0.8359E+00  0.1323E+02  0.1332E+02
     20.666  0.5818E+00  0.2016E+01  0.1329E+02  0.1353E+02
     20.768  0.1796E+01  0.2176E+01  0.1348E+02  0.1375E+02
     20.870  0.2290E+01  0.1083E+01  0.1371E+02  0.1386E+02
     20.971  0.1365E+01  0.2827E+00  0.1385E+02  0.1389E+02
     21.073  0.3709E+00  0.7258E+00  0.1389E+02  0.1396E+02
     21.175  0.5998E+00  0.1452E+01  0.1395E+02  0.1411E+02
     21.277  0.1386E+01  0.1163E+01  0.1409E+02  0.1423E+02
     21.379  0.1273E+01  0.3288E+00  0.1422E+02  0.1426E+02
     21.481  0.4413E+00 -0.5707E-01  0.1426E+02  0.1426E+02
     21.582 -0.3380E-01 -0.5641E-01  0.1426E+02  0.1425E+02
     21.684 -0.6454E-01 -0.1362E-01  0.1425E+02  0.1425E+02
     21.786 -0.1786E-01 -0.1585E-02  0.1425E+02  0.1425E+02
     21.888 -0.2302E-02 -0.9986E-04  0.1425E+02  0.1425E+02
     21.990 -0.1588E-03 -0.3549E-05  0.1425E+02  0.1425E+02
     22.092 -0.6154E-05 -0.7268E-07  0.1425E+02  0.1425E+02
     22.194 -0.1372E-06 -0.1322E-07  0.1425E+02  0.1425E+02
     22.295 -0.2503E-07 -0.7574E-06  0.1425E+02  0.1425E+02
     22.397 -0.1317E-05 -0.2684E-04  0.1425E+02  0.1425E+02
     22.499 -0.4305E-04 -0.5418E-03  0.1425E+02  0.1425E+02
     22.601 -0.7992E-03 -0.6048E-02  0.1425E+02  0.1425E+02
     22.703 -0.8149E-02 -0.3473E-01  0.1425E+02  0.1425E+02
     22.805 -0.4195E-01 -0.7818E-01  0.1424E+02  0.1424E+02
     22.906 -0.7623E-01  0.9701E-01  0.1424E+02  0.1425E+02
     23.008  0.1664E+00  0.8130E+00  0.1425E+02  0.1433E+02
     23.110  0.9441E+00  0.1503E+01  0.1435E+02  0.1448E+02
     23.212  0.1528E+01  0.1181E+01  0.1451E+02  0.1460E+02
     23.314  0.1060E+01  0.3358E+00  0.1461E+02  0.1464E+02
     23.416  0.2409E+00 -0.5600E-01  0.1464E+02  0.1463E+02
     23.517 -0.6977E-01 -0.5686E-01  0.1463E+02  0.1463E+02
     23.619 -0.4894E-01 -0.1382E-01  0.1463E+02  0.1463E+02
     23.721 -0.1054E-01 -0.1618E-02  0.1463E+02  0.1463E+02
     23.823 -0.1124E-02 -0.1024E-03  0.1463E+02  0.1463E+02
     23.925 -0.6532E-04 -0.3656E-05  0.1463E+02  0.1463E+02
     24.027 -0.2150E-05 -0.7510E-07  0.1463E+02  0.1463E+02
     24.128 -0.4079E-07 -0.8972E-09  0.1463E+02  0.1463E+02
     24.230 -0.4509E-09 -0.1988E-10  0.1463E+02  0.1462E+02
     24.332 -0.5117E-10 -0.1797E-08  0.1462E+02  0.1462E+02
     24.434 -0.5578E-08 -0.1388E-06  0.1462E+02  0.1462E+02
     24.536 -0.3766E-06 -0.6229E-05  0.1462E+02  0.1462E+02
     24.638 -0.1474E-04 -0.1604E-03  0.1462E+02  0.1462E+02
     24.740 -0.3297E-03 -0.2320E-02  0.1462E+02  0.1462E+02
     24.841 -0.4107E-02 -0.1797E-01  0.1462E+02  0.1462E+02
     24.943 -0.2682E-01 -0.6470E-01  0.1462E+02  0.1462E+02
     25.045 -0.7508E-01 -0.3303E-01  0.1461E+02  0.1461E+02
     25.147  0.2972E-01  0.4460E+00  0.1462E+02  0.1466E+02
     25.249  0.6529E+00  0.1292E+01  0.1468E+02  0.1479E+02
     25.351  0.1438E+01  0.1452E+01  0.1483E+02  0.1494E+02
     25.452  0.1313E+01  0.6789E+00  0.1496E+02  0.1501E+02
     25.554  0.4691E+00  0.3388E-01  0.1501E+02  0.1501E+02
     25.656 -0.3429E-01 -0.1098E+00  0.1501E+02  0.1500E+02
     25.758 -0.1049E+00 -0.1062E+00  0.1500E+02  0.1499E+02
     25.860 -0.9659E-01  0.8446E-01  0.1499E+02  0.1500E+02
     25.962  0.1318E+00  0.7953E+00  0.1500E+02  0.1508E+02
     26.063  0.8867E+00  0.1498E+01  0.1509E+02  0.1523E+02
     26.165  0.1521E+01  0.1196E+01  0.1525E+02  0.1535E+02
     26.267  0.1114E+01  0.3491E+00  0.1536E+02  0.1539E+02
     26.369  0.2782E+00 -0.5697E-01  0.1539E+02  0.1538E+02
     26.471 -0.8440E-01 -0.8139E-01  0.1538E+02  0.1537E+02
     26.573 -0.1198E+00 -0.8640E-01  0.1537E+02  0.1537E+02
     26.674 -0.3375E-01  0.2603E-02  0.1536E+02  0.1537E+02
     26.776  0.4886E+00  0.5788E+00  0.1541E+02  0.1542E+02
     26.878  0.1330E+01  0.1394E+01  0.1555E+02  0.1557E+02
     26.980  0.1426E+01  0.1367E+01  0.1569E+02  0.1571E+02
     27.082  0.6309E+00  0.5394E+00  0.1576E+02  0.1576E+02
     27.184  0.2175E-01 -0.8079E-02  0.1576E+02  0.1576E+02
     27.286 -0.7518E-01 -0.7259E-01  0.1575E+02  0.1575E+02
     27.387 -0.3387E-01 -0.3834E-01  0.1575E+02  0.1575E+02
     27.489 -0.3915E-01 -0.5199E-01  0.1575E+02  0.1574E+02
     27.591 -0.4287E-01  0.9292E-02  0.1574E+02  0.1574E+02
     27.693  0.1912E+00  0.4061E+00  0.1576E+02  0.1579E+02
     27.795  0.7478E+00  0.9423E+00  0.1584E+02  0.1588E+02
     27.897  0.1013E+01  0.8972E+00  0.1594E+02  0.1597E+02
     27.998  0.5858E+00  0.3402E+00  0.1600E+02  0.1601E+02
     28.100  0.8665E-01 -0.1086E-01  0.1601E+02  0.1601E+02
     28.202 -0.5187E-01 -0.4572E-01  0.1600E+02  0.1600E+02
     28.304 -0.2550E-01 -0.1371E-01  0.1600E+02  0.1600E+02
     28.406 -0.4688E-02 -0.1869E-02  0.1600E+02  0.1600E+02
     28.508 -0.4393E-03 -0.1356E-03  0.1600E+02  0.1600E+02
     28.609 -0.2269E-04 -0.5510E-05  0.1600E+02  0.1600E+02
     28.711 -0.6666E-06 -0.1284E-06  0.1600E+02  0.1600E+02
     28.813 -0.1132E-07 -0.1736E-08  0.1600E+02  0.1600E+02
     28.915 -0.1120E-09 -0.1372E-10  0.1600E+02  0.1600E+02
     29.017 -0.6503E-12 -0.6377E-13  0.1600E+02  0.1600E+02
     29.119 -0.2180E-14  0.0000E+00  0.1600E+02  0.1600E+02
     29.221  0.0000E+00  0.0000E+00  0.1600E+02  0.1600E+02
     29.322  0.0000E+00  0.0000E+00  0.1600E+02  0.1600E+02
     29.424  0.0000E+00  0.0000E+00  0.1600E+02  0.1600E+02
     29.526  0.0000E+00  0.0000E+00  0.1600E+02  0.1600E+02
     29.628  0.0000E+00  0.0000E+00  0.1600E+02  0.1600E+02
     29.730  0.0000E+00  0.0000E+00  0.1600E+02  0.1600E+02
     29.832  0.0000E+00  0.0000E+00  0.1600E+02  0.1600E+02
