<?xml version="1.0" encoding="ISO-8859-1"?>
<modeling>
 <generator>
  <i name="program" type="string">vasp </i>
  <i name="version" type="string">5.4.1  </i>
  <i name="subversion" type="string">24Jun15 (build Jun 05 2017 10:38:15) complex                          parallel </i>
  <i name="platform" type="string">IFC91_ompi </i>
  <i name="date" type="string">2017 08 15 </i>
  <i name="time" type="string">18:11:26 </i>
 </generator>
 <incar>
  <i type="string" name="SYSTEM"> automatically generated by pyflamestk</i>
  <i type="int" name="ISTART">     0</i>
  <i type="string" name="PREC">high                   ! avoid wrap aro</i>
  <i type="string" name="ALGO"> Normal                 ! blocked Davids</i>
  <i type="int" name="ISPIN">     2</i>
  <i type="int" name="ICHARG">     0</i>
  <i type="int" name="NELM">    40</i>
  <i name="EDIFF">      0.00000100</i>
  <i name="ENCUT">    550.00000000</i>
  <v name="MAGMOM">      1.00000000      1.00000000</v>
  <i type="logical" name="LREAL"> F  </i>
  <i type="int" name="ISMEAR">     1</i>
  <i name="SIGMA">      0.20000000</i>
  <i type="logical" name="LWAVE"> F  </i>
  <i type="logical" name="LCHARG"> F  </i>
  <i type="logical" name="LVTOT"> F  </i>
  <v type="int" name="KPOINT_BSE">    -1     0     0     0</v>
  <i type="int" name="NELM">    40</i>
 </incar>
 <kpoints>
  <generation param="Monkhorst-Pack">
   <v type="int" name="divisions">       4        4        4 </v>
   <v name="usershift">      0.00000000       0.00000000       0.00000000 </v>
   <v name="genvec1">      0.25000000       0.00000000       0.00000000 </v>
   <v name="genvec2">      0.00000000       0.25000000       0.00000000 </v>
   <v name="genvec3">      0.00000000       0.00000000       0.25000000 </v>
   <v name="shift">      0.50000000       0.50000000       0.50000000 </v>
  </generation>
  <varray name="kpointlist" >
   <v>       0.12500000       0.12500000       0.12500000 </v>
   <v>       0.37500000       0.12500000       0.12500000 </v>
   <v>       0.37500000       0.37500000       0.12500000 </v>
   <v>       0.37500000       0.37500000       0.37500000 </v>
  </varray>
  <varray name="weights" >
   <v>       0.12500000 </v>
   <v>       0.37500000 </v>
   <v>       0.37500000 </v>
   <v>       0.12500000 </v>
  </varray>
 </kpoints>
 <parameters>
  <separator name="general" >
   <i type="string" name="SYSTEM">automatically generated by pyflamestk</i>
   <i type="logical" name="LCOMPAT"> F  </i>
  </separator>
  <separator name="electronic" >
   <i type="string" name="PREC">high</i>
   <i name="ENMAX">    550.00000000</i>
   <i name="ENAUG">    544.56500000</i>
   <i name="EDIFF">      0.00000100</i>
   <i type="int" name="IALGO">    38</i>
   <i type="int" name="IWAVPR">    10</i>
   <i type="int" name="NBANDS">    16</i>
   <i name="NELECT">     20.00000000</i>
   <i type="int" name="TURBO">     0</i>
   <i type="int" name="IRESTART">     0</i>
   <i type="int" name="NREBOOT">     0</i>
   <i type="int" name="NMIN">     0</i>
   <i name="EREF">      0.00000000</i>
   <separator name="electronic smearing" >
    <i type="int" name="ISMEAR">     1</i>
    <i name="SIGMA">      0.20000000</i>
    <i name="KSPACING">      0.50000000</i>
    <i type="logical" name="KGAMMA"> T  </i>
   </separator>
   <separator name="electronic projectors" >
    <i type="logical" name="LREAL"> F  </i>
    <v name="ROPT">      0.00000000</v>
    <i type="int" name="LMAXPAW">  -100</i>
    <i type="int" name="LMAXMIX">     2</i>
    <i type="logical" name="NLSPLINE"> F  </i>
   </separator>
   <separator name="electronic startup" >
    <i type="int" name="ISTART">     0</i>
    <i type="int" name="ICHARG">     0</i>
    <i type="int" name="INIWAV">     1</i>
   </separator>
   <separator name="electronic spin" >
    <i type="int" name="ISPIN">     2</i>
    <i type="logical" name="LNONCOLLINEAR"> F  </i>
    <v name="MAGMOM">      1.00000000      1.00000000</v>
    <i name="NUPDOWN">     -1.00000000</i>
    <i type="logical" name="LSORBIT"> F  </i>
    <v name="SAXIS">      0.00000000      0.00000000      1.00000000</v>
    <i type="logical" name="LSPIRAL"> F  </i>
    <v name="QSPIRAL">      0.00000000      0.00000000      0.00000000</v>
    <i type="logical" name="LZEROZ"> F  </i>
   </separator>
   <separator name="electronic exchange-correlation" >
    <i type="logical" name="LASPH"> F  </i>
    <i type="logical" name="LMETAGGA"> F  </i>
   </separator>
   <separator name="electronic convergence" >
    <i type="int" name="NELM">    40</i>
    <i type="int" name="NELMDL">    -5</i>
    <i type="int" name="NELMIN">     2</i>
    <i name="ENINI">    550.00000000</i>
    <separator name="electronic convergence detail" >
     <i type="logical" name="LDIAG"> T  </i>
     <i type="logical" name="LSUBROT"> F  </i>
     <i name="WEIMIN">      0.00000000</i>
     <i name="EBREAK">      0.00000002</i>
     <i name="DEPER">      0.30000000</i>
     <i type="int" name="NRMM">     4</i>
     <i name="TIME">      0.40000000</i>
    </separator>
   </separator>
   <separator name="electronic mixer" >
    <i name="AMIX">      0.40000000</i>
    <i name="BMIX">      1.00000000</i>
    <i name="AMIN">      0.10000000</i>
    <i name="AMIX_MAG">      1.60000000</i>
    <i name="BMIX_MAG">      1.00000000</i>
    <separator name="electronic mixer details" >
     <i type="int" name="IMIX">     4</i>
     <i type="logical" name="MIXFIRST"> F  </i>
     <i type="int" name="MAXMIX">   -45</i>
     <i name="WC">    100.00000000</i>
     <i type="int" name="INIMIX">     1</i>
     <i type="int" name="MIXPRE">     1</i>
     <i type="int" name="MREMOVE">     5</i>
    </separator>
   </separator>
   <separator name="electronic dipolcorrection" >
    <i type="logical" name="LDIPOL"> F  </i>
    <i type="logical" name="LMONO"> F  </i>
    <i type="int" name="IDIPOL">     0</i>
    <i name="EPSILON">      1.00000000</i>
    <v name="DIPOL">   -100.00000000   -100.00000000   -100.00000000</v>
    <i name="EFIELD">      0.00000000</i>
   </separator>
  </separator>
  <separator name="grids" >
   <i type="int" name="NGX">    24</i>
   <i type="int" name="NGY">    24</i>
   <i type="int" name="NGZ">    24</i>
   <i type="int" name="NGXF">    28</i>
   <i type="int" name="NGYF">    28</i>
   <i type="int" name="NGZF">    28</i>
   <i type="logical" name="ADDGRID"> F  </i>
  </separator>
  <separator name="ionic" >
   <i type="int" name="NSW">     0</i>
   <i type="int" name="IBRION">    -1</i>
   <i type="int" name="ISIF">     2</i>
   <i name="PSTRESS">      0.00000000</i>
   <i name="EDIFFG">      0.00001000</i>
   <i type="int" name="NFREE">     0</i>
   <i name="POTIM">      0.50000000</i>
   <i name="SMASS">     -3.00000000</i>
   <i name="SCALEE">      1.00000000</i>
  </separator>
  <separator name="ionic md" >
   <i name="TEBEG">      0.00010000</i>
   <i name="TEEND">      0.00010000</i>
   <i type="int" name="NBLOCK">     1</i>
   <i type="int" name="KBLOCK">     1</i>
   <i type="int" name="NPACO">   256</i>
   <i name="APACO">     16.00000000</i>
  </separator>
  <separator name="symmetry" >
   <i type="int" name="ISYM">     2</i>
   <i name="SYMPREC">      0.00001000</i>
  </separator>
  <separator name="dos" >
   <i type="logical" name="LORBIT"> F  </i>
   <v name="RWIGS">     -1.00000000</v>
   <i type="int" name="NEDOS">   301</i>
   <i name="EMIN">     10.00000000</i>
   <i name="EMAX">    -10.00000000</i>
   <i name="EFERMI">      0.00000000</i>
  </separator>
  <separator name="writing" >
   <i type="int" name="NWRITE">     2</i>
   <i type="logical" name="LWAVE"> F  </i>
   <i type="logical" name="LCHARG"> F  </i>
   <i type="logical" name="LPARD"> F  </i>
   <i type="logical" name="LVTOT"> F  </i>
   <i type="logical" name="LVHAR"> F  </i>
   <i type="logical" name="LELF"> F  </i>
   <i type="logical" name="LOPTICS"> F  </i>
   <v name="STM">      0.00000000      0.00000000      0.00000000      0.00000000      0.00000000      0.00000000      0.00000000</v>
  </separator>
  <separator name="performance" >
   <i type="int" name="NPAR">    16</i>
   <i type="int" name="NSIM">     4</i>
   <i type="int" name="NBLK">    -1</i>
   <i type="logical" name="LPLANE"> T  </i>
   <i type="logical" name="LSCALAPACK"> T  </i>
   <i type="logical" name="LSCAAWARE"> F  </i>
   <i type="logical" name="LSCALU"> F  </i>
   <i type="logical" name="LASYNC"> F  </i>
   <i type="logical" name="LORBITALREAL"> F  </i>
  </separator>
  <separator name="miscellaneous" >
   <i type="int" name="IDIOT">     3</i>
   <i type="logical" name="LMUSIC"> F  </i>
   <v name="POMASS">     58.69000000</v>
   <v name="DARWINR">      0.00000000</v>
   <v name="DARWINV">      1.00000000</v>
   <i type="logical" name="LCORR"> T  </i>
  </separator>
  <i type="logical" name="GGA_COMPAT"> T  </i>
  <i type="logical" name="LBERRY"> F  </i>
  <i type="int" name="ICORELEVEL">     0</i>
  <i type="logical" name="LDAU"> F  </i>
  <i type="int" name="I_CONSTRAINED_M">     0</i>
  <separator name="electronic exchange-correlation" >
   <i type="string" name="GGA">--</i>
   <i type="int" name="VOSKOWN">     0</i>
   <i type="logical" name="LHFCALC"> F  </i>
   <i type="string" name="PRECFOCK"></i>
   <i type="logical" name="LSYMGRAD"> F  </i>
   <i type="logical" name="LHFONE"> F  </i>
   <i type="logical" name="LRHFCALC"> F  </i>
   <i type="logical" name="LTHOMAS"> F  </i>
   <i type="logical" name="LMODELHF"> F  </i>
   <i name="ENCUT4O">     -1.00000000</i>
   <i type="int" name="EXXOEP">     0</i>
   <i type="int" name="FOURORBIT">     0</i>
   <i name="AEXX">      0.00000000</i>
   <i name="HFALPHA">      0.00000000</i>
   <i name="MCALPHA">      0.00000000</i>
   <i name="ALDAX">      1.00000000</i>
   <i name="AGGAX">      1.00000000</i>
   <i name="ALDAC">      1.00000000</i>
   <i name="AGGAC">      1.00000000</i>
   <i type="int" name="NKREDX">     1</i>
   <i type="int" name="NKREDY">     1</i>
   <i type="int" name="NKREDZ">     1</i>
   <i type="logical" name="SHIFTRED"> F  </i>
   <i type="logical" name="ODDONLY"> F  </i>
   <i type="logical" name="EVENONLY"> F  </i>
   <i type="int" name="LMAXFOCK">     0</i>
   <i type="int" name="NMAXFOCKAE">     0</i>
   <i type="logical" name="LFOCKAEDFT"> F  </i>
   <i name="HFSCREEN">      0.00000000</i>
   <i name="HFSCREENC">      0.00000000</i>
   <i type="int" name="NBANDSGWLOW">     0</i>
  </separator>
  <separator name="vdW DFT" >
   <i type="logical" name="LUSE_VDW"> F  </i>
   <i name="Zab_VDW">     -0.84910000</i>
   <i name="PARAM1">      0.12340000</i>
   <i name="PARAM2">      1.00000000</i>
   <i name="PARAM3">      0.00000000</i>
  </separator>
  <separator name="model GW" >
   <i type="int" name="MODEL_GW">     0</i>
   <i name="MODEL_EPS0">      6.54152109</i>
   <i name="MODEL_ALPHA">      1.00000000</i>
  </separator>
  <separator name="linear response parameters" >
   <i type="logical" name="LEPSILON"> F  </i>
   <i type="logical" name="LRPA"> F  </i>
   <i type="logical" name="LNABLA"> F  </i>
   <i type="logical" name="LVEL"> F  </i>
   <i type="int" name="KINTER">     0</i>
   <i name="CSHIFT">      0.10000000</i>
   <i name="OMEGAMAX">     -1.00000000</i>
   <i name="DEG_THRESHOLD">      0.00200000</i>
  </separator>
  <separator name="orbital magnetization" >
   <i type="logical" name="NUCIND"> F  </i>
   <v name="MAGPOS">      0.00000000      0.00000000      0.00000000</v>
   <i type="logical" name="LNICSALL"> T  </i>
   <i type="logical" name="ORBITALMAG"> F  </i>
   <i type="logical" name="LMAGBLOCH"> F  </i>
   <i type="logical" name="LCHIMAG"> F  </i>
   <i type="logical" name="LGAUGE"> T  </i>
   <i type="int" name="MAGATOM">     0</i>
   <v name="MAGDIPOL">      0.00000000      0.00000000      0.00000000</v>
   <v name="AVECCONST">      0.00000000      0.00000000      0.00000000</v>
  </separator>
  <separator name="response functions" >
   <i type="logical" name="LADDER"> F  </i>
   <i type="logical" name="LFXC"> F  </i>
   <i type="logical" name="LHARTREE"> T  </i>
   <i type="int" name="IBSE">     0</i>
   <v type="int" name="KPOINT">    -1     0     0     0</v>
   <i type="logical" name="LTCTE"> F  </i>
   <i type="logical" name="LTETE"> F  </i>
   <i type="logical" name="LTRIPLET"> F  </i>
   <i type="logical" name="LFXCEPS"> F  </i>
   <i type="logical" name="LFXHEG"> F  </i>
   <i type="int" name="NATURALO">     0</i>
   <i type="logical" name="L2ORDER"> F  </i>
   <i type="logical" name="LUSEW"> F  </i>
   <i name="ENCUTGW">     -2.00000000</i>
   <i name="ENCUTGWSOFT">     -2.00000000</i>
   <i name="ENCUTLF">     -1.00000000</i>
   <i type="int" name="LMAXMP2">    -1</i>
   <i name="SCISSOR">      0.00000000</i>
   <i type="int" name="NOMEGA">     0</i>
   <i type="int" name="NOMEGAR">     0</i>
   <i type="int" name="NBANDSGW">    -1</i>
   <i type="int" name="NBANDSO">    -1</i>
   <i type="int" name="NBANDSV">    -1</i>
   <i type="int" name="NELM">    40</i>
   <i type="int" name="NELMHF">     1</i>
   <i type="int" name="DIM">     3</i>
   <i type="int" name="ANTIRES">     0</i>
   <i name="OMEGAMAX">    -30.00000000</i>
   <i name="OMEGAMIN">    -30.00000000</i>
   <i name="OMEGATL">   -200.00000000</i>
   <i type="int" name="OMEGAGRID">     0</i>
   <i name="CSHIFT">     -0.10000000</i>
   <i type="logical" name="SELFENERGY"> F  </i>
   <i type="logical" name="LSPECTRAL"> F  </i>
   <i type="logical" name="LSPECTRALGW"> F  </i>
   <i type="logical" name="LSINGLES"> F  </i>
   <i type="logical" name="LFERMIGW"> F  </i>
   <i type="logical" name="ODDONLYGW"> F  </i>
   <i type="logical" name="EVENONLYGW"> F  </i>
   <i type="int" name="NKREDLFX">     1</i>
   <i type="int" name="NKREDLFY">     1</i>
   <i type="int" name="NKREDLFZ">     1</i>
   <i type="int" name="MAXMEM">  1800</i>
   <i type="int" name="TELESCOPE">     0</i>
   <i type="int" name="TAUPAR">     1</i>
   <i type="int" name="OMEGAPAR">    -1</i>
   <i name="LAMBDA">      1.00000000</i>
  </separator>
  <separator name="External order field" >
   <i name="OFIELD_KAPPA">      0.00000000</i>
   <v name="OFIELD_K">      0.00000000      0.00000000      0.00000000</v>
   <i name="OFIELD_Q6_NEAR">      0.00000000</i>
   <i name="OFIELD_Q6_FAR">      0.00000000</i>
   <i name="OFIELD_A">      0.00000000</i>
  </separator>
 </parameters>
 <atominfo>
  <atoms>       2 </atoms>
  <types>       1 </types>
  <array name="atoms" >
   <dimension dim="1">ion</dimension>
   <field type="string">element</field>
   <field type="int">atomtype</field>
   <set>
    <rc><c>Ni</c><c>   1</c></rc>
    <rc><c>Ni</c><c>   1</c></rc>
   </set>
  </array>
  <array name="atomtypes" >
   <dimension dim="1">type</dimension>
   <field type="int">atomspertype</field>
   <field type="string">element</field>
   <field>mass</field>
   <field>valence</field>
   <field type="string">pseudopotential</field>
   <set>
    <rc><c>   2</c><c>Ni</c><c>     58.69000000</c><c>     10.00000000</c><c>  PAW_PBE Ni 02Aug2007                  </c></rc>
   </set>
  </array>
 </atominfo>
 <structure name="initialpos" >
  <crystal>
   <varray name="basis" >
    <v>       2.79373900       0.00000000       0.00000000 </v>
    <v>       0.00000000       2.79373900       0.00000000 </v>
    <v>       0.00000000       0.00000000       2.79373900 </v>
   </varray>
   <i name="volume">     21.80507032 </i>
   <varray name="rec_basis" >
    <v>       0.35794324       0.00000000       0.00000000 </v>
    <v>       0.00000000       0.35794324       0.00000000 </v>
    <v>       0.00000000       0.00000000       0.35794324 </v>
   </varray>
  </crystal>
  <varray name="positions" >
   <v>       0.00000000       0.00000000       0.00000000 </v>
   <v>       0.50000000       0.50000000       0.50000000 </v>
  </varray>
 </structure>
 <calculation>
  <scstep>
   <time name="dav">    0.03    0.03</time>
   <time name="total">    0.04    0.05</time>
   <energy>
    <i name="alphaZ">     93.55617618 </i>
    <i name="ewald">  -1875.77248328 </i>
    <i name="hartreedc">    -67.88830728 </i>
    <i name="XCdc">     44.95316675 </i>
    <i name="pawpsdc">  80027.01321829 </i>
    <i name="pawaedc"> -80052.31963220 </i>
    <i name="eentropy">      0.00433597 </i>
    <i name="bandstr">   -762.34961116 </i>
    <i name="atom">   2155.34131285 </i>
    <i name="e_fr_energy">   -437.46182387 </i>
    <i name="e_wo_entrp">   -437.46615984 </i>
    <i name="e_0_energy">   -437.46326920 </i>
   </energy>
  </scstep>
  <scstep>
   <time name="dav">    0.07    0.07</time>
   <time name="total">    0.07    0.07</time>
   <energy>
    <i name="e_fr_energy">   -450.18213954 </i>
    <i name="e_wo_entrp">   -450.31350516 </i>
    <i name="e_0_energy">   -450.22592808 </i>
   </energy>
  </scstep>
  <scstep>
   <time name="dav">    0.03    0.03</time>
   <time name="total">    0.03    0.03</time>
   <energy>
    <i name="e_fr_energy">   -450.20028776 </i>
    <i name="e_wo_entrp">   -450.33163635 </i>
    <i name="e_0_energy">   -450.24407062 </i>
   </energy>
  </scstep>
  <scstep>
   <time name="dav">    0.05    0.05</time>
   <time name="total">    0.05    0.06</time>
   <energy>
    <i name="e_fr_energy">   -450.20044231 </i>
    <i name="e_wo_entrp">   -450.33179080 </i>
    <i name="e_0_energy">   -450.24422514 </i>
   </energy>
  </scstep>
  <scstep>
   <time name="dav">    0.03    0.03</time>
   <time name="total">    0.04    0.04</time>
   <energy>
    <i name="e_fr_energy">   -450.20044296 </i>
    <i name="e_wo_entrp">   -450.33179145 </i>
    <i name="e_0_energy">   -450.24422579 </i>
   </energy>
  </scstep>
  <scstep>
   <time name="dav">    0.06    0.06</time>
   <time name="total">    0.07    0.08</time>
   <energy>
    <i name="e_fr_energy">    -50.78244902 </i>
    <i name="e_wo_entrp">    -50.79827555 </i>
    <i name="e_0_energy">    -50.78772453 </i>
   </energy>
  </scstep>
  <scstep>
   <time name="dav">    0.03    0.03</time>
   <time name="total">    0.05    0.05</time>
   <energy>
    <i name="e_fr_energy">   -121.92769281 </i>
    <i name="e_wo_entrp">   -121.91041566 </i>
    <i name="e_0_energy">   -121.92193376 </i>
   </energy>
  </scstep>
  <scstep>
   <time name="dav">    0.03    0.03</time>
   <time name="total">    0.04    0.05</time>
   <energy>
    <i name="e_fr_energy">    -13.40249998 </i>
    <i name="e_wo_entrp">    -13.39281484 </i>
    <i name="e_0_energy">    -13.39927160 </i>
   </energy>
  </scstep>
  <scstep>
   <time name="dav">    0.03    0.03</time>
   <time name="total">    0.05    0.05</time>
   <energy>
    <i name="e_fr_energy">    -14.72321596 </i>
    <i name="e_wo_entrp">    -14.70788280 </i>
    <i name="e_0_energy">    -14.71810491 </i>
   </energy>
  </scstep>
  <scstep>
   <time name="dav">    0.03    0.03</time>
   <time name="total">    0.04    0.05</time>
   <energy>
    <i name="e_fr_energy">    -10.81528076 </i>
    <i name="e_wo_entrp">    -10.82280557 </i>
    <i name="e_0_energy">    -10.81778903 </i>
   </energy>
  </scstep>
  <scstep>
   <time name="dav">    0.03    0.03</time>
   <time name="total">    0.04    0.05</time>
   <energy>
    <i name="e_fr_energy">    -11.27225847 </i>
    <i name="e_wo_entrp">    -11.27281949 </i>
    <i name="e_0_energy">    -11.27244548 </i>
   </energy>
  </scstep>
  <scstep>
   <time name="dav">    0.03    0.03</time>
   <time name="total">    0.04    0.05</time>
   <energy>
    <i name="e_fr_energy">    -10.97375271 </i>
    <i name="e_wo_entrp">    -10.97610608 </i>
    <i name="e_0_energy">    -10.97453716 </i>
   </energy>
  </scstep>
  <scstep>
   <time name="dav">    0.03    0.03</time>
   <time name="total">    0.05    0.05</time>
   <energy>
    <i name="e_fr_energy">    -10.81245944 </i>
    <i name="e_wo_entrp">    -10.82168722 </i>
    <i name="e_0_energy">    -10.81553537 </i>
   </energy>
  </scstep>
  <scstep>
   <time name="dav">    0.03    0.03</time>
   <time name="total">    0.05    0.05</time>
   <energy>
    <i name="e_fr_energy">    -10.81327603 </i>
    <i name="e_wo_entrp">    -10.82259193 </i>
    <i name="e_0_energy">    -10.81638133 </i>
   </energy>
  </scstep>
  <scstep>
   <time name="dav">    0.04    0.04</time>
   <time name="total">    0.06    0.06</time>
   <energy>
    <i name="e_fr_energy">    -10.81328160 </i>
    <i name="e_wo_entrp">    -10.82262261 </i>
    <i name="e_0_energy">    -10.81639527 </i>
   </energy>
  </scstep>
  <scstep>
   <time name="dav">    0.03    0.03</time>
   <time name="total">    0.05    0.05</time>
   <energy>
    <i name="e_fr_energy">    -10.81298549 </i>
    <i name="e_wo_entrp">    -10.82256014 </i>
    <i name="e_0_energy">    -10.81617704 </i>
   </energy>
  </scstep>
  <scstep>
   <time name="dav">    0.04    0.04</time>
   <time name="total">    0.06    0.06</time>
   <energy>
    <i name="e_fr_energy">    -10.81298019 </i>
    <i name="e_wo_entrp">    -10.82263684 </i>
    <i name="e_0_energy">    -10.81619907 </i>
   </energy>
  </scstep>
  <scstep>
   <time name="dav">    0.02    0.02</time>
   <time name="total">    0.03    0.04</time>
   <energy>
    <i name="alphaZ">     93.55617618 </i>
    <i name="ewald">  -1875.77248328 </i>
    <i name="hartreedc">   -450.25440239 </i>
    <i name="XCdc">     61.42193062 </i>
    <i name="pawpsdc">   2132.34442366 </i>
    <i name="pawaedc">  -2269.42062846 </i>
    <i name="eentropy">      0.00968154 </i>
    <i name="bandstr">    141.96100842 </i>
    <i name="atom">   2155.34131285 </i>
    <i name="e_fr_energy">    -10.81298086 </i>
    <i name="e_wo_entrp">    -10.82266240 </i>
    <i name="e_0_energy">    -10.81620804 </i>
   </energy>
  </scstep>
  <structure>
   <crystal>
    <varray name="basis" >
     <v>       2.79373900       0.00000000       0.00000000 </v>
     <v>       0.00000000       2.79373900       0.00000000 </v>
     <v>       0.00000000       0.00000000       2.79373900 </v>
    </varray>
    <i name="volume">     21.80507032 </i>
    <varray name="rec_basis" >
     <v>       0.35794324       0.00000000       0.00000000 </v>
     <v>       0.00000000       0.35794324       0.00000000 </v>
     <v>       0.00000000       0.00000000       0.35794324 </v>
    </varray>
   </crystal>
   <varray name="positions" >
    <v>       0.00000000       0.00000000       0.00000000 </v>
    <v>       0.50000000       0.50000000       0.50000000 </v>
   </varray>
  </structure>
  <varray name="forces" >
   <v>       0.00000000       0.00000000      -0.00000000 </v>
   <v>      -0.00000000      -0.00000000       0.00000000 </v>
  </varray>
  <varray name="stress" >
   <v>      -4.98840851      -0.00000000       0.00000000 </v>
   <v>      -0.00000000      -4.98840851       0.00000000 </v>
   <v>      -0.00000000      -0.00000000      -4.98840851 </v>
  </varray>
  <energy>
   <i name="e_fr_energy">    -10.81298086 </i>
   <i name="e_wo_entrp">    -10.81620804 </i>
   <i name="e_0_energy">      0.00968154 </i>
  </energy>
  <time name="totalsc">    0.93    0.99</time>
  <eigenvalues>
   <array>
    <dimension dim="1">band</dimension>
    <dimension dim="2">kpoint</dimension>
    <dimension dim="3">spin</dimension>
    <field>eigene</field>
    <field>occ</field>
    <set>
     <set comment="spin 1">
      <set comment="kpoint 1">
       <r>    1.2794    1.0000 </r>
       <r>    5.7134    1.0000 </r>
       <r>    5.7134    1.0000 </r>
       <r>    7.3657    1.0000 </r>
       <r>    7.3657    1.0000 </r>
       <r>    8.0637    1.0000 </r>
       <r>    8.5374    1.0000 </r>
       <r>    8.7666    1.0017 </r>
       <r>    8.7666    1.0017 </r>
       <r>    9.4411   -0.0199 </r>
       <r>    9.4411   -0.0199 </r>
       <r>   17.6117    0.0000 </r>
       <r>   17.6117    0.0000 </r>
       <r>   18.6238    0.0000 </r>
       <r>   27.8316    0.0000 </r>
       <r>   27.8316    0.0000 </r>
      </set>
      <set comment="kpoint 2">
       <r>    3.4940    1.0000 </r>
       <r>    5.7587    1.0000 </r>
       <r>    6.4348    1.0000 </r>
       <r>    7.1331    1.0000 </r>
       <r>    7.2545    1.0000 </r>
       <r>    7.6017    1.0000 </r>
       <r>    8.3155    1.0000 </r>
       <r>    8.4856    1.0000 </r>
       <r>    8.8369    1.0064 </r>
       <r>    9.1907    0.7389 </r>
       <r>    9.3153    0.2390 </r>
       <r>   11.7511   -0.0000 </r>
       <r>   20.7663    0.0000 </r>
       <r>   21.2624    0.0000 </r>
       <r>   25.3394    0.0000 </r>
       <r>   26.1276    0.0000 </r>
      </set>
      <set comment="kpoint 3">
       <r>    4.7804    1.0000 </r>
       <r>    5.5168    1.0000 </r>
       <r>    6.6714    1.0000 </r>
       <r>    6.8088    1.0000 </r>
       <r>    7.3702    1.0000 </r>
       <r>    7.5006    1.0000 </r>
       <r>    8.6456    1.0001 </r>
       <r>    8.7803    1.0022 </r>
       <r>    8.9637    1.0306 </r>
       <r>    9.4638   -0.0309 </r>
       <r>   10.0790   -0.0000 </r>
       <r>   12.2861   -0.0000 </r>
       <r>   16.1923    0.0000 </r>
       <r>   19.3272    0.0000 </r>
       <r>   23.1677    0.0000 </r>
       <r>   26.8867    0.0000 </r>
      </set>
      <set comment="kpoint 4">
       <r>    6.1676    1.0000 </r>
       <r>    6.2027    1.0000 </r>
       <r>    6.4943    1.0000 </r>
       <r>    6.4943    1.0000 </r>
       <r>    6.7319    1.0000 </r>
       <r>    6.7319    1.0000 </r>
       <r>    8.9673    1.0313 </r>
       <r>    8.9673    1.0313 </r>
       <r>    8.9850    1.0341 </r>
       <r>    8.9850    1.0341 </r>
       <r>   12.3930   -0.0000 </r>
       <r>   15.8997    0.0000 </r>
       <r>   15.8997    0.0000 </r>
       <r>   18.1247    0.0000 </r>
       <r>   20.8627    0.0000 </r>
       <r>   20.8627    0.0000 </r>
      </set>
     </set>
     <set comment="spin 2">
      <set comment="kpoint 1">
       <r>    1.2986    1.0000 </r>
       <r>    5.4129    1.0000 </r>
       <r>    5.4129    1.0000 </r>
       <r>    6.7901    1.0000 </r>
       <r>    6.7901    1.0000 </r>
       <r>    7.4585    1.0000 </r>
       <r>    7.9418    1.0000 </r>
       <r>    8.3091    1.0000 </r>
       <r>    8.3091    1.0000 </r>
       <r>    8.7927    1.0029 </r>
       <r>    8.7927    1.0029 </r>
       <r>   17.5198    0.0000 </r>
       <r>   17.5198    0.0000 </r>
       <r>   18.5223    0.0000 </r>
       <r>   27.7887    0.0000 </r>
       <r>   27.7887    0.0000 </r>
      </set>
      <set comment="kpoint 2">
       <r>    3.4778    1.0000 </r>
       <r>    5.5378    1.0000 </r>
       <r>    6.0837    1.0000 </r>
       <r>    6.6399    1.0000 </r>
       <r>    6.7040    1.0000 </r>
       <r>    7.0606    1.0000 </r>
       <r>    7.8299    1.0000 </r>
       <r>    7.9072    1.0000 </r>
       <r>    8.2256    1.0000 </r>
       <r>    8.6871    1.0003 </r>
       <r>    8.7306    1.0007 </r>
       <r>   11.4954   -0.0000 </r>
       <r>   20.6405    0.0000 </r>
       <r>   21.1448    0.0000 </r>
       <r>   25.2629    0.0000 </r>
       <r>   26.0360    0.0000 </r>
      </set>
      <set comment="kpoint 3">
       <r>    4.5810    1.0000 </r>
       <r>    5.1780    1.0000 </r>
       <r>    6.1343    1.0000 </r>
       <r>    6.2821    1.0000 </r>
       <r>    7.0706    1.0000 </r>
       <r>    7.1794    1.0000 </r>
       <r>    8.1286    1.0000 </r>
       <r>    8.2738    1.0000 </r>
       <r>    8.4948    1.0000 </r>
       <r>    8.8663    1.0103 </r>
       <r>    9.5346   -0.0309 </r>
       <r>   12.0862   -0.0000 </r>
       <r>   15.9264    0.0000 </r>
       <r>   19.1575    0.0000 </r>
       <r>   23.0807    0.0000 </r>
       <r>   26.8758    0.0000 </r>
      </set>
      <set comment="kpoint 4">
       <r>    5.6936    1.0000 </r>
       <r>    5.9393    1.0000 </r>
       <r>    6.0169    1.0000 </r>
       <r>    6.0169    1.0000 </r>
       <r>    6.3393    1.0000 </r>
       <r>    6.3393    1.0000 </r>
       <r>    8.4808    1.0000 </r>
       <r>    8.4808    1.0000 </r>
       <r>    8.4881    1.0000 </r>
       <r>    8.4881    1.0000 </r>
       <r>   12.0095   -0.0000 </r>
       <r>   15.7027    0.0000 </r>
       <r>   15.7027    0.0000 </r>
       <r>   17.9477    0.0000 </r>
       <r>   20.7403    0.0000 </r>
       <r>   20.7403    0.0000 </r>
      </set>
     </set>
    </set>
   </array>
  </eigenvalues>
  <separator name="orbital magnetization" >
   <v name="MAGDIPOLOUT">      0.00000000      0.00000000      0.00000000</v>
  </separator>
  <dos>
   <i name="efermi">      9.24994227 </i>
   <total>
    <array>
     <dimension dim="1">gridpoints</dimension>
     <dimension dim="2">spin</dimension>
     <field>energy</field>
     <field>total</field>
     <field>integrated</field>
     <set>
      <set comment="spin 1">
       <r>    -0.7206     0.0000     0.0000 </r>
       <r>    -0.6188     0.0000     0.0000 </r>
       <r>    -0.5170     0.0000     0.0000 </r>
       <r>    -0.4151    -0.0000    -0.0000 </r>
       <r>    -0.3133    -0.0000    -0.0000 </r>
       <r>    -0.2114    -0.0000    -0.0000 </r>
       <r>    -0.1096    -0.0000    -0.0000 </r>
       <r>    -0.0078    -0.0000    -0.0000 </r>
       <r>     0.0941    -0.0000    -0.0000 </r>
       <r>     0.1959    -0.0000    -0.0000 </r>
       <r>     0.2978    -0.0000    -0.0000 </r>
       <r>     0.3996    -0.0000    -0.0000 </r>
       <r>     0.5014    -0.0000    -0.0000 </r>
       <r>     0.6033    -0.0000    -0.0000 </r>
       <r>     0.7051    -0.0002    -0.0000 </r>
       <r>     0.8070    -0.0023    -0.0003 </r>
       <r>     0.9088    -0.0128    -0.0016 </r>
       <r>     1.0106    -0.0259    -0.0042 </r>
       <r>     1.1125     0.0433     0.0002 </r>
       <r>     1.2143     0.2929     0.0300 </r>
       <r>     1.3162     0.5064     0.0816 </r>
       <r>     1.4180     0.3739     0.1197 </r>
       <r>     1.5199     0.0956     0.1294 </r>
       <r>     1.6217    -0.0213     0.1273 </r>
       <r>     1.7235    -0.0176     0.1255 </r>
       <r>     1.8254    -0.0040     0.1250 </r>
       <r>     1.9272    -0.0005     0.1250 </r>
       <r>     2.0291    -0.0000     0.1250 </r>
       <r>     2.1309    -0.0000     0.1250 </r>
       <r>     2.2327    -0.0000     0.1250 </r>
       <r>     2.3346    -0.0000     0.1250 </r>
       <r>     2.4364    -0.0000     0.1250 </r>
       <r>     2.5383    -0.0000     0.1250 </r>
       <r>     2.6401    -0.0000     0.1250 </r>
       <r>     2.7419    -0.0000     0.1250 </r>
       <r>     2.8438    -0.0001     0.1250 </r>
       <r>     2.9456    -0.0013     0.1249 </r>
       <r>     3.0475    -0.0116     0.1237 </r>
       <r>     3.1493    -0.0516     0.1184 </r>
       <r>     3.2511    -0.0659     0.1117 </r>
       <r>     3.3530     0.2717     0.1394 </r>
       <r>     3.4548     1.1022     0.2516 </r>
       <r>     3.5567     1.5229     0.4067 </r>
       <r>     3.6585     0.8997     0.4983 </r>
       <r>     3.7603     0.1413     0.5127 </r>
       <r>     3.8622    -0.0774     0.5048 </r>
       <r>     3.9640    -0.0394     0.5008 </r>
       <r>     4.0659    -0.0074     0.5001 </r>
       <r>     4.1677    -0.0009     0.5000 </r>
       <r>     4.2696    -0.0031     0.4997 </r>
       <r>     4.3714    -0.0221     0.4974 </r>
       <r>     4.4732    -0.0705     0.4902 </r>
       <r>     4.5751    -0.0060     0.4896 </r>
       <r>     4.6769     0.5456     0.5452 </r>
       <r>     4.7788     1.3719     0.6849 </r>
       <r>     4.8806     1.3902     0.8265 </r>
       <r>     4.9824     0.5708     0.8846 </r>
       <r>     5.0843    -0.0127     0.8833 </r>
       <r>     5.1861    -0.1330     0.8698 </r>
       <r>     5.2880    -0.0923     0.8604 </r>
       <r>     5.3898     0.2810     0.8890 </r>
       <r>     5.4916     1.1090     1.0019 </r>
       <r>     5.5935     1.9072     1.1962 </r>
       <r>     5.6953     2.5093     1.4517 </r>
       <r>     5.7972     2.5590     1.7123 </r>
       <r>     5.8990     1.4535     1.8603 </r>
       <r>     6.0008     0.3055     1.8914 </r>
       <r>     6.1027     0.2842     1.9204 </r>
       <r>     6.2045     0.7851     2.0004 </r>
       <r>     6.3064     1.1448     2.1169 </r>
       <r>     6.4082     1.7956     2.2998 </r>
       <r>     6.5100     2.5001     2.5544 </r>
       <r>     6.6119     2.8201     2.8416 </r>
       <r>     6.7137     3.3291     3.1807 </r>
       <r>     6.8156     3.2878     3.5155 </r>
       <r>     6.9174     1.8903     3.7080 </r>
       <r>     7.0192     0.7694     3.7864 </r>
       <r>     7.1211     1.3517     3.9240 </r>
       <r>     7.2229     2.8024     4.2094 </r>
       <r>     7.3248     3.9318     4.6098 </r>
       <r>     7.4266     4.3002     5.0478 </r>
       <r>     7.5285     3.8999     5.4449 </r>
       <r>     7.6303     2.8564     5.7358 </r>
       <r>     7.7321     1.3466     5.8730 </r>
       <r>     7.8340     0.1883     5.8922 </r>
       <r>     7.9358    -0.0421     5.8879 </r>
       <r>     8.0377     0.2386     5.9122 </r>
       <r>     8.1395     0.5087     5.9640 </r>
       <r>     8.2413     0.9375     6.0594 </r>
       <r>     8.3432     1.6949     6.2320 </r>
       <r>     8.4450     2.3450     6.4709 </r>
       <r>     8.5469     2.7257     6.7484 </r>
       <r>     8.6487     3.2117     7.0755 </r>
       <r>     8.7505     4.2389     7.5072 </r>
       <r>     8.8524     5.3078     8.0478 </r>
       <r>     8.9542     5.3512     8.5927 </r>
       <r>     9.0561     4.0751     9.0078 </r>
       <r>     9.1579     2.6560     9.2782 </r>
       <r>     9.2597     2.5118     9.5340 </r>
       <r>     9.3616     3.2245     9.8624 </r>
       <r>     9.4634     3.4503    10.2138 </r>
       <r>     9.5653     2.3437    10.4525 </r>
       <r>     9.6671     0.6904    10.5228 </r>
       <r>     9.7689    -0.1555    10.5070 </r>
       <r>     9.8708    -0.1355    10.4932 </r>
       <r>     9.9726     0.4874    10.5428 </r>
       <r>    10.0745     1.3499    10.6803 </r>
       <r>    10.1763     1.4057    10.8234 </r>
       <r>    10.2781     0.5971    10.8842 </r>
       <r>    10.3800     0.0103    10.8853 </r>
       <r>    10.4818    -0.0729    10.8779 </r>
       <r>    10.5837    -0.0243    10.8754 </r>
       <r>    10.6855    -0.0036    10.8750 </r>
       <r>    10.7874    -0.0003    10.8750 </r>
       <r>    10.8892    -0.0000    10.8750 </r>
       <r>    10.9910    -0.0000    10.8750 </r>
       <r>    11.0929    -0.0001    10.8750 </r>
       <r>    11.1947    -0.0010    10.8749 </r>
       <r>    11.2966    -0.0100    10.8739 </r>
       <r>    11.3984    -0.0474    10.8691 </r>
       <r>    11.5002    -0.0717    10.8618 </r>
       <r>    11.6021     0.2232    10.8845 </r>
       <r>    11.7039     1.0340    10.9898 </r>
       <r>    11.8058     1.5242    11.1450 </r>
       <r>    11.9076     0.9341    11.2401 </r>
       <r>    12.0094     0.0932    11.2496 </r>
       <r>    12.1113    -0.0066    11.2490 </r>
       <r>    12.2131     0.7891    11.3293 </r>
       <r>    12.3150     1.7479    11.5073 </r>
       <r>    12.4168     1.6804    11.6785 </r>
       <r>    12.5186     0.7476    11.7546 </r>
       <r>    12.6205     0.0696    11.7617 </r>
       <r>    12.7223    -0.0734    11.7542 </r>
       <r>    12.8242    -0.0339    11.7508 </r>
       <r>    12.9260    -0.0067    11.7501 </r>
       <r>    13.0278    -0.0007    11.7500 </r>
       <r>    13.1297    -0.0000    11.7500 </r>
       <r>    13.2315    -0.0000    11.7500 </r>
       <r>    13.3334    -0.0000    11.7500 </r>
       <r>    13.4352    -0.0000    11.7500 </r>
       <r>    13.5370    -0.0000    11.7500 </r>
       <r>    13.6389    -0.0000    11.7500 </r>
       <r>    13.7407     0.0000    11.7500 </r>
       <r>    13.8426     0.0000    11.7500 </r>
       <r>    13.9444     0.0000    11.7500 </r>
       <r>    14.0463     0.0000    11.7500 </r>
       <r>    14.1481     0.0000    11.7500 </r>
       <r>    14.2499    -0.0000    11.7500 </r>
       <r>    14.3518    -0.0000    11.7500 </r>
       <r>    14.4536    -0.0000    11.7500 </r>
       <r>    14.5555    -0.0000    11.7500 </r>
       <r>    14.6573    -0.0000    11.7500 </r>
       <r>    14.7591    -0.0000    11.7500 </r>
       <r>    14.8610    -0.0000    11.7500 </r>
       <r>    14.9628    -0.0000    11.7500 </r>
       <r>    15.0647    -0.0000    11.7500 </r>
       <r>    15.1665    -0.0000    11.7500 </r>
       <r>    15.2683    -0.0001    11.7500 </r>
       <r>    15.3702    -0.0013    11.7499 </r>
       <r>    15.4720    -0.0108    11.7488 </r>
       <r>    15.5739    -0.0413    11.7446 </r>
       <r>    15.6757    -0.0317    11.7413 </r>
       <r>    15.7775     0.2467    11.7664 </r>
       <r>    15.8794     0.7649    11.8443 </r>
       <r>    15.9812     0.9645    11.9426 </r>
       <r>    16.0831     0.9881    12.0432 </r>
       <r>    16.1849     1.3782    12.1836 </r>
       <r>    16.2867     1.3686    12.3229 </r>
       <r>    16.3886     0.6001    12.3840 </r>
       <r>    16.4904     0.0148    12.3856 </r>
       <r>    16.5923    -0.0742    12.3780 </r>
       <r>    16.6941    -0.0254    12.3754 </r>
       <r>    16.7960    -0.0038    12.3750 </r>
       <r>    16.8978    -0.0003    12.3750 </r>
       <r>    16.9996    -0.0002    12.3750 </r>
       <r>    17.1015    -0.0021    12.3748 </r>
       <r>    17.2033    -0.0148    12.3733 </r>
       <r>    17.3052    -0.0471    12.3685 </r>
       <r>    17.4070    -0.0030    12.3681 </r>
       <r>    17.5088     0.3670    12.4055 </r>
       <r>    17.6107     0.9160    12.4988 </r>
       <r>    17.7125     0.9177    12.5923 </r>
       <r>    17.8144     0.3553    12.6284 </r>
       <r>    17.9162    -0.0041    12.6280 </r>
       <r>    18.0180     0.1255    12.6408 </r>
       <r>    18.1199     0.4345    12.6851 </r>
       <r>    18.2217     0.4587    12.7318 </r>
       <r>    18.3236     0.1751    12.7496 </r>
       <r>    18.4254     0.0077    12.7504 </r>
       <r>    18.5272     0.1767    12.7684 </r>
       <r>    18.6291     0.4618    12.8154 </r>
       <r>    18.7309     0.4485    12.8611 </r>
       <r>    18.8328     0.1674    12.8782 </r>
       <r>    18.9346    -0.0332    12.8748 </r>
       <r>    19.0364    -0.0990    12.8647 </r>
       <r>    19.1383     0.0344    12.8682 </r>
       <r>    19.2401     0.6828    12.9377 </r>
       <r>    19.3420     1.4537    13.0858 </r>
       <r>    19.4438     1.2890    13.2171 </r>
       <r>    19.5456     0.4422    13.2621 </r>
       <r>    19.6475    -0.0339    13.2586 </r>
       <r>    19.7493    -0.0645    13.2521 </r>
       <r>    19.8512    -0.0178    13.2503 </r>
       <r>    19.9530    -0.0023    13.2500 </r>
       <r>    20.0549    -0.0002    13.2500 </r>
       <r>    20.1567    -0.0003    13.2500 </r>
       <r>    20.2585    -0.0035    13.2496 </r>
       <r>    20.3604    -0.0256    13.2470 </r>
       <r>    20.4622    -0.0885    13.2380 </r>
       <r>    20.5641    -0.0474    13.2332 </r>
       <r>    20.6659     0.5818    13.2924 </r>
       <r>    20.7677     1.7958    13.4753 </r>
       <r>    20.8696     2.2900    13.7085 </r>
       <r>    20.9714     1.3648    13.8475 </r>
       <r>    21.0733     0.3709    13.8853 </r>
       <r>    21.1751     0.5998    13.9464 </r>
       <r>    21.2769     1.3855    14.0875 </r>
       <r>    21.3788     1.2734    14.2171 </r>
       <r>    21.4806     0.4413    14.2621 </r>
       <r>    21.5825    -0.0338    14.2586 </r>
       <r>    21.6843    -0.0645    14.2521 </r>
       <r>    21.7861    -0.0179    14.2503 </r>
       <r>    21.8880    -0.0023    14.2500 </r>
       <r>    21.9898    -0.0002    14.2500 </r>
       <r>    22.0917    -0.0000    14.2500 </r>
       <r>    22.1935    -0.0000    14.2500 </r>
       <r>    22.2953    -0.0000    14.2500 </r>
       <r>    22.3972    -0.0000    14.2500 </r>
       <r>    22.4990    -0.0000    14.2500 </r>
       <r>    22.6009    -0.0008    14.2499 </r>
       <r>    22.7027    -0.0081    14.2491 </r>
       <r>    22.8045    -0.0420    14.2448 </r>
       <r>    22.9064    -0.0762    14.2370 </r>
       <r>    23.0082     0.1664    14.2540 </r>
       <r>    23.1101     0.9441    14.3501 </r>
       <r>    23.2119     1.5285    14.5058 </r>
       <r>    23.3138     1.0600    14.6138 </r>
       <r>    23.4156     0.2409    14.6383 </r>
       <r>    23.5174    -0.0698    14.6312 </r>
       <r>    23.6193    -0.0489    14.6262 </r>
       <r>    23.7211    -0.0105    14.6251 </r>
       <r>    23.8230    -0.0011    14.6250 </r>
       <r>    23.9248    -0.0001    14.6250 </r>
       <r>    24.0266    -0.0000    14.6250 </r>
       <r>    24.1285    -0.0000    14.6250 </r>
       <r>    24.2303    -0.0000    14.6250 </r>
       <r>    24.3322    -0.0000    14.6250 </r>
       <r>    24.4340    -0.0000    14.6250 </r>
       <r>    24.5358    -0.0000    14.6250 </r>
       <r>    24.6377    -0.0000    14.6250 </r>
       <r>    24.7395    -0.0003    14.6250 </r>
       <r>    24.8414    -0.0041    14.6245 </r>
       <r>    24.9432    -0.0268    14.6218 </r>
       <r>    25.0450    -0.0751    14.6142 </r>
       <r>    25.1469     0.0297    14.6172 </r>
       <r>    25.2487     0.6529    14.6837 </r>
       <r>    25.3506     1.4381    14.8301 </r>
       <r>    25.4524     1.3130    14.9639 </r>
       <r>    25.5542     0.4691    15.0116 </r>
       <r>    25.6561    -0.0343    15.0081 </r>
       <r>    25.7579    -0.1049    14.9975 </r>
       <r>    25.8598    -0.0966    14.9876 </r>
       <r>    25.9616     0.1318    15.0010 </r>
       <r>    26.0635     0.8867    15.0913 </r>
       <r>    26.1653     1.5207    15.2462 </r>
       <r>    26.2671     1.1140    15.3597 </r>
       <r>    26.3690     0.2782    15.3880 </r>
       <r>    26.4708    -0.0844    15.3794 </r>
       <r>    26.5727    -0.1198    15.3672 </r>
       <r>    26.6745    -0.0338    15.3638 </r>
       <r>    26.7763     0.4886    15.4135 </r>
       <r>    26.8782     1.3296    15.5489 </r>
       <r>    26.9800     1.4261    15.6942 </r>
       <r>    27.0819     0.6309    15.7584 </r>
       <r>    27.1837     0.0218    15.7606 </r>
       <r>    27.2855    -0.0752    15.7530 </r>
       <r>    27.3874    -0.0339    15.7495 </r>
       <r>    27.4892    -0.0392    15.7455 </r>
       <r>    27.5911    -0.0429    15.7412 </r>
       <r>    27.6929     0.1912    15.7606 </r>
       <r>    27.7947     0.7478    15.8368 </r>
       <r>    27.8966     1.0128    15.9399 </r>
       <r>    27.9984     0.5858    15.9996 </r>
       <r>    28.1003     0.0867    16.0084 </r>
       <r>    28.2021    -0.0519    16.0031 </r>
       <r>    28.3039    -0.0255    16.0005 </r>
       <r>    28.4058    -0.0047    16.0000 </r>
       <r>    28.5076    -0.0004    16.0000 </r>
       <r>    28.6095    -0.0000    16.0000 </r>
       <r>    28.7113    -0.0000    16.0000 </r>
       <r>    28.8131    -0.0000    16.0000 </r>
       <r>    28.9150    -0.0000    16.0000 </r>
       <r>    29.0168    -0.0000    16.0000 </r>
       <r>    29.1187    -0.0000    16.0000 </r>
       <r>    29.2205     0.0000    16.0000 </r>
       <r>    29.3224     0.0000    16.0000 </r>
       <r>    29.4242     0.0000    16.0000 </r>
       <r>    29.5260     0.0000    16.0000 </r>
       <r>    29.6279     0.0000    16.0000 </r>
       <r>    29.7297     0.0000    16.0000 </r>
       <r>    29.8316     0.0000    16.0000 </r>
      </set>
      <set comment="spin 2">
       <r>    -0.7206     0.0000     0.0000 </r>
       <r>    -0.6188     0.0000     0.0000 </r>
       <r>    -0.5170     0.0000     0.0000 </r>
       <r>    -0.4151     0.0000     0.0000 </r>
       <r>    -0.3133    -0.0000    -0.0000 </r>
       <r>    -0.2114    -0.0000    -0.0000 </r>
       <r>    -0.1096    -0.0000    -0.0000 </r>
       <r>    -0.0078    -0.0000    -0.0000 </r>
       <r>     0.0941    -0.0000    -0.0000 </r>
       <r>     0.1959    -0.0000    -0.0000 </r>
       <r>     0.2978    -0.0000    -0.0000 </r>
       <r>     0.3996    -0.0000    -0.0000 </r>
       <r>     0.5014    -0.0000    -0.0000 </r>
       <r>     0.6033    -0.0000    -0.0000 </r>
       <r>     0.7051    -0.0001    -0.0000 </r>
       <r>     0.8070    -0.0016    -0.0002 </r>
       <r>     0.9088    -0.0098    -0.0012 </r>
       <r>     1.0106    -0.0256    -0.0038 </r>
       <r>     1.1125     0.0170    -0.0020 </r>
       <r>     1.2143     0.2361     0.0220 </r>
       <r>     1.3162     0.4884     0.0717 </r>
       <r>     1.4180     0.4231     0.1148 </r>
       <r>     1.5199     0.1403     0.1291 </r>
       <r>     1.6217    -0.0130     0.1278 </r>
       <r>     1.7235    -0.0210     0.1257 </r>
       <r>     1.8254    -0.0057     0.1251 </r>
       <r>     1.9272    -0.0007     0.1250 </r>
       <r>     2.0291    -0.0000     0.1250 </r>
       <r>     2.1309    -0.0000     0.1250 </r>
       <r>     2.2327    -0.0000     0.1250 </r>
       <r>     2.3346    -0.0000     0.1250 </r>
       <r>     2.4364    -0.0000     0.1250 </r>
       <r>     2.5383    -0.0000     0.1250 </r>
       <r>     2.6401    -0.0000     0.1250 </r>
       <r>     2.7419    -0.0000     0.1250 </r>
       <r>     2.8438    -0.0001     0.1250 </r>
       <r>     2.9456    -0.0019     0.1248 </r>
       <r>     3.0475    -0.0155     0.1232 </r>
       <r>     3.1493    -0.0602     0.1171 </r>
       <r>     3.2511    -0.0475     0.1122 </r>
       <r>     3.3530     0.3810     0.1510 </r>
       <r>     3.4548     1.2299     0.2763 </r>
       <r>     3.5567     1.4847     0.4275 </r>
       <r>     3.6585     0.7561     0.5045 </r>
       <r>     3.7603     0.0711     0.5117 </r>
       <r>     3.8622    -0.0777     0.5038 </r>
       <r>     3.9640    -0.0320     0.5006 </r>
       <r>     4.0659    -0.0081     0.4997 </r>
       <r>     4.1677    -0.0210     0.4976 </r>
       <r>     4.2696    -0.0686     0.4906 </r>
       <r>     4.3714    -0.0161     0.4890 </r>
       <r>     4.4732     0.5108     0.5410 </r>
       <r>     4.5751     1.3459     0.6780 </r>
       <r>     4.6769     1.4092     0.8216 </r>
       <r>     4.7788     0.5829     0.8809 </r>
       <r>     4.8806    -0.0614     0.8747 </r>
       <r>     4.9824    -0.0642     0.8681 </r>
       <r>     5.0843     0.5522     0.9244 </r>
       <r>     5.1861     1.3397     1.0608 </r>
       <r>     5.2880     1.5068     1.2143 </r>
       <r>     5.3898     1.5177     1.3688 </r>
       <r>     5.4916     2.0078     1.5733 </r>
       <r>     5.5935     2.1229     1.7895 </r>
       <r>     5.6953     1.3435     1.9263 </r>
       <r>     5.7972     0.5037     1.9776 </r>
       <r>     5.8990     0.6935     2.0482 </r>
       <r>     6.0008     2.2402     2.2764 </r>
       <r>     6.1027     3.9124     2.6748 </r>
       <r>     6.2045     4.2293     3.1056 </r>
       <r>     6.3064     3.4162     3.4535 </r>
       <r>     6.4082     2.0776     3.6650 </r>
       <r>     6.5100     1.0888     3.7759 </r>
       <r>     6.6119     1.8352     3.9628 </r>
       <r>     6.7137     3.2260     4.2914 </r>
       <r>     6.8156     2.8945     4.5861 </r>
       <r>     6.9174     1.7545     4.7648 </r>
       <r>     7.0192     2.3811     5.0073 </r>
       <r>     7.1211     3.8417     5.3985 </r>
       <r>     7.2229     3.3686     5.7416 </r>
       <r>     7.3248     1.5114     5.8955 </r>
       <r>     7.4266     0.4492     5.9413 </r>
       <r>     7.5285     0.2333     5.9650 </r>
       <r>     7.6303     0.1150     5.9767 </r>
       <r>     7.7321     0.6712     6.0451 </r>
       <r>     7.8340     2.2308     6.2723 </r>
       <r>     7.9358     3.1661     6.5947 </r>
       <r>     8.0377     2.7414     6.8739 </r>
       <r>     8.1395     2.9389     7.1732 </r>
       <r>     8.2413     4.2002     7.6010 </r>
       <r>     8.3432     4.6474     8.0743 </r>
       <r>     8.4450     4.2699     8.5091 </r>
       <r>     8.5469     3.9954     8.9160 </r>
       <r>     8.6487     3.9684     9.3201 </r>
       <r>     8.7505     4.4568     9.7740 </r>
       <r>     8.8524     4.2623    10.2081 </r>
       <r>     8.9542     2.5081    10.4635 </r>
       <r>     9.0561     0.6348    10.5282 </r>
       <r>     9.1579    -0.1506    10.5128 </r>
       <r>     9.2597    -0.2050    10.4920 </r>
       <r>     9.3616     0.0666    10.4987 </r>
       <r>     9.4634     0.8193    10.5822 </r>
       <r>     9.5653     1.5062    10.7356 </r>
       <r>     9.6671     1.1708    10.8548 </r>
       <r>     9.7689     0.3272    10.8881 </r>
       <r>     9.8708    -0.0575    10.8823 </r>
       <r>     9.9726    -0.0562    10.8765 </r>
       <r>    10.0745    -0.0135    10.8752 </r>
       <r>    10.1763    -0.0016    10.8750 </r>
       <r>    10.2781    -0.0001    10.8750 </r>
       <r>    10.3800    -0.0000    10.8750 </r>
       <r>    10.4818    -0.0000    10.8750 </r>
       <r>    10.5837    -0.0000    10.8750 </r>
       <r>    10.6855    -0.0000    10.8750 </r>
       <r>    10.7874    -0.0000    10.8750 </r>
       <r>    10.8892    -0.0003    10.8750 </r>
       <r>    10.9910    -0.0036    10.8746 </r>
       <r>    11.0929    -0.0244    10.8721 </r>
       <r>    11.1947    -0.0730    10.8647 </r>
       <r>    11.2966     0.0110    10.8658 </r>
       <r>    11.3984     0.5992    10.9268 </r>
       <r>    11.5002     1.4058    11.0700 </r>
       <r>    11.6021     1.3399    11.2065 </r>
       <r>    11.7039     0.4632    11.2536 </r>
       <r>    11.8058    -0.0922    11.2442 </r>
       <r>    11.9076     0.1964    11.2642 </r>
       <r>    12.0094     1.2141    11.3879 </r>
       <r>    12.1113     1.9490    11.5864 </r>
       <r>    12.2131     1.4003    11.7290 </r>
       <r>    12.3150     0.3653    11.7662 </r>
       <r>    12.4168    -0.0742    11.7586 </r>
       <r>    12.5186    -0.0667    11.7518 </r>
       <r>    12.6205    -0.0160    11.7502 </r>
       <r>    12.7223    -0.0019    11.7500 </r>
       <r>    12.8242    -0.0001    11.7500 </r>
       <r>    12.9260    -0.0000    11.7500 </r>
       <r>    13.0278    -0.0000    11.7500 </r>
       <r>    13.1297    -0.0000    11.7500 </r>
       <r>    13.2315    -0.0000    11.7500 </r>
       <r>    13.3334    -0.0000    11.7500 </r>
       <r>    13.4352     0.0000    11.7500 </r>
       <r>    13.5370     0.0000    11.7500 </r>
       <r>    13.6389     0.0000    11.7500 </r>
       <r>    13.7407     0.0000    11.7500 </r>
       <r>    13.8426     0.0000    11.7500 </r>
       <r>    13.9444     0.0000    11.7500 </r>
       <r>    14.0463    -0.0000    11.7500 </r>
       <r>    14.1481    -0.0000    11.7500 </r>
       <r>    14.2499    -0.0000    11.7500 </r>
       <r>    14.3518    -0.0000    11.7500 </r>
       <r>    14.4536    -0.0000    11.7500 </r>
       <r>    14.5555    -0.0000    11.7500 </r>
       <r>    14.6573    -0.0000    11.7500 </r>
       <r>    14.7591    -0.0000    11.7500 </r>
       <r>    14.8610    -0.0000    11.7500 </r>
       <r>    14.9628    -0.0000    11.7500 </r>
       <r>    15.0647    -0.0001    11.7500 </r>
       <r>    15.1665    -0.0011    11.7499 </r>
       <r>    15.2683    -0.0097    11.7489 </r>
       <r>    15.3702    -0.0398    11.7448 </r>
       <r>    15.4720    -0.0453    11.7402 </r>
       <r>    15.5739     0.1875    11.7593 </r>
       <r>    15.6757     0.7281    11.8335 </r>
       <r>    15.7775     1.2223    11.9580 </r>
       <r>    15.8794     1.5639    12.1172 </r>
       <r>    15.9812     1.5882    12.2790 </r>
       <r>    16.0831     0.9167    12.3723 </r>
       <r>    16.1849     0.1587    12.3885 </r>
       <r>    16.2867    -0.0791    12.3804 </r>
       <r>    16.3886    -0.0437    12.3760 </r>
       <r>    16.4904    -0.0086    12.3751 </r>
       <r>    16.5923    -0.0009    12.3750 </r>
       <r>    16.6941    -0.0000    12.3750 </r>
       <r>    16.7960    -0.0000    12.3750 </r>
       <r>    16.8978    -0.0001    12.3750 </r>
       <r>    16.9996    -0.0017    12.3748 </r>
       <r>    17.1015    -0.0127    12.3735 </r>
       <r>    17.2033    -0.0442    12.3690 </r>
       <r>    17.3052    -0.0178    12.3672 </r>
       <r>    17.4070     0.3138    12.3992 </r>
       <r>    17.5088     0.8719    12.4880 </r>
       <r>    17.6107     0.9395    12.5836 </r>
       <r>    17.7125     0.4145    12.6259 </r>
       <r>    17.8144     0.1265    12.6387 </r>
       <r>    17.9162     0.3379    12.6732 </r>
       <r>    18.0180     0.4839    12.7224 </r>
       <r>    18.1199     0.2664    12.7496 </r>
       <r>    18.2217     0.0108    12.7507 </r>
       <r>    18.3236    -0.0223    12.7484 </r>
       <r>    18.4254     0.1881    12.7675 </r>
       <r>    18.5272     0.4670    12.8151 </r>
       <r>    18.6291     0.4485    12.8608 </r>
       <r>    18.7309     0.1565    12.8767 </r>
       <r>    18.8328    -0.0668    12.8699 </r>
       <r>    18.9346    -0.0646    12.8633 </r>
       <r>    19.0364     0.4018    12.9043 </r>
       <r>    19.1383     1.2567    13.0322 </r>
       <r>    19.2401     1.4713    13.1821 </r>
       <r>    19.3420     0.7226    13.2557 </r>
       <r>    19.4438     0.0569    13.2615 </r>
       <r>    19.5456    -0.0771    13.2536 </r>
       <r>    19.6475    -0.0301    13.2505 </r>
       <r>    19.7493    -0.0049    13.2500 </r>
       <r>    19.8512    -0.0004    13.2500 </r>
       <r>    19.9530    -0.0000    13.2500 </r>
       <r>    20.0549    -0.0005    13.2499 </r>
       <r>    20.1567    -0.0059    13.2493 </r>
       <r>    20.2585    -0.0367    13.2456 </r>
       <r>    20.3604    -0.1005    13.2354 </r>
       <r>    20.4622     0.0283    13.2383 </r>
       <r>    20.5641     0.8359    13.3234 </r>
       <r>    20.6659     2.0164    13.5287 </r>
       <r>    20.7677     2.1756    13.7503 </r>
       <r>    20.8696     1.0831    13.8606 </r>
       <r>    20.9714     0.2827    13.8894 </r>
       <r>    21.0733     0.7258    13.9633 </r>
       <r>    21.1751     1.4521    14.1112 </r>
       <r>    21.2769     1.1629    14.2296 </r>
       <r>    21.3788     0.3288    14.2631 </r>
       <r>    21.4806    -0.0571    14.2573 </r>
       <r>    21.5825    -0.0564    14.2516 </r>
       <r>    21.6843    -0.0136    14.2502 </r>
       <r>    21.7861    -0.0016    14.2500 </r>
       <r>    21.8880    -0.0001    14.2500 </r>
       <r>    21.9898    -0.0000    14.2500 </r>
       <r>    22.0917    -0.0000    14.2500 </r>
       <r>    22.1935    -0.0000    14.2500 </r>
       <r>    22.2953    -0.0000    14.2500 </r>
       <r>    22.3972    -0.0000    14.2500 </r>
       <r>    22.4990    -0.0005    14.2499 </r>
       <r>    22.6009    -0.0060    14.2493 </r>
       <r>    22.7027    -0.0347    14.2458 </r>
       <r>    22.8045    -0.0782    14.2378 </r>
       <r>    22.9064     0.0970    14.2477 </r>
       <r>    23.0082     0.8130    14.3305 </r>
       <r>    23.1101     1.5035    14.4836 </r>
       <r>    23.2119     1.1808    14.6039 </r>
       <r>    23.3138     0.3358    14.6381 </r>
       <r>    23.4156    -0.0560    14.6324 </r>
       <r>    23.5174    -0.0569    14.6266 </r>
       <r>    23.6193    -0.0138    14.6252 </r>
       <r>    23.7211    -0.0016    14.6250 </r>
       <r>    23.8230    -0.0001    14.6250 </r>
       <r>    23.9248    -0.0000    14.6250 </r>
       <r>    24.0266    -0.0000    14.6250 </r>
       <r>    24.1285    -0.0000    14.6250 </r>
       <r>    24.2303    -0.0000    14.6250 </r>
       <r>    24.3322    -0.0000    14.6250 </r>
       <r>    24.4340    -0.0000    14.6250 </r>
       <r>    24.5358    -0.0000    14.6250 </r>
       <r>    24.6377    -0.0002    14.6250 </r>
       <r>    24.7395    -0.0023    14.6247 </r>
       <r>    24.8414    -0.0180    14.6229 </r>
       <r>    24.9432    -0.0647    14.6163 </r>
       <r>    25.0450    -0.0330    14.6130 </r>
       <r>    25.1469     0.4460    14.6584 </r>
       <r>    25.2487     1.2924    14.7900 </r>
       <r>    25.3506     1.4516    14.9378 </r>
       <r>    25.4524     0.6789    15.0070 </r>
       <r>    25.5542     0.0339    15.0104 </r>
       <r>    25.6561    -0.1098    14.9993 </r>
       <r>    25.7579    -0.1062    14.9884 </r>
       <r>    25.8598     0.0845    14.9970 </r>
       <r>    25.9616     0.7953    15.0780 </r>
       <r>    26.0635     1.4982    15.2306 </r>
       <r>    26.1653     1.1960    15.3524 </r>
       <r>    26.2671     0.3491    15.3880 </r>
       <r>    26.3690    -0.0570    15.3822 </r>
       <r>    26.4708    -0.0814    15.3739 </r>
       <r>    26.5727    -0.0864    15.3651 </r>
       <r>    26.6745     0.0026    15.3653 </r>
       <r>    26.7763     0.5788    15.4243 </r>
       <r>    26.8782     1.3945    15.5663 </r>
       <r>    26.9800     1.3675    15.7056 </r>
       <r>    27.0819     0.5394    15.7605 </r>
       <r>    27.1837    -0.0081    15.7597 </r>
       <r>    27.2855    -0.0726    15.7523 </r>
       <r>    27.3874    -0.0383    15.7484 </r>
       <r>    27.4892    -0.0520    15.7431 </r>
       <r>    27.5911     0.0093    15.7440 </r>
       <r>    27.6929     0.4061    15.7854 </r>
       <r>    27.7947     0.9423    15.8813 </r>
       <r>    27.8966     0.8972    15.9727 </r>
       <r>    27.9984     0.3402    16.0074 </r>
       <r>    28.1003    -0.0109    16.0063 </r>
       <r>    28.2021    -0.0457    16.0016 </r>
       <r>    28.3039    -0.0137    16.0002 </r>
       <r>    28.4058    -0.0019    16.0000 </r>
       <r>    28.5076    -0.0001    16.0000 </r>
       <r>    28.6095    -0.0000    16.0000 </r>
       <r>    28.7113    -0.0000    16.0000 </r>
       <r>    28.8131    -0.0000    16.0000 </r>
       <r>    28.9150    -0.0000    16.0000 </r>
       <r>    29.0168    -0.0000    16.0000 </r>
       <r>    29.1187     0.0000    16.0000 </r>
       <r>    29.2205     0.0000    16.0000 </r>
       <r>    29.3224     0.0000    16.0000 </r>
       <r>    29.4242     0.0000    16.0000 </r>
       <r>    29.5260     0.0000    16.0000 </r>
       <r>    29.6279     0.0000    16.0000 </r>
       <r>    29.7297     0.0000    16.0000 </r>
       <r>    29.8316     0.0000    16.0000 </r>
      </set>
     </set>
    </array>
   </total>
  </dos>
 </calculation>
 <structure name="finalpos" >
  <crystal>
   <varray name="basis" >
    <v>       2.79373900       0.00000000       0.00000000 </v>
    <v>       0.00000000       2.79373900       0.00000000 </v>
    <v>       0.00000000       0.00000000       2.79373900 </v>
   </varray>
   <i name="volume">     21.80507032 </i>
   <varray name="rec_basis" >
    <v>       0.35794324       0.00000000       0.00000000 </v>
    <v>       0.00000000       0.35794324       0.00000000 </v>
    <v>       0.00000000       0.00000000       0.35794324 </v>
   </varray>
  </crystal>
  <varray name="positions" >
   <v>       0.00000000       0.00000000       0.00000000 </v>
   <v>       0.50000000       0.50000000       0.50000000 </v>
  </varray>
 </structure>
</modeling>
