# ['Ni']

107 atoms
1 atom types

    0.0000     8.2956 xlo xhi
    0.0000     8.2956 ylo yhi
    0.0000     8.2956 zlo zhi

    0.0000    -0.0000    -0.0000 xy xz yz

Atoms

1 1     1.3826     1.3826     0.0000
2 1     1.3826     0.0000     1.3826
3 1     0.0000     1.3826     1.3826
4 1     0.0000     0.0000     2.7652
5 1     1.3826     1.3826     2.7652
6 1     1.3826     0.0000     4.1478
7 1     0.0000     1.3826     4.1478
8 1     0.0000     0.0000     5.5304
9 1     1.3826     1.3826     5.5304
10 1     1.3826     0.0000     6.9130
11 1     0.0000     1.3826     6.9130
12 1     0.0000     2.7652     0.0000
13 1     1.3826     4.1478     0.0000
14 1     1.3826     2.7652     1.3826
15 1     0.0000     4.1478     1.3826
16 1     0.0000     2.7652     2.7652
17 1     1.3826     4.1478     2.7652
18 1     1.3826     2.7652     4.1478
19 1     0.0000     4.1478     4.1478
20 1     0.0000     2.7652     5.5304
21 1     1.3826     4.1478     5.5304
22 1     1.3826     2.7652     6.9130
23 1     0.0000     4.1478     6.9130
24 1     0.0000     5.5304     0.0000
25 1     1.3826     6.9130     0.0000
26 1     1.3826     5.5304     1.3826
27 1     0.0000     6.9130     1.3826
28 1     0.0000     5.5304     2.7652
29 1     1.3826     6.9130     2.7652
30 1     1.3826     5.5304     4.1478
31 1     0.0000     6.9130     4.1478
32 1     0.0000     5.5304     5.5304
33 1     1.3826     6.9130     5.5304
34 1     1.3826     5.5304     6.9130
35 1     0.0000     6.9130     6.9130
36 1     2.7652     0.0000     0.0000
37 1     4.1478     1.3826     0.0000
38 1     4.1478     0.0000     1.3826
39 1     2.7652     1.3826     1.3826
40 1     2.7652     0.0000     2.7652
41 1     4.1478     1.3826     2.7652
42 1     4.1478     0.0000     4.1478
43 1     2.7652     1.3826     4.1478
44 1     2.7652     0.0000     5.5304
45 1     4.1478     1.3826     5.5304
46 1     4.1478     0.0000     6.9130
47 1     2.7652     1.3826     6.9130
48 1     2.7652     2.7652     0.0000
49 1     4.1478     4.1478     0.0000
50 1     4.1478     2.7652     1.3826
51 1     2.7652     4.1478     1.3826
52 1     2.7652     2.7652     2.7652
53 1     4.1478     4.1478     2.7652
54 1     4.1478     2.7652     4.1478
55 1     2.7652     4.1478     4.1478
56 1     2.7652     2.7652     5.5304
57 1     4.1478     4.1478     5.5304
58 1     4.1478     2.7652     6.9130
59 1     2.7652     4.1478     6.9130
60 1     2.7652     5.5304     0.0000
61 1     4.1478     6.9130     0.0000
62 1     4.1478     5.5304     1.3826
63 1     2.7652     6.9130     1.3826
64 1     2.7652     5.5304     2.7652
65 1     4.1478     6.9130     2.7652
66 1     4.1478     5.5304     4.1478
67 1     2.7652     6.9130     4.1478
68 1     2.7652     5.5304     5.5304
69 1     4.1478     6.9130     5.5304
70 1     4.1478     5.5304     6.9130
71 1     2.7652     6.9130     6.9130
72 1     5.5304     0.0000     0.0000
73 1     6.9130     1.3826     0.0000
74 1     6.9130     0.0000     1.3826
75 1     5.5304     1.3826     1.3826
76 1     5.5304     0.0000     2.7652
77 1     6.9130     1.3826     2.7652
78 1     6.9130     0.0000     4.1478
79 1     5.5304     1.3826     4.1478
80 1     5.5304     0.0000     5.5304
81 1     6.9130     1.3826     5.5304
82 1     6.9130     0.0000     6.9130
83 1     5.5304     1.3826     6.9130
84 1     5.5304     2.7652     0.0000
85 1     6.9130     4.1478     0.0000
86 1     6.9130     2.7652     1.3826
87 1     5.5304     4.1478     1.3826
88 1     5.5304     2.7652     2.7652
89 1     6.9130     4.1478     2.7652
90 1     6.9130     2.7652     4.1478
91 1     5.5304     4.1478     4.1478
92 1     5.5304     2.7652     5.5304
93 1     6.9130     4.1478     5.5304
94 1     6.9130     2.7652     6.9130
95 1     5.5304     4.1478     6.9130
96 1     5.5304     5.5304     0.0000
97 1     6.9130     6.9130     0.0000
98 1     6.9130     5.5304     1.3826
99 1     5.5304     6.9130     1.3826
100 1     5.5304     5.5304     2.7652
101 1     6.9130     6.9130     2.7652
102 1     6.9130     5.5304     4.1478
103 1     5.5304     6.9130     4.1478
104 1     5.5304     5.5304     5.5304
105 1     6.9130     6.9130     5.5304
106 1     6.9130     5.5304     6.9130
107 1     5.5304     6.9130     6.9130
