LAMMPS (11 Aug 2017)
Reading data file ...
  triclinic box = (0 0 0) to (2.4819 4.2987 6.0783) with tilt (0 0 0)
  1 by 1 by 1 MPI processor grid
  reading atoms ...
  6 atoms
6 atoms in group Ni
Neighbor list info ...
  update every 1 steps, delay 0 steps, check yes
  max neighbors/atom: 2000, page size: 100000
  master list distance cutoff = 5.64464
  ghost atom cutoff = 5.64464
  binsize = 2.82232, bins = 1 2 3
  1 neighbor lists, perpetual/occasional/extra = 1 0 0
  (1) pair eam/alloy, perpetual
      attributes: half, newton on
      pair build: half/bin/newton/tri
      stencil: half/bin/3d/newton/tri
      bin: standard
Setting up cg style minimization ...
  Unit style    : metal
  Current step  : 0
WARNING: Energy due to 3 extra global DOFs will be included in minimizer energies
Per MPI rank memory allocation (min/avg/max) = 4.212 | 4.212 | 4.212 Mbytes
Step PotEng Xhi Xlo Yhi Ylo Zhi Xy Xz Yz Press Pxx Pyy Pzz Pxy Pxz Pyz c_eatoms 
       0   -1.8161431       2.4819            0       4.2987            0       6.0783            0            0            0    428628.07    428511.15    428535.92    428837.14 -0.0031803786 -0.0011091853   -5.8081049   -1.8161431 
      10   -2.3042671    2.4943001 -0.012400116    4.3201785 -0.021478488    6.1086915            0            0            0     369219.7    369119.05    369140.59    369399.44 -0.0028480329 -0.00098483388   -5.0372461   -2.3042671 
      20   -2.7324489    2.5067003  -0.02480033    4.3416571 -0.042957146     6.139083            0            0            0    316965.12    316878.61    316897.32    317119.43 -0.0025484216 -0.00087346157    -4.363566   -2.7324489 
      30   -3.1066085    2.5191006 -0.037200619    4.3631359 -0.064435939    6.1694745            0            0            0    271040.34    270966.11    270982.33    271172.59 -0.0022783844 -0.00077381427   -3.7748379   -3.1066085 
      40   -3.4321227     2.531501 -0.049600959    4.3846148 -0.085914827     6.199866            0            0            0    230716.71    230653.14    230667.17    230829.82 -0.0020355629 -0.00068619519   -3.2603806   -3.4321227 
      50   -3.7138753    2.5439013 -0.062001322    4.4060938  -0.10739376    6.2302575            0            0            0    195349.71     195295.4    195307.51    195446.23 -0.0018212841 -0.0006060915   -2.8108493   -3.7138753 
      60   -3.9563021    2.5563017 -0.074401674    4.4275727   -0.1288727     6.260649            0            0            0     164369.1    164322.81    164333.25    164451.23 -0.0016229923 -0.00053439991   -2.4180692   -3.9563021 
      70   -4.1634331     2.568702 -0.086801976    4.4490516  -0.15035157    6.2910405            0            0            0    137270.19    137230.89    137239.85    137339.85 -0.0014442731 -0.0004702391   -2.0748836   -4.1634331 
      80   -4.3389294    2.5811022  -0.09920218    4.4705303  -0.17183031     6.321432            0            0            0    113605.71     113572.3    113579.96    113664.87 -0.0061502547 -0.00078905879   -1.7812545   -4.3389294 
      90   -4.4852867    2.5935013  -0.11160133    4.4920074   -0.1933074    6.3518235            0            0            0    91800.144    91769.544    91776.746    91854.144 -0.0011375234 -0.00036668825   -1.6016163   -4.4852867 
     100   -4.6045898    2.6058999  -0.12399994    4.5134837  -0.21478366     6.382215            0            0            0    72672.899    72647.247    72653.374    72718.076 -0.0010082609 -0.00031982993   -1.3546947   -4.6045898 
     110     -4.69956    2.6182979  -0.13639787    4.5349589  -0.23625887    6.4126065            0            0            0    55950.221     55928.92    55934.091     55987.65 -0.00088784731 -0.00027751557   -1.1365106     -4.69956 
     120   -4.7726684    2.6306948  -0.14879478    4.5564325  -0.25773253     6.442998            0            0            0    41356.209    41338.763    41343.078    41386.787 -0.00077786968 -0.0002390654  -0.94245345   -4.7726684 
     130   -4.8261583    2.6430901  -0.16119009    4.5779037  -0.27920369    6.4733895            0            0            0      28646.3    28632.315    28635.852    28670.734 -0.00067633769 -0.00020369282  -0.76760531   -4.8261583 
     140   -4.8620666    2.6554826  -0.17358257    4.5993705  -0.30067049     6.503781            0            0            0    17603.819    17593.037    17595.846    17622.575 -0.0005805435 -0.00017067436  -0.60542351   -4.8620666 
     150   -4.8822437    2.6678688  -0.18596882    4.6208277  -0.32212767    6.5341725            0            0            0    8037.3628     8029.804    8031.8694    8050.4148 -0.00048429502 -0.00013628751   -0.4420476   -4.8822437 
     160   -4.8883823    2.6798766  -0.19797661    4.6416367  -0.34293667    6.5637249            0            0            0  -0.89542195   -2.9697074    -2.238077    2.5215185 -0.00031082261 -7.2759408e-05  -0.15534671   -4.8883823 
     170   -4.8883823    2.6798654   -0.1979654    4.6416247  -0.34292474    6.5637586            0            0            0  0.000168269 0.0070333134 -0.0076677651 0.0011392587 -5.0870464e-09 1.9999363e-11 0.0031240585   -4.8883823 
     180   -4.8883823    2.6798654  -0.19796545    4.6416247  -0.34292466    6.5637586            0            0            0 1.9134705e-11 2.1562618e-11 -7.1463108e-12 4.2987808e-11 1.4017763e-12 1.7659633e-12 6.5965946e-13   -4.8883823 
     190   -4.8883823    2.6798654  -0.19796545    4.6416247  -0.34292466    6.5637586            0            0            0 1.8053597e-11 -2.1040388e-11 8.3666808e-11 -8.4656297e-12 1.4017763e-12 -2.4668515e-12 -2.0559386e-11   -4.8883823 
     191   -4.8883823    2.6798654  -0.19796545    4.6416247  -0.34292466    6.5637586            0            0            0 -1.5634845e-11 4.2190719e-12 8.2457432e-12 -5.9369351e-11 -3.628127e-12 2.2572722e-12 1.0994324e-13   -4.8883823 
Loop time of 0.0034411 on 1 procs for 191 steps with 6 atoms

100.0% CPU use with 1 MPI tasks x no OpenMP threads

Minimization stats:
  Stopping criterion = energy tolerance
  Energy initial, next-to-last, final = 
        -1.81614309133      -4.8883823109      -4.8883823109
  Force two-norm initial, final = 30.0493 4.817e-15
  Force max component initial, final = 17.3574 3.23091e-15
  Final line search alpha, max atom move = 1 3.23091e-15
  Iterations, force evaluations = 191 223

MPI task timing breakdown:
Section |  min time  |  avg time  |  max time  |%varavg| %total
---------------------------------------------------------------
Pair    | 0.0018213  | 0.0018213  | 0.0018213  |   0.0 | 52.93
Neigh   | 3.6001e-05 | 3.6001e-05 | 3.6001e-05 |   0.0 |  1.05
Comm    | 0.00032401 | 0.00032401 | 0.00032401 |   0.0 |  9.42
Output  | 0.00018072 | 0.00018072 | 0.00018072 |   0.0 |  5.25
Modify  | 0          | 0          | 0          |   0.0 |  0.00
Other   |            | 0.001079   |            |       | 31.36

Nlocal:    6 ave 6 max 6 min
Histogram: 1 0 0 0 0 0 0 0 0 0
Nghost:    270 ave 270 max 270 min
Histogram: 1 0 0 0 0 0 0 0 0 0
Neighs:    162 ave 162 max 162 min
Histogram: 1 0 0 0 0 0 0 0 0 0

Total # of neighbors = 162
Ave neighs/atom = 27
Neighbor list builds = 2
Dangerous builds = 0
pypospack:output_section:begin
tot_energy = -4.88838231089763
num_atoms = 6
a11 = 2.87783089063934
a22 = 4.98454931817853
a33 = 7.04921724808564
a12 = 0
a13 = 0
a23 = 0
tot_press = -1.56348453052402e-11
pxx = 4.21907193850754e-12
pyy = 8.24574320229486e-12
pzz = -5.9369351056523e-11
pxy = -3.62812700900974e-12
pxz = 2.25727220162822e-12
pyz = 1.09943242697265e-13
pypospack:output_section:done
pypospack:lammps_sim:done
Total wall time: 0:00:00
