# ['Ni']

18 atoms
1 atom types

    0.0000     2.4866 xlo xhi
    0.0000     4.3069 ylo yhi
    0.0000    36.5391 zlo zhi

    0.0000     0.0000    -0.0004 xy xz yz

Atoms

1 1     0.0000     0.0000     0.0000
2 1     1.2433     0.7178     2.0300
3 1     0.0000     1.4356     4.0599
4 1     1.2433     2.1534     0.0000
5 1     0.0000     2.8713     2.0300
6 1     1.2433     3.5891     4.0599
7 1     0.0000     0.0000     6.0899
8 1     1.2433     0.7178     8.1198
9 1     0.0000     1.4356    10.1498
10 1     1.2433     2.1534     6.0899
11 1     0.0000     2.8713     8.1198
12 1     1.2433     3.5891    10.1498
13 1     0.0000     0.0000    12.1797
14 1     1.2433     0.7178    14.2097
15 1     0.0000     1.4356    16.2396
16 1     1.2433     2.1534    12.1797
17 1     0.0000     2.8713    14.2097
18 1     1.2433     3.5891    16.2396
