# ['Ni']

107 atoms
1 atom types

    0.0000    10.5429 xlo xhi
    0.0000    10.5429 ylo yhi
    0.0000    10.5429 zlo zhi

    0.0000    -0.0000    -0.0000 xy xz yz

Atoms

1 1     1.7572     1.7572     0.0000
2 1     1.7572     0.0000     1.7572
3 1     0.0000     1.7572     1.7572
4 1     0.0000     0.0000     3.5143
5 1     1.7572     1.7572     3.5143
6 1     1.7572     0.0000     5.2715
7 1     0.0000     1.7572     5.2715
8 1     0.0000     0.0000     7.0286
9 1     1.7572     1.7572     7.0286
10 1     1.7572     0.0000     8.7858
11 1     0.0000     1.7572     8.7858
12 1     0.0000     3.5143     0.0000
13 1     1.7572     5.2715     0.0000
14 1     1.7572     3.5143     1.7572
15 1     0.0000     5.2715     1.7572
16 1     0.0000     3.5143     3.5143
17 1     1.7572     5.2715     3.5143
18 1     1.7572     3.5143     5.2715
19 1     0.0000     5.2715     5.2715
20 1     0.0000     3.5143     7.0286
21 1     1.7572     5.2715     7.0286
22 1     1.7572     3.5143     8.7858
23 1     0.0000     5.2715     8.7858
24 1     0.0000     7.0286     0.0000
25 1     1.7572     8.7858     0.0000
26 1     1.7572     7.0286     1.7572
27 1     0.0000     8.7858     1.7572
28 1     0.0000     7.0286     3.5143
29 1     1.7572     8.7858     3.5143
30 1     1.7572     7.0286     5.2715
31 1     0.0000     8.7858     5.2715
32 1     0.0000     7.0286     7.0286
33 1     1.7572     8.7858     7.0286
34 1     1.7572     7.0286     8.7858
35 1     0.0000     8.7858     8.7858
36 1     3.5143     0.0000     0.0000
37 1     5.2715     1.7572     0.0000
38 1     5.2715     0.0000     1.7572
39 1     3.5143     1.7572     1.7572
40 1     3.5143     0.0000     3.5143
41 1     5.2715     1.7572     3.5143
42 1     5.2715     0.0000     5.2715
43 1     3.5143     1.7572     5.2715
44 1     3.5143     0.0000     7.0286
45 1     5.2715     1.7572     7.0286
46 1     5.2715     0.0000     8.7858
47 1     3.5143     1.7572     8.7858
48 1     3.5143     3.5143     0.0000
49 1     5.2715     5.2715     0.0000
50 1     5.2715     3.5143     1.7572
51 1     3.5143     5.2715     1.7572
52 1     3.5143     3.5143     3.5143
53 1     5.2715     5.2715     3.5143
54 1     5.2715     3.5143     5.2715
55 1     3.5143     5.2715     5.2715
56 1     3.5143     3.5143     7.0286
57 1     5.2715     5.2715     7.0286
58 1     5.2715     3.5143     8.7858
59 1     3.5143     5.2715     8.7858
60 1     3.5143     7.0286     0.0000
61 1     5.2715     8.7858     0.0000
62 1     5.2715     7.0286     1.7572
63 1     3.5143     8.7858     1.7572
64 1     3.5143     7.0286     3.5143
65 1     5.2715     8.7858     3.5143
66 1     5.2715     7.0286     5.2715
67 1     3.5143     8.7858     5.2715
68 1     3.5143     7.0286     7.0286
69 1     5.2715     8.7858     7.0286
70 1     5.2715     7.0286     8.7858
71 1     3.5143     8.7858     8.7858
72 1     7.0286     0.0000     0.0000
73 1     8.7858     1.7572     0.0000
74 1     8.7858     0.0000     1.7572
75 1     7.0286     1.7572     1.7572
76 1     7.0286     0.0000     3.5143
77 1     8.7858     1.7572     3.5143
78 1     8.7858     0.0000     5.2715
79 1     7.0286     1.7572     5.2715
80 1     7.0286     0.0000     7.0286
81 1     8.7858     1.7572     7.0286
82 1     8.7858     0.0000     8.7858
83 1     7.0286     1.7572     8.7858
84 1     7.0286     3.5143     0.0000
85 1     8.7858     5.2715     0.0000
86 1     8.7858     3.5143     1.7572
87 1     7.0286     5.2715     1.7572
88 1     7.0286     3.5143     3.5143
89 1     8.7858     5.2715     3.5143
90 1     8.7858     3.5143     5.2715
91 1     7.0286     5.2715     5.2715
92 1     7.0286     3.5143     7.0286
93 1     8.7858     5.2715     7.0286
94 1     8.7858     3.5143     8.7858
95 1     7.0286     5.2715     8.7858
96 1     7.0286     7.0286     0.0000
97 1     8.7858     8.7858     0.0000
98 1     8.7858     7.0286     1.7572
99 1     7.0286     8.7858     1.7572
100 1     7.0286     7.0286     3.5143
101 1     8.7858     8.7858     3.5143
102 1     8.7858     7.0286     5.2715
103 1     7.0286     8.7858     5.2715
104 1     7.0286     7.0286     7.0286
105 1     8.7858     8.7858     7.0286
106 1     8.7858     7.0286     8.7858
107 1     7.0286     8.7858     8.7858
