       N       E                     dE             d eps       ncg     rms          rms(c)
DAV:   1    -0.869078609467E+03   -0.86908E+03   -0.29126E+04   512   0.262E+03
DAV:   2    -0.102940316398E+04   -0.16032E+03   -0.15801E+03   768   0.346E+02
DAV:   3    -0.103119601800E+04   -0.17929E+01   -0.17373E+01   512   0.330E+01
DAV:   4    -0.103124551638E+04   -0.49498E-01   -0.49449E-01   800   0.524E+00
DAV:   5    -0.103124611379E+04   -0.59741E-03   -0.59737E-03   656   0.527E-01    0.141E+02
DAV:   6    -0.134615474981E+03    0.89663E+03   -0.59978E+02   768   0.180E+02    0.721E+01
DAV:   7    -0.300864068432E+03   -0.16625E+03   -0.36435E+03   640   0.390E+02    0.113E+02
DAV:   8    -0.455138873012E+02    0.25535E+03   -0.19439E+03   512   0.590E+02    0.452E+01
DAV:   9    -0.216468641353E+02    0.23867E+02   -0.20191E+02   672   0.134E+02    0.616E+00
DAV:  10    -0.321780205235E+02   -0.10531E+02   -0.23697E+01   608   0.642E+01    0.245E+01
DAV:  11    -0.228098454306E+02    0.93682E+01   -0.65598E+01   560   0.881E+01    0.937E+00
DAV:  12    -0.230923088758E+02   -0.28246E+00   -0.45139E-01   592   0.485E+00    0.102E+01
DAV:  13    -0.231023427055E+02   -0.10034E-01   -0.86111E-03   688   0.587E-01    0.103E+01
DAV:  14    -0.224839892467E+02    0.61835E+00   -0.20540E-01   624   0.524E+00    0.711E+00
DAV:  15    -0.217776665370E+02    0.70632E+00   -0.89920E-01   528   0.134E+01    0.459E+00
DAV:  16    -0.216565325163E+02    0.12113E+00   -0.85862E-02   688   0.296E+00    0.197E+00
DAV:  17    -0.216123314162E+02    0.44201E-01   -0.80540E-02   512   0.408E+00    0.127E+00
DAV:  18    -0.216054420262E+02    0.68894E-02   -0.63375E-03   640   0.863E-01    0.419E-01
DAV:  19    -0.216054676836E+02   -0.25657E-04   -0.37354E-03   560   0.826E-01    0.499E-01
DAV:  20    -0.216046404836E+02    0.82720E-03   -0.68881E-04   592   0.306E-01    0.473E-02
DAV:  21    -0.216047558665E+02   -0.11538E-03   -0.73454E-05   576   0.110E-01    0.884E-02
DAV:  22    -0.216047415387E+02    0.14328E-04   -0.44692E-06   688   0.208E-02    0.467E-02
DAV:  23    -0.216047379164E+02    0.36223E-05   -0.19593E-06   448   0.186E-02    0.563E-03
DAV:  24    -0.216047394030E+02   -0.14866E-05   -0.76857E-07   320   0.102E-02    0.281E-03
DAV:  25    -0.216047396153E+02   -0.21230E-06   -0.24499E-07   272   0.455E-03
   1 F= -.21604740E+02 E0= -.21579635E+02  d E =-.753126E-01  mag=    -0.0002
