# ['Ni']

20 atoms
1 atom types

    0.0000     3.2458 xlo xhi
    0.0000     3.2458 ylo yhi
    0.0000    32.4584 zlo zhi

    0.0000    -0.0000     0.0000 xy xz yz

Atoms

1 1     0.0000     0.0000     0.0000
2 1     1.6229     1.6229     0.0000
3 1     1.6229     0.0000     1.6229
4 1     0.0000     1.6229     1.6229
5 1     0.0000     0.0000     3.2458
6 1     1.6229     1.6229     3.2458
7 1     1.6229     0.0000     4.8688
8 1     0.0000     1.6229     4.8688
9 1     0.0000     0.0000     6.4917
10 1     1.6229     1.6229     6.4917
11 1     1.6229     0.0000     8.1146
12 1     0.0000     1.6229     8.1146
13 1     0.0000     0.0000     9.7375
14 1     1.6229     1.6229     9.7375
15 1     1.6229     0.0000    11.3604
16 1     0.0000     1.6229    11.3604
17 1     0.0000     0.0000    12.9834
18 1     1.6229     1.6229    12.9834
19 1     1.6229     0.0000    14.6063
20 1     0.0000     1.6229    14.6063
