LAMMPS (11 Aug 2017)
Reading data file ...
  triclinic box = (0 0 0) to (3.5855 2.5666 25.6663) with tilt (0 0 0)
  1 by 1 by 1 MPI processor grid
  reading atoms ...
  10 atoms
10 atoms in group Ni
Neighbor list info ...
  update every 1 steps, delay 0 steps, check yes
  max neighbors/atom: 2000, page size: 100000
  master list distance cutoff = 5.64464
  ghost atom cutoff = 5.64464
  binsize = 2.82232, bins = 2 1 10
  1 neighbor lists, perpetual/occasional/extra = 1 0 0
  (1) pair eam/alloy, perpetual
      attributes: half, newton on
      pair build: half/bin/newton/tri
      stencil: half/bin/3d/newton/tri
      bin: standard
Setting up cg style minimization ...
  Unit style    : metal
  Current step  : 0
Per MPI rank memory allocation (min/avg/max) = 4.215 | 4.215 | 4.215 Mbytes
Step PotEng Lx Ly Lz Xy Xz Yz Press Pxx Pyy Pzz Pxy Pxz Pyz c_eatoms 
       0   -26.543254       3.5855       2.5666      25.6663            0            0            0    -21843.14   -22641.667   -23639.208   -19248.545 2.2357489e-13    1.0116143 2.7064329e-13   -26.543254 
       1   -26.573501       3.5855       2.5666      25.6663            0            0            0   -17085.455   -17752.548   -20367.706   -13136.111 8.1192987e-13  0.041736115 2.0004069e-13   -26.573501 
       2   -26.581404       3.5855       2.5666      25.6663            0            0            0   -14717.846   -15430.983   -18962.448   -9760.1064 7.7662858e-13    1.9020156 7.0602598e-14   -26.581404 
       3   -26.591131       3.5855       2.5666      25.6663            0            0            0   -9824.6798    -11104.95   -16351.023   -2018.0666 1.529723e-12   -5.3966225 -6.1188918e-13   -26.591131 
       4   -26.593324       3.5855       2.5666      25.6663            0            0            0   -9074.4915   -10473.881   -16009.228   -740.36504 1.0237377e-12    2.2167511 -1.17671e-13   -26.593324 
       5   -26.593355       3.5855       2.5666      25.6663            0            0            0   -9017.2758   -10449.257   -15998.764   -603.80609 4.7068398e-14   -4.3009865 -1.2708468e-12   -26.593355 
       6   -26.593374       3.5855       2.5666      25.6663            0            0            0   -8870.0514   -10331.144   -15929.325    -349.6856 1.8827359e-12    6.4908101 -1.3414494e-12   -26.593374 
       7   -26.593392       3.5855       2.5666      25.6663            0            0            0   -8682.2463   -10160.108   -15826.933   -59.698094 5.4128658e-13   -1.1398195 9.6490217e-13   -26.593392 
       8   -26.593394       3.5855       2.5666      25.6663            0            0            0   -8650.0584   -10126.668   -15806.071   -17.436347   2.7182e-12    0.4413789 7.7662858e-13   -26.593394 
       9   -26.593394       3.5855       2.5666      25.6663            0            0            0    -8640.664    -10117.75   -15800.274   -3.9682865 8.2369697e-13   0.21061876 -1.5767913e-12   -26.593394 
      10   -26.593394       3.5855       2.5666      25.6663            0            0            0    -8640.228   -10117.528   -15800.167   -2.9893553 -3.0594459e-13   0.12766303 -1.1178745e-12   -26.593394 
      11   -26.593394       3.5855       2.5666      25.6663            0            0            0   -8639.3021   -10116.738   -15799.707   -1.4611542 1.6120926e-12 0.0037024635 1.3179152e-12   -26.593394 
      12   -26.593394       3.5855       2.5666      25.6663            0            0            0   -8638.7304   -10116.228   -15799.396   -0.5673263 6.7072468e-13 -0.082435858 -1.0355048e-12   -26.593394 
      13   -26.593394       3.5855       2.5666      25.6663            0            0            0   -8638.3892   -10115.917   -15799.203 -0.047811568 7.7662858e-13 -0.020189985 -1.6356268e-12   -26.593394 
      14   -26.593394       3.5855       2.5666      25.6663            0            0            0   -8638.3673   -10115.898   -15799.194 -0.010368324 2.0592424e-12 0.0068420092 -6.2365628e-13   -26.593394 
      15   -26.593394       3.5855       2.5666      25.6663            0            0            0    -8638.378   -10115.912   -15799.203 -0.018895546 1.4238191e-12  0.018453447 1.5650242e-12   -26.593394 
      16   -26.593394       3.5855       2.5666      25.6663            0            0            0   -8638.3716   -10115.907   -15799.201 -0.0067614731 5.0598528e-13  0.020870446 4.2361559e-13   -26.593394 
      17   -26.593394       3.5855       2.5666      25.6663            0            0            0   -8638.3703   -10115.906     -15799.2 -0.0055128127 7.0602598e-13  0.020061397 -1.5061888e-12   -26.593394 
      18   -26.593394       3.5855       2.5666      25.6663            0            0            0   -8638.3687   -10115.904   -15799.199 -0.0039285481 1.529723e-13  0.018593575 5.6482078e-13   -26.593394 
      19   -26.593394       3.5855       2.5666      25.6663            0            0            0   -8638.3637   -10115.899   -15799.196 0.0042425944 2.8594052e-12 0.0098860811 -4.2361559e-13   -26.593394 
      20   -26.593394       3.5855       2.5666      25.6663            0            0            0   -8638.3611   -10115.898   -15799.195 0.0092240245 2.6711316e-12 0.0027929149 1.059039e-13   -26.593394 
      21   -26.593394       3.5855       2.5666      25.6663            0            0            0    -8638.362   -10115.898   -15799.195 0.0075270743 -2.5887619e-13 0.0019061843 1.8356675e-12   -26.593394 
      22   -26.593394       3.5855       2.5666      25.6663            0            0            0   -8638.3664   -10115.902   -15799.197 0.00030908605 -8.7076537e-13 0.00011833144 -1.2002442e-12   -26.593394 
      23   -26.593394       3.5855       2.5666      25.6663            0            0            0   -8638.3666   -10115.902   -15799.198 0.00010366729 1.7650649e-12 3.9981275e-05 -1.3767507e-12   -26.593394 
      24   -26.593394       3.5855       2.5666      25.6663            0            0            0   -8638.3666   -10115.902   -15799.198 9.6755454e-05 8.8253247e-13 1.0984953e-05 1.4591204e-12   -26.593394 
      25   -26.593394       3.5855       2.5666      25.6663            0            0            0   -8638.3667   -10115.902   -15799.198 5.5168967e-05 -1.294381e-13 6.7399618e-06 6.9425888e-13   -26.593394 
      26   -26.593394       3.5855       2.5666      25.6663            0            0            0   -8638.3667   -10115.902   -15799.198 3.6993664e-05 4.9421818e-13 2.9276347e-06 7.7662858e-13   -26.593394 
      27   -26.593394       3.5855       2.5666      25.6663            0            0            0   -8638.3667   -10115.902   -15799.198 2.511887e-05 -9.0606667e-13 -1.3978706e-06 -4.7068398e-13   -26.593394 
      28   -26.593394       3.5855       2.5666      25.6663            0            0            0   -8638.3667   -10115.902   -15799.198 1.7922059e-05 2.4475567e-12 -1.9374569e-06 1.1884771e-12   -26.593394 
      29   -26.593394       3.5855       2.5666      25.6663            0            0            0   -8638.3667   -10115.902   -15799.198 4.3032529e-06 1.9298043e-12 -7.8330518e-07 -8.2369697e-13   -26.593394 
      30   -26.593394       3.5855       2.5666      25.6663            0            0            0   -8638.3667   -10115.902   -15799.198 4.3907861e-06 1.9298043e-12 -5.1258571e-07 -1.0355048e-12   -26.593394 
      31   -26.593394       3.5855       2.5666      25.6663            0            0            0   -8638.3667   -10115.902   -15799.198 3.1827775e-06 -8.2369697e-14 -2.2922349e-07 2.8241039e-13   -26.593394 
      32   -26.593394       3.5855       2.5666      25.6663            0            0            0   -8638.3667   -10115.902   -15799.198 1.8163778e-06 -9.7666927e-13 1.5788661e-07 -3.8831429e-13   -26.593394 
      33   -26.593394       3.5855       2.5666      25.6663            0            0            0   -8638.3667   -10115.902   -15799.198 1.3966955e-06 6.3542338e-13 1.4703257e-07 -5.8835498e-13   -26.593394 
      34   -26.593394       3.5855       2.5666      25.6663            0            0            0   -8638.3667   -10115.902   -15799.198 3.2313663e-07 2.1651463e-12 5.482204e-08 -7.6486148e-13   -26.593394 
      35   -26.593394       3.5855       2.5666      25.6663            0            0            0   -8638.3667   -10115.902   -15799.198 6.1006057e-08 1.6944623e-12 1.1364153e-08 3.4124589e-13   -26.593394 
      36   -26.593394       3.5855       2.5666      25.6663            0            0            0   -8638.3667   -10115.902   -15799.198 6.5707484e-11 -7.0602598e-14 4.0017052e-09 7.8839567e-13   -26.593394 
      37   -26.593394       3.5855       2.5666      25.6663            0            0            0   -8638.3667   -10115.902   -15799.198 -1.5563872e-09 1.3179152e-12 2.0302865e-09 -1.17671e-12   -26.593394 
      38   -26.593394       3.5855       2.5666      25.6663            0            0            0   -8638.3667   -10115.902   -15799.198 7.3760887e-10 3.7654719e-13 1.5155259e-09 -3.5301299e-13   -26.593394 
      39   -26.593394       3.5855       2.5666      25.6663            0            0            0   -8638.3667   -10115.902   -15799.198 -2.0820706e-10 -1.294381e-13 1.3206334e-09 4.4714979e-13   -26.593394 
      40   -26.593394       3.5855       2.5666      25.6663            0            0            0   -8638.3667   -10115.902   -15799.198 7.5780122e-12 2.0710095e-12 1.2167505e-09 -7.5309438e-13   -26.593394 
      41   -26.593394       3.5855       2.5666      25.6663            0            0            0   -8638.3667   -10115.902   -15799.198 6.2083218e-11            0 1.1252436e-09 1.529723e-13   -26.593394 
      42   -26.593394       3.5855       2.5666      25.6663            0            0            0   -8638.3667   -10115.902   -15799.198 -1.3212099e-10 2.3534199e-13 7.6189028e-10 -2.247516e-12   -26.593394 
      43   -26.593394       3.5855       2.5666      25.6663            0            0            0   -8638.3667   -10115.902   -15799.198 -2.7205534e-11 -3.5654312e-12 2.9398039e-10 -4.2008546e-12   -26.593394 
Loop time of 0.00291896 on 1 procs for 43 steps with 10 atoms

80.2% CPU use with 1 MPI tasks x no OpenMP threads

Minimization stats:
  Stopping criterion = energy tolerance
  Energy initial, next-to-last, final = 
        -26.5432543628     -26.5933939079     -26.5933939079
  Force two-norm initial, final = 0.542196 2.92494e-14
  Force max component initial, final = 0.361057 1.71391e-14
  Final line search alpha, max atom move = 1 1.71391e-14
  Iterations, force evaluations = 43 86

MPI task timing breakdown:
Section |  min time  |  avg time  |  max time  |%varavg| %total
---------------------------------------------------------------
Pair    | 0.0015407  | 0.0015407  | 0.0015407  |   0.0 | 52.78
Neigh   | 0          | 0          | 0          |   0.0 |  0.00
Comm    | 0.00015926 | 0.00015926 | 0.00015926 |   0.0 |  5.46
Output  | 0.0011089  | 0.0011089  | 0.0011089  |   0.0 | 37.99
Modify  | 0          | 0          | 0          |   0.0 |  0.00
Other   |            | 0.0001101  |            |       |  3.77

Nlocal:    10 ave 10 max 10 min
Histogram: 1 0 0 0 0 0 0 0 0 0
Nghost:    357 ave 357 max 357 min
Histogram: 1 0 0 0 0 0 0 0 0 0
Neighs:    228 ave 228 max 228 min
Histogram: 1 0 0 0 0 0 0 0 0 0

Total # of neighbors = 228
Ave neighs/atom = 22.8
Neighbor list builds = 0
Dangerous builds = 0
pypospack:output_section:begin
tot_energy = -26.5933939078529
num_atoms = 10
a11 = 3.5855
a22 = 2.5666
a33 = 25.6663
a12 = 0
a13 = 0
a23 = 0
tot_press = -8638.36669884808
pxx = -10115.9023685309
pyy = -15799.1977280133
pzz = -2.72055343259029e-11
pxy = -3.56543118544488e-12
pxz = 2.9398039162959e-10
pyz = -4.20085456502912e-12
pypospack:output_section:done
pypospack:lammps_sim:done
Total wall time: 0:00:00
