# ['Ni']

28 atoms
1 atom types

    0.0000     2.4735 xlo xhi
    0.0000     4.2842 ylo yhi
    0.0000    28.2745 zlo zhi

    0.0000     0.0000     0.0000 xy xz yz

Atoms

1 1     0.0000     0.0000     0.0000
2 1     1.2368     2.1421     0.0000
3 1     1.2368     0.7140     2.0196
4 1     0.0000     2.8562     2.0196
5 1     0.0000     1.4281     4.0392
6 1     1.2368     3.5702     4.0392
7 1     0.0000     0.0000     6.0588
8 1     1.2368     2.1421     6.0588
9 1     1.2368     0.7140     8.0784
10 1     0.0000     2.8562     8.0784
11 1     0.0000     1.4281    10.0980
12 1     1.2368     3.5702    10.0980
13 1     0.0000     0.0000    12.1176
14 1     1.2368     2.1421    12.1176
15 1     0.0000     1.4281    14.1372
16 1     1.2368     3.5702    14.1372
17 1     0.0000     0.0000    16.1569
18 1     1.2368     2.1421    16.1569
19 1     1.2368     0.7140    18.1764
20 1     0.0000     2.8562    18.1764
21 1     0.0000     1.4281    20.1961
22 1     1.2368     3.5702    20.1961
23 1     0.0000     0.0000    22.2157
24 1     1.2368     2.1421    22.2157
25 1     1.2368     0.7140    24.2353
26 1     0.0000     2.8562    24.2353
27 1     0.0000     1.4281    26.2549
28 1     1.2368     3.5702    26.2549
