# ['Ni']

107 atoms
1 atom types

    0.0000    10.3549 xlo xhi
    0.0000    10.3549 ylo yhi
    0.0000    10.3549 zlo zhi

    0.0000    -0.0000    -0.0000 xy xz yz

Atoms

1 1     1.7258     1.7258     0.0000
2 1     1.7258     0.0000     1.7258
3 1     0.0000     1.7258     1.7258
4 1     0.0000     0.0000     3.4516
5 1     1.7258     1.7258     3.4516
6 1     1.7258     0.0000     5.1775
7 1     0.0000     1.7258     5.1775
8 1     0.0000     0.0000     6.9033
9 1     1.7258     1.7258     6.9033
10 1     1.7258     0.0000     8.6291
11 1     0.0000     1.7258     8.6291
12 1     0.0000     3.4516     0.0000
13 1     1.7258     5.1775     0.0000
14 1     1.7258     3.4516     1.7258
15 1     0.0000     5.1775     1.7258
16 1     0.0000     3.4516     3.4516
17 1     1.7258     5.1775     3.4516
18 1     1.7258     3.4516     5.1775
19 1     0.0000     5.1775     5.1775
20 1     0.0000     3.4516     6.9033
21 1     1.7258     5.1775     6.9033
22 1     1.7258     3.4516     8.6291
23 1     0.0000     5.1775     8.6291
24 1     0.0000     6.9033     0.0000
25 1     1.7258     8.6291     0.0000
26 1     1.7258     6.9033     1.7258
27 1     0.0000     8.6291     1.7258
28 1     0.0000     6.9033     3.4516
29 1     1.7258     8.6291     3.4516
30 1     1.7258     6.9033     5.1775
31 1     0.0000     8.6291     5.1775
32 1     0.0000     6.9033     6.9033
33 1     1.7258     8.6291     6.9033
34 1     1.7258     6.9033     8.6291
35 1     0.0000     8.6291     8.6291
36 1     3.4516     0.0000     0.0000
37 1     5.1775     1.7258     0.0000
38 1     5.1775     0.0000     1.7258
39 1     3.4516     1.7258     1.7258
40 1     3.4516     0.0000     3.4516
41 1     5.1775     1.7258     3.4516
42 1     5.1775     0.0000     5.1775
43 1     3.4516     1.7258     5.1775
44 1     3.4516     0.0000     6.9033
45 1     5.1775     1.7258     6.9033
46 1     5.1775     0.0000     8.6291
47 1     3.4516     1.7258     8.6291
48 1     3.4516     3.4516     0.0000
49 1     5.1775     5.1775     0.0000
50 1     5.1775     3.4516     1.7258
51 1     3.4516     5.1775     1.7258
52 1     3.4516     3.4516     3.4516
53 1     5.1775     5.1775     3.4516
54 1     5.1775     3.4516     5.1775
55 1     3.4516     5.1775     5.1775
56 1     3.4516     3.4516     6.9033
57 1     5.1775     5.1775     6.9033
58 1     5.1775     3.4516     8.6291
59 1     3.4516     5.1775     8.6291
60 1     3.4516     6.9033     0.0000
61 1     5.1775     8.6291     0.0000
62 1     5.1775     6.9033     1.7258
63 1     3.4516     8.6291     1.7258
64 1     3.4516     6.9033     3.4516
65 1     5.1775     8.6291     3.4516
66 1     5.1775     6.9033     5.1775
67 1     3.4516     8.6291     5.1775
68 1     3.4516     6.9033     6.9033
69 1     5.1775     8.6291     6.9033
70 1     5.1775     6.9033     8.6291
71 1     3.4516     8.6291     8.6291
72 1     6.9033     0.0000     0.0000
73 1     8.6291     1.7258     0.0000
74 1     8.6291     0.0000     1.7258
75 1     6.9033     1.7258     1.7258
76 1     6.9033     0.0000     3.4516
77 1     8.6291     1.7258     3.4516
78 1     8.6291     0.0000     5.1775
79 1     6.9033     1.7258     5.1775
80 1     6.9033     0.0000     6.9033
81 1     8.6291     1.7258     6.9033
82 1     8.6291     0.0000     8.6291
83 1     6.9033     1.7258     8.6291
84 1     6.9033     3.4516     0.0000
85 1     8.6291     5.1775     0.0000
86 1     8.6291     3.4516     1.7258
87 1     6.9033     5.1775     1.7258
88 1     6.9033     3.4516     3.4516
89 1     8.6291     5.1775     3.4516
90 1     8.6291     3.4516     5.1775
91 1     6.9033     5.1775     5.1775
92 1     6.9033     3.4516     6.9033
93 1     8.6291     5.1775     6.9033
94 1     8.6291     3.4516     8.6291
95 1     6.9033     5.1775     8.6291
96 1     6.9033     6.9033     0.0000
97 1     8.6291     8.6291     0.0000
98 1     8.6291     6.9033     1.7258
99 1     6.9033     8.6291     1.7258
100 1     6.9033     6.9033     3.4516
101 1     8.6291     8.6291     3.4516
102 1     8.6291     6.9033     5.1775
103 1     6.9033     8.6291     5.1775
104 1     6.9033     6.9033     6.9033
105 1     8.6291     8.6291     6.9033
106 1     8.6291     6.9033     8.6291
107 1     6.9033     8.6291     8.6291
