LAMMPS (11 Aug 2017)
Reading data file ...
  triclinic box = (0 0 0) to (3.5167 3.5167 3.5167) with tilt (0 -0 0)
  1 by 1 by 1 MPI processor grid
  reading atoms ...
  4 atoms
4 atoms in group Ni
Neighbor list info ...
  update every 1 steps, delay 0 steps, check yes
  max neighbors/atom: 2000, page size: 100000
  master list distance cutoff = 5.64464
  ghost atom cutoff = 5.64464
  binsize = 2.82232, bins = 2 2 2
  1 neighbor lists, perpetual/occasional/extra = 1 0 0
  (1) pair eam/alloy, perpetual
      attributes: half, newton on
      pair build: half/bin/newton/tri
      stencil: half/bin/3d/newton/tri
      bin: standard
Setting up cg style minimization ...
  Unit style    : metal
  Current step  : 0
WARNING: Energy due to 3 extra global DOFs will be included in minimizer energies
Per MPI rank memory allocation (min/avg/max) = 4.211 | 4.211 | 4.211 Mbytes
Step PotEng Xhi Xlo Yhi Ylo Zhi Xy Xz Yz Press Pxx Pyy Pzz Pxy Pxz Pyz c_eatoms 
       0   -24.114425       3.5167            0       3.5167            0       3.5167            0           -0            0   -477150.59   -477150.59   -477150.59   -477150.59 1.2780994e-11 3.5786784e-12 1.8404632e-11   -24.114425 
      10   -24.499929    3.4991165    0.0175835    3.4991165    0.0175835    3.4991165            0           -0            0    -478703.4    -478703.4    -478703.4    -478703.4 7.9033336e-12 2.9505779e-11 4.320489e-11   -24.499929 
      20   -24.877835     3.481533     0.035167     3.481533     0.035167     3.481533            0           -0            0   -477346.23   -477346.23   -477346.23   -477346.23 -2.0097782e-11 -5.6491063e-11 -2.7159165e-11   -24.877835 
      30   -25.245775    3.4639495    0.0527505    3.4639495    0.0527505    3.4639495            0           -0            0   -472579.66   -472579.66   -472579.66   -472579.66 1.624454e-11 8.2903172e-11 5.2094561e-11   -25.245775 
      40   -25.601126     3.446366     0.070334     3.446366     0.070334     3.446366            0           -0            0   -463829.36   -463829.36   -463829.36   -463829.36 1.6757489e-11 4.9694622e-11 4.7383244e-11   -25.601126 
      50   -25.940976    3.4287825    0.0879175    3.4287825    0.0879175    3.4287825            0           -0            0   -450435.05   -450435.05   -450435.05   -450435.05 2.5043966e-11 3.3391955e-11 2.1466257e-11   -25.940976 
      60   -26.262097     3.411199     0.105501     3.411199     0.105501     3.411199            0           -0            0   -431637.86   -431637.86   -431637.86   -431637.86 -4.9241476e-12 3.6931107e-11 1.7234517e-11   -26.262097 
      70   -26.561143    3.3936155    0.1230845    3.3936155    0.1230845    3.3936155            0           -0            0   -408407.23   -408407.23   -408407.23   -408407.23 -6.1016462e-11 -5.9745286e-11 -5.2118228e-11   -26.561143 
      80   -26.836716     3.376032     0.140668     3.376032     0.140668     3.376032            0           -0            0   -381195.84   -381195.84   -381195.84   -381195.84 -5.5149355e-11 -4.2018556e-11 -5.9088595e-11   -26.836716 
      90   -27.085083    3.3584485    0.1582515    3.3584485    0.1582515    3.3584485            0           -0            0   -345749.72   -345749.72   -345749.72   -345749.72 -2.7136913e-12 4.2062216e-11 7.0555975e-11   -27.085083 
     100   -27.301316     3.340865     0.175835     3.340865     0.175835     3.340865            0           -0            0   -300760.66   -300760.66   -300760.66   -300760.66 -5.610313e-12 -8.4154696e-12 5.610313e-12   -27.301316 
     110   -27.479947    3.3232815    0.1934185    3.3232815    0.1934185    3.3232815            0           -0            0   -244725.04   -244725.04   -244725.04   -244725.04 6.5267522e-11 7.6870637e-11 1.1167998e-10   -27.479947 
     120   -27.614908     3.305698     0.211002     3.305698     0.211002     3.305698            0           -0            0   -175914.39   -175914.39   -175914.39   -175914.39 6.0015939e-12 -3.000797e-11 -5.7015142e-11   -27.614908 
     130    -27.69946    3.2881145    0.2285855    3.2881145    0.2285855    3.2881145            0           -0            0   -92341.587   -92341.587   -92341.587   -92341.587 2.4843733e-11 5.2792933e-11 9.4716733e-11    -27.69946 
     140   -27.726307    3.2718655   0.24483452    3.2718655   0.24483452    3.2718655            0           -0            0   -12.774713   -12.774713   -12.774713   -12.774713 -2.72558e-11 -9.9403504e-11 -1.0581663e-10   -27.726307 
     150   -27.726307    3.2718634   0.24483659    3.2718634   0.24483659    3.2718634            0           -0            0 -1.8651594e-10 -2.6935254e-10 -1.298664e-10 -1.6032889e-10 -1.7956836e-10 -1.3146969e-10 -3.5272356e-11   -27.726307 
     155   -27.726307    3.2718634   0.24483659    3.2718634   0.24483659    3.2718634            0           -0            0 -8.6577601e-11 7.6957868e-11 -1.9880782e-10 -1.3788285e-10 -6.0924978e-11 1.8437822e-10 -1.44296e-11   -27.726307 
Loop time of 0.00311589 on 1 procs for 155 steps with 4 atoms

100.0% CPU use with 1 MPI tasks x no OpenMP threads

Minimization stats:
  Stopping criterion = energy tolerance
  Energy initial, next-to-last, final = 
        -24.1144248267     -27.7263065738     -27.7263065738
  Force two-norm initial, final = 22.4343 1.32348e-14
  Force max component initial, final = 12.9524 5.27356e-15
  Final line search alpha, max atom move = 1 5.27356e-15
  Iterations, force evaluations = 155 171

MPI task timing breakdown:
Section |  min time  |  avg time  |  max time  |%varavg| %total
---------------------------------------------------------------
Pair    | 0.0016634  | 0.0016634  | 0.0016634  |   0.0 | 53.39
Neigh   | 2.0981e-05 | 2.0981e-05 | 2.0981e-05 |   0.0 |  0.67
Comm    | 0.00029731 | 0.00029731 | 0.00029731 |   0.0 |  9.54
Output  | 0.00015497 | 0.00015497 | 0.00015497 |   0.0 |  4.97
Modify  | 0          | 0          | 0          |   0.0 |  0.00
Other   |            | 0.0009792  |            |       | 31.43

Nlocal:    4 ave 4 max 4 min
Histogram: 1 0 0 0 0 0 0 0 0 0
Nghost:    360 ave 360 max 360 min
Histogram: 1 0 0 0 0 0 0 0 0 0
Neighs:    172 ave 172 max 172 min
Histogram: 1 0 0 0 0 0 0 0 0 0

Total # of neighbors = 172
Ave neighs/atom = 43
Neighbor list builds = 1
Dangerous builds = 0
pypospack:output_section:begin
tot_energy = -27.7263065737659
num_atoms = 4
a11 = 3.02702682305422
a22 = 3.02702682305422
a33 = 3.02702682305422
a12 = 0
a13 = -0
a23 = 0
tot_press = -8.65776010056953e-11
pxx = 7.6957867560618e-11
pyy = -1.98807824531597e-10
pzz = -1.37882846046107e-10
pxy = -6.09249784854893e-11
pxz = 1.84378224363981e-10
pyz = -1.44296001676159e-11
pypospack:output_section:done
pypospack:lammps_sim:done
Total wall time: 0:00:00
