LAMMPS (11 Aug 2017)
Reading data file ...
  triclinic box = (0 0 0) to (3.5197 3.5197 35.1966) with tilt (0 -0 0)
  1 by 1 by 1 MPI processor grid
  reading atoms ...
  20 atoms
20 atoms in group Ni
Neighbor list info ...
  update every 1 steps, delay 0 steps, check yes
  max neighbors/atom: 2000, page size: 100000
  master list distance cutoff = 11
  ghost atom cutoff = 11
  binsize = 5.5, bins = 1 1 7
  1 neighbor lists, perpetual/occasional/extra = 1 0 0
  (1) pair eam/alloy, perpetual
      attributes: half, newton on
      pair build: half/bin/newton/tri
      stencil: half/bin/3d/newton/tri
      bin: standard
Setting up cg style minimization ...
  Unit style    : metal
  Current step  : 0
Per MPI rank memory allocation (min/avg/max) = 4.357 | 4.357 | 4.357 Mbytes
Step PotEng Lx Ly Lz Xy Xz Yz Press Pxx Pyy Pzz Pxy Pxz Pyz c_eatoms 
       0   -87.450462       3.5197       3.5197      35.1966            0           -0            0   -29771.213   -33931.316   -33931.316   -21451.006 2.3097106e-09 4.2038591e-12 5.6112704e-12   -87.450462 
       1   -87.809156       3.5197       3.5197      35.1966            0           -0            0   -20623.959   -24039.884   -24039.884   -13792.108 2.7916172e-09 1.7193726e-13 2.1800089e-12   -87.809156 
       2   -87.880329       3.5197       3.5197      35.1966            0           -0            0   -12553.655   -15129.801   -15129.801   -7401.3631 -6.4888014e-10 2.6842581e-12 7.7312127e-13   -87.880329 
       3   -87.886857       3.5197       3.5197      35.1966            0           -0            0   -10185.307   -12707.755   -12707.755   -5140.4118 2.3178142e-10 -3.0808477e-13 -9.524163e-13   -87.886857 
       4   -87.890414       3.5197       3.5197      35.1966            0           -0            0   -7162.7241   -9605.6923   -9605.6923   -2276.7879 -8.3937715e-10 3.8516977e-13 3.0524757e-12   -87.890414 
       5   -87.891926       3.5197       3.5197      35.1966            0           -0            0   -6790.8789   -9362.6662   -9362.6662   -1647.3042 -2.3233938e-10 -1.7445234e-12 -4.3702173e-12   -87.891926 
       6   -87.892373       3.5197       3.5197      35.1966            0           -0            0   -5687.2407   -8223.4034   -8223.4034   -614.91536 8.946947e-12 7.1157777e-14 -1.3424955e-12   -87.892373 
       7   -87.892464       3.5197       3.5197      35.1966            0           -0            0   -5354.0018    -7861.361    -7861.361    -339.2836 1.1025353e-11 -4.4922336e-12 6.1471916e-13   -87.892464 
       8   -87.892485       3.5197       3.5197      35.1966            0           -0            0   -5353.0788   -7870.9361   -7870.9361   -317.36406 -1.4298004e-11 -2.0121202e-12 -3.2678188e-12   -87.892485 
       9   -87.892495       3.5197       3.5197      35.1966            0           -0            0   -5220.3432   -7737.5244   -7737.5244   -185.98081 -5.4409827e-14 -9.5200585e-13 3.5515504e-12   -87.892495 
      10   -87.892503       3.5197       3.5197      35.1966            0           -0            0   -5050.3707   -7562.1522   -7562.1522   -26.807768 8.9210299e-13 8.0700743e-12 8.9200526e-12   -87.892503 
      11   -87.892505       3.5197       3.5197      35.1966            0           -0            0   -5048.8755   -7565.3746   -7565.3746   -15.877487 1.103225e-11 4.9066676e-12 2.7687643e-12   -87.892505 
      12   -87.892505       3.5197       3.5197      35.1966            0           -0            0   -5045.1508   -7561.8043   -7561.8043   -11.843887 3.5536201e-12 2.686061e-12 -3.341163e-13   -87.892505 
      13   -87.892505       3.5197       3.5197      35.1966            0           -0            0   -5040.5214   -7556.7774   -7556.7774   -8.0093454 -1.748438e-12 1.9489928e-12 6.8410845e-12   -87.892505 
      14   -87.892505       3.5197       3.5197      35.1966            0           -0            0    -5037.185   -7553.4821   -7553.4821   -4.5907974 5.055909e-12 -2.224522e-12 -4.6486609e-13   -87.892505 
      15   -87.892505       3.5197       3.5197      35.1966            0           -0            0   -5034.4075   -7550.8518   -7550.8518   -1.5189697 9.0599684e-13 -1.0528009e-12 1.0388662e-12   -87.892505 
      16   -87.892505       3.5197       3.5197      35.1966            0           -0            0   -5033.1141   -7549.4576   -7549.4576  -0.42696076 -9.8330788e-14 1.0665092e-12 -2.5638804e-12   -87.892505 
      17   -87.892505       3.5197       3.5197      35.1966            0           -0            0   -5032.9502    -7549.287    -7549.287  -0.27678712 3.7927258e-12 3.7908164e-12 -2.6445132e-12   -87.892505 
      18   -87.892505       3.5197       3.5197      35.1966            0           -0            0   -5032.9377   -7549.2813   -7549.2813  -0.25047226 -2.7039442e-12 8.6200002e-13 1.8422752e-12   -87.892505 
      19   -87.892505       3.5197       3.5197      35.1966            0           -0            0   -5032.8092   -7549.1472   -7549.1472  -0.13313882 -1.2521403e-12 -4.8785616e-12 6.0244142e-13   -87.892505 
      20   -87.892505       3.5197       3.5197      35.1966            0           -0            0   -5032.6897    -7549.028    -7549.028 -0.013158844 -2.9606568e-12 4.5038982e-13 2.0508877e-12   -87.892505 
      21   -87.892505       3.5197       3.5197      35.1966            0           -0            0   -5032.6954   -7549.0356   -7549.0356 -0.014969456 -1.1842705e-11 6.0501462e-13 -3.8170191e-12   -87.892505 
      22   -87.892505       3.5197       3.5197      35.1966            0           -0            0   -5032.6878   -7549.0276   -7549.0276 -0.0080168229 -4.2252858e-12 4.2974944e-12 5.2402602e-12   -87.892505 
      23   -87.892505       3.5197       3.5197      35.1966            0           -0            0   -5032.6846   -7549.0243   -7549.0243 -0.0053374941 -4.4863449e-12 -2.2788545e-12 4.5097496e-12   -87.892505 
      24   -87.892505       3.5197       3.5197      35.1966            0           -0            0   -5032.6838   -7549.0236   -7549.0236 -0.0041489394 7.685625e-12 5.3182937e-12 1.427537e-12   -87.892505 
      25   -87.892505       3.5197       3.5197      35.1966            0           -0            0   -5032.6809   -7549.0207   -7549.0207 -0.0012872033 -9.1467583e-13 2.4810857e-12 1.7445786e-12   -87.892505 
      26   -87.892505       3.5197       3.5197      35.1966            0           -0            0   -5032.6799   -7549.0196   -7549.0196 -0.00034771199 -4.1969892e-12 -3.5280998e-12 2.0508745e-12   -87.892505 
      27   -87.892505       3.5197       3.5197      35.1966            0           -0            0   -5032.6798   -7549.0196   -7549.0196 -0.00021815265 9.4304713e-13 1.6622534e-12 -1.0247078e-12   -87.892505 
      28   -87.892505       3.5197       3.5197      35.1966            0           -0            0   -5032.6797   -7549.0195   -7549.0195 -0.00016840514 -1.5915594e-12 -1.9752897e-12 1.8187531e-12   -87.892505 
      29   -87.892505       3.5197       3.5197      35.1966            0           -0            0   -5032.6797   -7549.0195   -7549.0195 -0.00012262061 3.9335832e-12 -1.4560107e-12 6.1769946e-12   -87.892505 
      30   -87.892505       3.5197       3.5197      35.1966            0           -0            0   -5032.6797   -7549.0194   -7549.0194 -9.6374481e-05 4.4126474e-12 -3.5417431e-14 3.3764058e-12   -87.892505 
      31   -87.892505       3.5197       3.5197      35.1966            0           -0            0   -5032.6796   -7549.0194   -7549.0194 -2.2248665e-05 1.8462895e-14 1.8715569e-12 5.6134623e-12   -87.892505 
      32   -87.892505       3.5197       3.5197      35.1966            0           -0            0   -5032.6796   -7549.0194   -7549.0194 -4.9329755e-06 5.0265651e-12 4.4000806e-12 5.296911e-12   -87.892505 
      33   -87.892505       3.5197       3.5197      35.1966            0           -0            0   -5032.6796   -7549.0194   -7549.0194 -4.2578889e-06 2.4794622e-12 5.1461608e-12 4.5169945e-12   -87.892505 
      34   -87.892505       3.5197       3.5197      35.1966            0           -0            0   -5032.6796   -7549.0194   -7549.0194 -4.1688843e-06 7.5212922e-12 -1.4012557e-13 -1.0166972e-12   -87.892505 
Loop time of 0.030494 on 1 procs for 34 steps with 20 atoms

62.3% CPU use with 1 MPI tasks x no OpenMP threads

Minimization stats:
  Stopping criterion = energy tolerance
  Energy initial, next-to-last, final = 
        -87.4504618313     -87.8925047611     -87.8925047611
  Force two-norm initial, final = 1.83554 9.64269e-11
  Force max component initial, final = 0.700278 4.59995e-11
  Final line search alpha, max atom move = 1 4.59995e-11
  Iterations, force evaluations = 34 66

MPI task timing breakdown:
Section |  min time  |  avg time  |  max time  |%varavg| %total
---------------------------------------------------------------
Pair    | 0.029212   | 0.029212   | 0.029212   |   0.0 | 95.80
Neigh   | 0          | 0          | 0          |   0.0 |  0.00
Comm    | 0.0006001  | 0.0006001  | 0.0006001  |   0.0 |  1.97
Output  | 0.00049281 | 0.00049281 | 0.00049281 |   0.0 |  1.62
Modify  | 0          | 0          | 0          |   0.0 |  0.00
Other   |            | 0.0001886  |            |       |  0.62

Nlocal:    20 ave 20 max 20 min
Histogram: 1 0 0 0 0 0 0 0 0 0
Nghost:    1893 ave 1893 max 1893 min
Histogram: 1 0 0 0 0 0 0 0 0 0
Neighs:    4044 ave 4044 max 4044 min
Histogram: 1 0 0 0 0 0 0 0 0 0

Total # of neighbors = 4044
Ave neighs/atom = 202.2
Neighbor list builds = 0
Dangerous builds = 0
pypospack:output_section:begin
tot_energy = -87.8925047610839
num_atoms = 20
a11 = 3.5197
a22 = 3.5197
a33 = 35.1966
a12 = 0
a13 = -0
a23 = 0
tot_press = -5032.67956981761
pxx = -7549.01935264198
pyy = -7549.01935264198
pzz = -4.1688843481042e-06
pxy = 7.52129218864492e-12
pxz = -1.4012557467914e-13
pyz = -1.01669717866557e-12
pypospack:output_section:done
pypospack:lammps_sim:done
Total wall time: 0:00:00
