# ['Ni']

28 atoms
1 atom types

    0.0000     2.4082 xlo xhi
    0.0000     4.1711 ylo yhi
    0.0000    27.5278 zlo zhi

    0.0000     0.0000     0.0000 xy xz yz

Atoms

1 1     0.0000     0.0000     0.0000
2 1     1.2041     2.0855     0.0000
3 1     1.2041     0.6952     1.9663
4 1     0.0000     2.7807     1.9663
5 1     0.0000     1.3904     3.9325
6 1     1.2041     3.4759     3.9325
7 1     0.0000     0.0000     5.8988
8 1     1.2041     2.0855     5.8988
9 1     1.2041     0.6952     7.8651
10 1     0.0000     2.7807     7.8651
11 1     0.0000     1.3904     9.8314
12 1     1.2041     3.4759     9.8314
13 1     0.0000     0.0000    11.7976
14 1     1.2041     2.0855    11.7976
15 1     0.0000     1.3904    13.7639
16 1     1.2041     3.4759    13.7639
17 1     0.0000     0.0000    15.7302
18 1     1.2041     2.0855    15.7302
19 1     1.2041     0.6952    17.6964
20 1     0.0000     2.7807    17.6964
21 1     0.0000     1.3904    19.6627
22 1     1.2041     3.4759    19.6627
23 1     0.0000     0.0000    21.6290
24 1     1.2041     2.0855    21.6290
25 1     1.2041     0.6952    23.5953
26 1     0.0000     2.7807    23.5953
27 1     0.0000     1.3904    25.5615
28 1     1.2041     3.4759    25.5615
