LAMMPS (10 Feb 2015)
Reading data file ...
  triclinic box = (0 0 0) to (4.2565 4.2565 4.2565) with tilt (0 0 0)
  1 by 1 by 1 MPI processor grid
  reading atoms ...
  8 atoms
4 atoms in group Mg
4 atoms in group O
Setting atom values ...
  4 settings made for charge
Setting atom values ...
  4 settings made for charge
PPPM initialization ...
  G vector (1/distance) = 0.352799
  grid = 8 8 8
  stencil order = 5
  estimated absolute RMS force accuracy = 3.93787e-05
  estimated relative force accuracy = 2.7347e-06
  using double precision FFTs
  3d grid and FFT values/proc = 3375 512
Neighbor list info ...
  1 neighbor list requests
  update every 1 steps, delay 0 steps, check yes
  master list distance cutoff = 11
Setting up minimization ...
Memory usage per processor = 4.06549 Mbytes
Step PotEng Lx Ly Lz Xy Xz Yz Press Pxx Pyy Pzz Pxy Pxz Pyz eatoms 
       0   -110.27609       4.2565       4.2565       4.2565            0            0            0    110960.29    110960.29    110960.29    110960.29 9.3314123e-11 1.6239754e-10 5.8891323e-11   -110.27609 
      10   -110.39349     4.299065     4.299065     4.299065            0            0            0    52923.265    52923.265    52923.265    52923.265 1.8718586e-11 -3.674075e-11 -9.001309e-11   -110.39349 
      20   -110.43343      4.34163      4.34163      4.34163            0            0            0    2089.5567    2089.5567    2089.5567    2089.5567 6.9298069e-11 -1.296578e-10 -9.997383e-11   -110.43343 
      22   -110.43352     4.343513     4.343513     4.343513            0            0            0   -5.7193123   -5.7193123   -5.7193123   -5.7193123 4.586585e-11 9.062077e-11 2.6249224e-10   -110.43352 
Loop time of 0.0140898 on 1 procs for 22 steps with 8 atoms

Minimization stats:
  Stopping criterion = linesearch alpha is zero
  Energy initial, next-to-last, final = 
        -110.276087498     -110.433524975     -110.433524975
  Force two-norm initial, final = 16.0227 0.00180648
  Force max component initial, final = 16.0227 0.000859982
  Final line search alpha, max atom move = 0.00390625 3.35931e-06
  Iterations, force evaluations = 22 39

Pair  time (%) = 0.00374627 (26.5885)
Kspce time (%) = 0.00227547 (16.1497)
Neigh time (%) = 0 (0)
Comm  time (%) = 0.000475645 (3.37581)
Outpt time (%) = 3.8147e-05 (0.270741)
Other time (%) = 0.00755429 (53.6152)

Nlocal:    8 ave 8 max 8 min
Histogram: 1 0 0 0 0 0 0 0 0 0
Nghost:    2189 ave 2189 max 2189 min
Histogram: 1 0 0 0 0 0 0 0 0 0
Neighs:    2344 ave 2344 max 2344 min
Histogram: 1 0 0 0 0 0 0 0 0 0

Total # of neighbors = 2344
Ave neighs/atom = 293
Neighbor list builds = 0
Dangerous builds = 0
pypospack:output_section:begin
tot_energy = -110.433524975286
num_atoms = 8
xx = 4.34351296178449
yy = 4.34351296178449
zz = 4.34351296178449
xy = 0
xz = 0
yz = 0
tot_press = -5.71931225965551
pxx = -5.71931225981032
pyy = -5.71931225968463
pzz = -5.71931225947158
pxy = 4.5865850341772e-11
pxz = 9.06207702771322e-11
pyz = 2.62492238241466e-10
pypospack:output_section:done
pypospack:lammps_sim:done
PPPM initialization ...
  G vector (1/distance) = 0.351923
  grid = 8 8 8
  stencil order = 5
  estimated absolute RMS force accuracy = 4.10067e-05
  estimated relative force accuracy = 2.84776e-06
  using double precision FFTs
  3d grid and FFT values/proc = 3375 512
Setting up run ...
Memory usage per processor = 3.06549 Mbytes
Step Temp PotEng KinEng TotEng Press Lx Ly Lz Press Pxx Pyy Pzz Pxy Pxz Pyz Volume 
       0         1100   -110.43354   0.99530312   -109.43823    12965.525     4.343513     4.343513     4.343513    12965.525    15373.434    2974.7201    20548.419   -347.52424    143.82912    760.23056    81.945171 
     100    256.69881   -109.54102   0.23226648   -109.30876    21595.391    4.3684467    4.3684467    4.3684467    21595.391    59544.757   -11850.722    17092.139   -317.84523    6615.7612   -832.54861    83.364497 
     200    794.82338   -109.75405    0.7191729   -109.03488   -30265.517    4.3990897    4.3990897    4.3990897   -30265.517    2074.1654   -51924.515   -40946.203    4244.9986    8530.7205   -3753.5593    85.131142 
     300    1173.0866    -109.8635    1.0614334   -108.80207    19097.997    4.3736298    4.3736298    4.3736298    19097.997    13312.799    -14019.88    58001.072   -375.52115   -3080.9082   -621.72608    83.661581 
     400     668.4959   -109.22669   0.60486914   -108.62182    24782.115    4.3635474    4.3635474    4.3635474    24782.115    97504.571   -12451.625   -10706.602   -345.44273    4535.8761   -6367.8235    83.084326 
     500    1009.5992   -109.41479   0.91350656   -108.50128   -32924.849    4.4077022    4.4077022    4.4077022   -32924.849   -34812.227   -42925.788   -21036.532    873.29078    5331.9474   -601.18481    85.632125 
     600    1179.3671   -109.49168    1.0671161   -108.42456    17837.694    4.3952802    4.3952802    4.3952802    17837.694    72103.576   -13042.508   -5547.9848   -5608.6713   -9668.0017     914.1464    84.910171 
     700    1120.9828   -109.41759    1.0142888    -108.4033    6333.7098     4.374425     4.374425     4.374425    6333.7098    43627.023   -16641.718   -7984.1757    7238.3091     10220.11   -7475.6528    83.707221 
     800    1267.4936    -109.5607    1.1468548   -108.41385    218.65109    4.3901064    4.3901064    4.3901064    218.65109    23326.496   -18738.869   -3931.6735   -3406.7971    16230.974    -1804.206    84.610668 
     900    1299.1011   -109.58978     1.175454   -108.41432    6588.7386    4.3929229    4.3929229    4.3929229    6588.7386    49472.112   -20184.145   -9521.7518   -3709.5105    -9509.605   -645.10212    84.773625 
    1000    859.57889   -109.20015   0.77776504   -108.42239   -2754.5134    4.3972682    4.3972682    4.3972682   -2754.5134   -8292.6381   -21779.702      21808.8    151.27886    16569.204    2256.1291    85.025433 
    1100    1100.4669    -109.4117   0.99572562   -108.41597    8599.1483    4.3890417    4.3890417    4.3890417    8599.1483     58119.15   -16664.214   -15657.491   -4522.6028    2002.1983    5816.0056    84.549128 
    1200    910.66978   -109.25002   0.82399316   -108.42603   -5300.6117    4.3880418    4.3880418    4.3880418   -5300.6117    1136.6374    -21548.97    4510.4978    3620.3183    -12787.41   -3986.2279    84.491352 
    1300    1013.7445   -109.34279    0.9172573   -108.42553   -19871.399    4.3955887    4.3955887    4.3955887   -19871.399   -7358.4935     -15026.9   -37228.803   -5993.5526    32950.883    2248.2287    84.928046 
    1400    1452.1445   -109.72904    1.3139308   -108.41511    10746.415    4.3792934    4.3792934    4.3792934    10746.415    46813.705   -22556.764    7982.3045   -453.91638   -7758.1886   -1661.1168     83.98701 
    1500    1087.1135   -109.41881   0.98364315   -108.43517   -22775.521     4.394095     4.394095     4.394095   -22775.521   -10492.884   -33330.649   -24503.031   -1446.9431   -6864.5523    -522.3816    84.841495 
    1600    918.89383   -109.26379   0.83143445   -108.43236    8382.5795    4.3939326    4.3939326    4.3939326    8382.5795    51571.344   -13930.634   -12492.972   -8560.7075    27413.735    9217.1146     84.83209 
    1700    1308.1509   -109.60774    1.1836425    -108.4241    20447.008    4.3776071    4.3776071    4.3776071    20447.008    9335.2253   -4241.8116    56247.612    4050.4802   -9000.4377   -1774.1692     83.89003 
    1800    813.20395   -109.17412   0.73580403   -108.43831   -17916.944    4.4011286    4.4011286    4.4011286   -17916.944    35100.896   -53199.968    -35651.76   -930.83702   -4198.9658     4297.224    85.249568 
    1900    1256.2125   -109.55285    1.1366475    -108.4162    -7919.789    4.3991827    4.3991827    4.3991827    -7919.789    502.97028   -26679.723    2417.3853   -5831.9411    30661.094   -1854.4588    85.136542 
    2000    1100.3559   -109.40616   0.99562513   -108.41053    13757.666    4.3810072    4.3810072    4.3810072    13757.666    59106.412   -319.43867   -17513.975    8391.8502   -18176.599      -4002.2    84.085652 
    2100    855.05491   -109.20161   0.77367165   -108.42794   -17171.379    4.3905561    4.3905561    4.3905561   -17171.379   -6620.1996   -29787.016   -15106.921    982.06531    8322.3631    4739.0048    84.636674 
    2200    1286.6998   -109.59172     1.164233   -108.42749   -4.4359824    4.3933677    4.3933677    4.3933677   -4.4359824    16860.006   -33601.186    16727.872    4663.1669    7855.7051   -2042.9862    84.799379 
    2300    880.54309   -109.22981   0.79673389   -108.43308    7288.4773    4.3994539    4.3994539    4.3994539    7288.4773    35971.351   -33998.597    19892.679    3529.0434   -10794.057   -9612.7001    85.152288 
    2400    1038.2228   -109.36789   0.93940579   -108.42848   -3287.8663    4.3891857    4.3891857    4.3891857   -3287.8663   -10461.925   -6508.6344    7106.9608    2610.6819     4284.081    3592.8635    84.557447 
    2500     928.6007   -109.26614   0.84021743   -108.42592    33232.126    4.3833557    4.3833557    4.3833557    33232.126    106533.74   -27677.718    20840.357    3953.7894   -2502.7514   -6508.0843    84.220954 
    2600    1409.2295   -109.70421    1.2751005   -108.42911   -21172.097    4.3979737    4.3979737    4.3979737   -21172.097    -11942.88   -52016.107    442.69442   -1479.5141    9252.6552     157.5389    85.066366 
    2700    1203.4234   -109.51639    1.0888828    -108.4275    11391.647    4.3883001    4.3883001    4.3883001    11391.647     42164.67   -24493.852    16504.122   -611.17945    4731.3796    1269.4682    84.506275 
    2800    1277.9529   -109.58963    1.1563186   -108.43331    15981.295    4.3905388    4.3905388    4.3905388    15981.295    50140.068   -27644.353     25448.17    -604.0483    8703.5458   -7809.4173    84.635675 
    2900    1337.5702   -109.63392    1.2102616   -108.42365   -42998.443    4.4080859    4.4080859    4.4080859   -42998.443   -21681.282   -63963.013   -43351.034   -6200.5496     -5081.49    13562.623    85.654492 
    3000    1147.0094   -109.45022    1.0378383   -108.41238     7488.471    4.3845992    4.3845992    4.3845992     7488.471    53896.551   -31483.885    52.747563   -5089.4192    11450.683   -7558.2204    84.292651 
    3100    1185.0046   -109.49634     1.072217   -108.42412   -6979.2296    4.3978523    4.3978523    4.3978523   -6979.2296    5807.7095   -34731.481    7986.0822    -3465.942    4187.5056    4774.4789    85.059322 
    3200    892.98192   -109.22241    0.8079888   -108.41442   -5433.3763    4.4073222    4.4073222    4.4073222   -5433.3763   -6553.3622   -39071.947     29325.18   -5688.0871   -9865.9609    6229.3804    85.609981 
    3300    1100.1719   -109.40269   0.99545861   -108.40723    25400.743    4.3776857    4.3776857    4.3776857    25400.743    66767.393   -3993.9693    13428.805    764.31684    9852.6986   -4508.9415    83.894549 
    3400    1196.1407   -109.50917    1.0822933   -108.42688      1843.69    4.3919001    4.3919001    4.3919001      1843.69    9013.7038   -39452.934      35970.3   -7607.7163   -10684.713    1348.7391    84.714425 
    3500    1083.0008   -109.39944   0.97992187   -108.41951   -15099.865    4.4067031    4.4067031    4.4067031   -15099.865     29996.95   -63805.201   -11491.345   -16511.831    4608.4605    6682.0203     85.57391 
    3600    1103.0303   -109.40365     0.998045    -108.4056     14852.83    4.3904628    4.3904628    4.3904628     14852.83    45461.335   -3285.5538    2382.7075    182.21623   -5418.6134   -11446.305    84.631277 
    3700    898.16584   -109.22696   0.81267933   -108.41428    13983.421    4.3840331    4.3840331    4.3840331    13983.421    43967.478   -16420.456     14403.24   -10915.124   -9367.9949    7942.8499    84.260005 
    3800    919.12169   -109.26385   0.83164062   -108.43221   -2426.9018    4.3955032    4.3955032    4.3955032   -2426.9018    19846.255   -53564.982    26438.021    -2950.269     5453.391    -3453.837    84.923094 
    3900    1279.1338   -109.58262    1.1573871   -108.42524   -4757.2948    4.3993782    4.3993782    4.3993782   -4757.2948    30055.483    -26615.22   -17712.148    2805.8059   -10359.913   -11344.089    85.147893 
    4000    1054.0021   -109.37485   0.95368325   -108.42117    17758.881    4.3799512    4.3799512    4.3799512    17758.881   -4217.4178   -7493.7833    64987.844   -10198.208    6094.0058    11548.319    84.024864 
    4100    878.82362   -109.22985   0.79517808   -108.43467   -4128.8384    4.3918733    4.3918733    4.3918733   -4128.8384    42878.451   -33163.843   -22101.123   -851.07956   -6225.5984   -15359.708    84.712871 
    4200    1459.6311   -109.74416    1.3207049   -108.42345   -17884.177    4.3977417    4.3977417    4.3977417   -17884.177    -15057.49   -27227.659   -11367.382   -3318.2938    4255.5117   -9979.0748    85.052906 
    4300    1011.7212   -109.34043   0.91542659     -108.425    5059.3518    4.3899723    4.3899723    4.3899723    5059.3518   -1295.1439    14984.927    1488.2726   -5586.2312    7127.8501    10108.091    84.602917 
    4400    1055.3376   -109.38854   0.95489163   -108.43365   -33074.852    4.3962881    4.3962881    4.3962881   -33074.852   -7427.3626     -52235.7   -39561.492    1288.5553   -8286.0713    -17332.67    84.968597 
    4500    988.17296   -109.32546   0.89411966   -108.43134    21821.977    4.3831142    4.3831142    4.3831142    21821.977     23666.21    29600.422      12199.3    8580.1402   -7744.8591   -5278.9449    84.207033 
    4600     1556.313   -109.84192    1.4081847   -108.43374   -9063.3752    4.3889221    4.3889221    4.3889221   -9063.3752   -285.90554   -20684.161   -6220.0588   -7077.4553   -4531.2806    5868.9998    84.542216 
    4700    565.13825   -108.94755   0.51134897    -108.4362    1728.4716    4.4050697    4.4050697    4.4050697    1728.4716    22074.385   -15680.237   -1208.7339    4808.4295   -3006.6853   -10011.146    85.478788 
    4800    1074.3749   -109.38814   0.97211702   -108.41603    659.62194    4.3950431    4.3950431    4.3950431    659.62194    3275.2716    14257.914    -15554.32    8264.3489   -1663.4241   -1980.3957    84.896425 
    4900    1294.1632   -109.57974    1.1709861   -108.40875    10428.845    4.3877167    4.3877167    4.3877167    10428.845    9344.7136    4730.0417     17211.78    372.68229   -3545.6832    4222.3596    84.472575 
    5000    798.80149   -109.15038   0.72277238    -108.4276    8250.8721    4.3972982    4.3972982    4.3972982    8250.8721      36980.6   -26121.351    13893.368     8157.831   -16702.448   -15653.794    85.027177 
    5100    836.49157   -109.18244   0.75687515   -108.42557    15009.952    4.4045016    4.4045016    4.4045016    15009.952   -458.83059    10711.554    34777.132    8697.7755   -14069.578     8270.281    85.445719 
    5200     992.0832   -109.32005   0.89765773   -108.42239    15048.736     4.396529     4.396529     4.396529    15048.736   -15671.137   -14839.428    75656.774    3617.3914   -5128.3549    4383.2579    84.982561 
    5300    972.62151   -109.30133   0.88004838   -108.42128     13636.06    4.3953384    4.3953384    4.3953384     13636.06    20985.031   -6627.4036    26550.554    14002.775   -19216.947    -3888.809    84.913542 
    5400    1055.0367   -109.37028   0.95461942   -108.41566    669.18041    4.4069176    4.4069176    4.4069176    669.18041   -4937.8737    8967.4255   -2022.0106    4655.1861   -14260.917    21521.185    85.586404 
    5500    1293.7199   -109.57737     1.170585   -108.40679    -13025.01    4.4028058    4.4028058    4.4028058    -13025.01   -6915.8674   -18100.084   -14059.078    3779.7703    6501.5571   -1627.9126    85.347068 
    5600    1499.1584   -109.76131      1.35647   -108.40484   -9253.5381    4.3953431    4.3953431    4.3953431   -9253.5381   -5538.5849   -223.75329   -21998.276   -1494.9661   -19873.554   -1908.8031    84.913815 
    5700    1105.2649   -109.41273    1.0000669   -108.41266   -6880.7026    4.4007838    4.4007838    4.4007838   -6880.7026   -24368.908     21265.04   -17538.239    2234.3969   -4833.1484   -1796.1062    85.229533 
    5800    1077.8148   -109.39212   0.97522948    -108.4169   -4511.6644    4.3995276    4.3995276    4.3995276   -4511.6644   -26074.573   -16564.598    29104.178    13031.718    955.98852   -2699.9601    85.156563 
    5900    1124.3623   -109.42743    1.0173466   -108.41008    10380.716    4.3988877    4.3988877    4.3988877    10380.716   -27551.614    10738.779    47954.984   -5562.2896   -16245.824   -10812.682    85.119416 
    6000    656.67345   -109.01375   0.59417194   -108.41958    10278.592    4.3985983    4.3985983    4.3985983    10278.592   -23038.975   -33004.094    86878.844    12060.364     9599.712   -15112.064    85.102613 
    6100    991.85887   -109.31597   0.89745475   -108.41851    12836.974    4.3956281    4.3956281    4.3956281    12836.974    2552.5435    13655.885    22302.493     236.2426    1123.3432    262.73039    84.930332 
    6200    1524.4474   -109.79383    1.3793521   -108.41448    6687.7971    4.3932188    4.3932188    4.3932188    6687.7971   -7404.9535   -15407.688    42876.033    4081.5127   -14326.143   -15725.311    84.790756 
    6300    707.76631   -109.06523   0.64040183   -108.42483   -20760.679    4.4033054    4.4033054    4.4033054   -20760.679   -21775.151   -29156.356    -11350.53    12656.593     14614.52    3054.5685     85.37612 
    6400    1308.3967   -109.58902    1.1838648   -108.40516    3289.2605    4.3857713    4.3857713    4.3857713    3289.2605    14006.078   -1907.9812   -2230.3152   -11842.253    9831.1228   -5436.4874    84.360267 
    6500    1246.4588   -109.54406    1.1278221   -108.41624    1835.1363    4.3938954    4.3938954    4.3938954    1835.1363    603.42385   -3262.1663    8164.1512    5069.4474   -11334.728   -9552.6097    84.829935 
    6600    776.41877   -109.13125   0.70252002   -108.42873     -43770.9    4.4086569    4.4086569    4.4086569     -43770.9   -21337.093   -62336.502   -47639.104    9928.7401    6862.1075    15010.974    85.687784 
    6700    1048.5542   -109.36668   0.94875392   -108.41792    28048.584    4.3763254    4.3763254    4.3763254    28048.584     94404.71    2691.8336   -12950.791    3437.4151    7122.6535    9018.2898    83.816366 
    6800    1485.4272   -109.77037    1.3440457   -108.42632    1557.5265    4.3899289    4.3899289    4.3899289    1557.5265   -8196.9565   -1240.7571    14110.293    1714.0488   -1999.2179   -7270.2694    84.600409 
    6900    901.43694   -109.24371   0.81563909   -108.42807   -28221.466    4.4098495    4.4098495    4.4098495   -28221.466    12103.783   -64294.791   -32473.389   -1864.0672    2833.7983    8792.7187    85.757342 
    7000     1144.273    -109.4641    1.0353623   -108.42874    1201.9113    4.3876636    4.3876636    4.3876636    1201.9113   -1062.1888   -11644.612    16312.535   -7697.2933    11467.573    130.15334    84.469508 
    7100    1408.0438   -109.70428    1.2740276   -108.43026    12343.833    4.3880265    4.3880265    4.3880265    12343.833    22361.465   -10986.099    25656.134   -1550.0705   -8580.9915     -713.792    84.490469 
    7200    715.98079   -109.08014   0.64783447   -108.43231   -15338.026    4.4084695    4.4084695    4.4084695   -15338.026    33909.102   -45043.281     -34879.9    7708.1149    27741.051   -6541.1592    85.676856 
    7300    781.17803   -109.12634    0.7068263   -108.41951    4624.0285    4.3959713    4.3959713    4.3959713    4624.0285    25810.129   -24120.214     12182.17    -152.6457    7617.2454   -10274.144    84.950225 
    7400    1365.7463   -109.64543    1.2357559   -108.40967    7814.2479    4.3856139    4.3856139    4.3856139    7814.2479    45900.769   -27993.447    5535.4214   -1691.1918    18232.398    12807.566    84.351184 
    7500    481.91876   -108.87024   0.43605022   -108.43419    29915.647    4.3927598    4.3927598    4.3927598    29915.647    80048.673   -8542.6978    18240.967     7272.783    16664.103   -5531.6356    84.764182 
    7600    1190.3033   -109.51182    1.0770115   -108.43481   -24570.315    4.4025836    4.4025836    4.4025836   -24570.315   -18690.059   -55437.302    416.41493   -16227.192    6107.5312   -11214.679    85.334142 
    7700    1423.0742   -109.71093    1.2876275    -108.4233    1642.6176    4.3859279    4.3859279    4.3859279    1642.6176    14771.345   -23159.395    13315.903   -10167.574    6615.5364    5470.9911    84.369301 
    7800     947.0275   -109.29174   0.85689038   -108.43485   -364.76322    4.3865625    4.3865625    4.3865625   -364.76322    30148.813   -24756.607   -6486.4955    16952.403    14571.654   -11189.524    84.405932 
    7900     822.0935    -109.1791   0.74384747   -108.43526   -7917.1459    4.3989024    4.3989024    4.3989024   -7917.1459    39617.923   -36132.714   -27236.646   -17990.612   -10886.488    1940.6858    85.120269 
    8000     1376.456   -109.66751    1.2454464   -108.42207   -6409.2459    4.3909192    4.3909192    4.3909192   -6409.2459    41327.782   -34418.744   -26136.776   -5945.9383    -10670.69   -2294.5299    84.657676 
    8100    1289.9709   -109.59392    1.1671927   -108.42673   -15498.647    4.3896621    4.3896621    4.3896621   -15498.647    27975.693   -30327.858   -44143.775   -30.980522    5046.4333   -13454.122    84.584983 
    8200    979.12999   -109.32398    0.8859374   -108.43805   -11083.375    4.4038091    4.4038091    4.4038091   -11083.375    17994.578   -26839.225   -24405.477   -12865.827   -11130.516    4848.8326    85.405427 
    8300    1278.7638   -109.58708    1.1570524   -108.43003   -5934.5425    4.3991141    4.3991141    4.3991141   -5934.5425     28725.25   -22565.423   -23963.454    6285.0099   -191.22386   -2542.6954    85.132557 
    8400     1124.924   -109.44633    1.0178548   -108.42848    1260.9294    4.3792316    4.3792316    4.3792316    1260.9294    35787.228   -7333.0827   -24671.357   -1677.2814    26293.929   -963.90684    83.983454 
    8500    1234.3208   -109.55197    1.1168394   -108.43513    1991.5658    4.3795311    4.3795311    4.3795311    1991.5658     21573.28   -33246.706    17648.123    -23195.13    1161.4719    4843.4168    84.000686 
    8600    1241.3623   -109.55763    1.1232107   -108.43442   -31294.132    4.4053805    4.4053805    4.4053805   -31294.132    -3779.605   -37174.223   -52928.567    7010.4184    5208.5505   -5990.3738    85.496879 
    8700    923.17985   -109.25579   0.83531253   -108.42048   -30209.241    4.4009463    4.4009463    4.4009463   -30209.241    -24190.25   -21176.231   -45261.241   -3551.5297    33486.552     5205.452    85.238974 
    8800    1057.9074   -109.36919   0.95721681   -108.41197    9681.7942    4.3767744    4.3767744    4.3767744    9681.7942    53878.705   -36509.519    11676.197   -5049.3806   -13051.872   -10336.316    83.842164 
    8900    1037.5485   -109.36943   0.93879572   -108.43063    15609.295    4.3808121    4.3808121    4.3808121    15609.295    59665.772   -16879.145    4041.2573    9763.3811    12227.725   -1779.8782    84.074418 
    9000    1055.6277   -109.39319    0.9551541   -108.43804   -26507.143    4.4136946    4.4136946    4.4136946   -26507.143   -34844.782   -52237.293    7560.6467   -7997.6138    10069.871    1888.7779    85.981863 
    9100    1159.3386   -109.47481     1.048994   -108.42581   -9041.8399    4.4000784    4.4000784    4.4000784   -9041.8399    29202.019   -41651.444   -14676.095    346.52944   -7093.1859   -16308.138    85.188556 
    9200    1189.6558   -109.48981    1.0764256   -108.41339    23567.203    4.3597742    4.3597742    4.3597742    23567.203    32072.659    12040.396    26588.554    -196.3161    27528.867    4049.8415     82.86898 
    9300    1087.4252   -109.42523   0.98392519   -108.44131    4108.7453    4.3897903    4.3897903    4.3897903    4108.7453    48707.664   -31984.364   -4397.0642   -4254.9366    20902.989   -6152.8393    84.592398 
    9400     1153.596   -109.46223    1.0437979   -108.41843   -10673.093    4.4126938    4.4126938    4.4126938   -10673.093    42352.744   -51047.678   -23324.345   -3498.9263   -5091.5595   -6367.5703    85.923386 
    9500    1116.1302   -109.41702    1.0098981   -108.40712    8802.1701    4.3853061    4.3853061    4.3853061    8802.1701    36422.791    -11109.97     1093.689    1091.5139    42552.326    11607.563    84.333427 
    9600    1010.0313   -109.33307   0.91389757   -108.41917     14262.31    4.3803664    4.3803664    4.3803664     14262.31    24015.577   -22995.036    41766.389   -8857.9312    10033.218    -3355.746    84.048762 
    9700    1092.4398   -109.42054   0.98846247   -108.43208    20147.797    4.3849189    4.3849189    4.3849189    20147.797    3148.9419   -30830.505    88124.954    11560.027    9995.7769    5836.7533     84.31109 
    9800    717.90167   -109.09255   0.64957251   -108.44298    1634.3001    4.4101195    4.4101195    4.4101195    1634.3001   -1663.7265    -21169.56    27736.187   -5820.9276    31867.751     14151.54    85.773095 
    9900    1432.5742   -109.71894    1.2962232   -108.42272   -24590.773    4.3999058    4.3999058    4.3999058   -24590.773   -24739.672   -51537.867    2505.2203    3110.3101   -9694.2693    15.109559    85.178531 
   10000    1099.0977   -109.40286   0.99448671   -108.40837    11935.571    4.3651365    4.3651365    4.3651365    11935.571    44468.378   -13353.286    4691.6209    10388.871    3203.5718    4675.1109    83.175128 
   10100    963.81711   -109.31595   0.87208198   -108.44386   -18512.229    4.3913436    4.3913436    4.3913436   -18512.229   -21668.207   -26706.257   -7162.2234   -4182.4125    25609.578    20355.868    84.682224 
   10200    1144.7169   -109.46287    1.0357639    -108.4271    -15760.02    4.4102621    4.4102621    4.4102621    -15760.02   -25137.729    -65670.37    43528.038    11766.141   -8015.5773   -9073.8188    85.781416 
   10300    1036.4328   -109.35602   0.93778614   -108.41823    5484.2072    4.3824019    4.3824019    4.3824019    5484.2072   -16411.862   -30912.918    63777.403    1576.5789     2493.106    14735.598    84.165983 
   10400    897.79703   -109.25012   0.81234562   -108.43778    -8381.256    4.3830371    4.3830371    4.3830371    -8381.256   -9046.1911   -27340.638    11243.061    -609.0396    36507.368    11380.203    84.202589 
   10500    1671.6086   -109.93874    1.5125066   -108.42624   -20274.555    4.3926208    4.3926208    4.3926208   -20274.555   -28070.168   -42243.544    9490.0481    7585.2177   -906.82769   -2190.2473    84.756134 
   10600    974.04227   -109.31709   0.88133391   -108.43575   -13346.232     4.395898     4.395898     4.395898   -13346.232   -14131.733   -12114.634   -13792.329   -2652.2447     33344.91    12030.921    84.945977 
   10700    925.99023   -109.26945   0.83785542   -108.43159   -5186.3571    4.3824758    4.3824758    4.3824758   -5186.3571   -18638.431   -12160.898    15240.258     1913.582    16362.615    8599.7364    84.170243 
   10800    1017.0301   -109.35282   0.92023022   -108.43259    19484.373    4.3812013    4.3812013    4.3812013    19484.373    37645.347   -28540.868     49348.64    13264.193   -13466.573   -6860.9717    84.096832 
   10900    1087.5554   -109.42078   0.98404295   -108.43674   -7371.1208    4.3969799    4.3969799    4.3969799   -7371.1208    12108.465   -20096.342   -14125.485   -10589.754   -2368.3406    12256.713    85.008711 
   11000    700.23597   -109.06223   0.63358822   -108.42864     28780.88    4.3901555    4.3901555    4.3901555     28780.88    57271.757   -16150.729    45221.611    7874.7527    1535.5565     644.9493     84.61351 
   11100    1289.7567   -109.58966     1.166999   -108.42266   -3219.0489    4.3924884    4.3924884    4.3924884   -3219.0489    29922.476   -45509.827    5930.2036    8348.3547   -17316.756   -19715.777    84.748471 
   11200     1005.581   -109.33352   0.90987078   -108.42365    14346.712    4.3853134    4.3853134    4.3853134    14346.712    11888.436    3329.1996      27822.5    -9951.527    19808.546    916.80052    84.333846 
   11300    1158.3972   -109.47966    1.0481421   -108.43152   -14602.497    4.3926721    4.3926721    4.3926721   -14602.497   -8301.2609   -20648.312   -14857.919    4098.9627    17875.054   -9173.2889    84.759107 
   11400    1185.3084   -109.49511    1.0724919   -108.42262   -15535.537    4.4019902    4.4019902    4.4019902   -15535.537    991.56077   -36071.871     -11526.3   -1540.9423   -8737.1673    -12808.61    85.299644 
   11500    1233.2673   -109.53433    1.1158861   -108.41844   -5352.6336    4.3832399    4.3832399    4.3832399   -5352.6336    18567.532    452.55011   -35077.983    761.72686    42654.664    5235.1006    84.214276 
   11600    1104.6157   -109.42506   0.99947949   -108.42558    2516.7612    4.3827931    4.3827931    4.3827931    2516.7612    21515.061   -25589.785    11625.008     9457.639    2702.4333   -12407.793    84.188526 
   11700    1023.3945   -109.34967   0.92598886   -108.42368   -4801.5777    4.4011861    4.4011861    4.4011861   -4801.5777    33117.029   -21741.956   -25779.806    6066.2739   -4365.2062   -8078.3853    85.252908 
   11800    1113.0662   -109.41954    1.0071257   -108.41241   -21211.928    4.4000002    4.4000002    4.4000002   -21211.928   -8579.9749   -13148.978    -41906.83   -1863.0245    17864.706    179.61167     85.18401 
   11900    1066.3286   -109.37169    0.9648365   -108.40685    20948.663    4.3728475    4.3728475    4.3728475    20948.663    35425.832    321.61064    27098.547    20984.209   -6593.8088   -10571.262    83.616693 
   12000    1407.2368   -109.69235    1.2732974   -108.41905   -8664.7266    4.3826897    4.3826897    4.3826897   -8664.7266    6032.9392   -13024.724   -19002.395   -716.21038   -1546.2927   -3481.4584    84.182569 
   12100    1186.8293   -109.49939    1.0738681   -108.42552   -16703.291    4.4060654    4.4060654    4.4060654   -16703.291   -236.01796    -24089.04   -25784.816    5994.0023    12353.991   -4508.9567    85.536766 
   12200    1224.2404   -109.51613    1.1077184   -108.40841    -18784.01    4.3977023    4.3977023    4.3977023    -18784.01    8086.6082    -49517.15   -14921.488    19788.756   -6189.6453   -11920.865    85.050619 
   12300    1177.9163   -109.46532    1.0658034   -108.39951   -6842.6061    4.3866901    4.3866901    4.3866901   -6842.6061   -1482.0417    4616.2313   -23662.008   -3157.4097    10504.092   -2874.9572    84.413299 
   12400    1318.9547   -109.59649    1.1934179   -108.40307    -17925.48    4.3912263    4.3912263    4.3912263    -17925.48    -18206.13   -20316.743   -15253.566    18558.046    5938.2417   -9585.1757    84.675438 
   12500    910.24095   -109.23516   0.82360514   -108.41156    3787.4871    4.3939865    4.3939865    4.3939865    3787.4871    47592.768   -25193.256    -11037.05    9422.9391    2087.1386   -11713.343    84.835211 
   12600    1363.0817    -109.6452     1.233345   -108.41186   -6807.9674    4.3930687    4.3930687    4.3930687   -6807.9674   -544.63746    10104.962   -29984.227   -4602.6211    23681.883   -2175.0301    84.782065 
   12700    1189.6721   -109.49615    1.0764403   -108.41971   -9027.5645    4.3851467    4.3851467    4.3851467   -9027.5645    27337.502   -41911.316    -12508.88    4167.2162   -1433.1256   -6562.2895    84.324228 
   12800    1195.6335   -109.50715    1.0818343   -108.42531   -21896.985    4.3922418    4.3922418    4.3922418   -21896.985   -12935.385   -20983.619   -31771.951    5338.7443    3831.2996   -6637.1398    84.734197 
   12900    1122.5574   -109.43161    1.0157135    -108.4159    716.76518    4.3910355    4.3910355    4.3910355    716.76518    28509.648   -471.85643   -25887.496   -7735.6987    15909.906   -7920.2638      84.6644 
   13000    1057.0433   -109.37548   0.95643496   -108.41905   -11230.142    4.3878346    4.3878346    4.3878346   -11230.142    26320.956   -50746.909   -9264.4723    16576.355    4113.3738   -18950.906    84.479384 
   13100    1252.4393   -109.55546    1.1332334   -108.42223   -4196.5012    4.3882932    4.3882932    4.3882932   -4196.5012    1600.5686    6648.9207   -20838.993   -8965.5405   -8490.0087    2508.1467    84.505874 
   13200    866.21095   -109.21093   0.78376587   -108.42716   -8085.0547    4.3938667    4.3938667    4.3938667   -8085.0547    19548.875   -27380.404   -16423.635    4200.0215     112.5555   -7093.8779    84.828274 
   13300    999.05875   -109.33172   0.90396935   -108.42775   -15997.633    4.3841007    4.3841007    4.3841007   -15997.633   -6902.5636   -51172.519    10082.184     20905.99   -1540.5271    -10835.75    84.263904 
   13400    1275.5358   -109.57341    1.1541316   -108.41928    15085.174    4.3784933    4.3784933    4.3784933    15085.174    31902.898    4684.7176    8667.9054    388.57795   -6165.8288    4217.5401    83.940986 
   13500    820.06938   -109.17449   0.74201601   -108.43247   -11086.289    4.4047068    4.4047068    4.4047068   -11086.289         1282   -49137.875    14597.007    4880.2379    9367.5391   -1852.1632    85.457663 
   13600    1264.6517   -109.55717    1.1442834   -108.41288   -272.72423    4.3978367    4.3978367    4.3978367   -272.72423    9243.4483   -40113.875    30052.254    9951.0443   -1767.0677    2570.3374     85.05842 
   13700      1100.67   -109.40115   0.99590934   -108.40524    9787.6174    4.3861173    4.3861173    4.3861173    9787.6174    4241.6309   -20159.765    45280.987   -72.570633    18055.257    3595.0058    84.380233 
   13800    743.69972   -109.09866   0.67291513   -108.42574   -16934.065    4.3995047    4.3995047    4.3995047   -16934.065    6145.1925   -65149.614     8202.226     8503.237    14798.129    3033.1967    85.155236 
   13900    968.41091   -109.29069   0.87623854   -108.41445    13029.868    4.3932653    4.3932653    4.3932653    13029.868     37901.73    -23587.73    24775.605    21451.422    3632.6249    8906.5208    84.793448 
   14000    876.10752   -109.20826   0.79272049   -108.41554    22006.361    4.3870417    4.3870417    4.3870417    22006.361    57259.635   -19329.105    28088.554   -10159.234    21109.665   -2962.7384    84.433597 
   14100    1059.0431    -109.3759   0.95824445   -108.41765    -13837.42    4.4071735    4.4071735    4.4071735    -13837.42    3396.4905     -59091.9     14183.15    21673.128    11624.085    4966.1354    85.601314 
   14200    1123.4558   -109.42166    1.0165264   -108.40513    17878.512    4.3894344    4.3894344    4.3894344    17878.512    18031.987    8966.9543    26636.594   -1482.5001    5574.0149     -4343.03    84.571822 
   14300    870.73839   -109.20254   0.78786239   -108.41468    9121.7647     4.379156     4.379156     4.379156    9121.7647    1674.1385    10076.781    15614.375    10720.413    7793.4018   -4636.3341    83.979105 
   14400    1160.1476   -109.46621     1.049726   -108.41649   -15879.755    4.3934499    4.3934499    4.3934499   -15879.755    -29599.45   -40586.931    22547.116    13962.857    5390.6282    987.26062    84.804135 
   14500    798.11256   -109.13759   0.72214902   -108.41544    21045.175    4.3911989    4.3911989    4.3911989    21045.175    39393.107    22080.649      1661.77   -525.39553    2498.9675   -17669.534    84.673852 
   14600    976.04458   -109.30409   0.88314565   -108.42094   -20475.697    4.4056801    4.4056801    4.4056801   -20475.697   -31365.394   -20071.819   -9989.8789    14151.563   -4213.2463    1724.8644    85.514328 
   14700    993.08405   -109.30773   0.89856332   -108.40916    13861.823    4.3926625    4.3926625    4.3926625    13861.823    43397.325   -18425.507    16613.651    5913.9701    2748.3817   -11053.211    84.758551 
   14800      1342.44   -109.61798    1.2146679   -108.40331    3808.2955    4.3785494    4.3785494    4.3785494    3808.2955   -12186.671    19315.327    4296.2309   -1069.7782   -2085.0578    -10105.19    83.944213 
   14900      957.552   -109.27542   0.86641318   -108.40901   -8309.2997    4.3975563    4.3975563    4.3975563   -8309.2997   -4301.3803    -27739.03    7112.5115    19401.762    811.73571    4499.3261    85.042146 
   15000    1412.1261   -109.68027    1.2777214   -108.40255   -25617.391    4.3982547    4.3982547    4.3982547   -25617.391   -3125.4671   -38801.643   -34925.063    1675.9041   -7683.9034   -19541.779    85.082672 
   15100    845.15524   -109.17914   0.76471422   -108.41443    15121.455    4.3849397    4.3849397    4.3849397    15121.455    27396.128    11112.741    6855.4958    10920.266   -13650.046   -2578.8399    84.312287 
   15200    1140.6762   -109.45134    1.0321078   -108.41924   -12077.157    4.3864161    4.3864161    4.3864161   -12077.157   -10079.205   -9052.2585   -17100.008    21189.128    577.19418   -8288.5401    84.397483 
   15300     1188.153   -109.49415    1.0750658   -108.41909   -4523.2044    4.3918398    4.3918398    4.3918398   -4523.2044    2689.0567   -15515.984   -742.68565   -11413.167   -4374.9866   -31125.044    84.710934 
   15400    1267.3645   -109.56054     1.146738    -108.4138   -499.32318    4.3959967    4.3959967    4.3959967   -499.32318   -9276.0788   -8661.9939    16440.103    14563.681   -514.33841    6353.3543    84.951702 
   15500    963.93144   -109.28638   0.87218542   -108.41419    5497.9759     4.390682     4.390682     4.390682    5497.9759    2964.9745    1621.3551    11907.598    8887.5962    8551.2624   -21681.325    84.643956 
   15600    1096.3456   -109.39832   0.99199657   -108.40633    9201.3991    4.3948748    4.3948748    4.3948748    9201.3991   -18382.494   -22574.663    68561.354   -2999.5252     1271.981   -17385.508    84.886674 
   15700    1117.5987   -109.41497    1.0112268   -108.40374    6199.1312    4.3967891    4.3967891    4.3967891    6199.1312   -20949.519   -33004.909    72551.822    13132.319    3568.1515   -3962.0861    84.997645 
   15800    915.27124   -109.23571   0.82815666   -108.40755    1658.4608    4.4038979    4.4038979    4.4038979    1658.4608   -21368.115   -16440.153     42783.65    -12085.32    7615.4084   -33569.431    85.410591 
   15900    1141.4699   -109.43614    1.0328259   -108.40331   -16493.228    4.4044794    4.4044794    4.4044794   -16493.228   -43632.343   -36717.541    30870.199    15287.154   -3351.0976   -12040.814    85.444426 
   16000    1446.8248   -109.70142    1.3091175    -108.3923     -1992.46    4.3895551    4.3895551    4.3895551     -1992.46     24965.72   -31753.831     810.7306   -2136.2182    221.42235   -5541.9001    84.578801 
   16100    1011.4411   -109.32604   0.91517312   -108.41086   -17923.335    4.4072398    4.4072398    4.4072398   -17923.335     43814.92   -61310.296   -36274.629    -8093.376    5989.0141   -22739.464    85.605182 
   16200    928.80187     -109.243   0.84039945    -108.4026   -25241.906     4.408829     4.408829     4.408829   -25241.906    24066.268   -74816.269   -24975.716    23725.849   -7507.8225    1697.7001    85.697818 
   16300    1445.0762   -109.70343    1.3075354   -108.39589    9533.5936    4.3758319    4.3758319    4.3758319    9533.5936    32423.943   -17923.101    14099.939   -8940.4399    10335.269   -8180.8314    83.788015 
   16400    1246.5403   -109.55031    1.1278959   -108.42241   -18086.098    4.3888066    4.3888066    4.3888066   -18086.098   -24815.591   -33063.565    3620.8611    7320.1733    2159.7138   -3225.2028    84.535539 
   16500    1018.3743   -109.34154   0.92144644    -108.4201   -21431.276    4.4115859    4.4115859    4.4115859   -21431.276   -13587.984   -60286.563    9580.7174    17338.695   -1092.7473     4287.517    85.858685 
   16600    1357.4296   -109.63467    1.2282309   -108.40644    4654.7058    4.3929152    4.3929152    4.3929152    4654.7058     331.7856   -22464.965    36097.297   -13501.269    3303.6886   -1847.2861    84.773175 
   16700     660.4891   -109.00474   0.59762442   -108.40712     47669.42    4.3657266    4.3657266    4.3657266     47669.42    51293.444    5486.8882    86227.929    34816.114    6400.0193    9130.3768    83.208867 
   16800     1187.692   -109.51039    1.0746487   -108.43574   -9351.2168    4.4061607    4.4061607    4.4061607   -9351.2168    9662.1631    -28148.79    -9567.024   -7635.7416     5640.086     10478.02    85.542314 
   16900     1301.405   -109.58323    1.1775386   -108.40569   -15003.775    4.4087338    4.4087338    4.4087338   -15003.775   -34291.165   -26170.774    15450.613    3699.2635   -1514.0292    9301.5493    85.692267 
   17000     740.9513   -109.05574   0.67042831   -108.38531    41468.629    4.3671819    4.3671819    4.3671819    41468.629    48181.366    37348.671    38875.848    26154.223   -2360.8033    14187.562    83.292108 
   17100    1428.1622   -109.69781    1.2922311   -108.40558    -2713.398    4.3930541    4.3930541    4.3930541    -2713.398   -515.85665   -12135.859    4511.5211   -7219.5193   -832.36701    9478.1042     84.78122 
   17200    980.22153   -109.28421   0.88692504   -108.39728   -28855.428    4.4101202    4.4101202    4.4101202   -28855.428   -65806.535   -39063.672    18303.922    30897.512   -1054.3577    2076.9358    85.773131 
   17300    1028.6682   -109.31588   0.93076057   -108.38512    16627.402    4.3824083    4.3824083    4.3824083    16627.402    31686.975    12634.144    5561.0869   -9255.9683    28.235079    14677.453    84.166355 
   17400    1174.5728   -109.45758    1.0627781    -108.3948   -1458.2427    4.3834165    4.3834165    4.3834165   -1458.2427   -14095.672   -13209.846     22930.79    17736.826   -2759.4703    18678.439    84.224455 
   17500    1047.2849   -109.36267   0.94760537   -108.41506   -1279.2502    4.3892959    4.3892959    4.3892959   -1279.2502    4347.3411   -11611.803     3426.711    27533.131   -11144.055    4300.7078    84.563816 
   17600    987.65393   -109.31237   0.89365003   -108.41872    8143.0719    4.3981193    4.3981193    4.3981193    8143.0719    12474.473   -790.03439    12744.777   -22660.594    12898.351     1130.403    85.074816 
   17700    1076.9587    -109.3902   0.97445485   -108.41574   -14432.362    4.3858204    4.3858204    4.3858204   -14432.362   -15084.696    -29669.85    1457.4613    26840.242   -967.70416     7258.491    84.363102 
   17800     1059.841   -109.36779   0.95896642   -108.40882    20700.215    4.3692949    4.3692949    4.3692949    20700.215    40707.112   -2696.8771    24090.409    2937.5985   -2208.8113   -59.873434    83.413064 
   17900    947.77008   -109.27905   0.85756228   -108.42149   -16453.849    4.4031137    4.4031137    4.4031137   -16453.849   -25274.552   -42293.885    18206.891   -20021.366    14629.677   -604.26171    85.364969 
   18000    1151.3203   -109.45908    1.0417388   -108.41734    7846.1946    4.3840785    4.3840785    4.3840785    7846.1946    24682.402   -5295.9025    4152.0838    20984.489   -4790.9174   -3838.9049    84.262619 
   18100    1216.1372    -109.5034    1.1003865   -108.40302    32423.881    4.3614667    4.3614667    4.3614667    32423.881    44928.522    34558.179    17784.942   -9753.6022    8147.0652    -3746.645    82.965531 
   18200    931.08774   -109.26291   0.84246775   -108.42044   -18553.954     4.401865     4.401865     4.401865   -18553.954    -42675.29    -2449.677   -10536.896   -20180.217    7482.7942    1238.4411    85.292363 
   18300    1236.3282   -109.52367    1.1186557   -108.40502    11128.892    4.3881691    4.3881691    4.3881691    11128.892    48308.519     2889.169   -17811.012    16458.485   -5371.9263   -7504.2731    84.498707 
   18400    879.51868   -109.20494   0.79580698   -108.40913   -6155.8173     4.373438     4.373438     4.373438   -6155.8173    -4737.394     5508.932    -19238.99   -21523.479    8696.1184    1828.5582    83.650575 
   18500    852.59001   -109.19515   0.77144135   -108.42371   -24989.577    4.3877337    4.3877337    4.3877337   -24989.577    -24889.98   -28053.834   -22024.916   -12916.082    11362.333   -3307.3085    84.473556 
   18600    1292.2653   -109.58301    1.1692688   -108.41374     12938.24    4.3825935    4.3825935    4.3825935     12938.24    47650.775    -3416.492   -5419.5629     10556.76   -2998.3043    -6754.161    84.177027 
   18700    785.06411   -109.13783    0.7103425   -108.42749   -21137.672     4.392809     4.392809     4.392809   -21137.672   -40210.377   -103.60902   -23099.028   -30706.002    14949.133    5381.3054    84.767028 
   18800    1398.0323    -109.6802     1.264969   -108.41523    -13537.04    4.3865486    4.3865486    4.3865486    -13537.04   -3173.2784   -9112.8674   -28324.974    7081.5325    12910.292   -3312.0067    84.405128 
   18900    1186.1745   -109.48865    1.0732756   -108.41537    21687.224    4.3757368    4.3757368    4.3757368    21687.224    46177.295      22544.1   -3659.7229   -4901.0868   -3521.9921   -5755.0536    83.782547 
   19000    1055.3905   -109.38465    0.9549395   -108.42971   -8785.6783    4.3820625    4.3820625    4.3820625   -8785.6783   -28410.407    8815.5872    -6762.215   -33701.063    24157.384   -5352.4408    84.146429 
   19100     1127.464   -109.44889    1.0201531   -108.42873    2111.0477    4.3886781    4.3886781    4.3886781    2111.0477    41151.396   -9327.7278   -25490.525     9555.943      12366.6   -574.80254    84.528112 
   19200    1282.6464   -109.58621    1.1605654   -108.42564   -5499.3863    4.3861322    4.3861322    4.3861322   -5499.3863    -7870.141   -17045.492    8417.4741   -8956.6275     2355.365   -7075.9459    84.381095 
   19300    958.87748   -109.29451   0.86761249    -108.4269     12924.67    4.3853613    4.3853613    4.3853613     12924.67    30824.263     5494.917    2454.8306   -15601.975    10299.653   -5708.2846    84.336612 
   19400    1119.4611   -109.43315    1.0129119   -108.42024   -25037.057    4.3965685    4.3965685    4.3965685   -25037.057   -36826.852    1701.8518   -39986.169    19308.288    13878.958    -9989.515    84.984853 
   19500    1213.7589   -109.51025    1.0982346   -108.41202    20069.478    4.3729313    4.3729313    4.3729313    20069.478    12617.213    8810.7291    38780.491   -11316.047   -8862.9044   -4941.9032    83.621502 
   19600    1073.4665   -109.39553   0.97129508   -108.42424      9631.49    4.3844072    4.3844072    4.3844072      9631.49    2428.2259    13175.227    13291.017   -4363.2274    5983.5716   -9609.0545    84.281577 
   19700    678.52997   -109.03862   0.61394817   -108.42467   -18567.451    4.4010877    4.4010877    4.4010877   -18567.451   -22438.177   -30540.688   -2723.4894    18015.255   -44.351033   -9426.9934    85.247188 
   19800    1141.9894   -109.44373     1.033296   -108.41043    20101.242    4.3826957    4.3826957    4.3826957    20101.242    56759.268   -33347.982     36892.44   -6612.9213   -15979.243   -852.37245    84.182912 
   19900    899.87128   -109.23419   0.81422244   -108.41997     470.9063    4.3882545    4.3882545    4.3882545     470.9063    19854.403   -25857.161    7415.4773    6331.9615    -11498.53   -4174.9971    84.503641 
   20000    666.52079   -109.03081   0.60308201   -108.42773   -4490.7289    4.4002853    4.4002853    4.4002853   -4490.7289    3868.5238   -37827.963    20487.253    10278.316   -1776.2413    1805.5914    85.200572 
   20100    1705.5944   -109.95142    1.5432576   -108.40816    880.17305    4.3875414    4.3875414    4.3875414    880.17305    2803.6421   -17308.927    17145.804   -7093.5289   -8700.8924    7436.9714    84.462452 
   20200     822.8848   -109.16988   0.74456346   -108.42531    17538.777    4.3757983    4.3757983    4.3757983    17538.777   -1859.0621    9226.2037     45249.19   -642.22197     6318.362     7757.699    83.786081 
   20300    737.63084   -109.10656   0.66742388   -108.43914    18632.362    4.3930043    4.3930043    4.3930043    18632.362    80898.576   -23011.333   -1990.1571    5527.3249     27766.25    1036.9072    84.778335 
   20400    1281.3411   -109.58065    1.1593844   -108.42127   -2321.4959    4.4025321    4.4025321    4.4025321   -2321.4959    31894.799   -29892.798   -8966.4897   -7354.4073    6499.4029    2977.6016    85.331152 
   20500    1004.9275   -109.32307   0.90927955   -108.41379    19076.437    4.3774858    4.3774858    4.3774858    19076.437    19915.648    27998.237    9315.4274   -476.70448     21817.44   -2051.7378    83.883053 
   20600    1213.1155   -109.51778    1.0976524   -108.42013   -1117.9041    4.3884314    4.3884314    4.3884314   -1117.9041    9742.5652   -9452.7334   -3643.5442    3518.3059    12709.849    1774.9072    84.513859 
   20700    1427.3283   -109.71281    1.2914766   -108.42134   -16987.805    4.3977006    4.3977006    4.3977006   -16987.805     1411.742   -30874.954   -21500.203   -17510.905   -1538.0555   -5568.5515    85.050523 
   20800     1327.629   -109.61697    1.2012666    -108.4157    629.12135    4.3898284    4.3898284    4.3898284    629.12135     26502.67    8012.5189   -32627.825    7745.9098    16589.581   -1260.3233    84.594597 
   20900     874.8913   -109.20936   0.79162004   -108.41774    -6893.671    4.4022014    4.4022014    4.4022014    -6893.671    32611.874   -25017.074   -28275.813   -12631.617    8783.9986   -3755.2857    85.311922 
   21000    997.39663   -109.31568   0.90246543   -108.41322   -5157.2903    4.3902731    4.3902731    4.3902731   -5157.2903    21113.101   -22269.855   -14315.117   -19357.817    770.60626   -5448.0145    84.620311 
   21100    1150.7514   -109.45005    1.0412241   -108.40883    22892.766    4.3669787    4.3669787    4.3669787    22892.766    45326.925     30503.27   -7151.8975    6019.8394    24903.381    7230.6287    83.280482 
   21200    939.96757   -109.28691   0.85050241   -108.43641   -12916.867    4.3886411    4.3886411    4.3886411   -12916.867   -35473.892    10068.882   -13345.591   -14003.491    3030.0097   -5743.8664    84.525975 
   21300    1049.4722   -109.37222   0.94958449   -108.42263   -7984.2716    4.3969149    4.3969149    4.3969149   -7984.2716   -18767.839    15114.616   -20299.592   -16065.943   -2824.0469    3852.5992    85.004941 
   21400    1366.5023   -109.64885      1.23644   -108.41241   -7237.4562    4.3888582    4.3888582    4.3888582   -7237.4562   -23026.873    24139.956   -22825.451    8536.7486    15057.954    10760.493    84.538519 
   21500    855.11854   -109.19217   0.77372923   -108.41844    3924.9254      4.37777      4.37777      4.37777    3924.9254   -13404.789    23255.314    1924.2515   -20683.524    -5005.299    1736.9003    83.899394 
   21600    1105.4869   -109.42795    1.0002678   -108.42768   -3280.1542    4.3827925    4.3827925    4.3827925   -3280.1542   -5463.9133    17131.803   -21508.352     -10232.6   -3299.1867   -3983.7635     84.18849 
   21700    1477.1373   -109.76322    1.3365449   -108.42668   -18401.614    4.3903908    4.3903908    4.3903908   -18401.614   -13820.017   -13584.974   -27799.853    20857.855    10933.269    10914.543    84.627117 
   21800    964.69427   -109.30438   0.87287565   -108.43151   -1985.9496    4.3779365    4.3779365    4.3779365   -1985.9496   -10233.587    13043.646   -8767.9082   -17012.883   -15828.827   -4186.6685    83.908969 
   21900     1080.846   -109.41706   0.97797219   -108.43909    4046.7918    4.3868917    4.3868917    4.3868917    4046.7918   -1499.0908    36287.893   -22648.427   -4084.5967    -1605.982    5767.7538    84.424934 
   22000    1172.1225   -109.48637    1.0605611   -108.42581    7796.5449    4.3955561    4.3955561    4.3955561    7796.5449   -8624.8678    60576.832   -28562.329    20979.098    460.01141    6487.2655     84.92616 
   22100    705.92235   -109.06241   0.63873337   -108.42367    17013.161    4.3877814    4.3877814    4.3877814    17013.161    5111.2526    72130.481   -26202.252    205.58441   -19257.352    2567.1749    84.476314 
   22200    940.50464   -109.26805   0.85098837   -108.41706    10368.656     4.391251     4.391251     4.391251    10368.656    17679.787    29888.421   -16462.241   -11913.648   -1493.9145    10657.587     84.67687 
   22300    1095.9647   -109.40678   0.99165192   -108.41513    2084.5577    4.3837028    4.3837028    4.3837028    2084.5577   -581.29434    13332.027   -6497.0597     26828.36   -10379.127    12377.828    84.240962 
   22400    808.89723   -109.15937   0.73190721   -108.42747    9002.4958    4.3829453    4.3829453    4.3829453    9002.4958    37630.151     9637.122   -20259.786   -3174.8121   -11063.295    -4386.312      84.1973 
   22500    1309.3154    -109.6157    1.1846961     -108.431   -18983.461    4.3888643    4.3888643    4.3888643   -18983.461   -6027.5726   -24201.842   -26720.969   -22253.776    6680.7405    4528.2305    84.538872 
   22600    1309.6987   -109.61099    1.1850429   -108.42594    21800.111    4.3730563    4.3730563    4.3730563    21800.111    24435.669    49150.548    -8185.883    14538.051   -11565.892    3222.4291    83.628675 
   22700    1071.9214   -109.40932   0.96989705   -108.43942   -6145.8615    4.3915653    4.3915653    4.3915653   -6145.8615    3685.5669     950.7094   -23073.861   -5789.9733   -957.25854    -4292.903    84.695053 
   22800    1173.6406   -109.48445    1.0619347   -108.42252   -17849.955    4.3974052    4.3974052    4.3974052   -17849.955   -15873.718   -3057.7875   -34618.359   -19922.582    9737.8898    8803.5775    85.033385 
   22900     1169.071   -109.46502       1.0578   -108.40722    15858.086    4.3802981    4.3802981    4.3802981    15858.086    6892.7722    36508.945    4172.5418     15422.76   -8925.6182    7829.3928     84.04483 
   23000    1135.9355   -109.44636    1.0278183   -108.41854   -8138.6032    4.3783477    4.3783477    4.3783477   -8138.6032   -33011.692    8447.5901     148.2924    12080.125    6911.5213    1112.7969    83.932615 
   23100    736.92264   -109.10314   0.66678309   -108.43636     18954.59    4.3813396    4.3813396    4.3813396     18954.59    10774.795    59534.511   -13445.537   -10627.255    6090.7105    5411.1595    84.104791 
   23200     1287.811   -109.59536    1.1652384   -108.43013   -7710.9068    4.4027827    4.4027827    4.4027827   -7710.9068    63.193426   -8479.3477   -14716.566    12699.128   -5635.2479    11546.859    85.345724 
   23300    1104.8914    -109.4205   0.99972897   -108.42078   -7598.3199    4.3909755    4.3909755    4.3909755   -7598.3199    5759.7605   -11382.239   -17172.481    4935.1958    5852.2287     3748.398    84.660929 
   23400    960.96353    -109.2859       0.8695    -108.4164    13604.931    4.3700907    4.3700907    4.3700907    13604.931    40940.849    20498.853   -20624.911   -18092.453   -653.88351    8373.1685     83.45865 
   23500    1344.6353   -109.64472    1.2166543   -108.42807    -4154.445    4.3865875    4.3865875    4.3865875    -4154.445    26605.117   -4797.0489   -34271.403    7341.4735   -9368.6844     3376.202    84.407373 
   23600    1499.3081   -109.78631    1.3566055    -108.4297    -6864.329    4.3885436    4.3885436    4.3885436    -6864.329    1085.3163    2066.7451   -23745.049    6.2487238    3827.0836    1795.7889    84.520343 
   23700    970.67725   -109.31116   0.87828917   -108.43287   -14605.705    4.3874211    4.3874211    4.3874211   -14605.705   -15493.039    16774.413   -45098.488   -27626.564   -6566.9388     7694.211    84.455502 
   23800     1082.096   -109.40586   0.97910324   -108.42676   -8197.4301    4.3842628    4.3842628    4.3842628   -8197.4301   -10801.292    26353.053   -40144.051    7996.6859   -9813.4394    2156.4966    84.273249 
   23900    1169.0442   -109.48227    1.0577758    -108.4245   -4997.5744    4.3883653    4.3883653    4.3883653   -4997.5744   -37813.571    37177.477    -14356.63   -6487.4426    3362.6549    4587.2241    84.510039 
   24000    731.25278   -109.09251   0.66165288   -108.43086   -12833.624    4.3893228    4.3893228    4.3893228   -12833.624   -53565.052    50602.777   -35538.597   -14033.322   -17457.358    11448.335    84.565369 
   24100    1128.9311   -109.45312    1.0214806   -108.43164     1295.666    4.3700922    4.3700922    4.3700922     1295.666    25366.526    20690.362    -42169.89    5639.9329   -5389.3078    -1743.673    83.458735 
   24200    1325.4151   -109.63783    1.1992634   -108.43857   -5284.0383    4.3795106    4.3795106    4.3795106   -5284.0383    1681.0851    3505.9435   -21039.144   -3674.5093    2966.5231   -6211.7975    83.999506 
   24300    1151.9739   -109.48106    1.0423302   -108.43873   -14220.843    4.3861635    4.3861635    4.3861635   -14220.843   -31716.217    20552.161   -31498.474   -11321.906   -20709.057     2423.277    84.382902 
   24400    971.60158   -109.31519   0.87912552   -108.43607    205.76254    4.3749918    4.3749918    4.3749918    205.76254    10227.574    36153.725   -45764.012    11438.307   -443.39203    2488.5779    83.739766 
   24500    995.48394   -109.33816   0.90073479   -108.43743    1102.2873    4.3795937    4.3795937    4.3795937    1102.2873   -12036.299    49211.346   -33868.185   -4983.3816     -5715.45   -5721.1631    84.004288 
   24600    1475.9902   -109.76618     1.335507   -108.43068   -9992.1455    4.3819302    4.3819302    4.3819302   -9992.1455   -42364.764    41436.359   -29048.031   -8811.2635   -9665.2405    7269.2685    84.138812 
   24700    772.82573   -109.14328   0.69926896   -108.44401   -4935.2081    4.3770975    4.3770975    4.3770975   -4935.2081   -3229.5007    11655.865   -23231.988   -134.51925    7404.5707    1048.5026    83.860735 
   24800    936.01243   -109.29039   0.84692371   -108.44347    8413.6709    4.3743665    4.3743665    4.3743665    8413.6709    367.69263    57111.799    -32238.48   -12490.227    -1990.352   -1726.6989    83.703865 
   24900    1505.3646    -109.7938    1.3620855   -108.43171    6422.6195    4.3844966    4.3844966    4.3844966    6422.6195   -29101.079    68285.804   -19916.867    4967.3995   -4124.0511    6607.2362    84.286731 
   25000    792.34136   -109.15432   0.71692711   -108.43739    4485.8924    4.3800133    4.3800133    4.3800133    4485.8924    -2847.244    39255.378   -22950.457     3478.643    3130.5554   -6315.6907    84.028437 
   25100    1264.3651   -109.58164    1.1440241   -108.43762   -17006.121    4.3755199    4.3755199    4.3755199   -17006.121    10365.831   -14507.277   -46876.917    1128.6305     3443.863    12929.008    83.770093 
   25200    1389.7733   -109.69568    1.2574961   -108.43818    22123.022    4.3692679    4.3692679    4.3692679    22123.022    2331.6084    64769.977   -732.51894    7286.0101    3928.4941    2343.4958    83.411516 
   25300    785.48229   -109.17097   0.71072089   -108.46025   -10271.924    4.3913026    4.3913026    4.3913026   -10271.924    1231.0048    16733.358   -48780.136    8870.2257    6795.2549   -1523.0719    84.679851 
   25400    872.79738   -109.23366   0.78972541   -108.44394   -30752.414     4.390222     4.390222     4.390222   -30752.414    324.68181   -24385.006   -68196.918   -1687.7063    1256.6955    25840.636    84.617358 
   25500    1291.6137     -109.582    1.1686792   -108.41332    36481.415    4.3466076    4.3466076    4.3466076    36481.415    1891.7792    65751.856    41800.612    18763.527   -3880.5133   -4861.2042    82.120448 
   25600     1176.942   -109.50975    1.0649219   -108.44483   -19145.504    4.3813545    4.3813545    4.3813545   -19145.504    -16521.43   -4233.4398   -36681.642    7321.9052    5336.7567    11580.372    84.105651 
   25700    618.73025   -108.99141   0.55984013   -108.43157   -12962.207    4.4015001    4.4015001    4.4015001   -12962.207   -22435.608    47998.365   -64449.378   -8437.5143    601.07515     15679.34    85.271155 
   25800    1373.6611   -109.67475    1.2429174   -108.43183    9941.3282    4.3678604    4.3678604    4.3678604    9941.3282   -17716.492     38465.26    9075.2162    17205.356    -3039.478   -4273.6566    83.330934 
   25900    1395.9045   -109.70058    1.2630438   -108.43753    23668.929    4.3554636    4.3554636    4.3554636    23668.929      12916.3    49879.134    8211.3541   -8011.4717   -643.30904    10593.204    82.623422 
   26000    563.15511    -108.9651   0.50955457   -108.45555   -22860.876    4.3987659    4.3987659    4.3987659   -22860.876    -11009.87    -870.7828   -56701.974   -6168.2265    -6519.213    5962.0506    85.112342 
   26100    1547.5787   -109.83501    1.4002817   -108.43473   -7416.0234    4.3833312    4.3833312    4.3833312   -7416.0234   -16050.175    9814.7424   -16012.638    4418.3254   -1397.0785   -11185.213    84.219538 
   26200    1360.1583   -109.64708    1.2306998   -108.41638    34044.933    4.3514034    4.3514034    4.3514034    34044.933    15740.147    57480.473    28914.179   -11173.381   -241.40692    21548.255    82.392569 
   26300      577.118   -108.96123   0.52218849   -108.43904   -37061.267    4.3894234    4.3894234    4.3894234   -37061.267     4546.197   -65766.428   -49963.569    2007.9689    690.67998     2782.443    84.571189 
   26400    1174.1617   -109.48001    1.0624062    -108.4176    3752.6087    4.3817322    4.3817322    4.3817322    3752.6087    3620.4575   -980.06232    8617.4308     10170.29   -4677.2018   -9075.3935    84.127405 
   26500    1142.1096   -109.45216    1.0334047   -108.41875    -5574.704    4.3816457    4.3816457    4.3816457    -5574.704   -2454.6977   -6359.2059   -7910.2083   -5970.3748   -314.81136     10591.61    84.122425 
   26600     865.0826   -109.21226   0.78274491   -108.42951    -10279.78    4.3769548    4.3769548    4.3769548    -10279.78    8960.1233   -16880.878   -22918.585   -12097.938    6587.9495   -8248.2116    83.852531 
   26700    1057.1752   -109.38609   0.95655433   -108.42953    31040.539    4.3624202    4.3624202    4.3624202    31040.539    21124.173    50012.653    21984.791    22816.798   -7636.7138   -13836.654    83.019953 
   26800    1411.7636   -109.70967    1.2773933   -108.43227    -24398.58    4.3955349    4.3955349    4.3955349    -24398.58   -22680.154     -32388.3   -18127.287    7611.1641    3446.9492    4240.1032    84.924929 
   26900    1081.3967   -109.40631   0.97847049   -108.42784    22874.225    4.3740694    4.3740694    4.3740694    22874.225    10171.799    38317.402    20133.474    -10011.17    142.04793   -1411.1597    83.686807 
   27000    870.76108   -109.21997   0.78788292   -108.43209    15418.495    4.3663293    4.3663293    4.3663293    15418.495    15041.814    7743.2244    23470.446    36854.654   -476.96723   -10223.091    83.243333 
   27100    1417.0729   -109.70182    1.2821973   -108.41962   -14285.214    4.3933812    4.3933812    4.3933812   -14285.214   -34279.235   -1318.4191   -7257.9891    1464.7148   -918.72654    680.95065     84.80016 
   27200    1144.7599   -109.45897    1.0358028   -108.42317    12985.556    4.3725266    4.3725266    4.3725266    12985.556    3401.3446    13608.937    21946.385     12775.59     944.3926   -8843.5511    83.598287 
   27300    445.08225   -108.84178   0.40271977   -108.43906    -9893.408    4.3734665    4.3734665    4.3734665    -9893.408   -5716.5607   -43657.791    19694.128    30122.917     1633.802   -12343.399     83.65221 
   27400    1484.0979   -109.76914    1.3428429    -108.4263    -7905.012    4.3851289    4.3851289    4.3851289    -7905.012   -23182.835    9507.7113   -10039.913   -9291.5052   -6467.3117    3491.5182    84.323201 
   27500    1157.3971   -109.47363    1.0472372   -108.42639    2392.0734    4.3865527    4.3865527    4.3865527    2392.0734    11579.501   -2111.5781   -2291.7031    28993.099    9173.2621   -10506.817    84.405365 
   27600    806.53073   -109.15592   0.72976596   -108.42615    4434.5752    4.3825597    4.3825597    4.3825597    4434.5752   -699.75145    11177.593    2825.8842    17084.957   -4290.9813   -15398.758    84.175074 
   27700    1212.6925   -109.51026    1.0972697   -108.41299    12906.433    4.3804186    4.3804186    4.3804186    12906.433    -13520.91     57578.82   -5338.6108    54.610044    1186.3851    2176.3112    84.051766 
   27800     957.0685   -109.28522    0.8659757   -108.41924    11240.025    4.3774613    4.3774613    4.3774613    11240.025   -7606.6054    37949.025    3377.6561    41074.747     9066.515   -1884.8315    83.881646 
   27900    1002.7352   -109.32835   0.90729585   -108.42105    -2048.063    4.3813284    4.3813284    4.3813284    -2048.063   -5377.9108    13993.148   -14759.426    2536.9358    603.05295   -8448.3322    84.104152 
   28000    1010.9744   -109.33928   0.91475087   -108.42453   -9209.3447    4.3836532    4.3836532    4.3836532   -9209.3447    20338.154   -27077.955   -20888.234   -7825.2888   -2121.5466    6910.8511    84.238102 
   28100    1076.8839   -109.39867   0.97438721   -108.42429    6752.5884    4.3807377    4.3807377    4.3807377    6752.5884    35525.955   -9578.3423    -5689.847    23376.951    1281.5366   -3815.3928    84.070139 
   28200    1110.6592   -109.43255    1.0049478    -108.4276    3602.6009    4.3811235    4.3811235    4.3811235    3602.6009     30349.04    8023.2451   -27564.482   -11485.848   -8824.8076   -11636.292     84.09235 
   28300    909.27232   -109.25378   0.82272871   -108.43105    12591.928    4.3868993    4.3868993    4.3868993    12591.928    32476.673    36598.058   -31298.948   -21678.039   -1428.5301    15154.824    84.425375 
   28400    1231.9241   -109.53604    1.1146708   -108.42137     13683.27    4.3858354    4.3858354    4.3858354     13683.27   -13923.152    66157.184   -11184.223    12640.183   -4763.0846   -6608.7471    84.363967 
   28500    1033.0925   -109.36373   0.93476376   -108.42896    8890.1291    4.3708871    4.3708871    4.3708871    8890.1291    559.67288    26412.045   -301.33027   -10944.124   -8257.0898   -10537.915    83.504286 
   28600    715.14558   -109.09265   0.64707875   -108.44557   -6738.2148    4.3711877    4.3711877    4.3711877   -6738.2148    43747.871   -25813.039   -38149.477   -12609.537      515.357    22676.735    83.521513 
   28700    1581.6696   -109.86451    1.4311279   -108.43338   -208.58335    4.3836679    4.3836679    4.3836679   -208.58335   -8475.5537    13158.994   -5309.1902    4202.0555   -1751.1972    747.28079    84.238948 
   28800     1011.518   -109.35571   0.91524275   -108.44047   -15949.219     4.385324     4.385324     4.385324   -15949.219   -15452.264   -19599.181   -12796.211   -13177.481   -895.92202    7236.7864    84.334455 
   28900     420.5301   -108.82157   0.38050447   -108.44106    22478.825    4.3609775    4.3609775    4.3609775    22478.825    38922.808    45082.513   -16568.845   -13759.618   -2972.8092    29373.475    82.937616 
   29000    1494.8909   -109.79281    1.3526087    -108.4402    -5151.795    4.3763207    4.3763207    4.3763207    -5151.795    -29274.29    27963.486   -14144.581    4386.0937    10564.639   -5630.1019    83.816095 
   29100    1342.1188   -109.65248    1.2143773    -108.4381    14159.275    4.3738021    4.3738021    4.3738021    14159.275    1371.3335    44208.385   -3101.8925    3393.4682    1882.1557    14790.944     83.67147 
   29200    934.35958   -109.29034   0.84542818   -108.44492    93.039289    4.3768948    4.3768948    4.3768948    93.039289    38812.486   -21204.901   -17328.467   -9405.9822    4129.8237    24690.614    83.849085 
   29300     1341.704   -109.64484     1.214002   -108.43083   -20003.981     4.384163     4.384163     4.384163   -20003.981   -32024.962    -16858.18   -11128.802     12249.47    15451.131   -15253.039    84.267492 
   29400    1225.8348   -109.53401    1.1091611   -108.42485    21367.035    4.3661875    4.3661875    4.3661875    21367.035    30813.994    15341.266    17945.844    10163.342   -7132.4696    15363.213    83.235224 
   29500    1006.2903   -109.34428   0.91051262   -108.43377    2862.8287     4.373936     4.373936     4.373936    2862.8287    12632.208    17507.734   -21551.456   -14329.292    7714.5579    12812.409    83.679154 
   29600    758.27691   -109.12456   0.68610488   -108.43846   -3108.6703    4.3828956    4.3828956    4.3828956   -3108.6703   -32198.471    31631.676   -8759.2161    12104.182    7116.2687   -16213.541    84.194433 
   29700    1049.0755   -109.38262   0.94922553   -108.43339    4726.4232    4.3763391    4.3763391    4.3763391    4726.4232   -17237.838    20206.673    11210.435    21381.651   -5067.6588    1950.2851    83.817153 
   29800    1094.5624   -109.42107   0.99038307   -108.43069    15271.182    4.3754874    4.3754874    4.3754874    15271.182      39111.6    19055.672   -12353.726   -22225.004    548.43692    10013.635    83.768225 
   29900    905.31478   -109.25972   0.81914783   -108.44057   -18247.592    4.3767377    4.3767377    4.3767377   -18247.592   -30018.693   -18001.403   -6722.6809    14060.093    5960.8593    -13030.66    83.840057 
   30000    1095.6766   -109.43017   0.99139121   -108.43878    11172.543    4.3731888    4.3731888    4.3731888    11172.543    12598.832   -5007.5667    25926.362    23755.999   -3493.1396   -8174.4144    83.636276 
   30100    1655.3395   -109.92889    1.4977859    -108.4311   -10222.909    4.3839713    4.3839713    4.3839713   -10222.909   -9551.1784    5043.2482   -26160.798   -14403.803   -11510.371    9751.4258    84.256439 
   30200    921.57539   -109.27303   0.83386078   -108.43916    9461.4595    4.3715417    4.3715417    4.3715417    9461.4595   -628.35166    19690.438     9322.292    16311.104    2542.5428   -15591.763    83.541807 
   30300    1106.2881   -109.44106    1.0009927   -108.44007    12735.408    4.3735519    4.3735519    4.3735519    12735.408   -14840.066    28331.278     24715.01    14918.495   -6796.4737   -13137.961    83.657111 
   30400    1490.6197   -109.77841     1.348744   -108.42966    1416.1793    4.3829893    4.3829893    4.3829893    1416.1793   -17161.558    52479.525   -31069.429   -9269.7155   -6947.6202    2422.6948    84.199833 
   30500    937.13572    -109.2859   0.84794009   -108.43796    8383.5093    4.3678981    4.3678981    4.3678981    8383.5093   -2920.7657    26075.397    1995.8969    11143.835    8100.8189   -15523.956    83.333092 
   30600    493.39229   -108.89571   0.44643171   -108.44928    -21139.57    4.3782181    4.3782181    4.3782181    -21139.57   -46944.202    -7042.107   -9432.3996    7757.9242   -18299.136   -8012.0104    83.925158 
   30700    1287.6306   -109.60069    1.1650752   -108.43562    435.39991    4.3739529    4.3739529    4.3739529    435.39991   -18199.316    45397.166    -25891.65   -3960.3392   -5697.1327    4864.3533    83.680121 
   30800      1416.49   -109.71995    1.2816699   -108.43828     4852.858    4.3714182    4.3714182    4.3714182     4852.858    858.87762    9804.8826    3894.8137    8381.5397    3584.3624   -6088.9893    83.534728 
   30900    666.34776   -109.05701   0.60292546   -108.45408   -7006.2002     4.375365     4.375365     4.375365   -7006.2002    -17229.57    1634.4297     -5423.46    9173.7013   -23242.272   -4622.4624    83.761195 
   31000    1170.6548   -109.50345     1.059233   -108.44422    9737.3058    4.3768683    4.3768683    4.3768683    9737.3058   -10431.632    58368.859    -18725.31   -3888.7505   -30.458277    7116.1871    83.847564 
   31100     1650.088   -109.92086    1.4930343   -108.42783   -1355.7946    4.3825802    4.3825802    4.3825802   -1355.7946    6101.0165    7344.8628   -17513.263   -2767.6598   -4618.6338    136.97036     84.17626 
   31200    932.13373   -109.27775   0.84341418   -108.43433    12707.531    4.3678373    4.3678373    4.3678373    12707.531   -25110.662    65334.323   -2101.0679    4317.3623   -18411.279    -4414.258    83.329613 
   31300    860.29482   -109.21914   0.77841283   -108.44073   -15929.982    4.3735619    4.3735619    4.3735619   -15929.982   -22184.345   -15221.752   -10383.849   -9093.5694    6768.3302    8237.7174    83.657681 
   31400    1155.2329   -109.48355     1.045279   -108.43827   -8111.2193      4.37187      4.37187      4.37187   -8111.2193   -26132.333    19409.132   -17610.457   -10449.869   -13093.957    10106.256    83.560632 
   31500    1274.9406   -109.59411    1.1535931   -108.44051    9303.7566    4.3742914    4.3742914    4.3742914    9303.7566   -22347.102    56121.947    -5863.576    3725.2563   -17520.049     -5626.39    83.699552 
   31600    886.53158   -109.24526   0.80215241   -108.44311    -7844.114    4.3823475    4.3823475    4.3823475    -7844.114    -923.8842   -463.38772    -22145.07   -2835.2257    5949.6027    10080.308    84.162849 
   31700     727.2433   -109.10008   0.65802502   -108.44205    8612.6964    4.3693326    4.3693326    4.3693326    8612.6964   -11681.728    56190.795   -18670.978   -13636.854   -21082.461    5840.7032    83.415225 
   31800    1536.3052   -109.82453    1.3900812   -108.43444    7153.3126    4.3810464    4.3810464    4.3810464    7153.3126   -16140.095    44355.534   -6755.5007    4111.9251   -6856.2068   -7139.7276    84.087908 
   31900     1350.949   -109.65826    1.2223671    -108.4359   -6063.8289    4.3789147    4.3789147    4.3789147   -6063.8289   -24621.834    23361.548     -16931.2   -3559.4756    -3179.216    6957.7463    83.965226 
   32000    575.88032   -108.96112   0.52106861   -108.44005   -12768.988    4.3738113    4.3738113    4.3738113   -12768.988   -26203.618    10277.687   -22381.031    -15798.18   -27834.651    1029.2843    83.671994 
   32100    1525.4609   -109.81027    1.3802691   -108.43001   -20975.766    4.3799463    4.3799463    4.3799463   -20975.766   -33794.302   -1374.6546   -27758.341    17362.025    5125.7981   -7020.6957    84.024583 
   32200    1132.0796   -109.45681    1.0243294   -108.43248    6860.9723    4.3775736    4.3775736    4.3775736    6860.9723   -15930.085     45936.05   -9423.0478    258.79802   -14609.618   -174.17404    83.888104 
   32300    794.52705   -109.15445   0.71890477   -108.43555    9502.5922    4.3783447    4.3783447    4.3783447    9502.5922   -4188.9269    50029.926   -17333.222   -8528.6628   -13797.047    7306.1067     83.93244 
   32400    1117.7178   -109.44096    1.0113345   -108.42962    2977.1464    4.3780941    4.3780941    4.3780941    2977.1464   -15864.041    38376.808   -13581.327    11616.719     4567.254   -17063.857    83.918029 
   32500    996.59878    -109.3329   0.90174352   -108.43115    27718.679    4.3717389    4.3717389    4.3717389    27718.679   -13450.788    95050.804    1556.0219    4149.2063   -28619.134   -1846.5847    83.553114 
   32600    1591.7783   -109.86262    1.4402744   -108.42235   -10720.558    4.3826205    4.3826205    4.3826205   -10720.558   -23439.894    6874.9017   -15596.682   -1624.4186    2642.3749    3621.7436    84.178583 
   32700     762.3355   -109.12747   0.68977718   -108.43769   -9481.1642    4.3730901    4.3730901    4.3730901   -9481.1642   -13809.946    3399.6867   -18033.233    17999.572   -14977.781   -8176.5824     83.63061 
   32800    1079.8652   -109.41273   0.97708469   -108.43565    8925.9541    4.3694648    4.3694648    4.3694648    8925.9541   -25200.348    39462.669    12515.541   -1876.0539   -25671.909    -4123.414    83.422796 
   32900    1614.5132   -109.88263    1.4608455   -108.42178   -19977.201    4.3926258    4.3926258    4.3926258   -19977.201   -24199.956   -25518.062   -10213.585   -424.45259    8024.8063    7745.9198    84.756422 
   33000    656.25645   -109.01982   0.59379462   -108.42603    7185.3056    4.3753678    4.3753678    4.3753678    7185.3056   -11796.585    11059.073    22293.429    9476.5478   -39502.591   -9148.0411    83.761356 
   33100    1322.7863   -109.61551    1.1968848   -108.41863    11978.719    4.3731838    4.3731838    4.3731838    11978.719   -724.18922    25015.322    11645.024    -3777.872   -6344.1118    9540.5047     83.63599 
   33200    1470.6104   -109.74961    1.3306392   -108.41897   -15839.755    4.3828463    4.3828463    4.3828463   -15839.755   -17992.494   -20897.845   -8628.9275   -4725.3124    -4136.455   -4442.3921    84.191591 
   33300    715.20061   -109.08145   0.64712854   -108.43432    9419.4533    4.3686683    4.3686683    4.3686683    9419.4533    16642.667    33437.344   -21821.651    6186.7985   -35104.473   -3365.4552     83.37718 
   33400    1282.6699   -109.59807    1.1605867   -108.43748   -18253.383    4.3826619    4.3826619    4.3826619   -18253.383   -27301.072   -20386.409   -7072.6687   -3946.2912     7169.733    7182.5607    84.180967 
   33500    1283.8094   -109.58909    1.1616177   -108.42747   -8210.6151    4.3826547    4.3826547    4.3826547   -8210.6151   -23083.187    9679.3948   -11228.053   -2378.5064   -13021.019   -1316.4282    84.180548 
   33600    773.08014   -109.12564   0.69949915   -108.42614     8272.472    4.3747982    4.3747982    4.3747982     8272.472    13882.823    27600.952   -16666.359    4474.6179   -28239.585   -2184.6353    83.728647 
   33700    1309.3831   -109.60555    1.1847573   -108.42079   -13410.427    4.3808915    4.3808915    4.3808915   -13410.427   -8363.2904   -33856.706    1988.7149   -3065.2981    18344.051    10015.353    84.078991 
   33800    1129.3736   -109.44256     1.021881   -108.42068    14162.294    4.3710417    4.3710417    4.3710417    14162.294    16997.905    26720.401   -1231.4254   -600.10152   -21935.506    5205.4126    83.513144 
   33900    1332.6433   -109.63234    1.2058037   -108.42654   -12269.365    4.3825067    4.3825067    4.3825067   -12269.365   -11207.874   -8937.8536   -16662.366    9088.6271   -14863.373   -1292.5008    84.172023 
   34000    1051.1888     -109.377   0.95113776   -108.42586   -8849.4846    4.3804418    4.3804418    4.3804418   -8849.4846   -6555.0866   -32837.854    12844.487   -6355.3339     9558.677    990.20452    84.053103 
   34100     954.0615   -109.28708    0.8632549   -108.42382    2289.0611    4.3704007    4.3704007    4.3704007    2289.0611   -28139.202    44216.952   -9210.5663    2289.2794   -28526.891    12790.177    83.476414 
   34200    1245.5117   -109.54878    1.1269652   -108.42181   -8978.3049    4.3860479    4.3860479    4.3860479   -8978.3049   -36054.866    1286.0351    7833.9161    1161.3499    725.64421   -3220.1058    84.376228 
   34300    1241.9174   -109.55188     1.123713   -108.42817    193.78215    4.3700926    4.3700926    4.3700926    193.78215   -22243.801   -1119.4891    23944.636   -2954.2546    4067.2003    -7515.304    83.458758 
   34400    852.30818    -109.2093   0.77118635   -108.43812    7401.6421    4.3683833    4.3683833    4.3683833    7401.6421   -31110.591    47832.166    5483.3514    3700.3639   -34999.322     11587.69    83.360866 
   34500    1460.3421   -109.74681    1.3213482   -108.42546   -28218.722    4.3973789    4.3973789    4.3973789   -28218.722   -34830.525    -10919.17    -38906.47    1287.5248    18385.991    -9272.821    85.031859 
   34600    1286.7736   -109.58689    1.1642998   -108.42259    2083.7078    4.3734793    4.3734793    4.3734793    2083.7078   -5380.2174    7480.8229     4150.518    1631.2549   -749.06837   -1963.9702    83.652941 
   34700     818.3191   -109.16657   0.74043232   -108.42614    21180.734    4.3602381    4.3602381    4.3602381    21180.734    19891.819    22179.407    21470.975    3370.3556   -40545.896    10905.544    82.895437 
   34800    1180.0838   -109.49687    1.0677646    -108.4291   -493.13228    4.3787006    4.3787006    4.3787006   -493.13228    9761.6296    9352.4463   -20593.473    6460.3403    23307.605   -9078.2801    83.952908 
   34900    806.70176   -109.15971    0.7299207   -108.42979    17248.519    4.3835222    4.3835222    4.3835222    17248.519    32004.287    9555.5448    10185.725    3088.7089   -11993.274   -173.85682    84.230549 
   35000    966.65825   -109.30004    0.8746527   -108.42539   -9737.6233    4.3833563    4.3833563    4.3833563   -9737.6233    3577.5904   -2251.3946   -30539.066   -1786.2113   -36949.888    6804.4332    84.220984 
[...]
   91200     1104.982   -109.42497   0.99981094   -108.42516   -15998.785    4.3709057    4.3709057    4.3709057   -15998.785   -39638.365    12071.912   -20429.901   -6328.2031    10675.845    5956.0953    83.505351 
   91300    929.48694   -109.26513   0.84101932   -108.42411    8496.3022    4.3603871    4.3603871    4.3603871    8496.3022   -23059.057    22942.204     25605.76     11358.34    23943.682   -1823.0913    82.903935 
   91400    1200.2388   -109.50753    1.0860012   -108.42153   -7660.5207     4.364323     4.364323     4.364323   -7660.5207   -27157.018   -10371.282    14546.737    33528.739   -7322.2831   -2316.3842    83.128638 
   91500    1055.3728   -109.38032   0.95492346   -108.42539   -2588.3283    4.3630638    4.3630638    4.3630638   -2588.3283   -18210.327    34550.875   -24105.533   -13119.802      30869.3   -2425.3118    83.056706 
   91600     885.8209   -109.23173   0.80150937   -108.43022    2155.0613    4.3622261    4.3622261    4.3622261    2155.0613    -29739.69     7997.134     28207.74    34870.784    8071.4191    789.18323    83.008871 
   91700    1276.9652   -109.57728     1.155425   -108.42186   -10065.441    4.3720838    4.3720838    4.3720838   -10065.441   -33998.308   -21249.958    25051.943    15715.563   -3595.7124     4954.226    83.572892 
   91800    1005.7998   -109.33299   0.91006884   -108.42292    5605.8488    4.3587149    4.3587149    4.3587149    5605.8488   -19407.765    24309.131     11916.18   -7400.4985    36607.604   -7661.0827    82.808588 
   91900    955.26108   -109.29211    0.8643403   -108.42777   -339.95078    4.3595531    4.3595531    4.3595531   -339.95078   -36978.917    -4810.558    40769.623    42139.692   -3630.5347    -2262.226    82.856375 
   92000    1308.3021   -109.60395    1.1837792   -108.42017   -13698.257    4.3732761    4.3732761    4.3732761   -13698.257   -33653.207   -22627.078    15185.512    -9712.935    271.60381    4360.4827    83.641283 
   92100     997.6801   -109.32751   0.90272192   -108.42478     4794.656    4.3605526    4.3605526    4.3605526     4794.656   -10862.659    17114.853    8131.7742    2614.4452    24242.794   -1594.2973    82.913374 
   92200    1229.3477   -109.53668    1.1123396   -108.42434   -3955.3638    4.3608883    4.3608883    4.3608883   -3955.3638    -28002.75   -3245.7543    19382.413    37215.565   -795.81509    -1679.061    82.932526 
   92300     1165.544   -109.47785    1.0546087   -108.42325   -1468.6459     4.365918     4.365918     4.365918   -1468.6459   -8005.3718   -8170.0107    11769.445   -28415.059    5377.1953   -451.62072    83.219812 
   92400     810.0737   -109.15969   0.73297171   -108.42672   -551.05121    4.3655277    4.3655277    4.3655277   -551.05121   -8377.4862    10596.924   -3872.5913    10197.371    16917.139   -6581.8766    83.197496 
   92500     1145.212   -109.45747    1.0362119   -108.42125   -11682.631    4.3677523    4.3677523    4.3677523   -11682.631   -25975.173    -15844.89    6772.1696    22365.377   -3854.8546    5064.2337    83.324749 
   92600    997.65862   -109.32677   0.90270248   -108.42407     4533.419    4.3567118    4.3567118    4.3567118     4533.419    7784.7704   -7694.9473    13510.434   -34287.062     6355.148      4067.08    82.694477 
   92700     944.6496   -109.28576   0.85473881   -108.43102   -738.11528    4.3630695    4.3630695    4.3630695   -738.11528   -9789.3256    9504.7033   -1929.7236      16688.8    25651.012   -17043.057    83.057029 
   92800    1467.5565   -109.75066    1.3278759   -108.42278   -8693.4351    4.3706383    4.3706383    4.3706383   -8693.4351   -17644.651   -15746.414    7310.7597    4038.2311   -8843.0822    4057.6271    83.490028 
   92900    1159.2683   -109.47248    1.0489303   -108.42355     4744.782    4.3619018    4.3619018    4.3619018     4744.782    -611.6183    11299.515    3546.4488    -32944.49    5993.5247    1801.7317    82.990362 
   93000    1028.2994   -109.35454   0.93042692   -108.42412   -4806.8663    4.3632194    4.3632194    4.3632194   -4806.8663   -21487.043    25205.824    -18139.38    19423.808     26028.14   -17072.127     83.06559 
   93100    1167.4342   -109.47863     1.056319   -108.42232   -715.18038     4.360122     4.360122     4.360122   -715.18038   -12671.977    1664.7306    8861.7056   -7637.9499   -12754.339    2066.2879    82.888813 
   93200    908.16469   -109.24979   0.82172649   -108.42806   -6259.8555    4.3652794    4.3652794    4.3652794   -6259.8555   -13884.458    9012.1958   -13907.305   -25966.343    11304.633   -7025.4738    83.183301 
   93300    939.54168   -109.27628   0.85011706   -108.42617   -5416.1701    4.3683939    4.3683939    4.3683939   -5416.1701   -13810.724    20457.635   -22895.421    12759.498    27680.397   -9848.2743    83.361473 
   93400     1290.279   -109.58797    1.1674716    -108.4205    6143.5764    4.3591842    4.3591842    4.3591842    6143.5764    2491.7589   -1838.0676    17777.038   -19211.868   -20492.032    5927.2726    82.835339 
   93500    1193.7779   -109.50523    1.0801553   -108.42507    -9142.074    4.3649285    4.3649285    4.3649285    -9142.074   -19613.365    7739.3086   -15552.165   -11095.991    28083.953   -11665.524    83.163238 
   93600    1112.6549   -109.43309    1.0067535   -108.42634    1877.3489    4.3644478    4.3644478    4.3644478    1877.3489   -11949.339    20515.574   -2934.1883    8360.0751    29231.623   -9559.4193    83.135766 
   93700    1235.1916   -109.54073    1.1176273    -108.4231   -51.384141    4.3620584    4.3620584    4.3620584   -51.384141   -18330.038    -10858.62    29034.505   -28654.295   -28653.489    7760.0134    82.999301 
   93800    757.11954   -109.11384   0.68505767   -108.42878    -14574.68     4.366038     4.366038     4.366038    -14574.68   -39593.613    8504.7379   -12635.166   -4860.2112    37058.902   -4358.3032    83.226672 
   93900    1035.6222   -109.36074    0.9370527   -108.42369    4461.2829    4.3623321    4.3623321    4.3623321    4461.2829   -4272.8355    15255.266    2401.4182    3598.8982    25398.711   -8545.0893    83.014925 
   94000    1255.0125   -109.55637    1.1355617   -108.42081   -1868.6091     4.366522     4.366522     4.366522   -1868.6091   -25081.719   -17947.753    37423.645    -29465.22   -19457.329    1494.7967    83.254353 
   94100    879.87985   -109.22578   0.79613378   -108.42964   -10951.997    4.3641122    4.3641122    4.3641122   -10951.997   -27659.401    10201.795   -15398.386   -4010.5264     45177.57   -2012.0735    83.116591 
   94200    1479.5986   -109.76369    1.3387719   -108.42492    5791.8531    4.3576498    4.3576498    4.3576498    5791.8531    2149.9011    2436.4094    12789.249   -5242.0251    8778.1728   -10065.174    82.747899 
   94300    1246.8624    -109.5558    1.1281873   -108.42761    -10296.67    4.3682907    4.3682907    4.3682907    -10296.67   -37146.337    -25224.62    31480.946   -29144.796    7086.8434    4394.4637    83.355566 
   94400    877.19557    -109.2249   0.79370498   -108.43119   -14274.727    4.3660432    4.3660432    4.3660432   -14274.727   -25332.837    4240.3775   -21731.722    2264.8791    40313.901   -7323.0907    83.226971 
   94500    1344.6773   -109.63743    1.2166923   -108.42074    3600.2624    4.3579688    4.3579688    4.3579688    3600.2624    8584.8009   -17347.729    19563.716   -3646.7979   -11764.123   -10991.855    82.766072 
   94600    641.78863    -109.0117   0.58070384   -108.43099   -11937.863    4.3661992    4.3661992    4.3661992   -11937.863   -23033.802   -22235.689    9455.9007   -28365.765    27766.811    9750.9804    83.235891 
   94700    978.04315   -109.31459     0.884954   -108.42964   -7939.7509    4.3672024    4.3672024    4.3672024   -7939.7509     575.9235    7177.4251   -31572.601    3162.1829    27532.037   -5005.8337    83.293277 
   94800     1555.746   -109.82638    1.4076717   -108.41871    1629.5938    4.3628006    4.3628006    4.3628006    1629.5938    24435.389   -21497.056    1950.4485   -3445.4978   -12998.867   -1664.5827    83.041675 
   94900    454.83994   -108.84846   0.41154873   -108.43692   -6784.2137    4.3665147    4.3665147    4.3665147   -6784.2137    5922.2847   -14472.296    -11802.63   -21211.092    40274.732    9476.7476    83.253935 
   95000    1537.2544   -109.81757    1.3909401   -108.42663     6862.288    4.3648101    4.3648101    4.3648101     6862.288    8063.3395    539.17512    11984.349    2523.0695     11658.35   -4721.5796    83.156471 
   95100       1587.3   -109.86481    1.4362224   -108.42858    2379.8917    4.3618365    4.3618365    4.3618365    2379.8917    9076.6967   -13843.285    11906.263   -10063.794   -163.19857    4079.1326    82.986632 
   95200    377.15494   -108.78748   0.34125771   -108.44622   -14685.734    4.3668212    4.3668212    4.3668212   -14685.734   -34229.709    -22982.59    13155.098   -20609.313    45389.248     13400.28    83.271468 
   95300    1528.5285   -109.80818    1.3830447   -108.42514    7290.3298    4.3636022    4.3636022    4.3636022    7290.3298    13769.826   -10563.515    18664.678    7133.5022    -7206.867   -1806.4663    83.087458 
   95400    992.15393   -109.32922   0.89772173    -108.4315   -7562.0379    4.3681892    4.3681892    4.3681892   -7562.0379    -23919.95   -1527.0855    2760.9218   -7411.4655    16270.574   -3340.2314    83.349753 
   95500     657.0378   -109.02714   0.59450161   -108.43264   -15187.499    4.3687248    4.3687248    4.3687248   -15187.499    -29690.09   -8419.3736   -7453.0321   -17702.409    39257.658    13381.478    83.380419 
   95600    1673.3913   -109.92897    1.5141196   -108.41485    22680.353    4.3572328    4.3572328    4.3572328    22680.353    27958.766    14244.822    25837.472     4736.985   -15453.696   -6433.4535    82.724143 
   95700    945.62748   -109.28901   0.85562361   -108.43339   -17482.765    4.3688243    4.3688243    4.3688243   -17482.765    -39444.54    15244.554    -28248.31    -8173.441    40623.721   -3005.3259    83.386116 
   95800    1077.6986   -109.40713   0.97512436     -108.432   -10468.972    4.3658766    4.3658766    4.3658766   -10468.972   -20697.029   -9183.3472   -1526.5386     -12683.2     18040.65    3428.7007    83.217444 
   95900    1491.4484   -109.76963    1.3494939   -108.42013    9854.4918    4.3590832    4.3590832    4.3590832    9854.4918    20601.648   -2915.4881    11877.316    4594.6467   -8280.6584   -18053.757    82.829584 
   96000    511.78917   -108.89694    0.4630776   -108.43386   -21799.142    4.3697713    4.3697713    4.3697713   -21799.142   -39349.844    574.19476   -26621.776   -18056.957    53468.537    5851.6419     83.44035 
   96100    1108.6054   -109.42938    1.0030895    -108.4263   -3413.5278    4.3602143    4.3602143    4.3602143   -3413.5278   -12232.383   -25899.178    27890.978   -14340.844   -2745.3322    1973.3947     82.89408 
   96200    1193.4003   -109.50287    1.0798137   -108.42306   -610.53849    4.3638138    4.3638138    4.3638138   -610.53849    6532.3699   -11427.096    3063.1106    11852.761    7234.2498    -19152.67     83.09954 
   96300    690.47264   -109.05838   0.62475416   -108.43362   -10060.067    4.3677752    4.3677752    4.3677752   -10060.067   -40184.911    22012.054   -12007.344   -16018.875    50107.463    960.17984     83.32606 
   96400    1566.3906   -109.83776    1.4173032   -108.42046    10794.761    4.3614248    4.3614248    4.3614248    10794.761    4265.2042    2281.6551    25837.424   -16283.165   -10451.019    3299.0028    82.963139 
   96500    1278.2949   -109.58104    1.1566281   -108.42441   -10318.248    4.3686376    4.3686376    4.3686376   -10318.248   -9424.5715   -3796.9535    -17733.22    2845.4216    15227.126   -16475.995    83.375422 
   96600    597.02506     -108.975   0.54020082    -108.4348    3113.8954    4.3605564    4.3605564    4.3605564    3113.8954   -20412.738    24744.444    5009.9799   -23097.155     40195.42   -2082.0204    82.913593 
   96700    1469.9895   -109.75361    1.3300774   -108.42353    8243.1279    4.3627882    4.3627882    4.3627882    8243.1279    24851.485   -14257.169    14135.068   -3688.3808   -9238.9466   -454.39866    83.040964 
   96800     977.6039   -109.31534   0.88455656   -108.43079   -10824.143    4.3708214    4.3708214    4.3708214   -10824.143   -7841.0748   -27158.977    2527.6221    1565.3101    17363.553   -16060.594    83.500519 
   96900    603.76981   -108.98167   0.54630362   -108.43537    7915.1242    4.3593779    4.3593779    4.3593779    7915.1242    10521.469   -2811.0618    16034.965   -36118.467    34044.252     5715.038    82.846382 
   97000    1727.3579   -109.98384    1.5629497   -108.42089     11622.92    4.3639987    4.3639987    4.3639987     11622.92    28635.011   -10683.099    16916.848    4248.3911   -13901.324    -3349.464    83.110106 
   97100      940.417   -109.28704   0.85090906   -108.43613     629.5974    4.3644522    4.3644522    4.3644522     629.5974    8722.4535   -10849.352    4015.6903   -6594.5449    22286.725   -17618.962    83.136019 
   97200    721.86971   -109.09151   0.65316288   -108.43835   -1538.5294     4.365223     4.365223     4.365223   -1538.5294   -5067.8695   -3017.4904    3469.7718    -32055.69    25192.386   -340.34073    83.180075 
   97300    1677.6473   -109.93711    1.5179706   -108.41913    8474.5194    4.3658193    4.3658193    4.3658193    8474.5194    20655.488   -2982.7986    7750.8685    12138.597   -13363.237   -4160.1697    83.214164 
   97400    595.09562   -108.97747   0.53845502   -108.43901   -1365.6367    4.3606633    4.3606633    4.3606633   -1365.6367   -4875.9334   -9857.4981    10636.521   -25109.843     27149.47   -6062.4487    82.919687 
   97500    842.42164   -109.20565    0.7622408   -108.44341     -13746.7    4.3660341    4.3660341    4.3660341     -13746.7   -28513.056    -16160.62    3433.5764   -29356.979    15297.331   -754.58777    83.226452 
   97600    1953.4053   -110.18991    1.7674822   -108.42242    11303.042     4.362406     4.362406     4.362406    11303.042    21346.015    766.22849    11796.884    13044.021   -5201.7503    2074.7723    83.019145 
   97700    634.77181   -109.01888   0.57435487   -108.44453   -7200.5274    4.3666592    4.3666592    4.3666592   -7200.5274    -45588.34   -15479.391    39466.148   -42342.309    26150.077   -7228.1266    83.262203 
   97800    1076.7103    -109.4089   0.97423007   -108.43467    -10255.79    4.3684389    4.3684389    4.3684389    -10255.79   -31309.371   -10417.289    10959.289   -20694.926     7336.871    1536.1969    83.364046 
   97900    1554.0937   -109.82544    1.4061767   -108.41927    16600.604    4.3596086    4.3596086    4.3596086    16600.604    3991.8477    13431.089    32378.876    9207.0642   -2951.5184    9066.9072    82.859537 
   98000    422.00694   -108.81901   0.38184075   -108.43717   -16784.565    4.3686002    4.3686002    4.3686002   -16784.565   -49710.873   -19506.852    18864.029   -50461.906    25481.705   -4905.0498    83.373286 
   98100    1284.9189    -109.5897    1.1626217   -108.42708    -6680.797    4.3665065    4.3665065    4.3665065    -6680.797   -3009.3796   -5881.1734   -11151.838   -2438.6108    2290.1979   -697.41313    83.253469 
   98200    1410.3182   -109.70027    1.2760856   -108.42419    5072.9697    4.3609406    4.3609406    4.3609406    5072.9697    2360.0135    3514.2343    9344.6612   -6298.5791   -4658.4488    7039.9392    82.935507 
   98300    750.67368   -109.11519   0.67922532   -108.43596   -13063.515    4.3671015    4.3671015    4.3671015   -13063.515   -26587.288   -23141.377     10538.12   -40766.408    31901.477    4319.7024    83.287506 
   98400     1615.778   -109.88394    1.4619899   -108.42195    6535.3101    4.3648826    4.3648826    4.3648826    6535.3101    8767.7506   -2487.3427    13325.523    12417.328   -7.3540724   -3254.4068    83.160619 
   98500    941.38598   -109.28089   0.85178581    -108.4291    5062.9565    4.3674133    4.3674133    4.3674133    5062.9565   -7404.6862   -4617.4253    27210.981   -31079.958    938.86702    8299.9979    83.305348 
   98600    844.15713   -109.19042   0.76381111   -108.42661   -6390.1458    4.3711741    4.3711741    4.3711741   -6390.1458   -15485.851   -5954.8196    2270.2329   -19783.839    23541.493   -3927.1816    83.520738 
   98700    1541.2187   -109.80659    1.3945271   -108.41207    12342.881    4.3608994    4.3608994    4.3608994    12342.881    16277.426    9643.8345    11107.383    12618.437   -4970.3415    1479.1171    82.933159 
   98800    844.09935   -109.19066   0.76375883    -108.4269    3441.4775    4.3633787    4.3633787    4.3633787    3441.4775    325.80681    9514.3132    484.31259    -38241.63     7744.565    12458.756    83.074688 
   98900    1123.0984   -109.44171     1.016203   -108.42551   -6331.3089    4.3679952    4.3679952    4.3679952   -6331.3089   -10984.583    6665.0623   -14674.406   -181.50802    22708.222   -7006.2926    83.338651 
   99000    1311.7906   -109.60648    1.1869357   -108.41954    15011.059    4.3587618    4.3587618    4.3587618    15011.059    9082.7627    16035.257    19915.156    4870.2795   -7807.2343    2007.7105    82.811264 
   99100    780.17102   -109.13579   0.70591514   -108.42987   -1108.2962    4.3675822    4.3675822    4.3675822   -1108.2962   -13688.398    18844.285   -8480.7754   -30982.993    15037.266    9059.0859    83.315015 
   99200     1166.787   -109.47588    1.0557334   -108.42015   -11195.545    4.3706197    4.3706197    4.3706197   -11195.545   -22432.009     7225.511   -18380.137     7288.237    26759.519   -373.92974    83.488964 
   99300    1166.8224    -109.4724    1.0557654   -108.41663     14752.29    4.3583336    4.3583336    4.3583336     14752.29   -5765.5252    16847.281    33175.115   -169.28903   -14568.181   -84.999318    82.786862 
   99400     828.6835   -109.17643   0.74981025   -108.42662   -7151.3365    4.3658972    4.3658972    4.3658972   -7151.3365   -33842.104    19234.856   -6846.7615   -21066.894    28995.895     5480.214    83.218623 
   99500    1322.7642   -109.62071    1.1968649   -108.42385   -4506.5373    4.3647022    4.3647022    4.3647022   -4506.5373   -18267.721    11062.947   -6314.8372    8547.1453    29083.428   -5245.6602    83.150304 
   99600    1383.9284   -109.67462    1.2522075   -108.42241    12923.615    4.3606814    4.3606814    4.3606814    12923.615   -3483.6827    15555.339    26699.189     -3254.99   -16508.807   -1587.6627     82.92072 
   99700    714.57243   -109.07903   0.64656016   -108.43247   -10290.472    4.3724092    4.3724092    4.3724092   -10290.472   -46244.122    44193.282   -28820.574   -22652.058     44824.83    6772.9996    83.591553 
   99800    1511.4849   -109.78354    1.3676233   -108.41592   -364.04994    4.3672672    4.3672672    4.3672672   -364.04994   -16914.348    16017.647    -195.4484    8668.2335    5062.8926   -16825.814    83.296987 
   99900    1039.7357   -109.36152   0.94077473   -108.42075    10826.361    4.3595422    4.3595422    4.3595422    10826.361   -7484.6636    18729.007     21234.74   -9260.2758    1803.3012    13747.601    82.855751 
  100000    582.03684   -108.95977   0.52663917   -108.43313   -12337.993    4.3668538    4.3668538    4.3668538   -12337.993   -47560.657     21474.24   -10927.561   -10333.446     47237.01    8320.5298    83.273337 
Loop time of 22.8942 on 1 procs for 100000 steps with 8 atoms

Pair  time (%) = 7.04056 (30.7526)
Kspce time (%) = 5.58602 (24.3993)
Neigh time (%) = 0.00941873 (0.0411403)
Comm  time (%) = 1.10269 (4.81648)
Outpt time (%) = 0.042119 (0.183973)
Other time (%) = 9.11338 (39.8065)

Nlocal:    8 ave 8 max 8 min
Histogram: 1 0 0 0 0 0 0 0 0 0
Nghost:    2147 ave 2147 max 2147 min
Histogram: 1 0 0 0 0 0 0 0 0 0
Neighs:    2053 ave 2053 max 2053 min
Histogram: 1 0 0 0 0 0 0 0 0 0

Total # of neighbors = 2053
Ave neighs/atom = 256.625
Neighbor list builds = 108
Dangerous builds = 0
seeds:5881119
