# ['Ni']

20 atoms
1 atom types

    0.0000     3.2590 xlo xhi
    0.0000     3.2590 ylo yhi
    0.0000    32.5898 zlo zhi

    0.0000    -0.0000     0.0000 xy xz yz

Atoms

1 1     0.0000     0.0000     0.0000
2 1     1.6295     1.6295     0.0000
3 1     1.6295     0.0000     1.6295
4 1     0.0000     1.6295     1.6295
5 1     0.0000     0.0000     3.2590
6 1     1.6295     1.6295     3.2590
7 1     1.6295     0.0000     4.8885
8 1     0.0000     1.6295     4.8885
9 1     0.0000     0.0000     6.5180
10 1     1.6295     1.6295     6.5180
11 1     1.6295     0.0000     8.1475
12 1     0.0000     1.6295     8.1475
13 1     0.0000     0.0000     9.7769
14 1     1.6295     1.6295     9.7769
15 1     1.6295     0.0000    11.4064
16 1     0.0000     1.6295    11.4064
17 1     0.0000     0.0000    13.0359
18 1     1.6295     1.6295    13.0359
19 1     1.6295     0.0000    14.6654
20 1     0.0000     1.6295    14.6654
