# ['Ni']

107 atoms
1 atom types

    0.0000    10.5476 xlo xhi
    0.0000    10.5476 ylo yhi
    0.0000    10.5476 zlo zhi

    0.0000    -0.0000    -0.0000 xy xz yz

Atoms

1 1     1.7579     1.7579     0.0000
2 1     1.7579     0.0000     1.7579
3 1     0.0000     1.7579     1.7579
4 1     0.0000     0.0000     3.5159
5 1     1.7579     1.7579     3.5159
6 1     1.7579     0.0000     5.2738
7 1     0.0000     1.7579     5.2738
8 1     0.0000     0.0000     7.0318
9 1     1.7579     1.7579     7.0318
10 1     1.7579     0.0000     8.7897
11 1     0.0000     1.7579     8.7897
12 1     0.0000     3.5159     0.0000
13 1     1.7579     5.2738     0.0000
14 1     1.7579     3.5159     1.7579
15 1     0.0000     5.2738     1.7579
16 1     0.0000     3.5159     3.5159
17 1     1.7579     5.2738     3.5159
18 1     1.7579     3.5159     5.2738
19 1     0.0000     5.2738     5.2738
20 1     0.0000     3.5159     7.0318
21 1     1.7579     5.2738     7.0318
22 1     1.7579     3.5159     8.7897
23 1     0.0000     5.2738     8.7897
24 1     0.0000     7.0318     0.0000
25 1     1.7579     8.7897     0.0000
26 1     1.7579     7.0318     1.7579
27 1     0.0000     8.7897     1.7579
28 1     0.0000     7.0318     3.5159
29 1     1.7579     8.7897     3.5159
30 1     1.7579     7.0318     5.2738
31 1     0.0000     8.7897     5.2738
32 1     0.0000     7.0318     7.0318
33 1     1.7579     8.7897     7.0318
34 1     1.7579     7.0318     8.7897
35 1     0.0000     8.7897     8.7897
36 1     3.5159     0.0000     0.0000
37 1     5.2738     1.7579     0.0000
38 1     5.2738     0.0000     1.7579
39 1     3.5159     1.7579     1.7579
40 1     3.5159     0.0000     3.5159
41 1     5.2738     1.7579     3.5159
42 1     5.2738     0.0000     5.2738
43 1     3.5159     1.7579     5.2738
44 1     3.5159     0.0000     7.0318
45 1     5.2738     1.7579     7.0318
46 1     5.2738     0.0000     8.7897
47 1     3.5159     1.7579     8.7897
48 1     3.5159     3.5159     0.0000
49 1     5.2738     5.2738     0.0000
50 1     5.2738     3.5159     1.7579
51 1     3.5159     5.2738     1.7579
52 1     3.5159     3.5159     3.5159
53 1     5.2738     5.2738     3.5159
54 1     5.2738     3.5159     5.2738
55 1     3.5159     5.2738     5.2738
56 1     3.5159     3.5159     7.0318
57 1     5.2738     5.2738     7.0318
58 1     5.2738     3.5159     8.7897
59 1     3.5159     5.2738     8.7897
60 1     3.5159     7.0318     0.0000
61 1     5.2738     8.7897     0.0000
62 1     5.2738     7.0318     1.7579
63 1     3.5159     8.7897     1.7579
64 1     3.5159     7.0318     3.5159
65 1     5.2738     8.7897     3.5159
66 1     5.2738     7.0318     5.2738
67 1     3.5159     8.7897     5.2738
68 1     3.5159     7.0318     7.0318
69 1     5.2738     8.7897     7.0318
70 1     5.2738     7.0318     8.7897
71 1     3.5159     8.7897     8.7897
72 1     7.0318     0.0000     0.0000
73 1     8.7897     1.7579     0.0000
74 1     8.7897     0.0000     1.7579
75 1     7.0318     1.7579     1.7579
76 1     7.0318     0.0000     3.5159
77 1     8.7897     1.7579     3.5159
78 1     8.7897     0.0000     5.2738
79 1     7.0318     1.7579     5.2738
80 1     7.0318     0.0000     7.0318
81 1     8.7897     1.7579     7.0318
82 1     8.7897     0.0000     8.7897
83 1     7.0318     1.7579     8.7897
84 1     7.0318     3.5159     0.0000
85 1     8.7897     5.2738     0.0000
86 1     8.7897     3.5159     1.7579
87 1     7.0318     5.2738     1.7579
88 1     7.0318     3.5159     3.5159
89 1     8.7897     5.2738     3.5159
90 1     8.7897     3.5159     5.2738
91 1     7.0318     5.2738     5.2738
92 1     7.0318     3.5159     7.0318
93 1     8.7897     5.2738     7.0318
94 1     8.7897     3.5159     8.7897
95 1     7.0318     5.2738     8.7897
96 1     7.0318     7.0318     0.0000
97 1     8.7897     8.7897     0.0000
98 1     8.7897     7.0318     1.7579
99 1     7.0318     8.7897     1.7579
100 1     7.0318     7.0318     3.5159
101 1     8.7897     8.7897     3.5159
102 1     8.7897     7.0318     5.2738
103 1     7.0318     8.7897     5.2738
104 1     7.0318     7.0318     7.0318
105 1     8.7897     8.7897     7.0318
106 1     8.7897     7.0318     8.7897
107 1     7.0318     8.7897     8.7897
