LAMMPS (11 Aug 2017)
# ---- initialize simulations
clear
units metal
dimension 3
boundary p p p
atom_style atomic
atom_modify map array
# ---- create atoms
read_data /ufrc/phillpot/eragasa/pareto_optimization_3.5NN/rank_39/Ni_dia.lmps_min_all/lammps.structure
  triclinic box = (0 0 0) to (4.8791 4.8791 4.8791) with tilt (0 0 0)
  1 by 1 by 1 MPI processor grid
  reading atoms ...
  8 atoms
# ---- define interatomic potential
include potential.mod
mass 1 58.6934

group Ni type 1
8 atoms in group Ni

pair_style eam/alloy
pair_coeff * * /ufrc/phillpot/eragasa/pareto_optimization_3.5NN/rank_39/Ni_dia.lmps_min_all/Ni.eam.alloy Ni

neighbor 1.0 bin
neigh_modify every 1 delay 0 check yes
# ---- define settings
compute eng all pe/atom
compute eatoms all reduce sum c_eng
# ---- run minimization
reset_timestep 0
fix 1 all box/relax aniso 0.0 vmax 0.001
thermo 10
thermo_style custom step pe xhi xlo yhi ylo zhi xy xz yz press pxx pyy pzz pxy pxz pyz c_eatoms
min_style cg
minimize 1e-25 1e-25 5000 10000
Neighbor list info ...
  update every 1 steps, delay 0 steps, check yes
  max neighbors/atom: 2000, page size: 100000
  master list distance cutoff = 5.64464
  ghost atom cutoff = 5.64464
  binsize = 2.82232, bins = 2 2 2
  1 neighbor lists, perpetual/occasional/extra = 1 0 0
  (1) pair eam/alloy, perpetual
      attributes: half, newton on
      pair build: half/bin/newton/tri
      stencil: half/bin/3d/newton/tri
      bin: standard
Per MPI rank memory allocation (min/avg/max) = 4.21 | 4.21 | 4.21 Mbytes
Step PotEng Xhi Xlo Yhi Ylo Zhi Xy Xz Yz Press Pxx Pyy Pzz Pxy Pxz Pyz c_eatoms 
       0   -31.801908       4.8791            0       4.8791            0       4.8791            0            0            0    78925.436    78925.436    78925.436    78925.436   -29.362942   -29.362942   -29.362942   -31.801908 
      10   -31.928951    4.9034955   -0.0243955    4.9034955   -0.0243955    4.9034955            0            0            0    37924.854    37924.854    37924.854    37924.854   -24.011305   -24.011305   -24.011305   -31.928951 
      20   -31.973432     4.927891    -0.048791     4.927891    -0.048791     4.927891            0            0            0     2814.724     2814.724     2814.724     2814.724   -17.061441   -17.061441   -17.061441   -31.973432 
      30    -31.97371    4.9300246 -0.050924553    4.9300246 -0.050924553    4.9300246            0            0            0 0.00012143035 0.00012147751 0.0001214776 0.00012133595 -2.7602956e-05 -2.7620008e-05 -2.7617091e-05    -31.97371 
      40   -32.051369    4.9495972 -0.070497223    4.9495972 -0.070497246    4.9495579            0            0            0   -32292.594   -32290.996   -32290.996   -32295.789    2717.3601    2717.3899    2717.3762   -32.051369 
      50   -32.324006    4.9447231 -0.065623117    4.9447232 -0.065623161    4.9446429            0            0            0   -48583.465   -48580.851   -48580.853   -48588.692    8908.6469    8908.2613    8908.2366   -32.324006 
      60   -32.414292     4.920335 -0.041234982     4.920335 -0.041235025    4.9202474            0            0            0    -21075.22   -21071.547   -21071.548   -21082.564    9869.6893    9869.1517    9869.1251   -32.414292 
      70   -32.608495    4.8961283  -0.01702834    4.8961284 -0.017028401    4.8958519            0            0            0   -748.12178   -734.33502   -734.32837   -775.70196    6388.7607    6385.5804    6385.5705   -32.608495 
      80   -33.098199    4.8736676  0.005432352    4.8736681 0.0054319465    4.8714564            0            0            0   -1820.1391    -1715.994   -1715.9373   -2028.4859     7767.199    7727.0027    7727.0067   -33.098199 
      90   -33.578761    4.8543801  0.024719922    4.8543814  0.024718591    4.8470609            0            0            0   -2737.1075   -2418.8376   -2418.6638   -3373.8211    10908.544    10734.354    10734.382   -33.578761 
     100   -34.039836    4.8383684  0.040731576    4.8383713  0.040728722    4.8226654            0            0            0   -3414.2291    -2779.822   -2779.4736   -4683.3916    14274.504    13816.531    13816.609   -34.039836 
     110   -34.485529    4.8250827  0.054017279    4.8250876  0.054012404    4.7982699            0            0            0   -3974.5751   -2982.8613   -2982.3136   -5958.5505    17765.741    16853.741    16853.895   -34.485529 
     120   -34.921286    4.8138071  0.065292919    4.8138144   0.06528565    4.7738744            0            0            0   -4426.1766   -3087.8797   -3087.1361    -7103.514    21290.223    19700.379    19700.645   -34.921286 
     130   -35.352696    4.8039807  0.075119261    4.8039906  0.075109388    4.7494789            0            0            0   -4759.1871   -3039.0476   -3038.1666   -8200.3471    24803.757    22374.487    22374.886   -35.352696 
     140   -35.769511    4.7958986  0.083201433     4.795911  0.083189014    4.7250834            0            0            0   -4899.0376   -2808.0916   -2807.1435   -9081.8775    28199.477    24687.822    24688.341   -35.769511 
     150   -36.179045    4.7890145  0.090085523    4.7890293  0.090070704    4.7006879            0            0            0   -4863.6596   -2601.9781   -2601.1015   -9387.8992     31325.03    26575.604    26576.287   -36.179045 
     160   -36.601506    4.7824697  0.096630291    4.7824866   0.09661342    4.6762924            0            0            0   -4576.2551   -2574.5358   -2573.9244    -8580.305    34128.651    27963.912    27964.779   -36.601506 
     170   -37.090823    4.7740359   0.10506407     4.774054   0.10504599    4.6518969            0            0            0   -3881.9749   -2960.9375   -2960.9163   -5724.0708    36437.406    28752.333    28753.361   -37.090823 
     180   -37.788228    4.7534329   0.12566706    4.7534493   0.12565069    4.6378078            0            0            0    -2353.197   -4382.8242   -4383.4703    1706.7036    35326.729    27180.457    27181.596   -37.788228 
     190   -38.163045    4.7292983   0.14980168    4.7293093   0.14979074    4.6571411            0            0            0   -1180.6995   -3841.1566   -3842.3501    4141.4083    28450.936    22999.133    22999.819   -38.163045 
     200   -38.372843    4.7092297   0.16987031    4.7092336   0.16986636    4.6815366            0            0            0   -377.43349   -1523.6101   -1524.2016    1915.5112    18807.519    16879.266    16879.291   -38.372843 
     210   -38.498948    4.6998663    0.1792337    4.6998668   0.17923319    4.6940631            0            0            0   -3508.2061    -3609.701   -3609.7333    -3305.184     7477.758    6823.7496    6823.7146   -38.498948 
     220   -38.550672    4.6976585   0.18144152    4.6976586   0.18144138    4.6952347            0            0            0   -4793.1594    -4821.402   -4821.4129   -4736.6634    2099.1186    1206.0354    1206.0828   -38.550672 
     230   -38.633224      4.69214   0.18695996      4.69214   0.18695995    4.6901886            0            0            0    2805.3332    2879.4553    2879.4309    2657.1133   -4743.8849   -6273.4364    -6273.308   -38.633224 
     240   -38.738096    4.6908197   0.18828034    4.6908198   0.18828022    4.6828937            0            0            0    2033.0085     2211.317    2211.1086    1676.5998   -2850.1168   -5013.1775   -5012.9762   -38.738096 
     250   -39.009918    4.6906008    0.1884992       4.6906       0.1885    4.6726442            0            0            0   -12586.936   -12395.244   -12395.276   -12970.288   -465.79807   -3858.2252   -3857.9196   -39.009918 
     260   -39.262242    4.6837192   0.19538077     4.683718   0.19538196    4.6587938            0            0            0    -10157.08    -9873.531   -9873.5802    -10724.13    1313.0093   -3328.5424   -3328.1341   -39.262242 
     270   -39.699903    4.6701588    0.2089412     4.670157   0.20894298    4.6343983            0            0            0   -484.04646   -73.218937   -73.278678   -1305.6418    4821.2118   -2099.5519   -2098.9202   -39.699903 
     280   -40.268603    4.6590462   0.22005377    4.6590438   0.22005621    4.6100028            0            0            0    -3271.004   -2669.2141   -2669.2878     -4474.51    9505.1043   -134.96545   -134.12942   -40.268603 
     290   -40.820848    4.6484165    0.2306835    4.6484137   0.23068627    4.5856073            0            0            0   -2631.0008   -1808.0075   -1808.0768   -4276.9182    14746.631    2268.0783    2269.3028   -40.820848 
     300   -41.345374     4.640436   0.23866397    4.6404331   0.23866693    4.5612118            0            0            0   -2365.4177   -1217.1763   -1217.1603   -4661.9167    20231.668    4980.6352    4982.2666   -41.345374 
     310   -41.795785    4.6361012   0.24299883    4.6360981   0.24300191    4.5368163            0            0            0   -1986.1194   -463.26201   -463.29932   -5031.7968    25172.814    7507.5371    7509.7917   -41.795785 
     320    -42.15633    4.6356559   0.24344414    4.6356526   0.24344739    4.5124208            0            0            0   -1483.2086     352.8571    352.77628   -5155.2592    29047.764    9583.3985    9586.4843    -42.15633 
     330   -42.430917    4.6386465   0.24045355    4.6386428   0.24045719    4.4880253            0            0            0   -1020.9591    1014.9107    1014.7949   -5092.5829    31436.651     10914.75     10918.88   -42.430917 
     340   -42.642028    4.6441307   0.23496932    4.6441265   0.23497352    4.4636298            0            0            0   -665.88855    1385.0748    1384.9492   -4767.6896    32119.894    11388.006     11393.29   -42.642028 
     350   -42.812805    4.6512538   0.22784617     4.651249   0.22785096    4.4392343            0            0            0   -430.15324    1530.1903    1530.0717   -4350.7217    31163.419    10953.715    10960.196   -42.812805 
     360   -42.960343    4.6593365   0.21976351    4.6593311    0.2197689    4.4148388            0            0            0   -296.00797    1540.0899    1540.0027   -3968.1165    28753.441    9686.7512    9694.2212   -42.960343 
     370   -43.095904    4.6679866   0.21111344    4.6679809   0.21111913    4.3904433            0            0            0   -205.16194    1517.6493    1517.6098   -3650.7449    25346.506    7823.2507    7831.4761   -43.095904 
     380   -43.226915    4.6770497    0.2020503    4.6770439   0.20205614    4.3660478            0            0            0   -183.48289    1446.5675    1446.5966   -3443.6127    21430.805    5694.8836    5703.4352   -43.226915 
     390   -43.362166    4.6874755   0.19162455    4.6874697   0.19163034    4.3416523            0            0            0   -3108.4148    -1413.807   -1413.9115    -6497.526    17241.014    3570.2734    3578.4769   -43.362166 
     400   -43.488982    4.6964769   0.18262314     4.696471   0.18262895     4.317564            0            0            0    -1789.946   -197.54949   -197.52472   -4974.7638    13766.025    2054.6145    2062.1816   -43.488982 
     410   -43.615607    4.7063805   0.17271949     4.706375   0.17272502    4.2943211            0            0            0   -3355.1173   -1696.9042   -1696.8978   -6671.5499    10702.351    1210.0086    1216.5984   -43.615607 
     420   -43.737919    4.7155503   0.16354973    4.7155452   0.16355476    4.2711933            0            0            0   -1923.2037   -377.01844   -376.96229   -5015.6304    8359.5261    972.39361    977.83164   -43.737919 
     430   -43.857752     4.725589   0.15351097    4.7255847   0.15351533      4.24963            0            0            0   -3593.9834   -2015.0328   -2014.9781   -6751.9393    6507.5086    1118.0218    1122.2846   -43.857752 
     440   -43.975559    4.7354472   0.14365284    4.7354436   0.14365636    4.2275919            0            0            0   -2928.3697    -1447.107   -1447.0181    -5890.984    5066.7452    1366.4748    1369.5717   -43.975559 
     450   -44.082822    4.7452804   0.13381961    4.7452778   0.13382219    4.2075228            0            0            0   -3470.2456   -2026.7846   -2026.6889   -6357.2633    3950.6558    1481.7847    1483.8548   -44.082822 
     460   -44.180939    4.7547902   0.12430977    4.7547886   0.12431142    4.1885867            0            0            0   -3561.3516   -2190.3758   -2190.2811   -6303.3979    3004.9428    1381.2535    1382.5074   -44.180939 
     470   -44.271768    4.7641426   0.11495742    4.7641418   0.11495819    4.1705196            0            0            0   -3570.4604   -2338.3809   -2338.3311   -6034.6692    2137.5873    1104.3301    1104.9962   -44.271768 
     480   -44.353225    4.7730101   0.10608986      4.77301   0.10609002    4.1541747            0            0            0   -4189.0992   -3081.4842   -3081.4429   -6404.3703    1361.2458    753.32436    753.62494   -44.353225 
     490   -44.423924    4.7813168   0.09778321     4.781317  0.097782992    4.1393886            0            0            0   -4846.1068   -3915.6448   -3915.6378   -6707.0379    738.95391    427.25542    427.37021   -44.423924 
     500   -44.487763    4.7891081   0.08999192    4.7891084  0.089991592    4.1245214            0            0            0   -3256.6609   -2676.7806   -2676.7975   -4416.4047    269.05946    157.25127    157.27535   -44.487763 
     510   -44.532538    4.7952335  0.083866545    4.7952336  0.083866391    4.1132605            0            0            0   -2165.1178   -1907.8751   -1907.8577   -2679.6207     39.52811    22.698904    22.700466   -44.532538 
     520   -44.552829    4.7979313  0.081168734    4.7979829  0.081117149    4.1073069            0            0            0    3.8106153    58.218419   -8.5401186   -38.246455 0.00028559138 -4.660646e-05 -4.6997795e-05   -44.552829 
     530   -44.552829    4.7980109  0.081089074    4.7980102  0.081089824    4.1072335            0            0            0  -0.14505788    -0.611778   0.35925307  -0.18264871 4.9578786e-08 -1.1678496e-07 -1.1675002e-07   -44.552829 
     540   -44.552829    4.7980106   0.08108944    4.7980106  0.081089443    4.1072335            0            0            0 0.0018666035 -0.00060748613 0.0034846217 0.0027226748 1.0452968e-10 1.3108344e-12 9.7675886e-11   -44.552829 
     550   -44.552829    4.7980106  0.081089442    4.7980106  0.081089442    4.1072335            0            0            0 -4.7447404e-08 -1.5895999e-07 -1.5788558e-07 1.7450336e-07 -6.7039814e-12 2.5130567e-11 1.040428e-10   -44.552829 
     553   -44.552829    4.7980106  0.081089442    4.7980106  0.081089442    4.1072335            0            0            0 2.8521009e-09 2.4713347e-09 3.0776893e-09 3.0072787e-09 9.5541098e-11 -5.2789172e-11 -9.370593e-11   -44.552829 
Loop time of 0.017174 on 1 procs for 553 steps with 8 atoms

96.4% CPU use with 1 MPI tasks x no OpenMP threads

Minimization stats:
  Stopping criterion = energy tolerance
  Energy initial, next-to-last, final = 
        -31.8019079251     -44.5528292735     -44.5528292735
  Force two-norm initial, final = 9.91029 2.89229e-13
  Force max component initial, final = 5.72171 2.03761e-13
  Final line search alpha, max atom move = 1 2.03761e-13
  Iterations, force evaluations = 553 602

MPI task timing breakdown:
Section |  min time  |  avg time  |  max time  |%varavg| %total
---------------------------------------------------------------
Pair    | 0.010414   | 0.010414   | 0.010414   |   0.0 | 60.64
Neigh   | 0.00021243 | 0.00021243 | 0.00021243 |   0.0 |  1.24
Comm    | 0.001168   | 0.001168   | 0.001168   |   0.0 |  6.80
Output  | 0.0015614  | 0.0015614  | 0.0015614  |   0.0 |  9.09
Modify  | 0          | 0          | 0          |   0.0 |  0.00
Other   |            | 0.003818   |            |       | 22.23

Nlocal:    8 ave 8 max 8 min
Histogram: 1 0 0 0 0 0 0 0 0 0
Nghost:    384 ave 384 max 384 min
Histogram: 1 0 0 0 0 0 0 0 0 0
Neighs:    311 ave 311 max 311 min
Histogram: 1 0 0 0 0 0 0 0 0 0

Total # of neighbors = 311
Ave neighs/atom = 38.875
Neighbor list builds = 7
Dangerous builds = 0
# ---- define output variables ----
variable natoms equal "count(all)"
variable tot_energy equal "c_eatoms"
variable a11 equal "xhi-xlo"
variable a22 equal "yhi-ylo"
variable a33 equal "zhi-zlo"
variable tilt_xy equal "xy"
variable tilt_xz equal "xz"
variable tilt_yz equal "yz"
variable tot_press equal "press"
variable press_xx equal "pxx"
variable press_yy equal "pyy"
variable press_zz equal "pzz"
variable press_xy equal "pxy"
variable press_xz equal "pxz"
variable press_yz equal "pyz"

# ---- output ----
print "pypospack:output_section:begin"
pypospack:output_section:begin
print "tot_energy = ${tot_energy}"
tot_energy = -44.5528292734869
print "num_atoms = ${natoms}"
num_atoms = 8
print "a11 = ${a11}"
a11 = 4.71692111655217
print "a22 = ${a22}"
a22 = 4.71692111655217
print "a33 = ${a33}"
a33 = 3.33536690783606
print "a12 = ${tilt_xy}"
a12 = 0
print "a13 = ${tilt_xz}"
a13 = 0
print "a23 = ${tilt_yz}"
a23 = 0
print "tot_press = ${tot_press}"
tot_press = 2.85210090685643e-09
print "pxx = ${press_xx}"
pxx = 2.47133473688593e-09
print "pyy = ${press_yy}"
pyy = 3.07768925739305e-09
print "pzz = ${press_zz}"
pzz = 3.00727872629031e-09
print "pxy = ${press_xy}"
pxy = 9.55410983207953e-11
print "pxz = ${press_xz}"
pxz = -5.27891721219761e-11
print "pyz = ${press_yz}"
pyz = -9.37059302229047e-11
print "pypospack:output_section:done"
pypospack:output_section:done
print "pypospack:lammps_sim:done"
pypospack:lammps_sim:done
Total wall time: 0:00:00
