# ['Mg', 'O']

214 atoms
2 atom types

    0.0000    12.3195 xlo xhi
    0.0000    12.3195 ylo yhi
    0.0000    12.3195 zlo zhi

    0.0000     0.0000     0.0000 xy xz yz

Atoms

1 1     1.0000     2.0533     2.0533     0.0000
2 1     1.0000     2.0533     0.0000     2.0533
3 1     1.0000     0.0000     0.0000     0.0000
4 1     1.0000     0.0000     2.0533     2.0533
5 1     1.0000     2.0533     2.0533     4.1065
6 1     1.0000     2.0533     0.0000     6.1598
7 1     1.0000     0.0000     0.0000     4.1065
8 1     1.0000     0.0000     2.0533     6.1598
9 1     1.0000     2.0533     2.0533     8.2130
10 1     1.0000     2.0533     0.0000    10.2663
11 1     1.0000     0.0000     0.0000     8.2130
12 1     1.0000     0.0000     2.0533    10.2663
13 1     1.0000     2.0533     6.1598     0.0000
14 1     1.0000     2.0533     4.1065     2.0533
15 1     1.0000     0.0000     4.1065     0.0000
16 1     1.0000     0.0000     6.1598     2.0533
17 1     1.0000     2.0533     6.1598     4.1065
18 1     1.0000     2.0533     4.1065     6.1598
19 1     1.0000     0.0000     4.1065     4.1065
20 1     1.0000     0.0000     6.1598     6.1598
21 1     1.0000     2.0533     6.1598     8.2130
22 1     1.0000     2.0533     4.1065    10.2663
23 1     1.0000     0.0000     4.1065     8.2130
24 1     1.0000     0.0000     6.1598    10.2663
25 1     1.0000     2.0533    10.2663     0.0000
26 1     1.0000     2.0533     8.2130     2.0533
27 1     1.0000     0.0000     8.2130     0.0000
28 1     1.0000     0.0000    10.2663     2.0533
29 1     1.0000     2.0533    10.2663     4.1065
30 1     1.0000     2.0533     8.2130     6.1598
31 1     1.0000     0.0000     8.2130     4.1065
32 1     1.0000     0.0000    10.2663     6.1598
33 1     1.0000     2.0533    10.2663     8.2130
34 1     1.0000     2.0533     8.2130    10.2663
35 1     1.0000     0.0000     8.2130     8.2130
36 1     1.0000     0.0000    10.2663    10.2663
37 1     1.0000     6.1598     2.0533     0.0000
38 1     1.0000     6.1598     0.0000     2.0533
39 1     1.0000     4.1065     0.0000     0.0000
40 1     1.0000     4.1065     2.0533     2.0533
41 1     1.0000     6.1598     2.0533     4.1065
42 1     1.0000     6.1598     0.0000     6.1598
43 1     1.0000     4.1065     0.0000     4.1065
44 1     1.0000     4.1065     2.0533     6.1598
45 1     1.0000     6.1598     2.0533     8.2130
46 1     1.0000     6.1598     0.0000    10.2663
47 1     1.0000     4.1065     0.0000     8.2130
48 1     1.0000     4.1065     2.0533    10.2663
49 1     1.0000     6.1598     6.1598     0.0000
50 1     1.0000     6.1598     4.1065     2.0533
51 1     1.0000     4.1065     4.1065     0.0000
52 1     1.0000     4.1065     6.1598     2.0533
53 1     1.0000     6.1598     6.1598     4.1065
54 1     1.0000     6.1598     4.1065     6.1598
55 1     1.0000     4.1065     6.1598     6.1598
56 1     1.0000     6.1598     6.1598     8.2130
57 1     1.0000     6.1598     4.1065    10.2663
58 1     1.0000     4.1065     4.1065     8.2130
59 1     1.0000     4.1065     6.1598    10.2663
60 1     1.0000     6.1598    10.2663     0.0000
61 1     1.0000     6.1598     8.2130     2.0533
62 1     1.0000     4.1065     8.2130     0.0000
63 1     1.0000     4.1065    10.2663     2.0533
64 1     1.0000     6.1598    10.2663     4.1065
65 1     1.0000     6.1598     8.2130     6.1598
66 1     1.0000     4.1065     8.2130     4.1065
67 1     1.0000     4.1065    10.2663     6.1598
68 1     1.0000     6.1598    10.2663     8.2130
69 1     1.0000     6.1598     8.2130    10.2663
70 1     1.0000     4.1065     8.2130     8.2130
71 1     1.0000     4.1065    10.2663    10.2663
72 1     1.0000    10.2663     2.0533     0.0000
73 1     1.0000    10.2663     0.0000     2.0533
74 1     1.0000     8.2130     0.0000     0.0000
75 1     1.0000     8.2130     2.0533     2.0533
76 1     1.0000    10.2663     2.0533     4.1065
77 1     1.0000    10.2663     0.0000     6.1598
78 1     1.0000     8.2130     0.0000     4.1065
79 1     1.0000     8.2130     2.0533     6.1598
80 1     1.0000    10.2663     2.0533     8.2130
81 1     1.0000    10.2663     0.0000    10.2663
82 1     1.0000     8.2130     0.0000     8.2130
83 1     1.0000     8.2130     2.0533    10.2663
84 1     1.0000    10.2663     6.1598     0.0000
85 1     1.0000    10.2663     4.1065     2.0533
86 1     1.0000     8.2130     4.1065     0.0000
87 1     1.0000     8.2130     6.1598     2.0533
88 1     1.0000    10.2663     6.1598     4.1065
89 1     1.0000    10.2663     4.1065     6.1598
90 1     1.0000     8.2130     4.1065     4.1065
91 1     1.0000     8.2130     6.1598     6.1598
92 1     1.0000    10.2663     6.1598     8.2130
93 1     1.0000    10.2663     4.1065    10.2663
94 1     1.0000     8.2130     4.1065     8.2130
95 1     1.0000     8.2130     6.1598    10.2663
96 1     1.0000    10.2663    10.2663     0.0000
97 1     1.0000    10.2663     8.2130     2.0533
98 1     1.0000     8.2130     8.2130     0.0000
99 1     1.0000     8.2130    10.2663     2.0533
100 1     1.0000    10.2663    10.2663     4.1065
101 1     1.0000    10.2663     8.2130     6.1598
102 1     1.0000     8.2130     8.2130     4.1065
103 1     1.0000     8.2130    10.2663     6.1598
104 1     1.0000    10.2663    10.2663     8.2130
105 1     1.0000    10.2663     8.2130    10.2663
106 1     1.0000     8.2130     8.2130     8.2130
107 1     1.0000     8.2130    10.2663    10.2663
108 2     1.0000     0.0000     2.0533     0.0000
109 2     1.0000     2.0533     0.0000     0.0000
110 2     1.0000     2.0533     2.0533     2.0533
111 2     1.0000     0.0000     0.0000     2.0533
112 2     1.0000     0.0000     2.0533     4.1065
113 2     1.0000     2.0533     0.0000     4.1065
114 2     1.0000     2.0533     2.0533     6.1598
115 2     1.0000     0.0000     0.0000     6.1598
116 2     1.0000     0.0000     2.0533     8.2130
117 2     1.0000     2.0533     0.0000     8.2130
118 2     1.0000     2.0533     2.0533    10.2663
119 2     1.0000     0.0000     0.0000    10.2663
120 2     1.0000     0.0000     6.1598     0.0000
121 2     1.0000     2.0533     4.1065     0.0000
122 2     1.0000     2.0533     6.1598     2.0533
123 2     1.0000     0.0000     4.1065     2.0533
124 2     1.0000     0.0000     6.1598     4.1065
125 2     1.0000     2.0533     4.1065     4.1065
126 2     1.0000     2.0533     6.1598     6.1598
127 2     1.0000     0.0000     4.1065     6.1598
128 2     1.0000     0.0000     6.1598     8.2130
129 2     1.0000     2.0533     4.1065     8.2130
130 2     1.0000     2.0533     6.1598    10.2663
131 2     1.0000     0.0000     4.1065    10.2663
132 2     1.0000     0.0000    10.2663     0.0000
133 2     1.0000     2.0533     8.2130     0.0000
134 2     1.0000     2.0533    10.2663     2.0533
135 2     1.0000     0.0000     8.2130     2.0533
136 2     1.0000     0.0000    10.2663     4.1065
137 2     1.0000     2.0533     8.2130     4.1065
138 2     1.0000     2.0533    10.2663     6.1598
139 2     1.0000     0.0000     8.2130     6.1598
140 2     1.0000     0.0000    10.2663     8.2130
141 2     1.0000     2.0533     8.2130     8.2130
142 2     1.0000     2.0533    10.2663    10.2663
143 2     1.0000     0.0000     8.2130    10.2663
144 2     1.0000     4.1065     2.0533     0.0000
145 2     1.0000     6.1598     0.0000     0.0000
146 2     1.0000     6.1598     2.0533     2.0533
147 2     1.0000     4.1065     0.0000     2.0533
148 2     1.0000     4.1065     2.0533     4.1065
149 2     1.0000     6.1598     0.0000     4.1065
150 2     1.0000     6.1598     2.0533     6.1598
151 2     1.0000     4.1065     0.0000     6.1598
152 2     1.0000     4.1065     2.0533     8.2130
153 2     1.0000     6.1598     0.0000     8.2130
154 2     1.0000     6.1598     2.0533    10.2663
155 2     1.0000     4.1065     0.0000    10.2663
156 2     1.0000     4.1065     6.1598     0.0000
157 2     1.0000     6.1598     4.1065     0.0000
158 2     1.0000     6.1598     6.1598     2.0533
159 2     1.0000     4.1065     4.1065     2.0533
160 2     1.0000     4.1065     6.1598     4.1065
161 2     1.0000     6.1598     4.1065     4.1065
162 2     1.0000     6.1598     6.1598     6.1598
163 2     1.0000     4.1065     4.1065     6.1598
164 2     1.0000     4.1065     6.1598     8.2130
165 2     1.0000     6.1598     4.1065     8.2130
166 2     1.0000     6.1598     6.1598    10.2663
167 2     1.0000     4.1065     4.1065    10.2663
168 2     1.0000     4.1065    10.2663     0.0000
169 2     1.0000     6.1598     8.2130     0.0000
170 2     1.0000     6.1598    10.2663     2.0533
171 2     1.0000     4.1065     8.2130     2.0533
172 2     1.0000     4.1065    10.2663     4.1065
173 2     1.0000     6.1598     8.2130     4.1065
174 2     1.0000     6.1598    10.2663     6.1598
175 2     1.0000     4.1065     8.2130     6.1598
176 2     1.0000     4.1065    10.2663     8.2130
177 2     1.0000     6.1598     8.2130     8.2130
178 2     1.0000     6.1598    10.2663    10.2663
179 2     1.0000     4.1065     8.2130    10.2663
180 2     1.0000     8.2130     2.0533     0.0000
181 2     1.0000    10.2663     0.0000     0.0000
182 2     1.0000    10.2663     2.0533     2.0533
183 2     1.0000     8.2130     0.0000     2.0533
184 2     1.0000     8.2130     2.0533     4.1065
185 2     1.0000    10.2663     0.0000     4.1065
186 2     1.0000    10.2663     2.0533     6.1598
187 2     1.0000     8.2130     0.0000     6.1598
188 2     1.0000     8.2130     2.0533     8.2130
189 2     1.0000    10.2663     0.0000     8.2130
190 2     1.0000    10.2663     2.0533    10.2663
191 2     1.0000     8.2130     0.0000    10.2663
192 2     1.0000     8.2130     6.1598     0.0000
193 2     1.0000    10.2663     4.1065     0.0000
194 2     1.0000    10.2663     6.1598     2.0533
195 2     1.0000     8.2130     4.1065     2.0533
196 2     1.0000     8.2130     6.1598     4.1065
197 2     1.0000    10.2663     4.1065     4.1065
198 2     1.0000    10.2663     6.1598     6.1598
199 2     1.0000     8.2130     4.1065     6.1598
200 2     1.0000     8.2130     6.1598     8.2130
201 2     1.0000    10.2663     4.1065     8.2130
202 2     1.0000    10.2663     6.1598    10.2663
203 2     1.0000     8.2130     4.1065    10.2663
204 2     1.0000     8.2130    10.2663     0.0000
205 2     1.0000    10.2663     8.2130     0.0000
206 2     1.0000    10.2663    10.2663     2.0533
207 2     1.0000     8.2130     8.2130     2.0533
208 2     1.0000     8.2130    10.2663     4.1065
209 2     1.0000    10.2663     8.2130     4.1065
210 2     1.0000    10.2663    10.2663     6.1598
211 2     1.0000     8.2130     8.2130     6.1598
212 2     1.0000     8.2130    10.2663     8.2130
213 2     1.0000    10.2663     8.2130     8.2130
214 2     1.0000    10.2663    10.2663    10.2663
