# ['Ni']

20 atoms
1 atom types

    0.0000     3.4532 xlo xhi
    0.0000     3.4532 ylo yhi
    0.0000    34.5316 zlo zhi

    0.0000    -0.0000     0.0000 xy xz yz

Atoms

1 1     0.0000     0.0000     0.0000
2 1     1.7266     1.7266     0.0000
3 1     1.7266     0.0000     1.7266
4 1     0.0000     1.7266     1.7266
5 1     0.0000     0.0000     3.4532
6 1     1.7266     1.7266     3.4532
7 1     1.7266     0.0000     5.1797
8 1     0.0000     1.7266     5.1797
9 1     0.0000     0.0000     6.9063
10 1     1.7266     1.7266     6.9063
11 1     1.7266     0.0000     8.6329
12 1     0.0000     1.7266     8.6329
13 1     0.0000     0.0000    10.3595
14 1     1.7266     1.7266    10.3595
15 1     1.7266     0.0000    12.0861
16 1     0.0000     1.7266    12.0861
17 1     0.0000     0.0000    13.8126
18 1     1.7266     1.7266    13.8126
19 1     1.7266     0.0000    15.5392
20 1     0.0000     1.7266    15.5392
