# ['Ni']

18 atoms
1 atom types

    0.0000     1.9553 xlo xhi
    0.0000     3.3867 ylo yhi
    0.0000    28.7323 zlo zhi

    0.0000     0.0000    -0.0003 xy xz yz

Atoms

1 1     0.0000     0.0000     0.0000
2 1     0.9777     0.5645     1.5963
3 1     0.0000     1.1289     3.1925
4 1     0.9777     1.6934     0.0000
5 1     0.0000     2.2578     1.5963
6 1     0.9777     2.8223     3.1925
7 1     0.0000     0.0000     4.7887
8 1     0.9777     0.5645     6.3850
9 1     0.0000     1.1289     7.9812
10 1     0.9777     1.6934     4.7887
11 1     0.0000     2.2578     6.3850
12 1     0.9777     2.8223     7.9812
13 1     0.0000     0.0000     9.5774
14 1     0.9777     0.5645    11.1737
15 1     0.0000     1.1289    12.7699
16 1     0.9777     1.6934     9.5774
17 1     0.0000     2.2578    11.1737
18 1     0.9777     2.8223    12.7699
