# ['Ni']

28 atoms
1 atom types

    0.0000     2.6717 xlo xhi
    0.0000     4.6275 ylo yhi
    0.0000    30.5401 zlo zhi

    0.0000     0.0000     0.0000 xy xz yz

Atoms

1 1     0.0000     0.0000     0.0000
2 1     1.3358     2.3138     0.0000
3 1     1.3358     0.7713     2.1814
4 1     0.0000     3.0850     2.1814
5 1     0.0000     1.5425     4.3629
6 1     1.3358     3.8563     4.3629
7 1     0.0000     0.0000     6.5443
8 1     1.3358     2.3138     6.5443
9 1     1.3358     0.7713     8.7257
10 1     0.0000     3.0850     8.7257
11 1     0.0000     1.5425    10.9072
12 1     1.3358     3.8563    10.9072
13 1     0.0000     0.0000    13.0886
14 1     1.3358     2.3138    13.0886
15 1     0.0000     1.5425    15.2700
16 1     1.3358     3.8563    15.2700
17 1     0.0000     0.0000    17.4515
18 1     1.3358     2.3138    17.4515
19 1     1.3358     0.7713    19.6329
20 1     0.0000     3.0850    19.6329
21 1     0.0000     1.5425    21.8143
22 1     1.3358     3.8563    21.8143
23 1     0.0000     0.0000    23.9957
24 1     1.3358     2.3138    23.9957
25 1     1.3358     0.7713    26.1772
26 1     0.0000     3.0850    26.1772
27 1     0.0000     1.5425    28.3586
28 1     1.3358     3.8563    28.3586
