# ['Ni']

18 atoms
1 atom types

    0.0000     2.2946 xlo xhi
    0.0000     3.9743 ylo yhi
    0.0000    33.7178 zlo zhi

    0.0000     0.0000    -0.0004 xy xz yz

Atoms

1 1     0.0000     0.0000     0.0000
2 1     1.1473     0.6624     1.8732
3 1     0.0000     1.3248     3.7464
4 1     1.1473     1.9872     0.0000
5 1     0.0000     2.6496     1.8732
6 1     1.1473     3.3120     3.7464
7 1     0.0000     0.0000     5.6196
8 1     1.1473     0.6624     7.4928
9 1     0.0000     1.3248     9.3661
10 1     1.1473     1.9872     5.6196
11 1     0.0000     2.6496     7.4928
12 1     1.1473     3.3120     9.3661
13 1     0.0000     0.0000    11.2392
14 1     1.1473     0.6624    13.1125
15 1     0.0000     1.3248    14.9857
16 1     1.1473     1.9872    11.2392
17 1     0.0000     2.6496    13.1125
18 1     1.1473     3.3120    14.9857
