    2    2    1    1
  0.9639684E+01  0.3009788E-09  0.3009788E-09  0.3009788E-09  0.5000000E-15
  1.000000000000000E-004
  CAR 
 automatically generated by pyflamestk   
      8     10     16
 
  0.1250000E+00  0.1250000E+00  0.1250000E+00  0.3125000E-01
    1      -13.596911   1.000000
    2        2.410236   1.000000
    3        3.255501   1.000000
    4        3.255501   1.000000
    5        8.698843   0.000000
    6       17.308309   0.000000
    7       19.317560   0.000000
    8       19.317563   0.000000
    9       23.529618   0.000000
   10       23.529619   0.000000
   11       24.862153   0.000000
   12       27.257815   0.000000
   13       28.679867   0.000000
   14       28.679868   0.000000
   15       38.891690   0.000000
   16       40.798467   0.000000
 
  0.3750000E+00  0.1250000E+00  0.1250000E+00  0.9375000E-01
    1      -12.947799   1.000000
    2        0.254498   1.000000
    3        2.401907   1.000000
    4        2.961796   1.000000
    5       11.117305   0.000000
    6       15.239287   0.000000
    7       18.616727   0.000000
    8       20.290620   0.000000
    9       22.113991   0.000000
   10       24.329218   0.000000
   11       26.407662   0.000000
   12       31.059557   0.000000
   13       32.313723   0.000000
   14       33.206416   0.000000
   15       35.573665   0.000000
   16       38.845256   0.000000
 
 -0.3750000E+00  0.1250000E+00  0.1250000E+00  0.9375000E-01
    1      -12.514175   1.000000
    2       -0.866806   1.000000
    3        2.253090   1.000000
    4        2.624994   1.000000
    5       11.722744   0.000000
    6       15.416753   0.000000
    7       17.909964   0.000000
    8       19.720917   0.000000
    9       23.697339   0.000000
   10       25.946442   0.000000
   11       26.023426   0.000000
   12       32.285311   0.000000
   13       32.870100   0.000000
   14       33.239033   0.000000
   15       35.793332   0.000000
   16       37.501792   0.000000
 
 -0.1250000E+00  0.1250000E+00  0.1250000E+00  0.9375000E-01
    1      -13.235317   1.000000
    2        1.135534   1.000000
    3        2.888636   1.000000
    4        2.892015   1.000000
    5       10.285811   0.000000
    6       15.495613   0.000000
    7       19.417715   0.000000
    8       19.904798   0.000000
    9       21.069778   0.000000
   10       24.910619   0.000000
   11       26.868887   0.000000
   12       29.950448   0.000000
   13       30.257821   0.000000
   14       30.981457   0.000000
   15       37.177397   0.000000
   16       38.948839   0.000000
 
  0.3750000E+00  0.3750000E+00  0.1250000E+00  0.9375000E-01
    1      -12.713241   1.000000
    2        0.071337   1.000000
    3        2.202724   1.000000
    4        2.433567   1.000000
    5       12.213367   0.000000
    6       13.906662   0.000000
    7       17.159894   0.000000
    8       20.779040   0.000000
    9       21.234641   0.000000
   10       27.083019   0.000000
   11       30.145092   0.000000
   12       30.398593   0.000000
   13       32.327543   0.000000
   14       34.817801   0.000000
   15       36.464673   0.000000
   16       37.868234   0.000000
 
 -0.3750000E+00  0.3750000E+00  0.1250000E+00  0.1875000E+00
    1      -12.303931   1.000000
    2       -0.042096   1.000000
    3        0.951565   1.000000
    4        2.025506   1.000000
    5       13.757285   0.000000
    6       14.765865   0.000000
    7       15.560444   0.000000
    8       19.546107   0.000000
    9       22.990365   0.000000
   10       26.443788   0.000000
   11       29.974325   0.000000
   12       31.398765   0.000000
   13       32.667258   0.000000
   14       36.333031   0.000000
   15       38.880339   0.000000
   16       41.085217   0.000000
 
 -0.1250000E+00  0.3750000E+00  0.1250000E+00  0.1875000E+00
    1      -12.558834   1.000000
    2       -0.246769   1.000000
    3        1.689228   1.000000
    4        2.523746   1.000000
    5       12.582560   0.000000
    6       14.788184   0.000000
    7       16.931144   0.000000
    8       20.116939   0.000000
    9       22.695654   0.000000
   10       25.354235   0.000000
   11       28.862393   0.000000
   12       31.629503   0.000000
   13       32.232529   0.000000
   14       34.881180   0.000000
   15       35.523299   0.000000
   16       41.005838   0.000000
 
 -0.3750000E+00 -0.3750000E+00  0.1250000E+00  0.9375000E-01
    1      -12.339754   1.000000
    2       -0.404262   1.000000
    3        1.687631   1.000000
    4        2.141022   1.000000
    5       12.852612   0.000000
    6       13.485411   0.000000
    7       16.007228   0.000000
    8       21.472027   0.000000
    9       21.484157   0.000000
   10       28.914252   0.000000
   11       29.390811   0.000000
   12       31.962869   0.000000
   13       32.659289   0.000000
   14       37.793083   0.000000
   15       38.168510   0.000000
   16       41.096159   0.000000
 
  0.3750000E+00  0.3750000E+00  0.3750000E+00  0.3125000E-01
    1      -12.749556   1.000000
    2       -0.600269   1.000000
    3        2.818802   1.000000
    4        2.818802   1.000000
    5       10.928983   0.000000
    6       15.429863   0.000000
    7       19.524153   0.000000
    8       19.524155   0.000000
    9       24.069646   0.000000
   10       24.441056   0.000000
   11       24.441059   0.000000
   12       31.898361   0.000000
   13       33.209748   0.000000
   14       33.209750   0.000000
   15       36.838901   0.000000
   16       36.838904   0.000000
 
 -0.3750000E+00  0.3750000E+00  0.3750000E+00  0.9375000E-01
    1      -12.387189   1.000000
    2       -0.283493   1.000000
    3        1.057004   1.000000
    4        2.493737   1.000000
    5       13.072714   0.000000
    6       15.230431   0.000000
    7       16.121087   0.000000
    8       20.426157   0.000000
    9       22.509954   0.000000
   10       25.548449   0.000000
   11       29.074715   0.000000
   12       31.613288   0.000000
   13       32.035794   0.000000
   14       35.363381   0.000000
   15       37.237281   0.000000
   16       40.109757   0.000000
