LAMMPS (11 Aug 2017)
Reading data file ...
  triclinic box = (0 0 0) to (2.4819 4.2987 6.0783) with tilt (0 0 0)
  1 by 1 by 1 MPI processor grid
  reading atoms ...
  6 atoms
6 atoms in group Ni
Neighbor list info ...
  update every 1 steps, delay 0 steps, check yes
  max neighbors/atom: 2000, page size: 100000
  master list distance cutoff = 11
  ghost atom cutoff = 11
  binsize = 5.5, bins = 1 1 2
  1 neighbor lists, perpetual/occasional/extra = 1 0 0
  (1) pair eam/alloy, perpetual
      attributes: half, newton on
      pair build: half/bin/newton/tri
      stencil: half/bin/3d/newton/tri
      bin: standard
Setting up cg style minimization ...
  Unit style    : metal
  Current step  : 0
WARNING: Energy due to 3 extra global DOFs will be included in minimizer energies
Per MPI rank memory allocation (min/avg/max) = 4.298 | 4.298 | 4.298 Mbytes
Step PotEng Xhi Xlo Yhi Ylo Zhi Xy Xz Yz Press Pxx Pyy Pzz Pxy Pxz Pyz c_eatoms 
       0   -27.005622       2.4819            0       4.2987            0       6.0783            0            0            0    13803.603    13781.483    13786.016    13843.311 -0.00042212471 -0.00016058729   -1.2248947   -27.005622 
      10   -27.007631    2.4848052 -0.0029052396    4.3037703 -0.0050703482    6.0859606            0            0            0  -0.23343197  -0.24023755  -0.22623969  -0.23381866 -7.0932385e-09 -2.7185364e-09 -0.0037687427   -27.007631 
      20   -27.007631    2.4848052 -0.002905153    4.3037703 -0.0050703224    6.0859604            0            0            0 -6.1207533e-07 1.3665089e-05 -5.0427834e-08 -1.5450887e-05 7.4850034e-11 1.0058569e-10 3.6925689e-06   -27.007631 
      30   -27.007631    2.4848052 -0.0029051531    4.3037703 -0.0050703224    6.0859604            0            0            0 1.4876687e-10 2.7676618e-10 3.1575483e-11 1.3795895e-10 4.775823e-11 1.067605e-10 -5.3962878e-11   -27.007631 
      33   -27.007631    2.4848052 -0.0029051531    4.3037703 -0.0050703224    6.0859604            0            0            0 -2.046371e-10 -5.8424088e-10 -9.2461797e-12 -2.0424253e-11 3.1975194e-11 1.5787264e-11 1.793272e-12   -27.007631 
Loop time of 0.00827718 on 1 procs for 33 steps with 6 atoms

97.6% CPU use with 1 MPI tasks x no OpenMP threads

Minimization stats:
  Stopping criterion = energy tolerance
  Energy initial, next-to-last, final = 
        -27.0056222637     -27.0076312248     -27.0076312248
  Force two-norm initial, final = 0.967714 2.72217e-14
  Force max component initial, final = 0.560316 2.3763e-14
  Final line search alpha, max atom move = 1 2.3763e-14
  Iterations, force evaluations = 33 64

MPI task timing breakdown:
Section |  min time  |  avg time  |  max time  |%varavg| %total
---------------------------------------------------------------
Pair    | 0.0062764  | 0.0062764  | 0.0062764  |   0.0 | 75.83
Neigh   | 0          | 0          | 0          |   0.0 |  0.00
Comm    | 0.00049067 | 0.00049067 | 0.00049067 |   0.0 |  5.93
Output  | 4.5061e-05 | 4.5061e-05 | 4.5061e-05 |   0.0 |  0.54
Modify  | 0          | 0          | 0          |   0.0 |  0.00
Other   |            | 0.001465   |            |       | 17.70

Nlocal:    6 ave 6 max 6 min
Histogram: 1 0 0 0 0 0 0 0 0 0
Nghost:    1626 ave 1626 max 1626 min
Histogram: 1 0 0 0 0 0 0 0 0 0
Neighs:    1590 ave 1590 max 1590 min
Histogram: 1 0 0 0 0 0 0 0 0 0

Total # of neighbors = 1590
Ave neighs/atom = 265
Neighbor list builds = 0
Dangerous builds = 0
pypospack:output_section:begin
tot_energy = -27.0076312247962
num_atoms = 6
a11 = 2.48771030621185
a22 = 4.30884064487164
a33 = 6.09362087808191
a12 = 0
a13 = 0
a23 = 0
tot_press = -2.04637104246196e-10
pxx = -5.8424088004188e-10
pyy = -9.24617967922392e-12
pzz = -2.04242530174827e-11
pxy = 3.19751940485904e-11
pxz = 1.57872636160333e-11
pyz = 1.79327201990251e-12
pypospack:output_section:done
pypospack:lammps_sim:done
Total wall time: 0:00:00
