# ['Si', 'O']

18 atoms
2 atom types

    0.0000     5.0220 xlo xhi
    0.0000     8.6984 ylo yhi
    0.0000     5.5110 zlo zhi

    0.0000     0.0000     0.0000 xy xz yz

Atoms

1 1     1.0000     1.1960     2.0715     0.0000
2 1     1.0000     2.6300     0.0000     1.8370
3 1     1.0000     3.7070     2.2776     3.6740
4 1     1.0000     3.7070     6.4207     0.0000
5 1     1.0000     5.1410     4.3492     1.8370
6 1     1.0000     1.1960     6.6268     3.6740
7 2     1.0000     1.0707     3.2354     1.1323
8 2     1.0000     4.7776     1.8043     4.8063
9 2     1.0000     4.1958     3.6587     2.9693
10 2     1.0000     2.2666     2.5449     4.3787
11 2     1.0000     3.5817     1.1138     2.5417
12 2     1.0000     1.6848     0.6905     0.7047
13 2     1.0000     3.5817     7.5846     1.1323
14 2     1.0000     2.2666     6.1535     4.8063
15 2     1.0000     1.6848     8.0079     2.9693
16 2     1.0000     4.7776     6.8941     4.3787
17 2     1.0000     6.0927     5.4630     2.5417
18 2     1.0000     4.1958     5.0397     0.7047
