# ['Ni']

28 atoms
1 atom types

    0.0000    12.0062 xlo xhi
    0.0000    20.7953 ylo yhi
    0.0000   137.2421 zlo zhi

    0.0000     0.0000     0.0000 xy xz yz

Atoms

1 1     0.0000     0.0000     0.0000
2 1     6.0031    10.3977     0.0000
3 1     6.0031     3.4659     9.8031
4 1     0.0000    13.8636     9.8031
5 1     0.0000     6.9318    19.6060
6 1     6.0031    17.3294    19.6060
7 1     0.0000     0.0000    29.4091
8 1     6.0031    10.3977    29.4091
9 1     6.0031     3.4659    39.2120
10 1     0.0000    13.8636    39.2120
11 1     0.0000     6.9318    49.0151
12 1     6.0031    17.3294    49.0151
13 1     0.0000     0.0000    58.8180
14 1     6.0031    10.3977    58.8180
15 1     0.0000     6.9318    68.6210
16 1     6.0031    17.3294    68.6210
17 1     0.0000     0.0000    78.4241
18 1     6.0031    10.3977    78.4241
19 1     6.0031     3.4659    88.2270
20 1     0.0000    13.8636    88.2270
21 1     0.0000     6.9318    98.0301
22 1     6.0031    17.3294    98.0301
23 1     0.0000     0.0000   107.8330
24 1     6.0031    10.3977   107.8330
25 1     6.0031     3.4659   117.6361
26 1     0.0000    13.8636   117.6361
27 1     0.0000     6.9318   127.4390
28 1     6.0031    17.3294   127.4390
