# ['Al']

2 atoms
1 atom types

    0.0000     4.0500 xlo xhi
    0.0000     2.8992 ylo yhi
    0.0000     2.8992 zlo zhi

    0.0000     0.0000     0.0000 xy xz yz

Atoms

1 1     0.0000     0.0000     0.0000
2 1     2.0250     1.4496     1.4496
