LAMMPS (11 Aug 2017)
Reading data file ...
  triclinic box = (0 0 0) to (4.05 2.8992 2.8992) with tilt (0 0 0)
  1 by 1 by 1 MPI processor grid
  reading atoms ...
  2 atoms
2 atoms in group Al
Neighbor list info ...
  update every 1 steps, delay 0 steps, check yes
  max neighbors/atom: 2000, page size: 100000
  master list distance cutoff = 6.34397
  ghost atom cutoff = 6.34397
  binsize = 3.17199, bins = 2 1 1
  1 neighbor lists, perpetual/occasional/extra = 1 0 0
  (1) pair eam/alloy, perpetual
      attributes: half, newton on
      pair build: half/bin/newton/tri
      stencil: half/bin/3d/newton/tri
      bin: standard
Setting up cg style minimization ...
  Unit style    : metal
  Current step  : 0
WARNING: Energy due to 3 extra global DOFs will be included in minimizer energies
Per MPI rank memory allocation (min/avg/max) = 4.229 | 4.229 | 4.229 Mbytes
Step PotEng Xhi Xlo Yhi Ylo Zhi Xy Xz Yz Press Pxx Pyy Pzz Pxy Pxz Pyz c_eatoms 
       0   -3.6977298         4.05            0       2.8992            0       2.8992            0            0            0    -88340.31   -87613.894   -88703.519   -88703.519 -2.2044132e-12 6.0417251e-12 1.3634704e-11   -3.6977298 
      10   -3.7514535    4.0300262  0.019973753     2.884704     0.014496     2.884704            0            0            0   -82389.379   -81543.186   -82812.476   -82812.476 1.3881863e-12 -2.0191801e-12 7.4036603e-12   -3.7514535 
      20   -3.7998491    4.0101263  0.039873738     2.870208     0.028992     2.870208            0            0            0   -74639.909   -73665.042   -75127.343   -75127.343 1.7777383e-12 -1.1880495e-11 -4.3359472e-12   -3.7998491 
      30   -3.8419198    3.9903294  0.059670639     2.855712     0.043488     2.855712            0            0            0    -64792.65    -63682.09    -65347.93    -65347.93 5.3644686e-13 -8.0467029e-13 -3.5763124e-13   -3.8419198 
      40   -3.8765513     3.970689  0.079310952     2.841216     0.057984     2.841216            0            0            0   -52512.177   -51263.407   -53136.562   -53136.562 -1.2308911e-11 -1.1801802e-11 5.9931027e-12   -3.8765513 
      50   -3.9025096    3.9513216  0.098678351      2.82672      0.07248      2.82672            0            0            0   -37438.996   -36060.628    -38128.18    -38128.18 6.324117e-12 6.8471643e-12 4.4696767e-12   -3.9025096 
      60   -3.9184655    3.9325822    0.1174178     2.812224     0.086976     2.812224            0            0            0   -19264.428   -17800.092   -19996.596   -19996.596 -2.3050649e-12 -3.9235147e-12 -3.4330754e-11   -3.9184655 
      70   -3.9233467     3.919238   0.13076199     2.797728     0.101472     2.797728            0            0            0    507.47755    1576.4475   -27.007431   -27.007431 2.6843272e-11 -2.8457905e-11 1.7760962e-11   -3.9233467 
      80   -3.9234096    3.9278502   0.12214985    2.7951182   0.10408175    2.7951182            0            0            0 7.9503441e-10 8.4359267e-10 9.9894886e-10 5.4256169e-10 -4.417138e-11 4.6390033e-12 -1.008479e-12   -3.9234096 
      83   -3.9234096    3.9278502   0.12214985    2.7951182   0.10408175    2.7951182            0            0            0 -2.9212275e-11 -4.6390033e-12 -2.0875515e-11 -6.2122306e-11 -1.9161101e-11 2.9044195e-11 1.6135664e-11   -3.9234096 
Loop time of 0.00111079 on 1 procs for 83 steps with 2 atoms

100.0% CPU use with 1 MPI tasks x no OpenMP threads

Minimization stats:
  Stopping criterion = quadratic factors are zero
  Energy initial, next-to-last, final = 
        -3.69772975164     -3.92340955083     -3.92340955083
  Force two-norm initial, final = 3.25108 2.58467e-15
  Force max component initial, final = 1.8847 1.48492e-15
  Final line search alpha, max atom move = 1 1.48492e-15
  Iterations, force evaluations = 83 93

MPI task timing breakdown:
Section |  min time  |  avg time  |  max time  |%varavg| %total
---------------------------------------------------------------
Pair    | 0.00048113 | 0.00048113 | 0.00048113 |   0.0 | 43.31
Neigh   | 0          | 0          | 0          |   0.0 |  0.00
Comm    | 0.0001359  | 0.0001359  | 0.0001359  |   0.0 | 12.23
Output  | 7.6771e-05 | 7.6771e-05 | 7.6771e-05 |   0.0 |  6.91
Modify  | 0          | 0          | 0          |   0.0 |  0.00
Other   |            | 0.000417   |            |       | 37.54

Nlocal:    2 ave 2 max 2 min
Histogram: 1 0 0 0 0 0 0 0 0 0
Nghost:    267 ave 267 max 267 min
Histogram: 1 0 0 0 0 0 0 0 0 0
Neighs:    54 ave 54 max 54 min
Histogram: 1 0 0 0 0 0 0 0 0 0

Total # of neighbors = 54
Ave neighs/atom = 27
Neighbor list builds = 0
Dangerous builds = 0
pypospack:output_section:begin
tot_energy = -3.92340955082652
num_atoms = 2
a11 = 3.8057003056663
a22 = 2.69103649330036
a33 = 2.69103649330036
a12 = 0
a13 = 0
a23 = 0
tot_press = -2.92122746552033e-11
pxx = -4.63900333995174e-12
pyy = -2.08755150297828e-11
pzz = -6.21223055958754e-11
pxy = -1.91611007519746e-11
pxz = 2.90441948240457e-11
pyz = 1.61356637911365e-11
pypospack:output_section:done
pypospack:lammps_sim:done
Total wall time: 0:00:00
