# ['Ni']

28 atoms
1 atom types

    0.0000     2.4807 xlo xhi
    0.0000     4.2967 ylo yhi
    0.0000    28.3565 zlo zhi

    0.0000     0.0000     0.0000 xy xz yz

Atoms

1 1     0.0000     0.0000     0.0000
2 1     1.2403     2.1483     0.0000
3 1     1.2403     0.7161     2.0255
4 1     0.0000     2.8644     2.0255
5 1     0.0000     1.4322     4.0509
6 1     1.2403     3.5805     4.0509
7 1     0.0000     0.0000     6.0764
8 1     1.2403     2.1483     6.0764
9 1     1.2403     0.7161     8.1018
10 1     0.0000     2.8644     8.1018
11 1     0.0000     1.4322    10.1273
12 1     1.2403     3.5805    10.1273
13 1     0.0000     0.0000    12.1528
14 1     1.2403     2.1483    12.1528
15 1     0.0000     1.4322    14.1782
16 1     1.2403     3.5805    14.1782
17 1     0.0000     0.0000    16.2037
18 1     1.2403     2.1483    16.2037
19 1     1.2403     0.7161    18.2292
20 1     0.0000     2.8644    18.2292
21 1     0.0000     1.4322    20.2546
22 1     1.2403     3.5805    20.2546
23 1     0.0000     0.0000    22.2801
24 1     1.2403     2.1483    22.2801
25 1     1.2403     0.7161    24.3056
26 1     0.0000     2.8644    24.3056
27 1     0.0000     1.4322    26.3310
28 1     1.2403     3.5805    26.3310
