# ['Ni']

107 atoms
1 atom types

    0.0000    10.6874 xlo xhi
    0.0000    10.6874 ylo yhi
    0.0000    10.6874 zlo zhi

    0.0000    -0.0000    -0.0000 xy xz yz

Atoms

1 1     1.7812     1.7812     0.0000
2 1     1.7812     0.0000     1.7812
3 1     0.0000     1.7812     1.7812
4 1     0.0000     0.0000     3.5625
5 1     1.7812     1.7812     3.5625
6 1     1.7812     0.0000     5.3437
7 1     0.0000     1.7812     5.3437
8 1     0.0000     0.0000     7.1249
9 1     1.7812     1.7812     7.1249
10 1     1.7812     0.0000     8.9061
11 1     0.0000     1.7812     8.9061
12 1     0.0000     3.5625     0.0000
13 1     1.7812     5.3437     0.0000
14 1     1.7812     3.5625     1.7812
15 1     0.0000     5.3437     1.7812
16 1     0.0000     3.5625     3.5625
17 1     1.7812     5.3437     3.5625
18 1     1.7812     3.5625     5.3437
19 1     0.0000     5.3437     5.3437
20 1     0.0000     3.5625     7.1249
21 1     1.7812     5.3437     7.1249
22 1     1.7812     3.5625     8.9061
23 1     0.0000     5.3437     8.9061
24 1     0.0000     7.1249     0.0000
25 1     1.7812     8.9061     0.0000
26 1     1.7812     7.1249     1.7812
27 1     0.0000     8.9061     1.7812
28 1     0.0000     7.1249     3.5625
29 1     1.7812     8.9061     3.5625
30 1     1.7812     7.1249     5.3437
31 1     0.0000     8.9061     5.3437
32 1     0.0000     7.1249     7.1249
33 1     1.7812     8.9061     7.1249
34 1     1.7812     7.1249     8.9061
35 1     0.0000     8.9061     8.9061
36 1     3.5625     0.0000     0.0000
37 1     5.3437     1.7812     0.0000
38 1     5.3437     0.0000     1.7812
39 1     3.5625     1.7812     1.7812
40 1     3.5625     0.0000     3.5625
41 1     5.3437     1.7812     3.5625
42 1     5.3437     0.0000     5.3437
43 1     3.5625     1.7812     5.3437
44 1     3.5625     0.0000     7.1249
45 1     5.3437     1.7812     7.1249
46 1     5.3437     0.0000     8.9061
47 1     3.5625     1.7812     8.9061
48 1     3.5625     3.5625     0.0000
49 1     5.3437     5.3437     0.0000
50 1     5.3437     3.5625     1.7812
51 1     3.5625     5.3437     1.7812
52 1     3.5625     3.5625     3.5625
53 1     5.3437     5.3437     3.5625
54 1     5.3437     3.5625     5.3437
55 1     3.5625     5.3437     5.3437
56 1     3.5625     3.5625     7.1249
57 1     5.3437     5.3437     7.1249
58 1     5.3437     3.5625     8.9061
59 1     3.5625     5.3437     8.9061
60 1     3.5625     7.1249     0.0000
61 1     5.3437     8.9061     0.0000
62 1     5.3437     7.1249     1.7812
63 1     3.5625     8.9061     1.7812
64 1     3.5625     7.1249     3.5625
65 1     5.3437     8.9061     3.5625
66 1     5.3437     7.1249     5.3437
67 1     3.5625     8.9061     5.3437
68 1     3.5625     7.1249     7.1249
69 1     5.3437     8.9061     7.1249
70 1     5.3437     7.1249     8.9061
71 1     3.5625     8.9061     8.9061
72 1     7.1249     0.0000     0.0000
73 1     8.9061     1.7812     0.0000
74 1     8.9061     0.0000     1.7812
75 1     7.1249     1.7812     1.7812
76 1     7.1249     0.0000     3.5625
77 1     8.9061     1.7812     3.5625
78 1     8.9061     0.0000     5.3437
79 1     7.1249     1.7812     5.3437
80 1     7.1249     0.0000     7.1249
81 1     8.9061     1.7812     7.1249
82 1     8.9061     0.0000     8.9061
83 1     7.1249     1.7812     8.9061
84 1     7.1249     3.5625     0.0000
85 1     8.9061     5.3437     0.0000
86 1     8.9061     3.5625     1.7812
87 1     7.1249     5.3437     1.7812
88 1     7.1249     3.5625     3.5625
89 1     8.9061     5.3437     3.5625
90 1     8.9061     3.5625     5.3437
91 1     7.1249     5.3437     5.3437
92 1     7.1249     3.5625     7.1249
93 1     8.9061     5.3437     7.1249
94 1     8.9061     3.5625     8.9061
95 1     7.1249     5.3437     8.9061
96 1     7.1249     7.1249     0.0000
97 1     8.9061     8.9061     0.0000
98 1     8.9061     7.1249     1.7812
99 1     7.1249     8.9061     1.7812
100 1     7.1249     7.1249     3.5625
101 1     8.9061     8.9061     3.5625
102 1     8.9061     7.1249     5.3437
103 1     7.1249     8.9061     5.3437
104 1     7.1249     7.1249     7.1249
105 1     8.9061     8.9061     7.1249
106 1     8.9061     7.1249     8.9061
107 1     7.1249     8.9061     8.9061
