# ['Ni']

18 atoms
1 atom types

    0.0000     2.5728 xlo xhi
    0.0000     4.4562 ylo yhi
    0.0000    37.8061 zlo zhi

    0.0000     0.0000    -0.0004 xy xz yz

Atoms

1 1     0.0000     0.0000     0.0000
2 1     1.2864     0.7427     2.1004
3 1     0.0000     1.4854     4.2007
4 1     1.2864     2.2281     0.0000
5 1     0.0000     2.9708     2.1004
6 1     1.2864     3.7135     4.2007
7 1     0.0000     0.0000     6.3010
8 1     1.2864     0.7427     8.4013
9 1     0.0000     1.4854    10.5017
10 1     1.2864     2.2281     6.3010
11 1     0.0000     2.9708     8.4013
12 1     1.2864     3.7135    10.5017
13 1     0.0000     0.0000    12.6020
14 1     1.2864     0.7427    14.7024
15 1     0.0000     1.4854    16.8027
16 1     1.2864     2.2281    12.6020
17 1     0.0000     2.9708    14.7024
18 1     1.2864     3.7135    16.8027
