# ['Ni']

28 atoms
1 atom types

    0.0000     2.4842 xlo xhi
    0.0000     4.3028 ylo yhi
    0.0000    28.3972 zlo zhi

    0.0000     0.0000     0.0000 xy xz yz

Atoms

1 1     0.0000     0.0000     0.0000
2 1     1.2421     2.1514     0.0000
3 1     1.2421     0.7171     2.0284
4 1     0.0000     2.8686     2.0284
5 1     0.0000     1.4343     4.0567
6 1     1.2421     3.5857     4.0567
7 1     0.0000     0.0000     6.0851
8 1     1.2421     2.1514     6.0851
9 1     1.2421     0.7171     8.1135
10 1     0.0000     2.8686     8.1135
11 1     0.0000     1.4343    10.1419
12 1     1.2421     3.5857    10.1419
13 1     0.0000     0.0000    12.1702
14 1     1.2421     2.1514    12.1702
15 1     0.0000     1.4343    14.1986
16 1     1.2421     3.5857    14.1986
17 1     0.0000     0.0000    16.2270
18 1     1.2421     2.1514    16.2270
19 1     1.2421     0.7171    18.2554
20 1     0.0000     2.8686    18.2554
21 1     0.0000     1.4343    20.2837
22 1     1.2421     3.5857    20.2837
23 1     0.0000     0.0000    22.3121
24 1     1.2421     2.1514    22.3121
25 1     1.2421     0.7171    24.3405
26 1     0.0000     2.8686    24.3405
27 1     0.0000     1.4343    26.3688
28 1     1.2421     3.5857    26.3688
