LAMMPS (11 Aug 2017)
Reading data file ...
  triclinic box = (0 0 0) to (2.4842 4.3028 28.3972) with tilt (0 0 0)
  1 by 1 by 1 MPI processor grid
  reading atoms ...
  28 atoms
28 atoms in group Ni
Neighbor list info ...
  update every 1 steps, delay 0 steps, check yes
  max neighbors/atom: 2000, page size: 100000
  master list distance cutoff = 11
  ghost atom cutoff = 11
  binsize = 5.5, bins = 1 1 6
  1 neighbor lists, perpetual/occasional/extra = 1 0 0
  (1) pair eam/alloy, perpetual
      attributes: half, newton on
      pair build: half/bin/newton/tri
      stencil: half/bin/3d/newton/tri
      bin: standard
Setting up cg style minimization ...
  Unit style    : metal
  Current step  : 0
WARNING: Energy due to 3 extra global DOFs will be included in minimizer energies
Per MPI rank memory allocation (min/avg/max) = 4.356 | 4.356 | 4.356 Mbytes
Step PotEng Lx Ly Lz Xy Xz Yz Press Pxx Pyy Pzz Pxy Pxz Pyz c_eatoms 
       0   -126.60749       2.4842       4.3028      28.3972            0            0            0    67.600187    62.242373    55.751281    84.806905 8.6732465e-12 4.912123e-12    1.3002733   -126.60749 
     100   -126.60749    2.4842162    4.3027887    28.398106            0            0            0 0.00053391078 0.00046004985 0.00045897537 0.00068270712 -3.4639856e-11 1.7020114e-11 0.00013297971   -126.60749 
     200   -126.60749    2.4842162    4.3027887    28.398106            0            0            0 2.9870961e-09 4.4410167e-09 4.7176089e-09 -1.973374e-10 3.8143639e-11 3.1578839e-11 -1.6714665e-09   -126.60749 
     300   -126.60749    2.4842162    4.3027887    28.398106            0            0            0 -1.8474749e-10 1.129938e-10 -2.7817023e-10 -3.8906606e-10 4.0518375e-11 4.0601402e-11 -6.3708265e-10   -126.60749 
     335   -126.60749    2.4842162    4.3027887    28.398106            0            0            0 8.737924e-12 1.8504679e-10 1.5765206e-11 -1.7459823e-10 -3.3266875e-12 -3.3517204e-11 -5.7648504e-10   -126.60749 
Loop time of 0.347285 on 1 procs for 335 steps with 28 atoms

94.0% CPU use with 1 MPI tasks x no OpenMP threads

Minimization stats:
  Stopping criterion = energy tolerance
  Energy initial, next-to-last, final = 
         -126.60749306     -126.607493799     -126.607493799
  Force two-norm initial, final = 0.0226611 9.81485e-14
  Force max component initial, final = 0.016067 3.50588e-14
  Final line search alpha, max atom move = 1 3.50588e-14
  Iterations, force evaluations = 335 670

MPI task timing breakdown:
Section |  min time  |  avg time  |  max time  |%varavg| %total
---------------------------------------------------------------
Pair    | 0.30789    | 0.30789    | 0.30789    |   0.0 | 88.66
Neigh   | 0          | 0          | 0          |   0.0 |  0.00
Comm    | 0.0097833  | 0.0097833  | 0.0097833  |   0.0 |  2.82
Output  | 7.6056e-05 | 7.6056e-05 | 7.6056e-05 |   0.0 |  0.02
Modify  | 0          | 0          | 0          |   0.0 |  0.00
Other   |            | 0.02953    |            |       |  8.50

Nlocal:    28 ave 28 max 28 min
Histogram: 1 0 0 0 0 0 0 0 0 0
Nghost:    2894 ave 2894 max 2894 min
Histogram: 1 0 0 0 0 0 0 0 0 0
Neighs:    7320 ave 7320 max 7320 min
Histogram: 1 0 0 0 0 0 0 0 0 0

Total # of neighbors = 7320
Ave neighs/atom = 261.429
Neighbor list builds = 0
Dangerous builds = 0
Setting up cg style minimization ...
  Unit style    : metal
  Current step  : 335
Per MPI rank memory allocation (min/avg/max) = 4.481 | 4.481 | 4.481 Mbytes
Step PotEng Lx Ly Lz Xy Xz Yz Press Pxx Pyy Pzz Pxy Pxz Pyz c_eatoms 
     335   -126.60749    2.4842162    4.3027887    28.398106            0            0            0 4.1321536e-10 7.2196419e-10 3.3191196e-10 1.8576992e-10 -8.3467363e-11 -6.9367754e-11 -5.7415798e-10   -126.60749 
     341   -126.60749    2.4842162    4.3027887    28.398106            0            0            0 -4.6848592e-11 -1.4696818e-11 -4.7929831e-11 -7.7919125e-11 -2.0075292e-11 -1.359878e-11 -5.4280636e-10   -126.60749 
Loop time of 0.00574708 on 1 procs for 6 steps with 28 atoms

99.8% CPU use with 1 MPI tasks x no OpenMP threads

Minimization stats:
  Stopping criterion = energy tolerance
  Energy initial, next-to-last, final = 
        -126.607493799     -126.607493799     -126.607493799
  Force two-norm initial, final = 8.29055e-14 3.1939e-14
  Force max component initial, final = 3.38896e-14 1.17892e-14
  Final line search alpha, max atom move = 1 1.17892e-14
  Iterations, force evaluations = 6 12

MPI task timing breakdown:
Section |  min time  |  avg time  |  max time  |%varavg| %total
---------------------------------------------------------------
Pair    | 0.0054927  | 0.0054927  | 0.0054927  |   0.0 | 95.57
Neigh   | 0          | 0          | 0          |   0.0 |  0.00
Comm    | 0.00018716 | 0.00018716 | 0.00018716 |   0.0 |  3.26
Output  | 0          | 0          | 0          |   0.0 |  0.00
Modify  | 1.9073e-06 | 1.9073e-06 | 1.9073e-06 |   0.0 |  0.03
Other   |            | 6.533e-05  |            |       |  1.14

Nlocal:    28 ave 28 max 28 min
Histogram: 1 0 0 0 0 0 0 0 0 0
Nghost:    2894 ave 2894 max 2894 min
Histogram: 1 0 0 0 0 0 0 0 0 0
Neighs:    7320 ave 7320 max 7320 min
Histogram: 1 0 0 0 0 0 0 0 0 0

Total # of neighbors = 7320
Ave neighs/atom = 261.429
Neighbor list builds = 0
Dangerous builds = 0
pypospack:output_section:begin
tot_energy = -126.607493798519
num_atoms = 28
a11 = 2.48421621959283
a22 = 4.30278870932144
a33 = 28.3981064498861
a12 = 0
a13 = 0
a23 = 0
tot_press = -4.68485915018758e-11
pxx = -1.469681807662e-11
pyy = -4.792983117048e-11
pzz = -7.79191252585276e-11
pxy = -2.0075291714187e-11
pxz = -1.35987802527873e-11
pyz = -5.42806358904926e-10
pypospack:output_section:done
pypospack:lammps_sim:done
Total wall time: 0:00:00
