LAMMPS (10 Feb 2015)
# ---- initialize simulations
clear
units metal
dimension 3
boundary p p p
atom_style charge
atom_modify map array
# ---- create atoms
read_data /Users/eugeneragasa/pyflamestk_git/pypospack/tests/tests_integration/workflow/WorkflowLammpsThermalExpansion/MgO_NaCl_unit.npt.T100/lammps.structure
  triclinic box = (0 0 0) to (4.2565 4.2565 4.2565) with tilt (0 0 0)
  1 by 1 by 1 MPI processor grid
  reading atoms ...
  8 atoms
# ---- define interatomic potential
include potential.mod
mass 1 24.305
mass 2 15.999

group Mg type 1
4 atoms in group Mg
group O type 2
4 atoms in group O

set group Mg charge 2.0
  4 settings made for charge
set group O charge -2.0
  4 settings made for charge

variable R_cut equal 10.0

pair_style buck/coul/long ${R_cut}
pair_style buck/coul/long 10
pair_coeff 1 1 0.0 0.5 0.0 ${R_cut}
pair_coeff 1 1 0.0 0.5 0.0 10
pair_coeff 1 2 1279.69 0.29969 0.0 ${R_cut}
pair_coeff 1 2 1279.69 0.29969 0.0 10
pair_coeff 2 2 9547.96 0.21916 32.0 ${R_cut}
pair_coeff 2 2 9547.96 0.21916 32.0 10

kspace_style pppm 1.0e-5

neighbor 1.0 bin
neigh_modify every 1 delay 0 check yes
# ---- define settings
compute eng all pe/atom
compute eatoms all reduce sum c_eng
# ---- run minimization
reset_timestep 0
fix 1 all box/relax iso 0.0 vmax 0.001
thermo 10
thermo_style custom step pe lx ly lz xy xz yz press pxx pyy pzz pxy pxz pyz c_eatoms
min_style cg
minimize 1e-25 1e-25 5000 10000
PPPM initialization ...
  G vector (1/distance) = 0.354854
  grid = 8 8 8
  stencil order = 5
  estimated absolute RMS force accuracy = 5.34408e-05
  estimated relative force accuracy = 3.71126e-06
  using double precision FFTs
  3d grid and FFT values/proc = 3375 512
Neighbor list info ...
  1 neighbor list requests
  update every 1 steps, delay 0 steps, check yes
  master list distance cutoff = 11
Memory usage per processor = 4.06549 Mbytes
Step PotEng Lx Ly Lz Xy Xz Yz Press Pxx Pyy Pzz Pxy Pxz Pyz eatoms 
       0    -164.6599       4.2565       4.2565       4.2565            0            0            0   -75586.685   -75586.685   -75586.685   -75586.685 9.4798587e-11 1.6226154e-10 -3.4446142e-11    -164.6599 
      10   -164.72135     4.213935     4.213935     4.213935            0            0            0   -8637.4527   -8637.4527   -8637.4527   -8637.4527 -1.5549588e-10 2.0227431e-10 -1.1495762e-10   -164.72135 
      15   -164.72214      4.20883      4.20883      4.20883            0            0            0    5.5876567    5.5876567    5.5876567    5.5876567 2.0554645e-10 4.244052e-10 1.3955449e-10   -164.72214 
Loop time of 0.0227461 on 1 procs for 15 steps with 8 atoms

Minimization stats:
  Stopping criterion = linesearch alpha is zero
  Energy initial, next-to-last, final = 
        -164.659901251     -164.722138416     -164.722138416
  Force two-norm initial, final = 10.9148 0.000791362
  Force max component initial, final = 10.9148 0.000788889
  Final line search alpha, max atom move = 0.015625 1.23264e-05
  Iterations, force evaluations = 15 55

Pair  time (%) = 0.0061779 (27.1603)
Kspce time (%) = 0.00404239 (17.7718)
Neigh time (%) = 0 (0)
Comm  time (%) = 0.000853777 (3.75351)
Outpt time (%) = 5.88894e-05 (0.258899)
Other time (%) = 0.0116131 (51.0555)

Nlocal:    8 ave 8 max 8 min
Histogram: 1 0 0 0 0 0 0 0 0 0
Nghost:    2189 ave 2189 max 2189 min
Histogram: 1 0 0 0 0 0 0 0 0 0
Neighs:    2344 ave 2344 max 2344 min
Histogram: 1 0 0 0 0 0 0 0 0 0

Total # of neighbors = 2344
Ave neighs/atom = 293
Neighbor list builds = 0
Dangerous builds = 0
unfix 1
# ---- define output variables ----
variable natoms equal "count(all)"
variable tot_energy equal "c_eatoms"
variable length_x equal "lx"
variable length_y equal "ly"
variable length_z equal "lz"
variable tilt_xy equal "xy"
variable tilt_xz equal "xz"
variable tilt_yz equal "yz"
variable tot_press equal "press"
variable press_xx equal "pxx"
variable press_yy equal "pyy"
variable press_zz equal "pzz"
variable press_xy equal "pxy"
variable press_xz equal "pxz"
variable press_yz equal "pyz"

# ---- output ----
print "pypospack:output_section:begin"
pypospack:output_section:begin
print "tot_energy = ${tot_energy}"
tot_energy = -164.722138415744
print "num_atoms = ${natoms}"
num_atoms = 8
print "xx = ${length_x}"
xx = 4.20883001371435
print "yy = ${length_y}"
yy = 4.20883001371435
print "zz = ${length_z}"
zz = 4.20883001371435
print "xy = ${tilt_xy}"
xy = 0
print "xz = ${tilt_xz}"
xz = 0
print "yz = ${tilt_yz}"
yz = 0
print "tot_press = ${tot_press}"
tot_press = 5.58765665687492
print "pxx = ${press_xx}"
pxx = 5.58765665651822
print "pyy = ${press_yy}"
pyy = 5.58765665647238
print "pzz = ${press_zz}"
pzz = 5.58765665763416
print "pxy = ${press_xy}"
pxy = 2.0554645346851e-10
print "pxz = ${press_xz}"
pxz = 4.24405202668874e-10
print "pyz = ${press_yz}"
pyz = 1.39554488680613e-10
print "pypospack:output_section:done"
pypospack:output_section:done
print "pypospack:lammps_sim:done"
pypospack:lammps_sim:done
#------------------------------------------------------------------------------
# RUN THERMOSTAT
# running using an NPT Nose-Hoover style thermostat
#------------------------------------------------------------------------------
variable tempdamp equal 0.1
variable pressdamp equal 1.0
# set initial velocities
velocity all create 100 1203010 mom yes dist gaussian loop all
# fix for Nose-Hoover style thermostat
fix 20 all npt temp 100 100 0.1 aniso 0.0 0.0 1.0 drag 1.0 couple xyz
variable boxx equal lx
variable boxy equal ly
variable boxz equal lz
variable boxp equal press
variable boxt equal temp
# calculate averages every 10000 steps
reset_timestep 0
fix 21 all ave/time 10 10 100 v_boxx v_boxy v_boxz v_boxp v_boxt file lattice.out
thermo_style custom step temp pe ke etotal press lx ly lz press pxx pyy pzz pxy pxz pyz vol
thermo_modify flush yes
thermo 100
run 100000
PPPM initialization ...
  G vector (1/distance) = 0.355405
  grid = 8 8 8
  stencil order = 5
  estimated absolute RMS force accuracy = 5.20839e-05
  estimated relative force accuracy = 3.61703e-06
  using double precision FFTs
  3d grid and FFT values/proc = 3375 512
Memory usage per processor = 3.06549 Mbytes
Step Temp PotEng KinEng TotEng Press Lx Ly Lz Press Pxx Pyy Pzz Pxy Pxz Pyz Volume 
       0          100   -164.72213  0.090482102   -164.63165    1302.7638      4.20883      4.20883      4.20883    1302.7638    1581.7704    953.58542    1372.9355    428.56038    -158.3295   -465.38294    74.556267 
     100    74.734175    -164.6857  0.067621052   -164.61808    2884.4376    4.2093386    4.2093386    4.2093386    2884.4376    2334.7847    1226.9629    5091.5652   -54.954211    -849.6193   -14.523709    74.583301 
     200    52.310392   -164.64202  0.047331542   -164.59468    2487.1663    4.2106586    4.2106586    4.2106586    2487.1663   -108.06024    963.42535    6606.1339   -1432.7584   -430.65056    370.57478    74.653483 
     300    83.747199   -164.64799  0.075776225   -164.57222   -2416.8436    4.2124789    4.2124789    4.2124789   -2416.8436   -1750.6724   -2774.7449   -2725.1135   -270.09784    127.30228    -311.4133    74.750347 
     400    79.334206   -164.62766  0.071783256   -164.55587   -2834.0451     4.213162     4.213162     4.213162   -2834.0451   -6143.3655   -4934.3168    2575.5471    1231.8894   -380.41702   -305.13092    74.786717 
     500    64.915903   -164.60474  0.058737274   -164.54601   -2620.2635    4.2133847    4.2133847    4.2133847   -2620.2635   -6480.5683   -3445.2785    2065.0563   -241.89201   -103.39324   -416.55292    74.798576 
     600     58.21156    -164.5938  0.052671043   -164.54113   -600.74656    4.2131849    4.2131849    4.2131849   -600.74656    2036.9952    -1258.181   -2581.0539   -962.38323    238.73721   -273.37871    74.787939 
     700    62.912648   -164.59711  0.056924686   -164.54018    2208.9046    4.2121732    4.2121732    4.2121732    2208.9046   -2487.6915   -1162.0247     10276.43   -821.25406    243.03074    609.40891    74.734074 
     800    133.96564   -164.66139   0.12121493   -164.54018    -749.7351    4.2119329    4.2119329    4.2119329    -749.7351   -191.26063   -2800.9227    742.97806    1143.6113    882.94412    115.43195    74.721285 
     900    136.86567   -164.66429   0.12383894   -164.54046    138.10934    4.2118974    4.2118974    4.2118974    138.10934    1672.6609   -1236.5032   -21.829648   -486.57171    1249.6775     69.26571    74.719397 
    1000    69.983647   -164.60421  0.063322674   -164.54088    4101.7259    4.2114776    4.2114776    4.2114776    4101.7259    946.93563    1064.1949    10294.047   -2228.0529    352.62263    1139.2998    74.697056 
    1100    101.98064   -164.63295  0.092274226   -164.54068    1173.0592    4.2118975    4.2118975    4.2118975    1173.0592    800.41336   -1090.1401    3808.9045   -658.99209    40.640374    837.86903    74.719402 
    1200    138.41383   -164.66586   0.12523974   -164.54062   -3518.2297    4.2129883    4.2129883    4.2129883   -3518.2297   -4634.7184   -5300.5286   -619.44209    331.89057    851.58321    -14.98118    74.777471 
    1300    102.26513   -164.63341  0.092531641   -164.54088   -634.63925    4.2129547    4.2129547    4.2129547   -634.63925   -2944.3584   -3611.3055    4651.7461    53.871553   -428.58413    219.38303    74.775677 
    1400    101.76303   -164.63292  0.092077331   -164.54084   -1367.0409    4.2130952    4.2130952    4.2130952   -1367.0409   -2750.9262   -1966.3619    616.16527   -2272.8689    97.172669   -116.12725    74.783163 
    1500    112.33073   -164.64273   0.10163921   -164.54109   -2202.8666    4.2134457    4.2134457    4.2134457   -2202.8666   -594.87505   -4258.1753   -1755.5495   -146.96325   -165.62145   -342.41454    74.801826 
    1600    111.36914   -164.64194   0.10076914   -164.54117   -368.68538    4.2128249    4.2128249    4.2128249   -368.68538   -3301.1956   -5194.7076     7389.847     1466.939   -1195.9484    -490.0218     74.76877 
    1700    120.91541    -164.6505    0.1094068   -164.54109   -3258.1357    4.2127802    4.2127802    4.2127802   -3258.1357   -2953.5617   -4020.1169   -2800.7286    238.82236   -331.68501   -1731.7311    74.766389 
    1800    67.411101   -164.60217  0.060994981   -164.54118    1436.7921    4.2124253    4.2124253    4.2124253    1436.7921    3548.2382   -1019.7774    1781.9155   -576.81463   -671.16109   -806.47933    74.747493 
    1900    44.988243   -164.58182  0.040706308   -164.54111    1813.8035    4.2120299    4.2120299    4.2120299    1813.8035   -2115.4465   -1676.1021    9232.9591   -532.13984   -704.15536    499.19103    74.726447 
    2000    101.03681   -164.63216  0.091420226   -164.54074   -2008.2186    4.2122992    4.2122992    4.2122992   -2008.2186    -924.8583   -3816.4393   -1283.3582    1436.2199   -88.977791     -205.612    74.740779 
    2100    88.819523    -164.6211  0.080365771   -164.54074     147.8694    4.2126493    4.2126493    4.2126493     147.8694   -630.18074   -3044.4361     4118.225    167.18075    144.53803   -201.99872     74.75942 
    2200    76.036346   -164.60963  0.068799284   -164.54083    1880.7561    4.2123696    4.2123696    4.2123696    1880.7561    11.633087    248.25078    5382.3843   -1910.8615   -788.65772    482.32582    74.744529 
    2300    138.17746   -164.66573   0.12502587   -164.54071   -144.04725    4.2124562    4.2124562    4.2124562   -144.04725    1280.4512   -669.02072   -1043.5723   -789.81537   -11.198218    585.00663    74.749139 
    2400    149.60021   -164.67621   0.13536142   -164.54084   -1840.1315    4.2131188    4.2131188    4.2131188   -1840.1315   -2903.3609   -4725.2486     2108.215    23.286751    615.89008    908.94447    74.784416 
    2500    122.94231   -164.65207   0.11124079   -164.54083    1289.9727    4.2123389    4.2123389    4.2123389    1289.9727   -312.65093   -1999.5326    6182.1015   -35.404194   -152.10437    556.13523    74.742897 
    2600    109.66725   -164.63998  0.099229235   -164.54075   -1225.4943    4.2122883    4.2122883    4.2122883   -1225.4943   -1547.6362   -538.08607   -1590.7607   -2616.5825    1098.5718   -808.09825    74.740202 
    2700    76.315459   -164.61008  0.069051831   -164.54103     234.4064    4.2124842    4.2124842    4.2124842     234.4064   -61.821476    -2006.429    2771.4696   -587.83938    17.803685    203.60983    74.750631 
    2800    82.900817   -164.61591  0.075010402    -164.5409    -446.5079    4.2120436    4.2120436    4.2120436    -446.5079   -3430.7905   -3801.4747    5892.7415    1049.1318   -282.50874    317.16994    74.727177 
    2900    94.849514   -164.62665  0.085821833   -164.54082   -3225.1289    4.2122075    4.2122075    4.2122075   -3225.1289   -3184.1485   -3895.8727   -2595.3657   -192.66118    1100.5974   -1264.6851    74.735899 
    3000    53.576665   -164.58965  0.048477293   -164.54117    3271.3497    4.2120797    4.2120797    4.2120797    3271.3497    3673.7128   -577.28259    6717.6189   -988.29373     101.2203     -503.124    74.729099 
    3100    91.629232   -164.62402  0.082908054   -164.54111   -50.388079    4.2120844    4.2120844    4.2120844   -50.388079   -1420.5947   -1133.1647    2402.5951   -844.98693    272.12481   -209.88683    74.729347 
    3200    151.53909   -164.67792   0.13711575    -164.5408   -1526.1462    4.2121549    4.2121549    4.2121549   -1526.1462   -225.01328   -2104.5555   -2248.8699    1331.3569    38.908034   -169.05508      74.7331 
    3300    110.30611   -164.64079  0.099807286   -164.54098    1044.7264    4.2125867    4.2125867    4.2125867    1044.7264   -851.04166   -2509.1357    6494.3565    641.90101   -39.982976    237.24137    74.756086 
    3400    85.391089   -164.61811  0.077263652   -164.54085    1990.4471    4.2119354    4.2119354    4.2119354    1990.4471    12.139628    1765.0065    4194.1952   -1366.0989   -607.11691     -271.142    74.721416 
    3500    104.27355   -164.63505  0.094348897    -164.5407    675.57646    4.2118644    4.2118644    4.2118644    675.57646   -197.88975    2121.2432    103.37592   -837.76698     7.733623   -301.65367    74.717639 
    3600    99.708018   -164.63102   0.09021791    -164.5408   -973.87266    4.2126821    4.2126821    4.2126821   -973.87266   -4310.9357   -2018.7317    3408.0494    689.72794   -273.30336    1154.7424    74.761163 
    3700    104.66645   -164.63536  0.094704407   -164.54066    710.08152    4.2118953    4.2118953    4.2118953    710.08152   -1080.3016   -493.28066    3703.8268    762.43422   -766.51087    428.98588    74.719285 
    3800    91.996344   -164.62412  0.083240226   -164.54088   -647.48156    4.2120865    4.2120865    4.2120865   -647.48156   -599.76236    -797.0869   -545.59542   -1603.7723    806.05749   -1344.8089    74.729461 
    3900    78.234564   -164.61207  0.070788277   -164.54128    2794.3642    4.2123583    4.2123583    4.2123583    2794.3642    2820.3741   -133.11325    5695.8317   -347.58897   -791.26566    95.424922    74.743927 
    4000    135.37537   -164.66352   0.12249048   -164.54103    -2377.566    4.2123771    4.2123771    4.2123771    -2377.566   -2236.9487   -3661.5326   -1234.2166    727.20909   -104.76418    -315.5068    74.744928 
    4100    130.65073   -164.65922   0.11821553   -164.54101    -3238.902    4.2126179    4.2126179    4.2126179    -3238.902   -2909.5956   -4820.5888   -1986.5215   -103.04498    820.64176   -538.81766     74.75775 
    4200    54.704901   -164.59077  0.049498144   -164.54127    2811.9477    4.2126562    4.2126562    4.2126562    2811.9477    2236.5555   -1889.1503    8088.4377   -986.65571   -255.44277   -134.36561    74.759786 
    4300    73.170004   -164.60711  0.066205757    -164.5409   -1831.6679    4.2125176    4.2125176    4.2125176   -1831.6679    -3542.158   -1581.9261   -370.91956   -1462.1716    522.09274   -1188.5965    74.752408 
    4400    111.74982   -164.64176   0.10111359   -164.54065   -1608.1971    4.2125074    4.2125074    4.2125074   -1608.1971   -3302.0167   -1517.7617   -4.8128815    526.73187   -63.914167   -208.79228    74.751863 
    4500    101.44902   -164.63257  0.091793209   -164.54078   -1281.0089    4.2131485    4.2131485    4.2131485   -1281.0089   -4001.4355   -3730.2968    3888.7057    37.109049   -380.59913    956.28835    74.785998 
    4600    107.40591   -164.63787  0.097183128   -164.54069    618.68689    4.2121139    4.2121139    4.2121139    618.68689  -0.95627862    186.74797     1670.269   -1673.3578   -68.619578   -230.68106    74.730921 
    4700     108.2156   -164.63891  0.097915753     -164.541    1576.2378    4.2122269    4.2122269    4.2122269    1576.2378    2051.5213    810.54515    1866.6469   -1972.8389    291.90755   -853.94052    74.736934 
    4800    123.44563   -164.65265    0.1116962   -164.54096    270.73875     4.213017     4.213017     4.213017    270.73875   -774.18993   -2041.4226    3627.8287     658.0494   -614.78791    744.01665    74.778994 
    4900    149.76555   -164.67611   0.13551102    -164.5406   -1330.0336    4.2123237    4.2123237    4.2123237   -1330.0336    453.51171   -2729.1053    -1714.507    924.41335    -237.8227    100.57082    74.742084 
    5000    83.030687   -164.61606  0.075127911   -164.54093   -921.42271    4.2126802    4.2126802    4.2126802   -921.42271   -210.42128   -3498.2151    944.36828   -960.39292    858.41219   -661.14509    74.761062 
    5100    30.196153   -164.56848  0.027322114   -164.54116    3582.1195    4.2127628    4.2127628    4.2127628    3582.1195    4095.4656    -850.4803    7501.3733    24.377525   -549.57361   -83.444882    74.765459 
    5200    88.484683   -164.62093  0.080062801   -164.54087   -3266.4147    4.2125769    4.2125769    4.2125769   -3266.4147   -2374.0594   -3891.4223   -3533.7622    916.04212    748.85242   -1427.7838    74.755564 
    5300    99.768155   -164.63117  0.090272323    -164.5409   -2434.9656    4.2127696    4.2127696    4.2127696   -2434.9656   -3747.9503   -4598.7293    1041.7828    1101.8552    452.33908   -71.670847    74.765823 
    5400    77.923719   -164.61171  0.070507019    -164.5412    1042.6019    4.2129076    4.2129076    4.2129076    1042.6019    2322.6935   -3087.6523    3892.7646    277.31374   -40.645145    476.99581    74.773172 
    5500    109.68325    -164.6402  0.099243711   -164.54096   -1362.4387    4.2122228    4.2122228    4.2122228   -1362.4387   -598.69115   -2031.9423   -1456.6827   -1107.6873    1006.5535   -1376.3722    74.736712 
    5600    128.52837   -164.65721   0.11629517   -164.54092    911.53283    4.2123123    4.2123123    4.2123123    911.53283   -149.48578   -624.28568      3508.37    539.40544    64.320361   -263.24518    74.741481 
    5700    144.16638   -164.67127   0.13044477   -164.54083   -2254.2467    4.2131229    4.2131229    4.2131229   -2254.2467   -3019.4792   -5012.7698    1269.5089    7.8241721   -367.52962    849.15002    74.784637 
    5800    136.08087   -164.66371   0.12312883   -164.54059   -1042.5556     4.211876     4.211876     4.211876   -1042.5556   -186.19625   -2131.3457    -810.1248   -1393.9905   -225.36276    394.99876    74.718257 
    5900    69.217949   -164.60352  0.062629855   -164.54089    1637.0047    4.2121482    4.2121482    4.2121482    1637.0047     1407.712   -570.76425    4074.0664   -2033.6696    89.867965   -386.59157    74.732742 
    6000    74.701279   -164.60833  0.067591287   -164.54074    969.44265    4.2126418    4.2126418    4.2126418    969.44265   -330.55152   -1817.2144    5056.0939   -224.84218   -1022.5891     141.0579    74.759018 
    6100    124.18423   -164.65296    0.1123645    -164.5406   -2069.1194    4.2119305    4.2119305    4.2119305   -2069.1194   -412.12199   -2941.5858   -2853.6505    91.350824   -119.30037   -530.77427    74.721155 
    6200    85.341804   -164.61826  0.077219058   -164.54105    168.66221    4.2123797    4.2123797    4.2123797    168.66221   -19.475687   -3366.0789    3891.5413   -1530.5354   -210.86874    100.46046    74.745067 
    6300    71.580137   -164.60597  0.064767212    -164.5412    3286.9079    4.2123947    4.2123947    4.2123947    3286.9079    5876.3616    301.00001    3683.3622   -607.98289   -889.13332    -322.7154    74.745864 
    6400     108.7376   -164.63953  0.098388066   -164.54114   -1070.4085    4.2118868    4.2118868    4.2118868   -1070.4085   -94.004275   -1186.5308   -1930.6906   -116.04627    682.13071   -2610.8498    74.718829 
    6500    98.677696   -164.63035  0.089285653   -164.54106    1145.7266    4.2122586    4.2122586    4.2122586    1145.7266   -2046.7275   -1457.5269    6941.4343    1434.6817   -620.34098   -404.10846    74.738621 
    6600    95.240225   -164.62718  0.086175357   -164.54101   -427.17275    4.2126079    4.2126079    4.2126079   -427.17275    684.05098   -2583.1213    617.55209    503.43835    -121.3819    109.85571    74.757215 
    6700    83.703806   -164.61646  0.075736963   -164.54072   -617.84288    4.2115984    4.2115984    4.2115984   -617.84288   -1977.4666   -550.94241    674.88035    -943.8305     928.9681   -788.89017    74.703484 
    6800    66.306772    -164.6008  0.059995761   -164.54081    2178.9771    4.2121474    4.2121474    4.2121474    2178.9771    -950.5229    911.38542    6576.0687    744.82747   -296.76403   -316.43881    74.732704 
    6900    120.55313   -164.64968   0.10907901    -164.5406   -2379.6755    4.2128512    4.2128512    4.2128512   -2379.6755   -4010.4524   -4480.9702    1352.3962     1002.821     195.0235    38.397183    74.770168 
    7000    142.73903   -164.66966   0.12915328   -164.54051   -1304.9084     4.211701     4.211701     4.211701   -1304.9084   -891.50977   -2794.9654   -228.25017   -14.465534    259.40967    995.87179    74.708944 
    7100    103.16988   -164.63433  0.093350277   -164.54098     1781.811    4.2123963    4.2123963    4.2123963     1781.811    2066.4143   -1173.1084    4452.1271   -740.81201    600.80005    1245.8905     74.74595 
    7200    127.11907   -164.65582   0.11502001    -164.5408     204.4998    4.2126162    4.2126162    4.2126162     204.4998     1158.071   -1631.2172    1086.6457   -144.02285    153.92978    372.12664    74.757658 
    7300    137.46209   -164.66506   0.12437859   -164.54068   -1453.1162    4.2118214    4.2118214    4.2118214   -1453.1162   -1186.7874   -2360.8087   -811.75236    140.98131    882.01994   -562.18405    74.715353 
    7400    81.066897   -164.61435  0.073351032     -164.541    573.46407    4.2126348    4.2126348    4.2126348    573.46407   -2587.8407   -3383.2767    7691.5096   -951.54214   -246.40296    984.69375    74.758649 
    7500    66.650559   -164.60117  0.060306826   -164.54086    379.89315    4.2126207    4.2126207    4.2126207    379.89315    2901.5575   -351.89519   -1409.9828   -871.57959   -191.03265    430.14521    74.757895 
    7600    65.512786   -164.60017  0.059277345   -164.54089   -838.63889    4.2119001    4.2119001    4.2119001   -838.63889   -3278.2989   -169.93268     932.3149   -853.45112    1057.4027   -1830.2279    74.719538 
    7700    69.867152   -164.60415  0.063217267   -164.54093    511.84876    4.2127825    4.2127825    4.2127825    511.84876   -4130.0665   -1321.1432     6986.756    502.46951   -529.37967   -571.67418    74.766511 
    7800    106.74749   -164.63748  0.096587372    -164.5409   -1239.7388     4.212825     4.212825     4.212825   -1239.7388    747.01809   -2972.3715    -1493.863   -585.42953   -161.20374   -561.16304    74.768773 
    7900    102.01971   -164.63327  0.092309579   -164.54096    687.30224     4.211792     4.211792     4.211792    687.30224    107.48125   -1199.0826    3153.5081   -1585.0439    69.140309   -23.702015    74.713789 
    8000    107.92171   -164.63857  0.097649828   -164.54092    1735.9556    4.2127996    4.2127996    4.2127996    1735.9556    1955.2484    327.61919    2924.9993    53.901619   -1507.2597   -135.35864     74.76742 
    8100    150.39083   -164.67672   0.13607678   -164.54065   -2461.8416    4.2129146    4.2129146    4.2129146   -2461.8416    -1722.274    -4554.291   -1108.9598    690.76419   -517.69189   -1060.1208    74.773546 
    8200    116.53726   -164.64617   0.10544536   -164.54072   -515.97836    4.2119179    4.2119179    4.2119179   -515.97836   -406.14696   -4044.3716    2902.5835    518.31408   -809.93685    663.84314    74.720485 
    8300    69.714781   -164.60393  0.063079399   -164.54085    1335.6647    4.2129457    4.2129457    4.2129457    1335.6647    1094.8013   -2489.5769    5401.7697   -564.56369   -664.95688    1498.0281    74.775199 
    8400      98.5875   -164.62986  0.089204042   -164.54066   -2176.1456    4.2129022    4.2129022    4.2129022   -2176.1456   -149.85951   -2663.1862    -3715.391     299.7514   -288.74178    523.91122    74.772886 
    8500    105.57864   -164.63628  0.095529775   -164.54075   -1561.9706    4.2120803    4.2120803    4.2120803   -1561.9706   -2777.6225   -2975.5022    1067.2129    708.94298    278.37219   -774.14369     74.72913 
    8600    92.837893   -164.62503  0.084001677   -164.54103   -653.62685    4.2131724    4.2131724    4.2131724   -653.62685   -2876.6202   -4725.1554     5640.895    726.03685   -655.99402    498.69548    74.787273 
    8700    100.80815   -164.63224  0.091213334   -164.54103   -561.73747    4.2127489    4.2127489    4.2127489   -561.73747    4176.4733   -2140.5541   -3721.1315   -56.854966    672.88358     883.7365    74.764722 
    8800     95.76323   -164.62782  0.086648583   -164.54117     615.9555    4.2120794    4.2120794    4.2120794     615.9555   -1049.6969   -1367.9811    4265.5445   -706.14161    1517.1035   -20.128562    74.729083 
    8900    118.25814   -164.64801   0.10700245   -164.54101   -1607.3246    4.2133856    4.2133856    4.2133856   -1607.3246   -1775.0167   -3410.2409    363.28389    663.62637    649.67762   -82.960696    74.798626 
    9000    116.41377   -164.64615   0.10533362   -164.54081   -1802.7747     4.212729     4.212729     4.212729   -1802.7747    120.32168   -4280.4829    -1248.163   -462.42894    1555.9451   -547.71694    74.763664 
    9100    53.270272   -164.58914  0.048200062   -164.54094    1670.9863    4.2118618    4.2118618    4.2118618    1670.9863   -52.510186    -2518.224    7583.6932   -1307.5497    636.80872    1188.7567    74.717501 
    9200    65.701666   -164.60026  0.059448248   -164.54082    1649.6923    4.2129018    4.2129018    4.2129018    1649.6923    3586.0299   -459.20837    1822.2555   -576.32726    114.34994    1113.6561     74.77286 
    9300    129.35398   -164.65761    0.1170422   -164.54056   -2747.0734    4.2125376    4.2125376    4.2125376   -2747.0734   -1844.1156   -3876.6939   -2520.4107   -424.28542    838.45491   -302.04476    74.753471 
    9400    114.46791   -164.64429   0.10357297   -164.54072    9.0214644    4.2118835    4.2118835    4.2118835    9.0214644    88.934359   -3925.1844    3863.3144   -38.294133   -300.47253    613.47752    74.718657 
    9500    93.432002    -164.6255  0.084539239   -164.54096    2310.8258    4.2128001    4.2128001    4.2128001    2310.8258    4158.9659   -1941.0004    4714.5118   -1194.1828   -938.58892    1570.3718    74.767448 
    9600    117.75851   -164.64749   0.10655038   -164.54094   -605.05423     4.212268     4.212268     4.212268   -605.05423    3791.7877   -2686.8065   -2920.1439   -181.89865   -540.51267    1012.2808     74.73912 
    9700    127.87809   -164.65656   0.11570678   -164.54085    19.083151    4.2118069    4.2118069    4.2118069    19.083151   -1176.4289   -3122.1648    4355.8432    166.81916   -1047.0533   -380.94023    74.714577 
    9800    119.18453   -164.64875   0.10784066   -164.54091    -2530.248    4.2130988    4.2130988    4.2130988    -2530.248   -2550.0932   -5426.4243    385.77339    1280.5473   -1638.9075   -325.88207    74.783355 
    9900    71.829042   -164.60588  0.064992427   -164.54088    356.47036    4.2119274    4.2119274    4.2119274    356.47036    3499.2714   -2506.1886    76.328282    12.897369   -156.42218    336.53261    74.720993 
   10000    40.610798   -164.57775  0.036745504   -164.54101     2170.165     4.211538     4.211538     4.211538     2170.165    -1480.438   -1347.1504    9338.0833   -827.98713   -91.457774    405.74374    74.700271 
   10100    99.772822    -164.6311  0.090276546   -164.54083    -1756.352      4.21289      4.21289      4.21289    -1756.352   -251.96174   -2703.2701   -2313.8243     1368.636    -620.4831   -214.96713    74.772235 
   10200     129.4993   -164.65786   0.11717369   -164.54069   -1110.7015    4.2119248    4.2119248    4.2119248   -1110.7015    -1196.434   -2144.1302    8.4596674    528.53167    1020.9424   -1382.7492    74.720856 
   10300    87.576166   -164.62022  0.079240755   -164.54098    1794.2661    4.2116559    4.2116559    4.2116559    1794.2661       687.57   -1454.1312    6149.3595   -44.090815   -724.25146    694.03541    74.706543 
   10400    94.597042   -164.62656  0.085593391   -164.54096    3650.0864    4.2122999    4.2122999    4.2122999    3650.0864    6814.9338    1979.8179    2155.5075   -204.61909    770.28394    1416.2524     74.74082 
   10500    137.59288   -164.66533   0.12449693   -164.54083   -932.99051    4.2118126    4.2118126    4.2118126   -932.99051   -1052.3921   -1491.4316   -255.14785   -688.44822    1445.9222    288.87095    74.714884 
   10600    127.98664   -164.65655     0.115805   -164.54075   -169.26273    4.2117917    4.2117917    4.2117917   -169.26273   -985.17206    -2636.077    3113.4609    389.66068    349.60529    756.85124    74.713773 
   10700    87.043693   -164.61953  0.078758962   -164.54077    677.33805    4.2125552    4.2125552    4.2125552    677.33805     1030.905   -390.75486     1391.864   -576.44909    331.66184    1254.8772    74.754411 
   10800    59.316972   -164.59456  0.053671243   -164.54089    774.60116    4.2116058    4.2116058    4.2116058    774.60116    2627.1365   -1055.8558    752.52288   -899.92704    386.23263    1721.1221    74.703879 
   10900    78.704919   -164.61214  0.071213865   -164.54093    1036.0329    4.2117282    4.2117282    4.2117282    1036.0329   -1337.0529   -1969.6959    6414.8475   -1039.4741    131.56823    993.21123    74.710393 
   11000    125.23666   -164.65407   0.11331676   -164.54075   -3724.6362    4.2131372    4.2131372    4.2131372   -3724.6362   -2175.7221   -3872.5033   -5125.6832    398.43716     399.7863   -28.226584    74.785398 
   11100    107.55135    -164.6382  0.097314718   -164.54088    246.48712    4.2118896    4.2118896    4.2118896    246.48712    2451.5137   -1542.1958   -169.85654   -746.85571    684.35882    241.28263    74.718981 
   11200    75.616392   -164.60956  0.068419301   -164.54114    2047.0428    4.2120062    4.2120062    4.2120062    2047.0428    1185.5008   -1148.3678    6103.9954   -1380.2075    49.969746     1065.703    74.725186 
   11300    112.24536   -164.64258   0.10156196   -164.54102   -203.10941    4.2129726    4.2129726    4.2129726   -203.10941     3494.885   -1369.8361   -2734.3772    720.91478   -106.29322     188.5265    74.776632 
   11400    133.80199   -164.66181   0.12106685   -164.54074   -1741.2173    4.2122363    4.2122363    4.2122363   -1741.2173   -3553.3912   -2243.4419    573.18111    176.46653    614.95715   -1553.4423    74.737431 
   11500    93.065136   -164.62514  0.084207291   -164.54093   -750.85745    4.2126205    4.2126205    4.2126205   -750.85745   -1333.5982   -2157.6973    1238.7231    1125.3107   -1602.5565    3.3274226    74.757885 
   11600    67.054932   -164.60151  0.060672712   -164.54083    1607.1947    4.2130104    4.2130104    4.2130104    1607.1947    2926.6781     1860.189    34.716965   -130.29693    95.844128    677.76095    74.778646 
   11700    85.972933   -164.61856  0.077790116   -164.54077   -1220.6649    4.2124243    4.2124243    4.2124243   -1220.6649   -2708.7081   -1580.7573    627.47087   -364.62626   -133.42244    81.623363    74.747443 
   11800    117.13927    -164.6467   0.10599008   -164.54071   -926.09379    4.2128096    4.2128096    4.2128096   -926.09379   -905.95914   -2907.2781    1034.9558    1297.4653   -1228.2269    260.28958    74.767955 
   11900    129.91791   -164.65823   0.11755246   -164.54067   -2447.1021    4.2135342    4.2135342    4.2135342   -2447.1021   -958.53393    -1071.147   -5311.6254    993.23647   -611.82789    -246.5584    74.806542 
   12000    97.740601   -164.62937  0.088437749   -164.54094    307.98952    4.2123154    4.2123154    4.2123154    307.98952    3876.5685   -2099.5976   -853.00233   -638.20699   -773.89516    1193.4773    74.741645 
   12100    87.687286    -164.6204  0.079341299   -164.54106    1534.9804    4.2126505    4.2126505    4.2126505    1534.9804    2150.7364   -2423.8039    4878.0085   -1149.2639   -217.68866    1631.8535    74.759482 
   12200    122.64074   -164.65184   0.11096792   -164.54087   -3598.0392    4.2136702    4.2136702    4.2136702   -3598.0392   -6.5904103   -4502.1779   -6285.3492    299.04199    1105.7913    79.440407    74.813783 
   12300    101.53724    -164.6327  0.091873032   -164.54082   -1104.8142     4.212392     4.212392     4.212392   -1104.8142    224.45728   -3454.2549   -84.644971   -682.82722    997.88946    36.763528    74.745723 
   12400    52.513084    -164.5885  0.047514942   -164.54099    184.97701       4.2128       4.2128       4.2128    184.97701    414.14787   -1703.7397    1844.5228   -918.64441    184.19158    1110.7835    74.767442 
   12500     70.11144   -164.60434  0.063438304   -164.54091    305.44957    4.2131594    4.2131594    4.2131594    305.44957     4091.257   -527.48193   -2647.4263   -774.43707    1487.6795    885.30793     74.78658 
   12600    109.62332   -164.63991  0.099189483   -164.54072   -1543.0597    4.2123303    4.2123303    4.2123303   -1543.0597   -3038.1131   -2505.8761     914.8101   -1160.7511    1483.1517   -598.26858    74.742435 
   12700    121.62029   -164.65077   0.11004459   -164.54072   -1124.0563     4.212796     4.212796     4.212796   -1124.0563    773.20442   -2238.5722   -1906.8013    976.17831    281.73562    241.23434    74.767232 
   12800     120.0495   -164.64939   0.10862331   -164.54077    468.42998     4.212791     4.212791     4.212791    468.42998    2682.2855    1580.8442   -2857.8397   -668.25741     1151.377    527.92022    74.766961 
   12900    106.88674   -164.63765  0.096713373   -164.54094    212.22402    4.2119002    4.2119002    4.2119002    212.22402    1489.6004   -1831.6458    978.71744   -844.74182   -420.59293    777.04613    74.719542 
   13000    113.37118   -164.64344   0.10258063   -164.54086    760.64126    4.2123664    4.2123664    4.2123664    760.64126    1455.7947   -2260.9292    3087.0582    725.71086   -769.88114    721.63846    74.744358 
   13100    125.85741   -164.65459   0.11387843   -164.54071   -2884.2265    4.2128342    4.2128342    4.2128342   -2884.2265    -2252.793   -1692.5026   -4707.3838    947.65467   -658.36032   -893.56015    74.769261 
   13200    79.656644   -164.61294  0.072075006   -164.54087    563.83924    4.2115683    4.2115683    4.2115683    563.83924    2861.5644   -1526.1973     356.1507   -12.755633   -1421.7279    695.09632    74.701882 
   13300    55.796803   -164.59147   0.05048612   -164.54098    1824.5448    4.2121425    4.2121425    4.2121425    1824.5448     1013.917    311.48408    4148.2333   -1041.5818   -906.95508    1390.0835    74.732438 
   13400    98.153573   -164.62962  0.088811416   -164.54081   -816.58079     4.212429     4.212429     4.212429   -816.58079    2429.1871   -704.76405   -4174.1654    250.98918    42.462402   -169.96537    74.747692 
   13500    112.16955   -164.64231   0.10149337   -164.54082    413.70651    4.2113419    4.2113419    4.2113419    413.70651    1320.9157   -1147.3525    1067.5564    22.524272   -55.443234   -640.92453    74.689838 
   13600    100.44811   -164.63191  0.090887559   -164.54102    836.64265    4.2120918    4.2120918    4.2120918    836.64265    2325.0123    750.11584    -565.2002    754.43755   -971.32247    128.28759    74.729743 
   13700     101.7894   -164.63302  0.092101189   -164.54092    1582.2545    4.2120408    4.2120408    4.2120408    1582.2545    4896.8421    1577.9712   -1728.0498   -1172.1321    1239.5322    573.07043    74.727029 
   13800    99.931173   -164.63134  0.090419826   -164.54092    802.53145    4.2112881    4.2112881    4.2112881    802.53145    121.55094   -1081.8192    3367.8627   -1266.3613    537.09012   -105.58338    74.686973 
   13900    110.86818   -164.64107   0.10031586   -164.54076   -167.45488    4.2122181    4.2122181    4.2122181   -167.45488    804.66975   -1367.7374    60.703043    1415.3494    886.61336      250.928    74.736462 
   14000    109.78946   -164.63991  0.099339812   -164.54057   -1000.4853     4.212185     4.212185     4.212185   -1000.4853   -992.08915    752.12939   -2761.4963   -391.58629    1200.3229   -64.806301    74.734701 
   14100    74.952664   -164.60856  0.067818746   -164.54074    1515.3875    4.2112371    4.2112371    4.2112371    1515.3875    3038.1538   -11.113313    1519.1221   -796.76223   -668.32934    1108.1686     74.68426 
   14200    89.961283   -164.62212  0.081398859   -164.54073    1504.0673    4.2122385    4.2122385    4.2122385    1504.0673    1304.2429    353.42831    2854.5305   -571.19213    448.35327    1446.0534    74.737549 
   14300    134.15716   -164.66206   0.12138822   -164.54067    -1985.194    4.2125704    4.2125704    4.2125704    -1985.194    464.38023   -766.77989   -5653.1825   -283.60189    727.77238   -195.45182    74.755219 
   14400    113.73761   -164.64374   0.10291218   -164.54083    829.39136    4.2116751    4.2116751    4.2116751    829.39136      4905.65   -947.17595      -1470.3   -20.402963   -254.64519    1076.1895    74.707568 
   14500    87.922687   -164.62061  0.079554295   -164.54106    1466.2555    4.2126347    4.2126347    4.2126347    1466.2555    1040.9174    1978.4824    1379.3667    -1045.033   -63.419742    1738.3641    74.758643 
   14600    94.265121   -164.62634  0.085293063   -164.54105    13.458063    4.2125735    4.2125735    4.2125735    13.458063    4215.6265   -269.53595   -3905.7164   -1181.8643    447.93622    776.02403    74.755382 
   14700    91.712803   -164.62394  0.082983671   -164.54096   -544.77561    4.2120245    4.2120245    4.2120245   -544.77561   -713.03826   -1681.4314    760.14286   -184.73682    -172.8447   -349.85642     74.72616 
   14800    85.273252    -164.6181   0.07715703   -164.54094   -1409.7821    4.2131797    4.2131797    4.2131797   -1409.7821   -1702.1085     37.53819   -2564.7759    1138.9821   -422.12003   -94.250223    74.787662 
   14900    77.809712   -164.61124  0.070403863   -164.54083   -855.07721     4.212827     4.212827     4.212827   -855.07721    964.58791     887.4518   -4417.2713   -1261.4235    724.29447    339.57778    74.768878 
   15000       82.159   -164.61512   0.07433919   -164.54078   -465.95304    4.2122774    4.2122774    4.2122774   -465.95304   -1261.3469   -611.47828    474.96611   -981.14567   -570.23539   -221.85311    74.739621 
   15100     122.8735    -164.6518   0.11117852   -164.54063   -1732.4519    4.2134989    4.2134989    4.2134989   -1732.4519   -494.92179    -1778.328   -2924.1059    1053.8528    139.43794   -145.42438    74.804661 
   15200    144.73284   -164.67156   0.13095731    -164.5406   -2642.9129    4.2131876    4.2131876    4.2131876   -2642.9129    250.14846   -1894.6133   -6284.2739    391.80154   -156.97658   -1017.5541    74.788083 
   15300    115.08501   -164.64492   0.10413134   -164.54079    135.82173    4.2124573    4.2124573    4.2124573    135.82173     4512.533   -1800.5258   -2304.5419    536.40994   -1499.2188    466.83636      74.7492 
   15400    101.60827    -164.6328  0.091937301   -164.54086    303.26181    4.2134081    4.2134081    4.2134081    303.26181    424.81219   -602.51682    1087.4901   -1304.5214    -92.03242    1270.4599    74.799827 
   15500    110.49505   -164.64085  0.099978242   -164.54087   -1283.5589    4.2129743    4.2129743    4.2129743   -1283.5589    4209.9003   -3110.8367   -4949.7403    -556.0859    505.36405    30.097026    74.776722 
   15600    95.802789   -164.62758  0.086684377   -164.54089   -1475.0331    4.2126223    4.2126223    4.2126223   -1475.0331    2152.8774   -3273.2242   -3304.7524    652.07086   -257.56239     976.7997    74.757983 
   15700    62.825611    -164.5979  0.056845933   -164.54106    255.04154    4.2134111    4.2134111    4.2134111    255.04154     860.9535    870.22891   -966.05778   -674.58276    245.48325    1311.8517    74.799986 
   15800    60.851861   -164.59607  0.055060042   -164.54101     550.7786    4.2125973    4.2125973    4.2125973     550.7786    6522.2975    394.71054   -5264.6722   -1771.7238    1045.7834    1556.1942    74.756651 
   15900    94.665007   -164.62661  0.085654887   -164.54095   -1220.9677    4.2123675    4.2123675    4.2123675   -1220.9677   -726.11248    -1473.163   -1463.6275   -820.36865    553.37207    380.42996    74.744419 
   16000    108.73988   -164.63932  0.098390129   -164.54093   -582.52095    4.2132078    4.2132078    4.2132078   -582.52095    2933.7356   -1114.1759   -3567.1226    277.81055    1762.4169    781.09247    74.789154 
   16100    99.677815   -164.63106  0.090190581   -164.54087   -57.969373    4.2121875    4.2121875    4.2121875   -57.969373     4466.805    -94.30421   -4546.4089    -960.8309    1377.6099    937.00018    74.734834 
   16200    97.824208   -164.62929  0.088513399   -164.54078    885.05656    4.2117686    4.2117686    4.2117686    885.05656    965.25059    864.00615    825.91293   -885.57559   -357.91711     231.2927    74.712541 
   16300    105.93013   -164.63659  0.095847807   -164.54074   -234.17427    4.2127611    4.2127611    4.2127611   -234.17427     532.4955   -1291.0473    56.028947   -779.80324     1044.378    259.15578     74.76537 
   16400    119.92312    -164.6491   0.10850896    -164.5406   -828.14835    4.2118607    4.2118607    4.2118607   -828.14835    2496.5946   -2068.8584   -2912.1812    355.03101   -242.13228   -998.44206    74.717444 
   16500    112.42168   -164.64227    0.1017215   -164.54054   -282.37527    4.2116674    4.2116674    4.2116674   -282.37527      1442.05   0.12372729   -2289.2995     918.1277   -1116.6908    44.426773    74.707154 
   16600    84.293186   -164.61712  0.076270246   -164.54085    1889.8382    4.2123382    4.2123382    4.2123382    1889.8382    2105.8231    2151.5328    1412.1587   -1910.7974   -646.23831    732.60429    74.742855 
   16700    109.87919   -164.64015  0.099421002   -164.54073     1659.653    4.2113638    4.2113638    4.2113638     1659.653    7939.1224   -84.634324   -2875.5292   -846.84725   -312.83285   -236.75205    74.691003 
   16800    144.33104   -164.67121   0.13059376   -164.54062   -1909.7382    4.2116763    4.2116763    4.2116763   -1909.7382    415.76329   -2721.4629   -3423.5151    838.49682   -1351.4876     23.58033    74.707631 
   16900    96.715212   -164.62859  0.087509956   -164.54108    1940.3388    4.2121698    4.2121698    4.2121698    1940.3388    5582.6297    10.134213    228.25245    -67.54093   -286.56864    443.34651    74.733892 
   17000    66.893854   -164.60167  0.060526965   -164.54114    2238.9715    4.2111905    4.2111905    4.2111905    2238.9715    8099.9076    665.21967   -2048.2129   -1213.7451    106.58273    1490.7206     74.68178 
   17100    89.619461   -164.62203  0.081089571   -164.54094   -615.30346    4.2116201    4.2116201    4.2116201   -615.30346   -1591.9551   -809.19862    555.24333   -1224.7653   -330.60452    200.30563    74.704641 
   17200     81.94303   -164.61508  0.074143775   -164.54094    263.60048    4.2122643    4.2122643    4.2122643    263.60048     3810.643   -2585.9566   -433.88488    -176.3277    2102.3957    898.80064    74.738926 
   17300    80.583345   -164.61392  0.072913504     -164.541   -99.465885    4.2113397    4.2113397    4.2113397   -99.465885    1981.4573    137.48172   -2417.3367    267.94095    874.47222    950.22721     74.68972 
   17400    83.759766   -164.61662  0.075787596   -164.54083    1531.9357    4.2115893    4.2115893    4.2115893    1531.9357    1701.5026    3252.2057    -357.9011   -765.56058    6.2312575    256.40203       74.703 
   17500    86.850315   -164.61953   0.07858399   -164.54095    1963.3969    4.2124248    4.2124248    4.2124248    1963.3969    4497.2474    1697.7589   -304.81571   -1745.9813    1823.5068     868.1132    74.747466 
   17600    142.92802   -164.66989   0.12932428   -164.54057    193.83614     4.211707     4.211707     4.211707    193.83614    3179.1301   -508.04994   -2089.5717    92.013924     959.3693    14.659603    74.709262 
   17700    150.98931   -164.67717   0.13661831   -164.54055   -1539.9654    4.2124406    4.2124406    4.2124406   -1539.9654    661.37349   -1256.4152   -4024.8544    985.83009    355.08959    553.83065    74.748309 
   17800    80.144659   -164.61358  0.072516572   -164.54106     2860.527    4.2128478    4.2128478    4.2128478     2860.527    5332.8187    2383.0629    865.69941   -1617.5027    135.93438    1088.7531    74.769989 
   17900    90.752612   -164.62299   0.08211487   -164.54088    582.73308    4.2122319    4.2122319    4.2122319    582.73308    3279.9694    399.91397   -1931.6842   -894.87226   -214.90986    547.01015    74.737199 
   18000    122.12822   -164.65136   0.11050418   -164.54086   -4527.8645    4.2133232    4.2133232    4.2133232   -4527.8645    -3522.779    -4997.529   -5063.2853    197.10266   -1052.9801   -293.95053    74.795305 
   18100    79.859062   -164.61335  0.072258158   -164.54109     -705.546    4.2135456    4.2135456    4.2135456     -705.546    3225.5804   -3285.9358   -2056.2827    180.93553    645.81378    467.02663     74.80715 
   18200    71.395479   -164.60573   0.06460013   -164.54113   -2169.1297    4.2127879    4.2127879    4.2127879   -2169.1297   -1151.8496   -8.3671239   -5347.1724   -97.822098   -947.23469    1407.1057    74.766797 
   18300    89.970179   -164.62248  0.081406909   -164.54107   -1829.7859    4.2133864    4.2133864    4.2133864   -1829.7859   -10.290522   -1143.6334   -4335.4337   -1482.0658   -1066.9479   -391.57829     74.79867 
   18400    105.17136    -164.6361  0.095161252   -164.54094   -1855.7032    4.2139044    4.2139044    4.2139044   -1855.7032    3072.7444   -4703.9608   -3935.8933    -700.1068    1008.4699    143.50773    74.826259 
   18500     139.3972   -164.66702   0.12612951   -164.54089   -3868.7043    4.2130531    4.2130531    4.2130531   -3868.7043   -3011.6098   -3926.4008   -4668.1022    869.01071   -157.05645   -173.32524    74.780919 
   18600    111.69327   -164.64189   0.10106242   -164.54083    -1017.353    4.2134061    4.2134061    4.2134061    -1017.353    1224.5769   -959.58807   -3317.0478    7.7335965   -353.42305   -371.64436    74.799716 
   18700    71.315772   -164.60544   0.06452801   -164.54091    1130.4487    4.2135575    4.2135575    4.2135575    1130.4487    3411.7948    1175.6732   -1196.1219   -2005.9664    435.03204     613.1606     74.80778 
   18800    116.62957   -164.64606   0.10552889   -164.54053   -780.83615    4.2125537    4.2125537    4.2125537   -780.83615   -121.51502   -727.12617   -1493.8673   -379.03122    365.22365   -186.17887    74.754327 
   18900    125.27689   -164.65388   0.11335317   -164.54052   -2723.7295    4.2133062    4.2133062    4.2133062   -2723.7295    241.40445   -3431.7975   -4980.7953    901.45524   -23.096435   -101.46129    74.794397 
   19000    75.620942   -164.60931  0.068423417   -164.54089    2075.4648    4.2130364    4.2130364    4.2130364    2075.4648     3973.712    2613.5933   -360.91103    -728.8387    825.98847     768.4385    74.780029 
   19100    83.759687   -164.61667  0.075787525   -164.54089    1096.0873    4.2120523    4.2120523    4.2120523    1096.0873    2003.4323    3502.7248   -2217.8953   -695.29447   -771.82807    1327.4423    74.727639 
   19200    107.36535   -164.63825  0.097146421    -164.5411    -1190.186    4.2128293    4.2128293    4.2128293    -1190.186    2799.8504   -2024.0731   -4346.3353    -782.1948   -352.93348    101.88859    74.769004 
   19300     105.2331    -164.6363  0.095217119   -164.54109    69.711444    4.2128164    4.2128164    4.2128164    69.711444     3881.542    -3346.154   -326.25367   -29.540711    1689.8812    1471.2847    74.768316 
   19400    99.407452   -164.63089  0.089945951   -164.54094   -1765.4513    4.2118902    4.2118902    4.2118902   -1765.4513   -2183.6818   -1020.9473   -2091.7249    628.29424   -418.31647    2018.4845    74.719014 
   19500     68.02428   -164.60251  0.061549798   -164.54096    1282.1658    4.2120751    4.2120751    4.2120751    1282.1658    2892.4628    1556.3207   -602.28628   -1563.1762   -149.73046    270.76727    74.728856 
   19600    71.663006   -164.60576  0.064842194   -164.54092    493.10908    4.2121404    4.2121404    4.2121404    493.10908    1671.1111   -225.98108    34.197226   -1101.2112    962.01613    874.08686    74.732329 
   19700    120.66829   -164.64985    0.1091832   -164.54066     -1579.07    4.2113016    4.2113016    4.2113016     -1579.07   -2233.2315   -1173.5157   -1330.4628    711.13134   -28.452638   -225.67352    74.687689 
   19800    116.20927   -164.64587   0.10514859   -164.54073    184.75245    4.2118228    4.2118228    4.2118228    184.75245    2097.9062    88.443221   -1632.0921    398.01729    639.70927   -148.77514    74.715423 
   19900    97.554846   -164.62908  0.088269675   -164.54081    2411.3809    4.2116344    4.2116344    4.2116344    2411.3809    1759.5722    5246.4578    228.11277   -1569.8093   -304.79773    587.91462    74.705401 
   20000     131.1012   -164.65929   0.11862312   -164.54067     2085.947    4.2107564    4.2107564    4.2107564     2085.947    2754.3761    3077.0644    426.40057   -212.23212   -760.08269   -916.43076    74.658686 
   20100    147.63348   -164.67426   0.13358188   -164.54067    -470.0625    4.2117983    4.2117983    4.2117983    -470.0625    3083.3191   -2338.2415   -2155.2652    237.22157   -943.52318   -1588.5159    74.714121 
   20200    120.88418   -164.65016   0.10937854   -164.54079    1812.4707    4.2115473    4.2115473    4.2115473    1812.4707    1327.5961    1177.2038    2932.6123    292.20285      416.421   -113.83526    74.700767 
   20300    89.745289   -164.62199  0.081203424   -164.54078    1055.1283     4.210895     4.210895     4.210895    1055.1283   -570.56434    2640.5322     1095.417    560.53428   -1957.4406    948.60944    74.666062 
   20400    65.275715   -164.60005  0.059062839   -164.54099    1604.2038     4.211747     4.211747     4.211747    1604.2038    3703.6422    2198.1458   -1089.1766   -1382.9181   -1045.3393    -484.9398    74.711393 
   20500    74.197386   -164.60806  0.067135354   -164.54092    641.80274     4.211918     4.211918     4.211918    641.80274    493.04814   -61.797798    1494.1579   -155.83992    594.17484    797.70958    74.720494 
   20600    91.304961   -164.62344  0.082614647   -164.54082   -1528.3778     4.211535     4.211535     4.211535   -1528.3778   -1712.0883   -479.45588   -2393.5893    1278.6299   -656.40278    843.90433    74.700112 
   20700     71.46995   -164.60567  0.064667513     -164.541    1995.7561    4.2122222    4.2122222    4.2122222    1995.7561    4808.6214    2771.0058    -1592.359   -864.09367    648.38549    554.37263     74.73668 
   20800    78.171589   -164.61176  0.070731297   -164.54102    1250.3416    4.2123448    4.2123448    4.2123448    1250.3416    1040.4314     3784.237   -1073.6436   -1061.2526    732.31963    1822.0564    74.743208 
   20900    119.90299   -164.64937   0.10849074   -164.54088    205.50039    4.2117906    4.2117906    4.2117906    205.50039    2455.1229   -66.417369   -1772.2044      157.574    663.77401   -234.90877    74.713711 
   21000    125.04846   -164.65394   0.11314647   -164.54079   -600.47457    4.2129036    4.2129036    4.2129036   -600.47457    2487.9718   -2674.8748   -1614.5208   -150.38506    1490.7089    398.29432     74.77296 
   21100    107.25477   -164.63774  0.097046367   -164.54069   -170.52539    4.2128565    4.2128565    4.2128565   -170.52539   -2571.7319    2221.8966   -161.74092   -716.61503     690.9324    1442.4179    74.770452 
   21200     101.5862   -164.63249  0.091917332   -164.54057   -4.7646075     4.212289     4.212289     4.212289   -4.7646075   -526.62056     1607.079   -1094.7522   -270.63382   -646.94991    3.7841931     74.74024 
   21300    104.26257   -164.63496  0.094338968   -164.54062   -1997.2513    4.2135145    4.2135145    4.2135145   -1997.2513    180.36515    -1689.575    -4482.544   -1054.9114   -396.41644   -1275.4904    74.805489 
   21400    120.44757    -164.6496   0.10898349   -164.54062   -2105.1779    4.2134271    4.2134271    4.2134271   -2105.1779   -3419.9561   -1635.2793   -1260.2982    268.17447    437.46788     191.4298    74.800836 
   21500    119.59967   -164.64898   0.10821629   -164.54076   -3419.1186    4.2130057    4.2130057    4.2130057   -3419.1186    -3507.014   -2271.3636   -4478.9781    760.41277   -2243.1903    728.22629    74.778393 
   21600    89.038049   -164.62166  0.080563498    -164.5411   -464.72382    4.2135878    4.2135878    4.2135878   -464.72382    1911.1319      1394.95   -4700.2534   -1901.7603   -1287.1313   -283.36081    74.809396 
   21700    94.490656   -164.62657  0.085497131   -164.54107   -1312.4468    4.2135078    4.2135078    4.2135078   -1312.4468   -1342.9346    -989.0481   -1605.3578   -283.86378   -750.62045    181.52045    74.805136 
   21800    107.52496   -164.63821  0.097290841   -164.54092   -3033.5576    4.2131113    4.2131113    4.2131113   -3033.5576   -871.82107   -3623.2175   -4605.6342    948.18434   -1211.8369    -1228.553    74.784017 
   21900    81.412827   -164.61467  0.073664037   -164.54101   -679.10169    4.2136904    4.2136904    4.2136904   -679.10169    1325.3507   -1170.7837   -2191.8721    -554.9671    438.57125    308.28152    74.814862 
   22000    67.234284   -164.60178  0.060834993   -164.54095   -925.60691    4.2134409    4.2134409    4.2134409   -925.60691   -2644.9469    1977.9772    -2109.851   -314.38868   -380.84779     1355.236    74.801571 
   22100    75.513842   -164.60909  0.068326511   -164.54076    335.36614    4.2127011    4.2127011    4.2127011    335.36614    2921.0057    1571.4549   -3486.3622   -30.214452      235.233    -1246.027    74.762176 
   22200    94.194981   -164.62597  0.085229599   -164.54074   -495.93753    4.2134221    4.2134221    4.2134221   -495.93753    1959.4082   -244.33927   -3202.8815   -377.68403     1166.568   -827.32108    74.800568 
   22300    124.37855   -164.65323   0.11254032   -164.54069   -914.58488    4.2129803    4.2129803    4.2129803   -914.58488   -1977.5416    998.80255   -1765.0156    801.64105     1260.567    538.96357    74.777044 
   22400    119.89192   -164.64928   0.10848073    -164.5408    2.4933747    4.2122828    4.2122828    4.2122828    2.4933747    1518.4461    726.74733   -2237.7133    529.10773   -512.61387    361.48936    74.739907 
   22500    99.619956    -164.6311   0.09013823   -164.54096    1190.4433    4.2127524    4.2127524    4.2127524    1190.4433    2338.2542    3866.5465   -2633.4708   -1210.1665    136.25027   -485.13252     74.76491 
   22600       121.34   -164.65065   0.10979099   -164.54086    -756.2531    4.2124756    4.2124756    4.2124756    -756.2531   -2046.7853   -875.40336    653.42934    755.48618     645.5211    294.98906    74.750173 
   22700    117.35432   -164.64698   0.10618466    -164.5408   -2145.5213    4.2120497    4.2120497    4.2120497   -2145.5213   -2033.2272   -1959.7397    -2443.597    297.25653   -1511.4277    480.34403    74.727504 
   22800    77.234378   -164.61084  0.069883288   -164.54095    690.76925     4.212345     4.212345     4.212345    690.76925    559.42429    3281.5909   -1768.7074   -1432.4858   -201.17005     1199.858    74.743222 
   22900    76.283807    -164.6099  0.069023191   -164.54087   -366.57073    4.2120184    4.2120184    4.2120184   -366.57073   -2901.8712    2042.7357   -240.57668    -46.68644   -1000.1094    1110.7359    74.725834 
   23000    84.292583   -164.61716    0.0762697   -164.54089    478.88521    4.2114098    4.2114098    4.2114098    478.88521    2957.1482    2572.3735   -4092.8661    -391.6783   -660.24108   -1457.3081    74.693449 
   23100    101.04812   -164.63231  0.091430459   -164.54088    829.77489    4.2119485    4.2119485    4.2119485    829.77489    2441.0775    1763.2256   -1714.9785   -1218.6952    534.79766    1100.2608    74.722118 
   23200    127.24208   -164.65594    0.1151313   -164.54081   -502.30086    4.2116708    4.2116708    4.2116708   -502.30086   -1812.0682    1383.2708   -1078.1053   -232.38533   -918.68773    1157.5219    74.707337 
   23300    100.98721    -164.6323  0.091375351   -164.54092    2664.8003    4.2110082    4.2110082    4.2110082    2664.8003    5348.5602    4020.2302   -1374.3897   -1203.0316   -254.35516   -1147.8637    74.672085 
   23400    92.647501   -164.62471  0.083829406   -164.54088    2681.5159     4.211627     4.211627     4.211627    2681.5159     2624.151    5149.9508    270.44588   -1273.7876    510.53017    -1580.423    74.705005 
   23500    130.83811   -164.65888   0.11838508    -164.5405   -624.47262    4.2116688    4.2116688    4.2116688   -624.47262   -2465.2748    510.43751     81.41948    1085.2148    761.39841   -849.71673    74.707229 
   23600    105.97082    -164.6364  0.095884622   -164.54052    573.11447    4.2112164    4.2112164    4.2112164    573.11447    159.74331    2197.4862    -637.8861   -139.07199   -998.38301   -212.16065    74.683161 
   23700    70.880179   -164.60484  0.064133875    -164.5407     2786.397    4.2116167    4.2116167    4.2116167     2786.397    1790.4494    7320.0721   -751.33045   -1257.1563   -409.50266    -870.2386     74.70446 
   23800    94.346261   -164.62606  0.085366479    -164.5407    616.63701    4.2117017    4.2117017    4.2117017    616.63701    -632.5998     2661.115   -178.60416    894.74089    178.56859   -1248.5741    74.708981 
   23900    98.168609    -164.6298   0.08882502   -164.54098    1238.4425     4.211368     4.211368     4.211368    1238.4425    1959.9552     5310.033   -3554.6608    143.22759   -1051.7307   -1216.4491    74.691225 
   24000    105.46832    -164.6365  0.095429955   -164.54107    767.35418    4.2121696    4.2121696    4.2121696    767.35418    2666.5449    2331.4495   -2695.9319   -3.0688039    342.47161    1226.5723    74.733884 
   24100    112.30157   -164.64258   0.10161282   -164.54097   -707.77905    4.2123678    4.2123678    4.2123678   -707.77905   -1493.7166    -201.8843   -427.73629    896.05607   -895.38931    841.94675    74.744431 
   24200    71.392421   -164.60576  0.064597363   -164.54117    1968.1312    4.2118937    4.2118937    4.2118937    1968.1312    3730.1253    6032.6594    -3858.391   -580.00598     82.99609   -1365.7835    74.719198 
   24300    84.871294   -164.61785  0.076793331   -164.54106   -156.09099    4.2126348    4.2126348    4.2126348   -156.09099    234.63912    1945.3576   -2648.2697   -461.38182    736.93179    1187.0362    74.758648 
   24400    120.44661   -164.64972   0.10898262   -164.54074   -3192.7033    4.2129197    4.2129197    4.2129197   -3192.7033   -5234.2276   -1202.7877   -3141.0947     802.8591   -77.090856    1218.1546    74.773818 
   24500     86.38311   -164.61895  0.078161253   -164.54079   -969.58804    4.2125075    4.2125075    4.2125075   -969.58804    383.63703    1220.1868   -4512.5879   -1164.8508    60.259856    344.38344    74.751872 
   24600    90.954424     -164.623  0.082297474   -164.54071   -58.034256    4.2128815    4.2128815    4.2128815   -58.034256   -588.33716    3414.8252   -3000.5908   -398.74949    253.44452   -757.28601    74.771784 
   24700    132.53064   -164.66055   0.11991651   -164.54063   -3098.6983    4.2133393    4.2133393    4.2133393   -3098.6983   -3570.5274   -278.02525   -5447.5423    1053.0796    472.43933   -557.79904    74.796163 
   24800    128.69942   -164.65722   0.11644994   -164.54077   -1070.9646    4.2128669    4.2128669    4.2128669   -1070.9646   -84.121403    1862.6355    -4991.408   -1201.1493    -1198.168    597.65716    74.771006 
   24900    130.62277     -164.659   0.11819023   -164.54081   -1443.8913    4.2133063    4.2133063    4.2133063   -1443.8913    546.23014   -1910.3105   -2967.5937    -751.3932   -694.19709    431.50633    74.794401 
   25000    115.87963    -164.6457   0.10485032   -164.54085   -1987.3634    4.2134912    4.2134912    4.2134912   -1987.3634   -2083.3537   -1872.1323   -2006.6041   -234.28993   -478.41812   -1255.9963    74.804251 
   25100     69.73614   -164.60418  0.063098725   -164.54108    1729.2653    4.2127153    4.2127153    4.2127153    1729.2653    2590.1512    7053.2774   -4455.6328   -1197.9049   -888.06575   -1584.1806    74.762933 
   25200    83.307576    -164.6163  0.075378446   -164.54092   -1888.5156    4.2133897    4.2133897    4.2133897   -1888.5156    738.97075   -1678.8661   -4725.6516   -457.98391   -163.69346    1564.2166    74.798842 
   25300    89.152794   -164.62147  0.080667322    -164.5408    -1747.992    4.2134369    4.2134369    4.2134369    -1747.992   -2930.0403   -697.65968   -1616.2761   -98.171524   -1018.2908    294.54576    74.801359 
   25400    56.999332   -164.59266  0.051574194   -164.54109    572.36272    4.2127887    4.2127887    4.2127887    572.36272    4499.6308    3155.4847   -5938.0273    -1892.978    177.85075   -1540.7212    74.766841 
   25500    84.734769   -164.61762  0.076669799   -164.54095   -660.93366    4.2130835    4.2130835    4.2130835   -660.93366    969.97111     1702.267   -4655.0391   -225.74746    892.60418   -257.08906    74.782535 
   25600    115.53042   -164.64542   0.10453435   -164.54088   -1451.4617    4.2132364    4.2132364    4.2132364   -1451.4617   -2495.9193    2239.4372   -4097.9029    1024.3255    650.62698    378.15773    74.790682 
   25700    109.78882   -164.64021   0.09933923   -164.54087   -749.17733    4.2126193    4.2126193    4.2126193   -749.17733    2869.9377   -699.19704   -4418.2727    -702.8013    152.04099    698.60456    74.757822 
   25800    124.27845   -164.65321   0.11244975   -164.54076   -787.96876    4.2126192    4.2126192    4.2126192   -787.96876    -308.6835   -1576.5274   -478.69538    1092.8697    406.10059   -873.02108    74.757817 
   25900    112.96179   -164.64288    0.1022102   -164.54067    -1718.248    4.2128734    4.2128734    4.2128734    -1718.248   -3160.2367    1515.4339   -3509.9413     1067.956    914.70392   -1180.6945    74.771353 
   26000    87.646532   -164.61994  0.079304424   -164.54063    1469.9676    4.2119347    4.2119347    4.2119347    1469.9676    1671.6968    5620.2824   -2882.0764   -382.94678   -834.52044    719.05868    74.721378 
   26100    111.80245   -164.64174    0.1011612   -164.54058   -1100.5429    4.2122937    4.2122937    4.2122937   -1100.5429    327.93912   -2222.3746   -1407.1933    1305.1989   -68.275789    1784.1917     74.74049 
   26200    114.32665   -164.64408   0.10344516   -164.54063   -1045.5256    4.2125182    4.2125182    4.2125182   -1045.5256   -1839.7908   -192.69402   -1104.0921    345.62448   -972.21233   -453.83168    74.752437 
   26300     90.96036   -164.62322  0.082302845   -164.54092    2592.7691     4.211456     4.211456     4.211456    2592.7691     5130.536    5980.7947   -3333.0234   -433.78702   -781.76908   -963.88069    74.695908 
   26400    107.06257   -164.63782   0.09687246   -164.54095   -79.096742    4.2119421    4.2119421    4.2119421   -79.096742    2419.0845    695.19113   -3351.5659    279.86889   -805.46111    2440.9225    74.721777 
   26500    108.25658   -164.63888  0.097952833   -164.54093    1186.7241    4.2120973    4.2120973    4.2120973    1186.7241   -219.36493    2710.0782    1069.4591   -554.14732    -1013.226    1128.6044    74.730034 
   26600    93.308857   -164.62538  0.084427815   -164.54095    510.94956    4.2114401    4.2114401    4.2114401    510.94956    5749.9758   -1458.9433   -2758.1839   -2206.0053   -374.29492    17.808025    74.695062 
   26700    92.756787   -164.62482   0.08392829   -164.54089    153.91179     4.211605     4.211605     4.211605    153.91179    370.48204    1079.8349   -988.58154    -234.3081    371.45593   -385.53894    74.703833 
   26800    69.490217   -164.60373  0.062876209   -164.54085    1018.7639    4.2120109    4.2120109    4.2120109    1018.7639   -1395.8377     5762.101   -1309.9716    -370.8541    368.62528    101.55624    74.725436 
   26900    68.414925   -164.60271  0.061903262   -164.54081    1144.5899    4.2113317    4.2113317    4.2113317    1144.5899    4552.6794    1855.4725   -2974.3821   -1246.1616   -302.10786    1350.2874    74.689295 
   27000    113.32543   -164.64317   0.10253923   -164.54063    196.04088    4.2116453    4.2116453    4.2116453    196.04088   -41.907464    190.95787    439.07223    697.64537    794.75528   -680.06417    74.705982 
   27100    118.10613   -164.64755   0.10686491   -164.54069   -454.44852    4.2123766    4.2123766    4.2123766   -454.44852   -358.99312    2103.7554   -3108.1079   -895.27378    1172.9161   -1867.0407    74.744902 
   27200     102.1676   -164.63324  0.092443389    -164.5408    3416.9478    4.2112858    4.2112858    4.2112858    3416.9478    5883.5771    6444.0015   -2076.7353    -218.8758    151.57216    394.51131    74.686853 
   27300    122.58706   -164.65168   0.11091935   -164.54077    627.48751    4.2119289    4.2119289    4.2119289    627.48751    1041.3758    1562.2112   -721.12446     1537.608    461.32568    1912.5466    74.721071 
   27400    125.94926   -164.65478   0.11396154   -164.54082   -366.20551    4.2127451    4.2127451    4.2127451   -366.20551   -743.09472    596.75641   -952.27822   -64.090068   -966.23907   -277.32192    74.764517 
   27500    102.59483   -164.63359   0.09282996   -164.54076    399.24168    4.2118961    4.2118961    4.2118961    399.24168    3719.5419    509.83294   -3031.6498    187.35246   -150.14189   -692.39856    74.719329 
   27600    78.929256   -164.61226  0.071416849   -164.54084   -1252.5452    4.2124221    4.2124221    4.2124221   -1252.5452    -2318.364    2902.5153   -4341.7869    869.36527   -596.02639    1909.7279    74.747323 
   27700    64.162642   -164.59907  0.058055707   -164.54102    599.06109    4.2129163    4.2129163    4.2129163    599.06109   -1434.4154    4946.6189   -1715.0203   -325.24415   -956.61167    1620.5422    74.773634 
   27800    92.512065   -164.62461  0.083706861   -164.54091    -2322.504    4.2124122    4.2124122    4.2124122    -2322.504     2534.809   -3092.3353   -6409.9857   -117.00861   -1262.0481    1038.9526    74.746799 
   27900    119.66573   -164.64914   0.10827607   -164.54087   -2644.1442    4.2128258    4.2128258    4.2128258   -2644.1442   -3215.4467   -212.61312   -4504.3728    1194.0283   -299.69961   -410.64561    74.768818 
   28000    97.282115   -164.62901  0.088022902   -164.54098   -74.693016    4.2133396    4.2133396    4.2133396   -74.693016    1130.6874     2158.211   -3512.9774   -506.83141    11.051606    12.177936    74.796178 
   28100     94.98891   -164.62692  0.085947962   -164.54097    254.56507    4.2124464    4.2124464    4.2124464    254.56507    5292.4416    803.24504   -5331.9914    139.33302   -447.45915    2222.5857    74.748616 
   28200    127.17707    -164.6558   0.11507248   -164.54073   -846.55518    4.2128242    4.2128242    4.2128242   -846.55518   -983.87488   -63.269045   -1492.5216    784.73518     1079.468   -81.494696    74.768732 
   28300    118.13551   -164.64749   0.10689149    -164.5406   -2146.8073    4.2137481    4.2137481    4.2137481   -2146.8073    908.28105   -3059.4629   -4289.2399   -1622.3047     677.4528   -1500.8291    74.817935 
   28400    79.287416   -164.61243   0.07174092   -164.54069    1231.1272     4.212403     4.212403     4.212403    1231.1272    5176.5172    2197.0566   -3680.1923    413.66298    975.42458    608.06626    74.746309 
   28500    73.245632   -164.60703  0.066274187   -164.54076    334.75037    4.2127969    4.2127969    4.2127969    334.75037   -272.70453    4406.0422   -3129.0866    145.30527    398.31497    1683.4717    74.767275 
   28600    97.147254   -164.62873  0.087900877   -164.54083   -1004.6672    4.2135914    4.2135914    4.2135914   -1004.6672    690.00984    636.14856     -4340.16   -1073.6541    -158.4927    68.608416    74.809589 
   28700    116.79994   -164.64649   0.10568304   -164.54081   -1070.9263    4.2124294    4.2124294    4.2124294   -1070.9263    3143.7717   -1951.6206   -4404.9298   -202.61846    293.83478   -497.20964    74.747711 
   28800    106.52168   -164.63738  0.096383051     -164.541    -1359.035    4.2128479    4.2128479    4.2128479    -1359.035   -1225.0734    1761.9933    -4614.025   -563.47549   -397.69911    1160.6823     74.76999 
   28900    85.365235   -164.61833  0.077240259   -164.54109    1189.1494     4.213133     4.213133     4.213133    1189.1494    2789.6061    2537.0175   -1759.1754   -1048.8868   -980.14471    1783.7309    74.785174 
   29000    99.982983   -164.63134  0.090466704   -164.54088   -1116.7644     4.212119     4.212119     4.212119   -1116.7644    2515.9069   -606.21039   -5259.9898     615.1355   -1782.9612    1144.8977     74.73119 
   29100    116.29748   -164.64603    0.1052284   -164.54081   -2589.5861    4.2126523    4.2126523    4.2126523   -2589.5861   -3523.5481   -690.33248   -3554.8778     647.2732   -552.91996   -818.61399    74.759577 
   29200    83.975719   -164.61688  0.075982995   -164.54089   -643.24619    4.2130969    4.2130969    4.2130969   -643.24619    1842.0013   -2225.0475   -1546.6923   -551.50388   -311.34928    197.71482    74.783252 
   29300    64.086582   -164.59882  0.057986886   -164.54083    994.04439    4.2116274    4.2116274    4.2116274    994.04439    3555.4892     4239.721    -4813.077     1365.593   -553.96173    2405.2315    74.705025 
   29400    101.81389   -164.63285  0.092123348   -164.54072    344.88587    4.2120483    4.2120483    4.2120483    344.88587   -1229.0826    4316.8863   -2053.1461    960.61951    211.70204    138.73219    74.727425 
   29500    132.58856   -164.66072   0.11996891   -164.54075   -1185.6303    4.2128483    4.2128483    4.2128483   -1185.6303    2620.8007   -3052.9194   -3124.7723    201.29712   -464.65763   -1207.0359    74.770013 
   29600    124.85863   -164.65376   0.11297471   -164.54079     1321.154    4.2113034    4.2113034    4.2113034     1321.154    4101.3612    1304.2508     -1442.15    2182.5921     1227.206    287.51347    74.687786 
   29700    112.85889   -164.64292   0.10211709    -164.5408    1479.1786    4.2118494    4.2118494    4.2118494    1479.1786    1142.7456    4058.1783   -763.38819   -236.31256   -93.025113    1388.3447    74.716843 
   29800    104.87044   -164.63577  0.094888979   -164.54088    981.27322     4.212544     4.212544     4.212544    981.27322    4138.4808    1253.3533   -2448.0144   -160.58429    557.64791    451.26973    74.753814 
   29900     107.7328   -164.63813  0.097478904   -164.54065    441.19104    4.2112141    4.2112141    4.2112141    441.19104     1251.033    1347.8299   -1275.2898    323.25717    39.573296   -1014.1992    74.683036 
   30000    95.412362   -164.62704   0.08633111   -164.54071   -1480.2775    4.2120554    4.2120554    4.2120554   -1480.2775   -2199.8752   -9.0420627   -2231.9151   -1128.1041   -315.92015    298.54742    74.727804 
   30100    55.206878   -164.59095  0.049952343     -164.541    1843.2611    4.2123754    4.2123754    4.2123754    1843.2611     4049.493    1884.7825    -404.4922   -762.98347   -50.831691    1493.8458    74.744836 
   30200    62.881594   -164.59785  0.056896587   -164.54096    1268.5316    4.2112203    4.2112203    4.2112203    1268.5316    992.36127    7390.6837   -4577.4503    304.03053   -1334.2432    1070.2017    74.683366 
   30300    110.53489   -164.64085    0.1000143   -164.54084   -1146.1248    4.2122088    4.2122088    4.2122088   -1146.1248   -1508.5387    1735.4913   -3665.3271   -1070.1759     440.1459   -1169.7607    74.735969 
   30400    112.87664   -164.64302   0.10213316   -164.54088    517.50287    4.2127327    4.2127327    4.2127327    517.50287     4075.336   -3046.2863    523.45887   -779.87089   -51.226042     164.0574    74.763861 
   30500     100.9881   -164.63228  0.091376159    -164.5409    1119.9381    4.2114724    4.2114724    4.2114724    1119.9381    2604.5422    4574.5449   -3819.2728    548.88712   -225.52059    2469.7061    74.696778 
   30600    111.09796    -164.6413   0.10052377   -164.54078    950.59995    4.2122219    4.2122219    4.2122219    950.59995    954.07642    4162.7499   -2265.0264   -679.49624   -550.20432    386.91115    74.736666 
   30700    109.02652   -164.63944  0.098649489   -164.54079   -439.23455    4.2130179    4.2130179    4.2130179   -439.23455    2002.1994   -706.05299   -2613.8501    933.07916   -678.31111   -848.60665    74.779046 
   30800    108.72958   -164.63902  0.098380809   -164.54064   -739.01594     4.211784     4.211784     4.211784   -739.01594   -1005.7231    898.21295   -2109.5377    1704.9331    510.02021   -261.41481    74.713361 
   30900    104.36677   -164.63503  0.094433242    -164.5406   -1237.1108    4.2125853    4.2125853    4.2125853   -1237.1108   -1912.5023     245.9647   -2044.7946   -447.11482   -1116.9988    1477.3485    74.756013 
   31000    81.904312   -164.61501  0.074108743    -164.5409   -326.27974    4.2131968    4.2131968    4.2131968   -326.27974    1007.8694    2793.9208   -4780.6294     1010.776   -381.41473    820.29891    74.788569 
   31100    104.11207   -164.63495  0.094202786   -164.54075   -273.91627    4.2120512    4.2120512    4.2120512   -273.91627   -2201.5901    4694.2944    -3314.453    1039.6172    -1519.147   -1599.3035    74.727583 
   31200    132.50456   -164.66065   0.11989291   -164.54075   -3172.3631    4.2131818    4.2131818    4.2131818   -3172.3631   -1855.0406   -3986.9055   -3675.1431    38.306305   -808.53068   -702.54476    74.787771 
   31300    104.82689   -164.63581   0.09484957   -164.54096   -226.87417    4.2134052    4.2134052    4.2134052   -226.87417    3137.4856   -2440.5616   -1377.5465    1018.8546    123.48133    722.27855    74.799667 
   31400    91.944854   -164.62417  0.083193636   -164.54098    160.38401    4.2121481    4.2121481    4.2121481    160.38401    625.69821     5192.396   -5336.9422     522.1331   -938.10443    984.46691    74.732741 
   31500    90.814029   -164.62312  0.082170442   -164.54095   -1276.7672    4.2130897    4.2130897    4.2130897   -1276.7672    1622.3527   -92.228054   -5360.4263    -722.5406    786.03431   -1695.5639    74.782866 
   31600    73.639322   -164.60754  0.066630406   -164.54091     803.5347    4.2131947    4.2131947    4.2131947     803.5347     3773.419   -1144.7079   -218.10699    438.90127    246.22421   -995.89097     74.78846 
   31700     89.81414   -164.62202  0.081265721   -164.54075   -1650.4059    4.2122837    4.2122837    4.2122837   -1650.4059    70.914735    441.57775   -5463.7103    478.57516    687.54287    1441.7982    74.739955 
   31800    93.680918   -164.62555  0.084764464   -164.54079    -597.9485    4.2129927    4.2129927    4.2129927    -597.9485     1679.485    945.33465   -4418.6652   -1071.8521    274.51891    210.33713    74.777704 
   31900    77.065412   -164.61069  0.069730404   -164.54096    1451.3681    4.2131157    4.2131157    4.2131157    1451.3681    2910.0426    4588.9922   -3144.9306    999.67045    401.36983   -652.00337    74.784254 
   32000    123.16674   -164.65214   0.11144385    -164.5407   -943.17257    4.2121632    4.2121632    4.2121632   -943.17257   -963.11489     847.8657   -2714.2685   -187.29689    408.14149   -1143.4509    74.733542 
   32100    149.96925    -164.6764   0.13569533    -164.5407   -2113.8149    4.2129694    4.2129694    4.2129694   -2113.8149   -261.71063   -4263.5382   -1816.1957   -999.12273   -821.17604    1106.0422    74.776462 
   32200    106.67188   -164.63746  0.096518962   -164.54094   -87.780519    4.2130457    4.2130457    4.2130457   -87.780519    1564.6378    2044.8277   -3872.8071    554.55014   -700.96112    1243.3875    74.780528 
   32300    96.048408   -164.62769  0.086906618   -164.54078    352.48695    4.2117728    4.2117728    4.2117728    352.48695   -1454.5963    5331.5576   -2819.5004   -425.52542   -2003.1767   -1163.7575    74.712767 
   32400    94.378499   -164.62629  0.085395649    -164.5409   -1572.0244    4.2127509    4.2127509    4.2127509   -1572.0244   -298.77528   -600.44852   -3816.8493   -117.10023   -805.01255   -995.34479    74.764826 
   32500    85.007494   -164.61785  0.076916567   -164.54093    -240.1839    4.2128366    4.2128366    4.2128366    -240.1839    382.35988    1140.1076   -2243.0191    1227.1596   -936.26784    710.15615    74.769391 
   32600     104.4785   -164.63529  0.094534345   -164.54076   -1466.6901    4.2118141    4.2118141    4.2118141   -1466.6901   -2042.6261    2738.5883   -5096.0324     -61.6187   -1488.7568    1530.3158    74.714963 
   32700    81.856021   -164.61502  0.074065048   -164.54095    452.49495    4.2124402    4.2124402    4.2124402    452.49495     3037.328    3477.2353   -5157.0785   -68.019701   -730.27417   -1393.2078    74.748285 
   32800     74.53327   -164.60847  0.067439269   -164.54103    3456.6575    4.2122428    4.2122428    4.2122428    3456.6575    3571.5353     6241.079    557.35825    1776.2513   -241.58125   -1262.6347    74.737779 
   32900    137.21231   -164.66485   0.12415258    -164.5407   -1565.4722    4.2116298    4.2116298    4.2116298   -1565.4722    6.4312021   -1238.1978   -3464.6499    948.83476    582.20741    106.88913    74.705157 
   33000    125.12991   -164.65394   0.11322017   -164.54072   -104.35113    4.2122297    4.2122297    4.2122297   -104.35113    2780.4749   -624.77654   -2468.7517     670.9754    193.47668   -36.734297    74.737083 
   33100    70.909045   -164.60516  0.064159994     -164.541    2875.7779    4.2121103    4.2121103    4.2121103    2875.7779    3267.2264    5777.5919   -417.48455       1836.1    694.48767   -1035.6908    74.730727 
   33200    90.270314   -164.62238  0.081678477   -164.54071   -174.77764    4.2114951    4.2114951    4.2114951   -174.77764   -430.15576    2199.2115   -2293.3886   -318.17153    442.38994   -2741.3607    74.697989 
   33300    100.70594    -164.6319  0.091120848   -164.54078   -205.11848     4.212203     4.212203     4.212203   -205.11848   -797.15923     1973.453   -1791.6492    469.81153   -30.464486   -23.881858    74.735663 
   33400    99.096927   -164.63044  0.089664982   -164.54077   -574.00375     4.212483     4.212483     4.212483   -574.00375   -815.74488    1997.0848   -2903.3512    1321.0105    349.06079     362.6317    74.750563 
   33500    115.99508   -164.64561   0.10495479   -164.54066   -338.01883    4.2115146    4.2115146    4.2115146   -338.01883   -1851.2525    2637.3895   -1800.1935   -750.06765    -1070.592   -1195.8943    74.699026 
   33600    92.456402   -164.62467  0.083656496   -164.54101    1610.4959    4.2120794    4.2120794    4.2120794    1610.4959    1519.0199    6058.3531   -2745.8852   -133.00588   -172.48569   -1457.9084    74.729081 
   33700    106.10141   -164.63696  0.096002787   -164.54096    1276.4731    4.2123289    4.2123289    4.2123289    1276.4731    793.45481    4441.1084    -1405.144    388.58124   -1308.4765    349.15199    74.742363 
[...]
   91300    97.659222   -164.62921  0.088364116   -164.54085    1418.4641    4.2120982    4.2120982    4.2120982    1418.4641    1993.1469     2070.754    191.49152    366.65258    869.51883    859.77093    74.730083 
   91400     120.4857   -164.64977   0.10901799   -164.54075    319.93259    4.2115157    4.2115157    4.2115157    319.93259    576.00908    529.68356   -145.89488    551.78078   -700.82648   -430.17931    74.699082 
   91500    99.989695   -164.63132  0.090472777   -164.54085    590.43332    4.2121066    4.2121066    4.2121066    590.43332    4389.8208    223.59499   -2842.1158   -486.49516    49.219414   -868.79006    74.730531 
   91600    97.159632   -164.62861  0.087912077   -164.54069    1428.3307    4.2122373    4.2122373    4.2122373    1428.3307    3996.3614    3410.0252   -3121.3944   -904.21531    873.64344    206.84842    74.737489 
   91700    104.80057   -164.63537   0.09482576   -164.54054    -1480.613    4.2119094    4.2119094    4.2119094    -1480.613   -454.04447   -1201.9731   -2785.8213    1176.2943   -614.36488   -3.6578109    74.720032 
   91800    83.678443   -164.61651  0.075714013   -164.54079    1206.2172    4.2122927    4.2122927    4.2122927    1206.2172    5345.0641     1064.932   -2791.3445    1642.3521    1266.2117   -1223.5609    74.740438 
   91900    103.82804   -164.63464  0.093945789   -164.54069   -450.60835    4.2127161    4.2127161    4.2127161   -450.60835    1109.0406    607.04011   -3067.9058   -26.272881    457.82051   -1170.0741    74.762977 
   92000     124.8148   -164.65359   0.11293506   -164.54066   -2345.3804    4.2122762    4.2122762    4.2122762   -2345.3804   -2892.3458   -79.831598   -4063.9637    488.61867    756.21418   -1130.9497    74.739558 
   92100    98.956393   -164.63055  0.089537824   -164.54102    898.23866    4.2126409    4.2126409    4.2126409    898.23866    3717.0274    2155.7218   -3178.0332    966.87791     1198.303   -444.46307     74.75897 
   92200    108.21411   -164.63887  0.097914405   -164.54096   -2004.3051    4.2131612    4.2131612    4.2131612   -2004.3051   -3404.4446   -1104.7788    -1503.692    1225.7157    1665.6982   -165.22636    74.786677 
   92300    117.51597   -164.64719   0.10633092   -164.54086   -1552.9327    4.2125149    4.2125149    4.2125149   -1552.9327    639.51943   -935.96452   -4362.3531    786.74852   -276.78817   -611.26642    74.752265 
   92400    90.708284     -164.623  0.082074762   -164.54093   -1760.2621    4.2132895    4.2132895    4.2132895   -1760.2621    3521.3172   -1571.5259   -7230.5776   -1353.8503   -42.198729    1071.1318     74.79351 
   92500     88.09015    -164.6205  0.079705819   -164.54079   -944.84172    4.2131815    4.2131815    4.2131815   -944.84172     -1222.23    1658.0532   -3270.3483   -587.18683    689.98161     1233.658    74.787757 
   92600    89.834378   -164.62201  0.081284033   -164.54073   -850.00103     4.212583     4.212583     4.212583   -850.00103    2283.7634    -1487.506   -3346.2605     163.9295    -1258.027    515.85611     74.75589 
   92700    91.255178   -164.62334  0.082569603   -164.54077   -727.89377    4.2132343    4.2132343    4.2132343   -727.89377    4572.1867   -1511.9792   -5243.8888   -961.98774    14.398693    946.45687     74.79057 
   92800    114.60663   -164.64444   0.10369849   -164.54074   -83.056773    4.2131247    4.2131247    4.2131247   -83.056773    362.74685    1896.3136   -2508.2307   -1639.1628   -818.22011    1550.4958    74.784733 
   92900    105.00676   -164.63584  0.095012327   -164.54082   -930.07266    4.2125882    4.2125882    4.2125882   -930.07266    807.11002   -1671.6502   -1925.6778   -433.01444   -1134.3806    1114.6635    74.756166 
   93000    91.768463   -164.62399  0.083034034   -164.54096    2073.3666    4.2128551    4.2128551    4.2128551    2073.3666    5945.3568     2613.711   -2338.9679    495.23954    461.55563   -322.96838    74.770376 
   93100    109.74661    -164.6402  0.099301039    -164.5409   -1923.6597     4.213142     4.213142     4.213142   -1923.6597    -1138.662   -1951.2974   -2681.0196    857.15178    409.85755   -1015.6058    74.785651 
   93200    94.733663   -164.62655  0.085717009   -164.54083   -287.16391    4.2122378    4.2122378    4.2122378   -287.16391     5164.901   -1772.3249   -4254.0679      161.422   -5.6701642   -895.65971    74.737511 
   93300    76.318918   -164.60991  0.069054961   -164.54086    616.04456    4.2127079    4.2127079    4.2127079    616.04456    4654.6802     2669.589   -5476.1355   -262.90085    806.41318   -508.12662    74.762538 
   93400    87.971146   -164.62031  0.079598142   -164.54071   -1749.5605    4.2127077    4.2127077    4.2127077   -1749.5605   -3719.3954    528.57757   -2057.8637    1993.8279    1588.6995   -923.77075    74.762527 
   93500    93.949699   -164.62571  0.085007662   -164.54071    1303.1882    4.2116967    4.2116967    4.2116967    1303.1882    6069.7145    29.096087    -2189.246    1514.5349   -485.79515   -1659.6657    74.708713 
   93600    114.20571   -164.64409   0.10333572   -164.54075    -1758.174    4.2126236    4.2126236    4.2126236    -1758.174    1245.7954   -1331.1513    -5189.166   -795.27802    1008.1278   -632.59233    74.758051 
   93700    119.88045    -164.6492   0.10847035   -164.54073    669.11113    4.2120694    4.2120694    4.2120694    669.11113     -2862.65    4003.5627     866.4207   -290.13855    698.31771    217.12053    74.728549 
   93800    101.09575   -164.63237  0.091473561    -164.5409    1261.0242    4.2114546    4.2114546    4.2114546    1261.0242    3197.2878    -90.64826    676.43314    459.68388   -642.63543   -52.169565     74.69583 
   93900     117.7177   -164.64729   0.10651345   -164.54077   -173.07574    4.2121339    4.2121339    4.2121339   -173.07574    2447.8451    76.897889   -3043.9702     451.1475    1005.6624    878.87421    74.731983 
   94000    116.98431    -164.6465   0.10584986   -164.54065    119.89063    4.2118491    4.2118491    4.2118491    119.89063    935.90771     677.0848   -1253.3206   -510.69238   -1138.4958     1125.756    74.716823 
   94100    78.781736   -164.61207   0.07128337   -164.54078    576.55018    4.2113269    4.2113269    4.2113269    576.55018    4606.6077   -1196.7051   -1680.2521    -1430.228   -524.08143      1153.18    74.689037 
   94200    87.236214   -164.61959  0.078933159   -164.54065    2200.6517    4.2117144    4.2117144    4.2117144    2200.6517    2463.5097    6465.6845    -2327.239   -279.60975     266.0583    597.88454    74.709654 
   94300    103.16748   -164.63401  0.093348107   -164.54066   -1177.8848    4.2119246    4.2119246    4.2119246   -1177.8848   -1901.9241   -349.99742    -1281.733    1257.0414    745.67781    513.14593    74.720846 
   94400    97.691854   -164.62918  0.088393642   -164.54079    2270.2236    4.2110815    4.2110815    4.2110815    2270.2236    7393.0083   -162.67293   -419.66447   -233.04598   -616.41393    874.78982     74.67598 
   94500    108.42255   -164.63894  0.098103002   -164.54083    385.68373    4.2120704    4.2120704    4.2120704    385.68373   -241.07002    3710.2173   -2312.0961    -1747.202    464.99575    838.97636    74.728603 
   94600    95.517019   -164.62744  0.086425806   -164.54101    890.52926    4.2119782    4.2119782    4.2119782    890.52926   -1310.2433     2543.873    1437.9581    464.17344    580.27485    22.664682    74.723694 
   94700    91.689414    -164.6239  0.082962508   -164.54093     2755.131    4.2114115    4.2114115    4.2114115     2755.131     7546.541    175.23069    543.62136    224.71244   -764.31829   -1047.6263    74.693538 
   94800    112.11025    -164.6422   0.10143971   -164.54076    -2620.212    4.2126969    4.2126969    4.2126969    -2620.212    838.74083   -3104.1595   -5595.2172   -532.80107    1160.8408   -273.32276    74.761951 
   94900     76.25303   -164.60989  0.068995344    -164.5409    2387.6854    4.2120171    4.2120171    4.2120171    2387.6854    4431.7619    2699.9016     31.39266   -985.02349    -941.3206    96.847253    74.725767 
   95000    62.385002    -164.5973  0.056447261   -164.54085    779.82431     4.212026     4.212026     4.212026    779.82431    4220.5983   -744.35285   -1136.7725   -1175.5364   -1020.4448   -420.54783    74.726237 
   95100    113.48503   -164.64341   0.10268364   -164.54073    -1704.313    4.2129616    4.2129616    4.2129616    -1704.313   -1382.8199     1069.354   -4799.4732    998.94646    183.79514   -565.85536    74.776047 
   95200    114.38011   -164.64428   0.10349352   -164.54079   -1030.5006    4.2128713    4.2128713    4.2128713   -1030.5006    629.95694   -1804.5459   -1916.9128    808.23043   -1298.0025   -655.49159     74.77124 
   95300    98.265777   -164.62982   0.08891294   -164.54091   -761.80283    4.2126582    4.2126582    4.2126582   -761.80283    2608.8053   -3320.9158    -1573.298   -1024.4308   -574.42039   -320.30059    74.759894 
   95400    119.88447   -164.64927   0.10847399    -164.5408    -630.6547    4.2132383    4.2132383    4.2132383    -630.6547   -4511.6799    5520.7633   -2901.0475   -561.21938    96.548851   -322.46582    74.790784 
   95500    114.41016   -164.64448   0.10352072   -164.54096   -2964.9685    4.2134286    4.2134286    4.2134286   -2964.9685    -2351.416   -3276.0382   -3267.4512    1735.0407    797.38966    20.043975    74.800915 
   95600     110.8577   -164.64113   0.10030638   -164.54082   -589.19507    4.2127705    4.2127705    4.2127705   -589.19507    4565.7346   -3279.5586   -3053.7611    574.20495    -287.2237    296.09253    74.765874 
   95700    104.58709   -164.63528  0.094632593   -164.54065   -3509.2676    4.2137198    4.2137198    4.2137198   -3509.2676   -2895.1147   -540.61928   -7092.0687   -1152.4991    1419.8888    597.04238    74.816425 
   95800    67.444893   -164.60193  0.061025557    -164.5409    140.66516    4.2131873    4.2131873    4.2131873    140.66516    2251.1047    599.75053   -2428.8597   -836.91638    359.73385    701.99145    74.788065 
   95900    94.976429   -164.62672  0.085936669   -164.54078   -304.33842    4.2128615    4.2128615    4.2128615   -304.33842    1926.9615   -994.38613   -1845.5906   -341.99906    311.57485    250.91091    74.770715 
   96000     133.8829   -164.66169   0.12114006   -164.54055   -4853.9698    4.2139131    4.2139131    4.2139131   -4853.9698   -2695.2501   -4681.9809   -7184.6784    500.53112    1815.1933    1709.5841     74.82672 
   96100    90.777552   -164.62308  0.082137437   -164.54094    2141.7315    4.2129184    4.2129184    4.2129184    2141.7315    6045.7169     342.7235     36.75397   -1176.2802   -917.67911    1584.2845    74.773747 
   96200    81.684505   -164.61497  0.073909857   -164.54106    156.66886      4.21268      4.21268      4.21268    156.66886      2026.63   -1569.1935    12.570145   -2719.2369    -559.5822    741.26355    74.761056 
   96300    115.13389   -164.64505   0.10417556   -164.54087   -713.80852    4.2130366    4.2130366    4.2130366   -713.80852   -1204.4649    2775.7737   -3712.7343    88.219438   -538.26491    100.62033     74.78004 
   96400    100.17858   -164.63147  0.090643685   -164.54083   -921.73163    4.2128475    4.2128475    4.2128475   -921.73163    3489.9266   -3382.6709   -2872.4506    842.38615   -921.19086   -261.98174    74.769972 
   96500    74.822447   -164.60856  0.067700922   -164.54086   -183.94267    4.2122601    4.2122601    4.2122601   -183.94267    4067.4884   -2545.7186   -2073.5977   -1310.8982   -1164.3501   -151.58773    74.738702 
   96600    69.136566   -164.60336  0.062556218    -164.5408    1410.0293    4.2123443    4.2123443    4.2123443    1410.0293    -743.9173    7879.1421   -2905.1368   -1155.9181   -630.52829   -577.84206    74.743184 
   96700    83.586198   -164.61647  0.075630548   -164.54084   -806.58154    4.2123995    4.2123995    4.2123995   -806.58154    786.55169     -924.073   -2282.2233    274.70734   -472.60638   -1082.1958    74.746122 
   96800    129.13537   -164.65757    0.1168444   -164.54072     6.696789    4.2117136    4.2117136    4.2117136     6.696789   -280.46561    271.76287    28.793105    484.17392   -921.36649   -1588.4412    74.709612 
   96900    130.03409   -164.65848   0.11765758   -164.54083   -1485.8286    4.2123356    4.2123356    4.2123356   -1485.8286   -1869.3546    801.06668   -3389.1978    211.38486    1349.2318    -1146.415     74.74272 
   97000    94.034167   -164.62602  0.085084091   -164.54094    3203.5042    4.2116045    4.2116045    4.2116045    3203.5042    4914.6738    2817.8102    1878.0286   -1388.9337   -720.48883   -143.79481    74.703807 
   97100    117.73566   -164.64737    0.1065297   -164.54084    1166.9432    4.2112488    4.2112488    4.2112488    1166.9432   -592.57854    2255.5944    1837.8136   -1293.2533     521.2482   -564.84271    74.684882 
   97200    140.16081   -164.66755   0.12682045   -164.54073   -2669.0462    4.2121616    4.2121616    4.2121616   -2669.0462   -154.99016   -2325.8476   -5526.3007    1820.3726    1061.8375    1076.1132    74.733458 
   97300     96.25015   -164.62789  0.087089159    -164.5408    1588.4359     4.211604     4.211604     4.211604    1588.4359    4890.8665    350.69588   -476.25475   -481.37491   -584.53309    1084.9399     74.70378 
   97400    62.500992   -164.59735  0.056552211    -164.5408    708.89642    4.2112896    4.2112896    4.2112896    708.89642    1638.8202    633.10891   -145.23983    -2093.196    268.22917    787.03156    74.687053 
   97500     81.20503   -164.61426  0.073476018   -164.54078    1777.1511    4.2116166    4.2116166    4.2116166    1777.1511    947.60961    6507.3099   -2123.4663   -264.46945   -223.22455    1360.8412     74.70445 
   97600    115.29377   -164.64503   0.10432023   -164.54071   -1008.1543    4.2118908    4.2118908    4.2118908   -1008.1543    321.36893   -2511.1391   -834.69263    814.47042    213.88771    1264.6437    74.719042 
   97700    116.04878    -164.6458   0.10500338    -164.5408    44.535725    4.2113907    4.2113907    4.2113907    44.535725   -344.08307   -614.44246    1092.1327    68.574403   -40.511973    1288.5091    74.692433 
   97800    87.231614   -164.61989  0.078928997   -164.54096    3287.5697    4.2117128    4.2117128    4.2117128    3287.5697    2191.5229     7220.117    451.06921   -866.83343    639.28858     750.1411     74.70957 
   97900    88.387955   -164.62099  0.079975279   -164.54102    1126.9508    4.2120621    4.2120621    4.2120621    1126.9508    3859.3267    -607.5915    129.11708   -1768.4363   -538.03232   -145.32527    74.728164 
   98000    119.49642   -164.64877   0.10812287   -164.54065    714.32809    4.2116186    4.2116186    4.2116186    714.32809   -271.39669    1908.7023     505.6787    385.48278   -182.12944   -1266.7277    74.704557 
   98100    110.17067   -164.64031  0.099684741   -164.54063   -1855.9067    4.2125742    4.2125742    4.2125742   -1855.9067    2122.6931    -2119.965   -5570.4481    1011.7567    1339.6073    -502.8232    74.755422 
   98200    64.829663   -164.59948  0.058659241   -164.54082    2314.1952    4.2121347    4.2121347    4.2121347    2314.1952    5507.1498    2355.4911   -920.05538   -2337.2129   -1002.3109   -284.86014    74.732023 
   98300    69.120155   -164.60344  0.062541369    -164.5409    1420.2024    4.2118905    4.2118905    4.2118905    1420.2024    297.00838      3689.79    273.80884    -1909.039    128.21608   -1006.8186    74.719031 
   98400    123.12164   -164.65223   0.11140305   -164.54083   -2570.3783    4.2130324    4.2130324    4.2130324   -2570.3783   -388.61863   -1716.4544   -5606.0619    930.23065   -294.50876   -542.84563    74.779815 
   98500    133.39845   -164.66153   0.12070172   -164.54082   -1055.4295     4.212777     4.212777     4.212777   -1055.4295   -1202.0227   -1452.8794   -511.38643   -376.81755   -1209.3887   -753.68828    74.766217 
   98600    98.325556   -164.63002  0.088967029   -164.54105   -903.94557    4.2124888    4.2124888    4.2124888   -903.94557   -1660.3998   -953.95071   -97.486243   -1134.1849   -515.33122   -676.55473    74.750873 
   98700    92.220125   -164.62447  0.083442707   -164.54103    824.63211    4.2130593    4.2130593    4.2130593    824.63211   -553.39469    5033.6082   -2006.3171   -1191.4494   -1026.2114     642.0042    74.781247 
   98800    112.67143   -164.64275   0.10194748    -164.5408   -3105.5184    4.2133881    4.2133881    4.2133881   -3105.5184   -2624.5191   -3878.2551   -2813.7811   -202.69453   -617.76761    278.40864     74.79876 
   98900    109.31247   -164.63972  0.098908218   -164.54081   -2774.7831    4.2129493    4.2129493    4.2129493   -2774.7831   -3348.8363   -1846.3395   -3129.1736    1315.9442   -361.42189  -0.55813308    74.775393 
   99000    81.322078   -164.61439  0.073581925   -164.54081   -1341.3993    4.2135004    4.2135004    4.2135004   -1341.3993   -987.12936    1468.9311   -4505.9997    -263.7509    836.62465    704.98835    74.804739 
   99100    64.438987   -164.59918   0.05830575   -164.54088   -701.02725    4.2133307    4.2133307    4.2133307   -701.02725    457.18438    660.11022   -3220.3764   -2159.2635   -272.90087    546.69552    74.795702 
   99200    98.980023   -164.63042  0.089559205   -164.54086    305.11726    4.2128109    4.2128109    4.2128109    305.11726    -2170.416     3781.346   -695.57822    527.05937    1100.1151    41.765192    74.768024 
   99300     142.2155   -164.66934   0.12867958   -164.54066   -3974.9029    4.2138874    4.2138874    4.2138874   -3974.9029   -1151.8159   -4989.4526   -5783.4401    1302.5181    1868.8494    1431.8762    74.825356 
   99400    114.57782   -164.64457   0.10367242    -164.5409    521.78389    4.2130741    4.2130741    4.2130741    521.78389     349.1549     1752.565   -536.36825   -1173.6707    530.42075    897.22062    74.782038 
   99500    82.185629   -164.61548  0.074363284   -164.54112    1415.6144    4.2125783    4.2125783    4.2125783    1415.6144    1054.9279    2510.9222    680.99299    -1187.646    1200.5014    420.10385    74.755638 
   99600    99.577623   -164.63113  0.090099926   -164.54103   -976.63644    4.2133136    4.2133136    4.2133136   -976.63644      500.772    1107.7809   -4538.4622    -569.3271   -259.94798     778.5551    74.794792 
   99700     102.8126   -164.63386  0.093027005   -164.54084   -1237.1058    4.2128331    4.2128331    4.2128331   -1237.1058   -2062.8949    -277.0328   -1371.3898    512.00051    -418.8551   -327.16832    74.769203 
   99800    77.319304   -164.61081  0.069960131   -164.54085   -1668.7424    4.2125211    4.2125211    4.2125211   -1668.7424   -737.77837   -2091.7784   -2176.6703    71.788185   -324.68537   -228.41724    74.752594 
   99900    62.089525   -164.59706  0.056179907   -164.54088    1168.0581     4.212705     4.212705     4.212705    1168.0581    -736.6834    6023.4684   -1782.6106   -1779.9868   -1064.8102    688.50754    74.762383 
  100000    81.340355   -164.61449  0.073598462   -164.54089   -591.03759    4.2124146    4.2124146    4.2124146   -591.03759   -2529.7493    1295.3538   -538.71726   -1303.5024   -1360.5942   -862.57063    74.746923 
Loop time of 32.7363 on 1 procs for 100000 steps with 8 atoms

Pair  time (%) = 10.9118 (33.3322)
Kspce time (%) = 7.85964 (24.0089)
Neigh time (%) = 0 (0)
Comm  time (%) = 1.63469 (4.9935)
Outpt time (%) = 0.0573063 (0.175054)
Other time (%) = 12.273 (37.4903)

Nlocal:    8 ave 8 max 8 min
Histogram: 1 0 0 0 0 0 0 0 0 0
Nghost:    2189 ave 2189 max 2189 min
Histogram: 1 0 0 0 0 0 0 0 0 0
Neighs:    2472 ave 2472 max 2472 min
Histogram: 1 0 0 0 0 0 0 0 0 0

Total # of neighbors = 2472
Ave neighs/atom = 309
Neighbor list builds = 0
Dangerous builds = 0
unfix 20
unfix 21
print "seeds:1203010"
seeds:1203010
