# ['Ni']

10 atoms
1 atom types

    0.0000     3.3558 xlo xhi
    0.0000     2.4022 ylo yhi
    0.0000    24.0223 zlo zhi

    0.0000     0.0000     0.0000 xy xz yz

Atoms

1 1     0.0000     0.0000     0.0000
2 1     1.6779     1.2011     1.2011
3 1     0.0000     0.0000     2.4022
4 1     1.6779     1.2011     3.6033
5 1     0.0000     0.0000     4.8045
6 1     1.6779     1.2011     6.0056
7 1     0.0000     0.0000     7.2067
8 1     1.6779     1.2011     8.4078
9 1     0.0000     0.0000     9.6089
10 1     1.6779     1.2011    10.8100
