<?xml version="1.0" encoding="ISO-8859-1"?>
<modeling>
 <generator>
  <i name="program" type="string">vasp </i>
  <i name="version" type="string">5.4.1  </i>
  <i name="subversion" type="string">24Jun15 (build Jun 05 2017 10:38:15) complex                          parallel </i>
  <i name="platform" type="string">IFC91_ompi </i>
  <i name="date" type="string">2017 10 21 </i>
  <i name="time" type="string">22:37:19 </i>
 </generator>
 <incar>
  <i type="string" name="SYSTEM"> automatically generated by pyflamestk</i>
  <i type="int" name="ISTART">     0</i>
  <i type="string" name="PREC">high                   ! avoid wrap aro</i>
  <i type="string" name="ALGO"> Normal                 ! blocked Davids</i>
  <i type="int" name="ISPIN">     1</i>
  <i type="int" name="ICHARG">     0</i>
  <i type="int" name="NELM">    40</i>
  <i name="EDIFF">      0.00000100</i>
  <i name="ENCUT">    900.00000000</i>
  <i type="logical" name="LREAL"> F  </i>
  <i type="int" name="ISMEAR">     0</i>
  <i name="SIGMA">      0.05000000</i>
  <i type="logical" name="LWAVE"> F  </i>
  <i type="logical" name="LCHARG"> F  </i>
  <i type="logical" name="LVTOT"> F  </i>
  <v type="int" name="KPOINT_BSE">    -1     0     0     0</v>
  <i type="int" name="NELM">    40</i>
 </incar>
 <kpoints>
  <generation param="Monkhorst-Pack">
   <v type="int" name="divisions">       4        4        4 </v>
   <v name="usershift">      0.00000000       0.00000000       0.00000000 </v>
   <v name="genvec1">      0.25000000      -0.00000000      -0.00000000 </v>
   <v name="genvec2">      0.00000000       0.25000000       0.00000000 </v>
   <v name="genvec3">      0.00000000       0.00000000       0.25000000 </v>
   <v name="shift">      0.50000000       0.50000000       0.50000000 </v>
  </generation>
  <varray name="kpointlist" >
   <v>       0.12500000       0.12500000       0.12500000 </v>
   <v>       0.37500000       0.12500000       0.12500000 </v>
   <v>      -0.37500000       0.12500000       0.12500000 </v>
   <v>      -0.12500000       0.12500000       0.12500000 </v>
   <v>       0.37500000       0.37500000       0.12500000 </v>
   <v>      -0.37500000       0.37500000       0.12500000 </v>
   <v>      -0.12500000       0.37500000       0.12500000 </v>
   <v>      -0.37500000      -0.37500000       0.12500000 </v>
   <v>       0.37500000       0.37500000       0.37500000 </v>
   <v>      -0.37500000       0.37500000       0.37500000 </v>
  </varray>
  <varray name="weights" >
   <v>       0.03125000 </v>
   <v>       0.09375000 </v>
   <v>       0.09375000 </v>
   <v>       0.09375000 </v>
   <v>       0.09375000 </v>
   <v>       0.18750000 </v>
   <v>       0.18750000 </v>
   <v>       0.09375000 </v>
   <v>       0.03125000 </v>
   <v>       0.09375000 </v>
  </varray>
 </kpoints>
 <parameters>
  <separator name="general" >
   <i type="string" name="SYSTEM">automatically generated by pyflamestk</i>
   <i type="logical" name="LCOMPAT"> F  </i>
  </separator>
  <separator name="electronic" >
   <i type="string" name="PREC">high</i>
   <i name="ENMAX">    900.00000000</i>
   <i name="ENAUG">    888.80400000</i>
   <i name="EDIFF">      0.00000100</i>
   <i type="int" name="IALGO">    38</i>
   <i type="int" name="IWAVPR">    10</i>
   <i type="int" name="NBANDS">    16</i>
   <i name="NELECT">      8.00000000</i>
   <i type="int" name="TURBO">     0</i>
   <i type="int" name="IRESTART">     0</i>
   <i type="int" name="NREBOOT">     0</i>
   <i type="int" name="NMIN">     0</i>
   <i name="EREF">      0.00000000</i>
   <separator name="electronic smearing" >
    <i type="int" name="ISMEAR">     0</i>
    <i name="SIGMA">      0.05000000</i>
    <i name="KSPACING">      0.50000000</i>
    <i type="logical" name="KGAMMA"> T  </i>
   </separator>
   <separator name="electronic projectors" >
    <i type="logical" name="LREAL"> F  </i>
    <v name="ROPT">      0.00000000      0.00000000</v>
    <i type="int" name="LMAXPAW">  -100</i>
    <i type="int" name="LMAXMIX">     2</i>
    <i type="logical" name="NLSPLINE"> F  </i>
   </separator>
   <separator name="electronic startup" >
    <i type="int" name="ISTART">     0</i>
    <i type="int" name="ICHARG">     0</i>
    <i type="int" name="INIWAV">     1</i>
   </separator>
   <separator name="electronic spin" >
    <i type="int" name="ISPIN">     1</i>
    <i type="logical" name="LNONCOLLINEAR"> F  </i>
    <v name="MAGMOM">      1.00000000      1.00000000</v>
    <i name="NUPDOWN">     -1.00000000</i>
    <i type="logical" name="LSORBIT"> F  </i>
    <v name="SAXIS">      0.00000000      0.00000000      1.00000000</v>
    <i type="logical" name="LSPIRAL"> F  </i>
    <v name="QSPIRAL">      0.00000000      0.00000000      0.00000000</v>
    <i type="logical" name="LZEROZ"> F  </i>
   </separator>
   <separator name="electronic exchange-correlation" >
    <i type="logical" name="LASPH"> F  </i>
    <i type="logical" name="LMETAGGA"> F  </i>
   </separator>
   <separator name="electronic convergence" >
    <i type="int" name="NELM">    40</i>
    <i type="int" name="NELMDL">    -5</i>
    <i type="int" name="NELMIN">     2</i>
    <i name="ENINI">    900.00000000</i>
    <separator name="electronic convergence detail" >
     <i type="logical" name="LDIAG"> T  </i>
     <i type="logical" name="LSUBROT"> F  </i>
     <i name="WEIMIN">      0.00000000</i>
     <i name="EBREAK">      0.00000002</i>
     <i name="DEPER">      0.30000000</i>
     <i type="int" name="NRMM">     4</i>
     <i name="TIME">      0.40000000</i>
    </separator>
   </separator>
   <separator name="electronic mixer" >
    <i name="AMIX">      0.40000000</i>
    <i name="BMIX">      1.00000000</i>
    <i name="AMIN">      0.10000000</i>
    <i name="AMIX_MAG">      1.60000000</i>
    <i name="BMIX_MAG">      1.00000000</i>
    <separator name="electronic mixer details" >
     <i type="int" name="IMIX">     4</i>
     <i type="logical" name="MIXFIRST"> F  </i>
     <i type="int" name="MAXMIX">   -45</i>
     <i name="WC">    100.00000000</i>
     <i type="int" name="INIMIX">     1</i>
     <i type="int" name="MIXPRE">     1</i>
     <i type="int" name="MREMOVE">     5</i>
    </separator>
   </separator>
   <separator name="electronic dipolcorrection" >
    <i type="logical" name="LDIPOL"> F  </i>
    <i type="logical" name="LMONO"> F  </i>
    <i type="int" name="IDIPOL">     0</i>
    <i name="EPSILON">      1.00000000</i>
    <v name="DIPOL">   -100.00000000   -100.00000000   -100.00000000</v>
    <i name="EFIELD">      0.00000000</i>
   </separator>
  </separator>
  <separator name="grids" >
   <i type="int" name="NGX">    30</i>
   <i type="int" name="NGY">    30</i>
   <i type="int" name="NGZ">    30</i>
   <i type="int" name="NGXF">    40</i>
   <i type="int" name="NGYF">    40</i>
   <i type="int" name="NGZF">    40</i>
   <i type="logical" name="ADDGRID"> F  </i>
  </separator>
  <separator name="ionic" >
   <i type="int" name="NSW">     0</i>
   <i type="int" name="IBRION">    -1</i>
   <i type="int" name="ISIF">     2</i>
   <i name="PSTRESS">      0.00000000</i>
   <i name="EDIFFG">      0.00001000</i>
   <i type="int" name="NFREE">     0</i>
   <i name="POTIM">      0.50000000</i>
   <i name="SMASS">     -3.00000000</i>
   <i name="SCALEE">      1.00000000</i>
  </separator>
  <separator name="ionic md" >
   <i name="TEBEG">      0.00010000</i>
   <i name="TEEND">      0.00010000</i>
   <i type="int" name="NBLOCK">     1</i>
   <i type="int" name="KBLOCK">     1</i>
   <i type="int" name="NPACO">   256</i>
   <i name="APACO">     16.00000000</i>
  </separator>
  <separator name="symmetry" >
   <i type="int" name="ISYM">     2</i>
   <i name="SYMPREC">      0.00001000</i>
  </separator>
  <separator name="dos" >
   <i type="logical" name="LORBIT"> F  </i>
   <v name="RWIGS">     -1.00000000     -1.00000000</v>
   <i type="int" name="NEDOS">   301</i>
   <i name="EMIN">     10.00000000</i>
   <i name="EMAX">    -10.00000000</i>
   <i name="EFERMI">      0.00000000</i>
  </separator>
  <separator name="writing" >
   <i type="int" name="NWRITE">     2</i>
   <i type="logical" name="LWAVE"> F  </i>
   <i type="logical" name="LCHARG"> F  </i>
   <i type="logical" name="LPARD"> F  </i>
   <i type="logical" name="LVTOT"> F  </i>
   <i type="logical" name="LVHAR"> F  </i>
   <i type="logical" name="LELF"> F  </i>
   <i type="logical" name="LOPTICS"> F  </i>
   <v name="STM">      0.00000000      0.00000000      0.00000000      0.00000000      0.00000000      0.00000000      0.00000000</v>
  </separator>
  <separator name="performance" >
   <i type="int" name="NPAR">    16</i>
   <i type="int" name="NSIM">     4</i>
   <i type="int" name="NBLK">    -1</i>
   <i type="logical" name="LPLANE"> T  </i>
   <i type="logical" name="LSCALAPACK"> T  </i>
   <i type="logical" name="LSCAAWARE"> F  </i>
   <i type="logical" name="LSCALU"> F  </i>
   <i type="logical" name="LASYNC"> F  </i>
   <i type="logical" name="LORBITALREAL"> F  </i>
  </separator>
  <separator name="miscellaneous" >
   <i type="int" name="IDIOT">     3</i>
   <i type="logical" name="LMUSIC"> F  </i>
   <v name="POMASS">     24.30500000     16.00000000</v>
   <v name="DARWINR">      0.00000000      0.00000000</v>
   <v name="DARWINV">      1.00000000      1.00000000</v>
   <i type="logical" name="LCORR"> T  </i>
  </separator>
  <i type="logical" name="GGA_COMPAT"> T  </i>
  <i type="logical" name="LBERRY"> F  </i>
  <i type="int" name="ICORELEVEL">     0</i>
  <i type="logical" name="LDAU"> F  </i>
  <i type="int" name="I_CONSTRAINED_M">     0</i>
  <separator name="electronic exchange-correlation" >
   <i type="string" name="GGA">--</i>
   <i type="int" name="VOSKOWN">     0</i>
   <i type="logical" name="LHFCALC"> F  </i>
   <i type="string" name="PRECFOCK"></i>
   <i type="logical" name="LSYMGRAD"> F  </i>
   <i type="logical" name="LHFONE"> F  </i>
   <i type="logical" name="LRHFCALC"> F  </i>
   <i type="logical" name="LTHOMAS"> F  </i>
   <i type="logical" name="LMODELHF"> F  </i>
   <i name="ENCUT4O">     -1.00000000</i>
   <i type="int" name="EXXOEP">     0</i>
   <i type="int" name="FOURORBIT">     0</i>
   <i name="AEXX">      0.00000000</i>
   <i name="HFALPHA">      0.00000000</i>
   <i name="MCALPHA">      0.00000000</i>
   <i name="ALDAX">      1.00000000</i>
   <i name="AGGAX">      1.00000000</i>
   <i name="ALDAC">      1.00000000</i>
   <i name="AGGAC">      1.00000000</i>
   <i type="int" name="NKREDX">     1</i>
   <i type="int" name="NKREDY">     1</i>
   <i type="int" name="NKREDZ">     1</i>
   <i type="logical" name="SHIFTRED"> F  </i>
   <i type="logical" name="ODDONLY"> F  </i>
   <i type="logical" name="EVENONLY"> F  </i>
   <i type="int" name="LMAXFOCK">     0</i>
   <i type="int" name="NMAXFOCKAE">     0</i>
   <i type="logical" name="LFOCKAEDFT"> F  </i>
   <i name="HFSCREEN">      0.00000000</i>
   <i name="HFSCREENC">      0.00000000</i>
   <i type="int" name="NBANDSGWLOW">     0</i>
  </separator>
  <separator name="vdW DFT" >
   <i type="logical" name="LUSE_VDW"> F  </i>
   <i name="Zab_VDW">     -0.84910000</i>
   <i name="PARAM1">      0.12340000</i>
   <i name="PARAM2">      1.00000000</i>
   <i name="PARAM3">      0.00000000</i>
  </separator>
  <separator name="model GW" >
   <i type="int" name="MODEL_GW">     0</i>
   <i name="MODEL_EPS0">      5.78381065</i>
   <i name="MODEL_ALPHA">      1.00000000</i>
  </separator>
  <separator name="linear response parameters" >
   <i type="logical" name="LEPSILON"> F  </i>
   <i type="logical" name="LRPA"> F  </i>
   <i type="logical" name="LNABLA"> F  </i>
   <i type="logical" name="LVEL"> F  </i>
   <i type="int" name="KINTER">     0</i>
   <i name="CSHIFT">      0.10000000</i>
   <i name="OMEGAMAX">     -1.00000000</i>
   <i name="DEG_THRESHOLD">      0.00200000</i>
  </separator>
  <separator name="orbital magnetization" >
   <i type="logical" name="NUCIND"> F  </i>
   <v name="MAGPOS">      0.00000000      0.00000000      0.00000000</v>
   <i type="logical" name="LNICSALL"> T  </i>
   <i type="logical" name="ORBITALMAG"> F  </i>
   <i type="logical" name="LMAGBLOCH"> F  </i>
   <i type="logical" name="LCHIMAG"> F  </i>
   <i type="logical" name="LGAUGE"> T  </i>
   <i type="int" name="MAGATOM">     0</i>
   <v name="MAGDIPOL">      0.00000000      0.00000000      0.00000000</v>
   <v name="AVECCONST">      0.00000000      0.00000000      0.00000000</v>
  </separator>
  <separator name="response functions" >
   <i type="logical" name="LADDER"> F  </i>
   <i type="logical" name="LFXC"> F  </i>
   <i type="logical" name="LHARTREE"> T  </i>
   <i type="int" name="IBSE">     0</i>
   <v type="int" name="KPOINT">    -1     0     0     0</v>
   <i type="logical" name="LTCTE"> F  </i>
   <i type="logical" name="LTETE"> F  </i>
   <i type="logical" name="LTRIPLET"> F  </i>
   <i type="logical" name="LFXCEPS"> F  </i>
   <i type="logical" name="LFXHEG"> F  </i>
   <i type="int" name="NATURALO">     0</i>
   <i type="logical" name="L2ORDER"> F  </i>
   <i type="logical" name="LUSEW"> F  </i>
   <i name="ENCUTGW">     -2.00000000</i>
   <i name="ENCUTGWSOFT">     -2.00000000</i>
   <i name="ENCUTLF">     -1.00000000</i>
   <i type="int" name="LMAXMP2">    -1</i>
   <i name="SCISSOR">      0.00000000</i>
   <i type="int" name="NOMEGA">     0</i>
   <i type="int" name="NOMEGAR">     0</i>
   <i type="int" name="NBANDSGW">    -1</i>
   <i type="int" name="NBANDSO">    -1</i>
   <i type="int" name="NBANDSV">    -1</i>
   <i type="int" name="NELM">    40</i>
   <i type="int" name="NELMHF">     1</i>
   <i type="int" name="DIM">     3</i>
   <i type="int" name="ANTIRES">     0</i>
   <i name="OMEGAMAX">    -30.00000000</i>
   <i name="OMEGAMIN">    -30.00000000</i>
   <i name="OMEGATL">   -200.00000000</i>
   <i type="int" name="OMEGAGRID">     0</i>
   <i name="CSHIFT">     -0.10000000</i>
   <i type="logical" name="SELFENERGY"> F  </i>
   <i type="logical" name="LSPECTRAL"> F  </i>
   <i type="logical" name="LSPECTRALGW"> F  </i>
   <i type="logical" name="LSINGLES"> F  </i>
   <i type="logical" name="LFERMIGW"> F  </i>
   <i type="logical" name="ODDONLYGW"> F  </i>
   <i type="logical" name="EVENONLYGW"> F  </i>
   <i type="int" name="NKREDLFX">     1</i>
   <i type="int" name="NKREDLFY">     1</i>
   <i type="int" name="NKREDLFZ">     1</i>
   <i type="int" name="MAXMEM">  1800</i>
   <i type="int" name="TELESCOPE">     0</i>
   <i type="int" name="TAUPAR">     1</i>
   <i type="int" name="OMEGAPAR">    -1</i>
   <i name="LAMBDA">      1.00000000</i>
  </separator>
  <separator name="External order field" >
   <i name="OFIELD_KAPPA">      0.00000000</i>
   <v name="OFIELD_K">      0.00000000      0.00000000      0.00000000</v>
   <i name="OFIELD_Q6_NEAR">      0.00000000</i>
   <i name="OFIELD_Q6_FAR">      0.00000000</i>
   <i name="OFIELD_A">      0.00000000</i>
  </separator>
 </parameters>
 <atominfo>
  <atoms>       2 </atoms>
  <types>       2 </types>
  <array name="atoms" >
   <dimension dim="1">ion</dimension>
   <field type="string">element</field>
   <field type="int">atomtype</field>
   <set>
    <rc><c>Mg</c><c>   1</c></rc>
    <rc><c>O </c><c>   2</c></rc>
   </set>
  </array>
  <array name="atomtypes" >
   <dimension dim="1">type</dimension>
   <field type="int">atomspertype</field>
   <field type="string">element</field>
   <field>mass</field>
   <field>valence</field>
   <field type="string">pseudopotential</field>
   <set>
    <rc><c>   1</c><c>Mg</c><c>     24.30500000</c><c>      2.00000000</c><c>  PAW_PBE Mg 13Apr2007                  </c></rc>
    <rc><c>   1</c><c>O </c><c>     16.00000000</c><c>      6.00000000</c><c>  PAW_PBE O_h 06Feb2004                 </c></rc>
   </set>
  </array>
 </atominfo>
 <structure name="initialpos" >
  <crystal>
   <varray name="basis" >
    <v>       3.00978800       0.00000000       0.00000000 </v>
    <v>       1.50489400       2.60655300       0.00000000 </v>
    <v>       1.50489400       0.86885100       2.45748200 </v>
   </varray>
   <i name="volume">     19.27936883 </i>
   <varray name="rec_basis" >
    <v>       0.33224931      -0.19182422      -0.13564019 </v>
    <v>       0.00000000       0.38364844      -0.13564019 </v>
    <v>       0.00000000       0.00000000       0.40692058 </v>
   </varray>
  </crystal>
  <varray name="positions" >
   <v>       0.00000000       0.00000000       0.00000000 </v>
   <v>       0.50000000       0.50000000       0.50000000 </v>
  </varray>
 </structure>
 <calculation>
  <scstep>
   <time name="dav">    0.06    0.06</time>
   <time name="total">    0.07    0.07</time>
   <energy>
    <i name="alphaZ">     15.79325893 </i>
    <i name="ewald">   -354.45312954 </i>
    <i name="hartreedc">    -25.98467637 </i>
    <i name="XCdc">    -30.28680460 </i>
    <i name="pawpsdc"> 159848.02224630 </i>
    <i name="pawaedc">-159794.75804307 </i>
    <i name="eentropy">     -0.00000000 </i>
    <i name="bandstr">   -339.23357893 </i>
    <i name="atom">    455.39587916 </i>
    <i name="e_fr_energy">   -225.50484810 </i>
    <i name="e_wo_entrp">   -225.50484810 </i>
    <i name="e_0_energy">   -225.50484810 </i>
   </energy>
  </scstep>
  <scstep>
   <time name="dav">    0.08    0.08</time>
   <time name="total">    0.08    0.08</time>
   <energy>
    <i name="e_fr_energy">   -298.57067857 </i>
    <i name="e_wo_entrp">   -298.57067857 </i>
    <i name="e_0_energy">   -298.57067857 </i>
   </energy>
  </scstep>
  <scstep>
   <time name="dav">    0.06    0.06</time>
   <time name="total">    0.06    0.07</time>
   <energy>
    <i name="e_fr_energy">   -298.93387033 </i>
    <i name="e_wo_entrp">   -298.93387033 </i>
    <i name="e_0_energy">   -298.93387033 </i>
   </energy>
  </scstep>
  <scstep>
   <time name="dav">    0.10    0.10</time>
   <time name="total">    0.10    0.11</time>
   <energy>
    <i name="e_fr_energy">   -298.93521904 </i>
    <i name="e_wo_entrp">   -298.93521904 </i>
    <i name="e_0_energy">   -298.93521904 </i>
   </energy>
  </scstep>
  <scstep>
   <time name="dav">    0.06    0.07</time>
   <time name="total">    0.08    0.08</time>
   <energy>
    <i name="e_fr_energy">   -298.93521910 </i>
    <i name="e_wo_entrp">   -298.93521910 </i>
    <i name="e_0_energy">   -298.93521910 </i>
   </energy>
  </scstep>
  <scstep>
   <time name="dav">    0.05    0.05</time>
   <time name="total">    0.07    0.08</time>
   <energy>
    <i name="e_fr_energy">    -64.53674124 </i>
    <i name="e_wo_entrp">    -64.53674124 </i>
    <i name="e_0_energy">    -64.53674124 </i>
   </energy>
  </scstep>
  <scstep>
   <time name="dav">    0.08    0.09</time>
   <time name="total">    0.10    0.11</time>
   <energy>
    <i name="e_fr_energy">    -22.26498999 </i>
    <i name="e_wo_entrp">    -22.26498999 </i>
    <i name="e_0_energy">    -22.26498999 </i>
   </energy>
  </scstep>
  <scstep>
   <time name="dav">    0.06    0.06</time>
   <time name="total">    0.07    0.08</time>
   <energy>
    <i name="e_fr_energy">    -20.68329606 </i>
    <i name="e_wo_entrp">    -20.68329606 </i>
    <i name="e_0_energy">    -20.68329606 </i>
   </energy>
  </scstep>
  <scstep>
   <time name="dav">    0.05    0.05</time>
   <time name="total">    0.07    0.08</time>
   <energy>
    <i name="e_fr_energy">    -11.96230785 </i>
    <i name="e_wo_entrp">    -11.96230785 </i>
    <i name="e_0_energy">    -11.96230785 </i>
   </energy>
  </scstep>
  <scstep>
   <time name="dav">    0.07    0.07</time>
   <time name="total">    0.09    0.09</time>
   <energy>
    <i name="e_fr_energy">    -11.98229010 </i>
    <i name="e_wo_entrp">    -11.98229010 </i>
    <i name="e_0_energy">    -11.98229010 </i>
   </energy>
  </scstep>
  <scstep>
   <time name="dav">    0.06    0.06</time>
   <time name="total">    0.08    0.08</time>
   <energy>
    <i name="e_fr_energy">    -11.92258277 </i>
    <i name="e_wo_entrp">    -11.92258277 </i>
    <i name="e_0_energy">    -11.92258277 </i>
   </energy>
  </scstep>
  <scstep>
   <time name="dav">    0.07    0.07</time>
   <time name="total">    0.09    0.10</time>
   <energy>
    <i name="e_fr_energy">    -11.91916318 </i>
    <i name="e_wo_entrp">    -11.91916318 </i>
    <i name="e_0_energy">    -11.91916318 </i>
   </energy>
  </scstep>
  <scstep>
   <time name="dav">    0.07    0.07</time>
   <time name="total">    0.09    0.09</time>
   <energy>
    <i name="e_fr_energy">    -11.91919764 </i>
    <i name="e_wo_entrp">    -11.91919764 </i>
    <i name="e_0_energy">    -11.91919764 </i>
   </energy>
  </scstep>
  <scstep>
   <time name="dav">    0.08    0.08</time>
   <time name="total">    0.10    0.10</time>
   <energy>
    <i name="e_fr_energy">    -11.91917334 </i>
    <i name="e_wo_entrp">    -11.91917334 </i>
    <i name="e_0_energy">    -11.91917334 </i>
   </energy>
  </scstep>
  <scstep>
   <time name="dav">    0.06    0.06</time>
   <time name="total">    0.08    0.08</time>
   <energy>
    <i name="e_fr_energy">    -11.91917290 </i>
    <i name="e_wo_entrp">    -11.91917290 </i>
    <i name="e_0_energy">    -11.91917290 </i>
   </energy>
  </scstep>
  <scstep>
   <time name="dav">    0.03    0.03</time>
   <time name="total">    0.04    0.04</time>
   <energy>
    <i name="alphaZ">     15.79325893 </i>
    <i name="ewald">   -354.45312954 </i>
    <i name="hartreedc">   -141.81052856 </i>
    <i name="XCdc">    -20.67791040 </i>
    <i name="pawpsdc">    636.92820446 </i>
    <i name="pawaedc">   -586.54842100 </i>
    <i name="eentropy">     -0.00000000 </i>
    <i name="bandstr">    -16.54652591 </i>
    <i name="atom">    455.39587916 </i>
    <i name="e_fr_energy">    -11.91917285 </i>
    <i name="e_wo_entrp">    -11.91917285 </i>
    <i name="e_0_energy">    -11.91917285 </i>
   </energy>
  </scstep>
  <structure>
   <crystal>
    <varray name="basis" >
     <v>       3.00978800       0.00000000       0.00000000 </v>
     <v>       1.50489400       2.60655300       0.00000000 </v>
     <v>       1.50489400       0.86885100       2.45748200 </v>
    </varray>
    <i name="volume">     19.27936883 </i>
    <varray name="rec_basis" >
     <v>       0.33224931      -0.19182422      -0.13564019 </v>
     <v>       0.00000000       0.38364844      -0.13564019 </v>
     <v>       0.00000000       0.00000000       0.40692058 </v>
    </varray>
   </crystal>
   <varray name="positions" >
    <v>       0.00000000       0.00000000       0.00000000 </v>
    <v>       0.50000000       0.50000000       0.50000000 </v>
   </varray>
  </structure>
  <varray name="forces" >
   <v>      -0.00000000      -0.00000000       0.00000000 </v>
   <v>       0.00000000       0.00000000      -0.00000000 </v>
  </varray>
  <varray name="stress" >
   <v>     -14.37529145      -0.00000000       0.00000000 </v>
   <v>      -0.00000000     -14.37529291      -0.00000000 </v>
   <v>       0.00000000      -0.00000000     -14.37529600 </v>
  </varray>
  <energy>
   <i name="e_fr_energy">    -11.91917285 </i>
   <i name="e_wo_entrp">    -11.91917285 </i>
   <i name="e_0_energy">     -0.00000000 </i>
  </energy>
  <time name="totalsc">    1.38    1.44</time>
  <eigenvalues>
   <array>
    <dimension dim="1">band</dimension>
    <dimension dim="2">kpoint</dimension>
    <dimension dim="3">spin</dimension>
    <field>eigene</field>
    <field>occ</field>
    <set>
     <set comment="spin 1">
      <set comment="kpoint 1">
       <r>  -13.5971    1.0000 </r>
       <r>    2.4102    1.0000 </r>
       <r>    3.2552    1.0000 </r>
       <r>    3.2552    1.0000 </r>
       <r>    8.6989    0.0000 </r>
       <r>   17.3087    0.0000 </r>
       <r>   19.3180    0.0000 </r>
       <r>   19.3180    0.0000 </r>
       <r>   23.5298    0.0000 </r>
       <r>   23.5298    0.0000 </r>
       <r>   24.8624    0.0000 </r>
       <r>   27.2580    0.0000 </r>
       <r>   28.6800    0.0000 </r>
       <r>   28.6800    0.0000 </r>
       <r>   38.8919    0.0000 </r>
       <r>   40.7987    0.0000 </r>
      </set>
      <set comment="kpoint 2">
       <r>  -12.9480    1.0000 </r>
       <r>    0.2545    1.0000 </r>
       <r>    2.4018    1.0000 </r>
       <r>    2.9618    1.0000 </r>
       <r>   11.1174    0.0000 </r>
       <r>   15.2396    0.0000 </r>
       <r>   18.6170    0.0000 </r>
       <r>   20.2909    0.0000 </r>
       <r>   22.1143    0.0000 </r>
       <r>   24.3296    0.0000 </r>
       <r>   26.4079    0.0000 </r>
       <r>   31.0598    0.0000 </r>
       <r>   32.3141    0.0000 </r>
       <r>   33.2066    0.0000 </r>
       <r>   35.5737    0.0000 </r>
       <r>   38.8454    0.0000 </r>
      </set>
      <set comment="kpoint 3">
       <r>  -12.5144    1.0000 </r>
       <r>   -0.8668    1.0000 </r>
       <r>    2.2531    1.0000 </r>
       <r>    2.6250    1.0000 </r>
       <r>   11.7229    0.0000 </r>
       <r>   15.4170    0.0000 </r>
       <r>   17.9102    0.0000 </r>
       <r>   19.7212    0.0000 </r>
       <r>   23.6977    0.0000 </r>
       <r>   25.9470    0.0000 </r>
       <r>   26.0237    0.0000 </r>
       <r>   32.2853    0.0000 </r>
       <r>   32.8704    0.0000 </r>
       <r>   33.2391    0.0000 </r>
       <r>   35.7936    0.0000 </r>
       <r>   37.5020    0.0000 </r>
      </set>
      <set comment="kpoint 4">
       <r>  -13.2355    1.0000 </r>
       <r>    1.1356    1.0000 </r>
       <r>    2.8887    1.0000 </r>
       <r>    2.8920    1.0000 </r>
       <r>   10.2859    0.0000 </r>
       <r>   15.4960    0.0000 </r>
       <r>   19.4180    0.0000 </r>
       <r>   19.9052    0.0000 </r>
       <r>   21.0701    0.0000 </r>
       <r>   24.9108    0.0000 </r>
       <r>   26.8691    0.0000 </r>
       <r>   29.9507    0.0000 </r>
       <r>   30.2581    0.0000 </r>
       <r>   30.9817    0.0000 </r>
       <r>   37.1775    0.0000 </r>
       <r>   38.9492    0.0000 </r>
      </set>
      <set comment="kpoint 5">
       <r>  -12.7135    1.0000 </r>
       <r>    0.0714    1.0000 </r>
       <r>    2.2027    1.0000 </r>
       <r>    2.4335    1.0000 </r>
       <r>   12.2136    0.0000 </r>
       <r>   13.9070    0.0000 </r>
       <r>   17.1602    0.0000 </r>
       <r>   20.7794    0.0000 </r>
       <r>   21.2351    0.0000 </r>
       <r>   27.0832    0.0000 </r>
       <r>   30.1454    0.0000 </r>
       <r>   30.3987    0.0000 </r>
       <r>   32.3278    0.0000 </r>
       <r>   34.8180    0.0000 </r>
       <r>   36.4648    0.0000 </r>
       <r>   37.8683    0.0000 </r>
      </set>
      <set comment="kpoint 6">
       <r>  -12.3042    1.0000 </r>
       <r>   -0.0421    1.0000 </r>
       <r>    0.9516    1.0000 </r>
       <r>    2.0255    1.0000 </r>
       <r>   13.7576    0.0000 </r>
       <r>   14.7662    0.0000 </r>
       <r>   15.5607    0.0000 </r>
       <r>   19.5464    0.0000 </r>
       <r>   22.9907    0.0000 </r>
       <r>   26.4441    0.0000 </r>
       <r>   29.9743    0.0000 </r>
       <r>   31.3990    0.0000 </r>
       <r>   32.6676    0.0000 </r>
       <r>   36.3331    0.0000 </r>
       <r>   38.8806    0.0000 </r>
       <r>   41.0855    0.0000 </r>
      </set>
      <set comment="kpoint 7">
       <r>  -12.5591    1.0000 </r>
       <r>   -0.2467    1.0000 </r>
       <r>    1.6892    1.0000 </r>
       <r>    2.5237    1.0000 </r>
       <r>   12.5828    0.0000 </r>
       <r>   14.7885    0.0000 </r>
       <r>   16.9314    0.0000 </r>
       <r>   20.1173    0.0000 </r>
       <r>   22.6961    0.0000 </r>
       <r>   25.3546    0.0000 </r>
       <r>   28.8627    0.0000 </r>
       <r>   31.6298    0.0000 </r>
       <r>   32.2327    0.0000 </r>
       <r>   34.8813    0.0000 </r>
       <r>   35.5235    0.0000 </r>
       <r>   41.0061    0.0000 </r>
      </set>
      <set comment="kpoint 8">
       <r>  -12.3400    1.0000 </r>
       <r>   -0.4043    1.0000 </r>
       <r>    1.6876    1.0000 </r>
       <r>    2.1411    1.0000 </r>
       <r>   12.8529    0.0000 </r>
       <r>   13.4856    0.0000 </r>
       <r>   16.0076    0.0000 </r>
       <r>   21.4724    0.0000 </r>
       <r>   21.4846    0.0000 </r>
       <r>   28.9141    0.0000 </r>
       <r>   29.3909    0.0000 </r>
       <r>   31.9632    0.0000 </r>
       <r>   32.6596    0.0000 </r>
       <r>   37.7932    0.0000 </r>
       <r>   38.1688    0.0000 </r>
       <r>   41.0965    0.0000 </r>
      </set>
      <set comment="kpoint 9">
       <r>  -12.7498    1.0000 </r>
       <r>   -0.6001    1.0000 </r>
       <r>    2.8188    1.0000 </r>
       <r>    2.8188    1.0000 </r>
       <r>   10.9291    0.0000 </r>
       <r>   15.4304    0.0000 </r>
       <r>   19.5244    0.0000 </r>
       <r>   19.5244    0.0000 </r>
       <r>   24.0699    0.0000 </r>
       <r>   24.4416    0.0000 </r>
       <r>   24.4416    0.0000 </r>
       <r>   31.8984    0.0000 </r>
       <r>   33.2101    0.0000 </r>
       <r>   33.2101    0.0000 </r>
       <r>   36.8391    0.0000 </r>
       <r>   36.8391    0.0000 </r>
      </set>
      <set comment="kpoint 10">
       <r>  -12.3875    1.0000 </r>
       <r>   -0.2835    1.0000 </r>
       <r>    1.0570    1.0000 </r>
       <r>    2.4938    1.0000 </r>
       <r>   13.0729    0.0000 </r>
       <r>   15.2308    0.0000 </r>
       <r>   16.1213    0.0000 </r>
       <r>   20.4265    0.0000 </r>
       <r>   22.5102    0.0000 </r>
       <r>   25.5489    0.0000 </r>
       <r>   29.0749    0.0000 </r>
       <r>   31.6134    0.0000 </r>
       <r>   32.0362    0.0000 </r>
       <r>   35.3636    0.0000 </r>
       <r>   37.2374    0.0000 </r>
       <r>   40.1100    0.0000 </r>
      </set>
     </set>
    </set>
   </array>
  </eigenvalues>
  <separator name="orbital magnetization" >
   <v name="MAGDIPOLOUT">      0.00000000      0.00000000      0.00000000</v>
  </separator>
  <dos>
   <i name="efermi">      3.54705312 </i>
   <total>
    <array>
     <dimension dim="1">gridpoints</dimension>
     <dimension dim="2">spin</dimension>
     <field>energy</field>
     <field>total</field>
     <field>integrated</field>
     <set>
      <set comment="spin 1">
       <r>   -16.3318     0.0000     0.0000 </r>
       <r>   -16.1313     0.0000     0.0000 </r>
       <r>   -15.9307     0.0000     0.0000 </r>
       <r>   -15.7302     0.0000     0.0000 </r>
       <r>   -15.5296     0.0000     0.0000 </r>
       <r>   -15.3291     0.0000     0.0000 </r>
       <r>   -15.1285     0.0000     0.0000 </r>
       <r>   -14.9280     0.0000     0.0000 </r>
       <r>   -14.7275     0.0000     0.0000 </r>
       <r>   -14.5269     0.0000     0.0000 </r>
       <r>   -14.3264     0.0000     0.0000 </r>
       <r>   -14.1258     0.0000     0.0000 </r>
       <r>   -13.9253     0.0000     0.0000 </r>
       <r>   -13.7247     0.0000     0.0000 </r>
       <r>   -13.5242     0.3055     0.0613 </r>
       <r>   -13.3236     0.0120     0.0637 </r>
       <r>   -13.1231     0.9283     0.2499 </r>
       <r>   -12.9226     0.7154     0.3933 </r>
       <r>   -12.7220     0.8431     0.5624 </r>
       <r>   -12.5215     2.6190     1.0876 </r>
       <r>   -12.3209     2.9712     1.6835 </r>
       <r>   -12.1204     1.5783     2.0000 </r>
       <r>   -11.9198     0.0000     2.0000 </r>
       <r>   -11.7193     0.0000     2.0000 </r>
       <r>   -11.5188     0.0000     2.0000 </r>
       <r>   -11.3182     0.0000     2.0000 </r>
       <r>   -11.1177     0.0000     2.0000 </r>
       <r>   -10.9171     0.0000     2.0000 </r>
       <r>   -10.7166     0.0000     2.0000 </r>
       <r>   -10.5160     0.0000     2.0000 </r>
       <r>   -10.3155     0.0000     2.0000 </r>
       <r>   -10.1150     0.0000     2.0000 </r>
       <r>    -9.9144     0.0000     2.0000 </r>
       <r>    -9.7139     0.0000     2.0000 </r>
       <r>    -9.5133     0.0000     2.0000 </r>
       <r>    -9.3128     0.0000     2.0000 </r>
       <r>    -9.1122     0.0000     2.0000 </r>
       <r>    -8.9117     0.0000     2.0000 </r>
       <r>    -8.7112     0.0000     2.0000 </r>
       <r>    -8.5106     0.0000     2.0000 </r>
       <r>    -8.3101     0.0000     2.0000 </r>
       <r>    -8.1095     0.0000     2.0000 </r>
       <r>    -7.9090     0.0000     2.0000 </r>
       <r>    -7.7084     0.0000     2.0000 </r>
       <r>    -7.5079     0.0000     2.0000 </r>
       <r>    -7.3074     0.0000     2.0000 </r>
       <r>    -7.1068     0.0000     2.0000 </r>
       <r>    -6.9063     0.0000     2.0000 </r>
       <r>    -6.7057     0.0000     2.0000 </r>
       <r>    -6.5052     0.0000     2.0000 </r>
       <r>    -6.3046     0.0000     2.0000 </r>
       <r>    -6.1041     0.0000     2.0000 </r>
       <r>    -5.9035     0.0000     2.0000 </r>
       <r>    -5.7030     0.0000     2.0000 </r>
       <r>    -5.5025     0.0000     2.0000 </r>
       <r>    -5.3019     0.0000     2.0000 </r>
       <r>    -5.1014     0.0000     2.0000 </r>
       <r>    -4.9008     0.0000     2.0000 </r>
       <r>    -4.7003     0.0000     2.0000 </r>
       <r>    -4.4997     0.0000     2.0000 </r>
       <r>    -4.2992     0.0000     2.0000 </r>
       <r>    -4.0987     0.0000     2.0000 </r>
       <r>    -3.8981     0.0000     2.0000 </r>
       <r>    -3.6976     0.0000     2.0000 </r>
       <r>    -3.4970     0.0000     2.0000 </r>
       <r>    -3.2965     0.0000     2.0000 </r>
       <r>    -3.0959     0.0000     2.0000 </r>
       <r>    -2.8954     0.0000     2.0000 </r>
       <r>    -2.6949     0.0000     2.0000 </r>
       <r>    -2.4943     0.0000     2.0000 </r>
       <r>    -2.2938     0.0000     2.0000 </r>
       <r>    -2.0932     0.0000     2.0000 </r>
       <r>    -1.8927     0.0000     2.0000 </r>
       <r>    -1.6921     0.0000     2.0000 </r>
       <r>    -1.4916     0.0000     2.0000 </r>
       <r>    -1.2911     0.0000     2.0000 </r>
       <r>    -1.0905     0.0000     2.0000 </r>
       <r>    -0.8900     0.2399     2.0481 </r>
       <r>    -0.6894     0.6969     2.1879 </r>
       <r>    -0.4889     0.3174     2.2515 </r>
       <r>    -0.2883     1.5672     2.5658 </r>
       <r>    -0.0878     2.3485     3.0368 </r>
       <r>     0.1127     2.5083     3.5398 </r>
       <r>     0.3133     1.0029     3.7410 </r>
       <r>     0.5138     0.0451     3.7500 </r>
       <r>     0.7144     0.0000     3.7500 </r>
       <r>     0.9149     0.2805     3.8063 </r>
       <r>     1.1155     2.7446     4.3567 </r>
       <r>     1.3160     0.7147     4.5000 </r>
       <r>     1.5166     0.0000     4.5000 </r>
       <r>     1.7171     2.2130     4.9438 </r>
       <r>     1.9176     0.5940     5.0629 </r>
       <r>     2.1182     2.1092     5.4859 </r>
       <r>     2.3187     2.5441     5.9961 </r>
       <r>     2.5193     3.7510     6.7484 </r>
       <r>     2.7198     2.1879     7.1871 </r>
       <r>     2.9204     2.2360     7.6356 </r>
       <r>     3.1209     1.1940     7.8750 </r>
       <r>     3.3214     0.6043     7.9962 </r>
       <r>     3.5220     0.0190     8.0000 </r>
       <r>     3.7225     0.0000     8.0000 </r>
       <r>     3.9231     0.0000     8.0000 </r>
       <r>     4.1236     0.0000     8.0000 </r>
       <r>     4.3242     0.0000     8.0000 </r>
       <r>     4.5247     0.0000     8.0000 </r>
       <r>     4.7252     0.0000     8.0000 </r>
       <r>     4.9258     0.0000     8.0000 </r>
       <r>     5.1263     0.0000     8.0000 </r>
       <r>     5.3269     0.0000     8.0000 </r>
       <r>     5.5274     0.0000     8.0000 </r>
       <r>     5.7280     0.0000     8.0000 </r>
       <r>     5.9285     0.0000     8.0000 </r>
       <r>     6.1290     0.0000     8.0000 </r>
       <r>     6.3296     0.0000     8.0000 </r>
       <r>     6.5301     0.0000     8.0000 </r>
       <r>     6.7307     0.0000     8.0000 </r>
       <r>     6.9312     0.0000     8.0000 </r>
       <r>     7.1318     0.0000     8.0000 </r>
       <r>     7.3323     0.0000     8.0000 </r>
       <r>     7.5329     0.0000     8.0000 </r>
       <r>     7.7334     0.0000     8.0000 </r>
       <r>     7.9339     0.0000     8.0000 </r>
       <r>     8.1345     0.0000     8.0000 </r>
       <r>     8.3350     0.0000     8.0000 </r>
       <r>     8.5356     0.0000     8.0000 </r>
       <r>     8.7361     0.2661     8.0534 </r>
       <r>     8.9367     0.0455     8.0625 </r>
       <r>     9.1372     0.0000     8.0625 </r>
       <r>     9.3377     0.0000     8.0625 </r>
       <r>     9.5383     0.0000     8.0625 </r>
       <r>     9.7388     0.0000     8.0625 </r>
       <r>     9.9394     0.0000     8.0625 </r>
       <r>    10.1399     0.0000     8.0625 </r>
       <r>    10.3405     0.8775     8.2385 </r>
       <r>    10.5410     0.0575     8.2500 </r>
       <r>    10.7415     0.0000     8.2500 </r>
       <r>    10.9421     0.2004     8.2902 </r>
       <r>    11.1426     0.8237     8.4554 </r>
       <r>    11.3432     0.2225     8.5000 </r>
       <r>    11.5437     0.0000     8.5000 </r>
       <r>    11.7443     0.6797     8.6363 </r>
       <r>    11.9448     0.2553     8.6875 </r>
       <r>    12.1453     0.0251     8.6925 </r>
       <r>    12.3459     0.9098     8.8750 </r>
       <r>    12.5464     0.2844     8.9320 </r>
       <r>    12.7470     1.5869     9.2503 </r>
       <r>    12.9475     0.9304     9.4368 </r>
       <r>    13.1481     0.9226     9.6219 </r>
       <r>    13.3486     0.0157     9.6250 </r>
       <r>    13.5491     0.9011     9.8057 </r>
       <r>    13.7497     0.8039     9.9669 </r>
       <r>    13.9502     1.9314    10.3543 </r>
       <r>    14.1508     0.1034    10.3750 </r>
       <r>    14.3513     0.0000    10.3750 </r>
       <r>    14.5519     0.0000    10.3750 </r>
       <r>    14.7524     0.9376    10.5630 </r>
       <r>    14.9530     2.8022    11.1250 </r>
       <r>    15.1535     0.0203    11.1291 </r>
       <r>    15.3540     1.8886    11.5078 </r>
       <r>    15.5546     2.9027    12.0899 </r>
       <r>    15.7551     1.1098    12.3125 </r>
       <r>    15.9557     0.0663    12.3258 </r>
       <r>    16.1562     1.6521    12.6571 </r>
       <r>    16.3568     0.1515    12.6875 </r>
       <r>    16.5573     0.0000    12.6875 </r>
       <r>    16.7578     0.0000    12.6875 </r>
       <r>    16.9584     1.4538    12.9790 </r>
       <r>    17.1589     0.8706    13.1536 </r>
       <r>    17.3595     0.7687    13.3078 </r>
       <r>    17.5600     0.0235    13.3125 </r>
       <r>    17.7606     0.0000    13.3125 </r>
       <r>    17.9611     0.8648    13.4859 </r>
       <r>    18.1616     0.0701    13.5000 </r>
       <r>    18.3622     0.0000    13.5000 </r>
       <r>    18.5627     0.0582    13.5117 </r>
       <r>    18.7633     0.8767    13.6875 </r>
       <r>    18.9638     0.0000    13.6875 </r>
       <r>    19.1644     0.0000    13.6875 </r>
       <r>    19.3649     0.6280    13.8135 </r>
       <r>    19.5654     2.7958    14.3741 </r>
       <r>    19.7660     1.4668    14.6683 </r>
       <r>    19.9665     0.9920    14.8672 </r>
       <r>    20.1671     1.7604    15.2203 </r>
       <r>    20.3676     1.1141    15.4437 </r>
       <r>    20.5682     0.9040    15.6250 </r>
       <r>    20.7687     0.3560    15.6964 </r>
       <r>    20.9692     0.5810    15.8129 </r>
       <r>    21.1698     0.9610    16.0056 </r>
       <r>    21.3703     0.9093    16.1880 </r>
       <r>    21.5709     1.8582    16.5606 </r>
       <r>    21.7714     0.0094    16.5625 </r>
       <r>    21.9720     0.0000    16.5625 </r>
       <r>    22.1725     0.8882    16.7406 </r>
       <r>    22.3731     0.0468    16.7500 </r>
       <r>    22.5736     0.9013    16.9308 </r>
       <r>    22.7741     1.8781    17.3074 </r>
       <r>    22.9747     0.6331    17.4344 </r>
       <r>    23.1752     1.2623    17.6875 </r>
       <r>    23.3758     0.0000    17.6875 </r>
       <r>    23.5763     0.5650    17.8008 </r>
       <r>    23.7769     0.9815    17.9976 </r>
       <r>    23.9774     0.0132    18.0003 </r>
       <r>    24.1779     0.3099    18.0624 </r>
       <r>    24.3785     0.8804    18.2390 </r>
       <r>    24.5790     0.6782    18.3750 </r>
       <r>    24.7796     0.0031    18.3756 </r>
       <r>    24.9801     1.2200    18.6203 </r>
       <r>    25.1807     0.0235    18.6250 </r>
       <r>    25.3812     1.4476    18.9153 </r>
       <r>    25.5817     1.1922    19.1544 </r>
       <r>    25.7823     0.1651    19.1875 </r>
       <r>    25.9828     0.9055    19.3691 </r>
       <r>    26.1834     0.9644    19.5625 </r>
       <r>    26.3839     0.3156    19.6258 </r>
       <r>    26.5845     2.4892    20.1250 </r>
       <r>    26.7850     0.0082    20.1266 </r>
       <r>    26.9855     0.9291    20.3129 </r>
       <r>    27.1861     0.9376    20.5010 </r>
       <r>    27.3866     0.3068    20.5625 </r>
       <r>    27.5872     0.0000    20.5625 </r>
       <r>    27.7877     0.0000    20.5625 </r>
       <r>    27.9883     0.0000    20.5625 </r>
       <r>    28.1888     0.0000    20.5625 </r>
       <r>    28.3893     0.0000    20.5625 </r>
       <r>    28.5899     0.0034    20.5632 </r>
       <r>    28.7904     0.6580    20.6951 </r>
       <r>    28.9910     2.7609    21.2488 </r>
       <r>    29.1915     0.9404    21.4374 </r>
       <r>    29.3921     0.4799    21.5336 </r>
       <r>    29.5926     0.4556    21.6250 </r>
       <r>    29.7932     0.0000    21.6250 </r>
       <r>    29.9937     2.1551    22.0572 </r>
       <r>    30.1942     1.5397    22.3660 </r>
       <r>    30.3948     1.4061    22.6479 </r>
       <r>    30.5953     0.5089    22.7500 </r>
       <r>    30.7959     0.0000    22.7500 </r>
       <r>    30.9964     0.6521    22.8808 </r>
       <r>    31.1970     1.2177    23.1250 </r>
       <r>    31.3975     0.9028    23.3060 </r>
       <r>    31.5980     1.6229    23.6315 </r>
       <r>    31.7986     2.1499    24.0626 </r>
       <r>    31.9991     1.2386    24.3110 </r>
       <r>    32.1997     1.2779    24.5673 </r>
       <r>    32.4002     4.3126    25.4322 </r>
       <r>    32.6008     0.1260    25.4575 </r>
       <r>    32.8013     2.7289    26.0047 </r>
       <r>    33.0018     0.9113    26.1875 </r>
       <r>    33.2024     0.8210    26.3521 </r>
       <r>    33.4029     1.6723    26.6875 </r>
       <r>    33.6035     0.0000    26.6875 </r>
       <r>    33.8040     0.0000    26.6875 </r>
       <r>    34.0046     0.0000    26.6875 </r>
       <r>    34.2051     0.0000    26.6875 </r>
       <r>    34.4056     0.0000    26.6875 </r>
       <r>    34.6062     0.0000    26.6875 </r>
       <r>    34.8067     0.3827    26.7642 </r>
       <r>    35.0073     2.4218    27.2499 </r>
       <r>    35.2078     0.0003    27.2500 </r>
       <r>    35.4084     0.8400    27.4185 </r>
       <r>    35.6089     2.7356    27.9671 </r>
       <r>    35.8095     0.7937    28.1262 </r>
       <r>    36.0100     0.3055    28.1875 </r>
       <r>    36.2105     0.0005    28.1876 </r>
       <r>    36.4111     1.9040    28.5694 </r>
       <r>    36.6116     0.9004    28.7500 </r>
       <r>    36.8122     0.1393    28.7779 </r>
       <r>    37.0127     0.4840    28.8750 </r>
       <r>    37.2133     1.0204    29.0796 </r>
       <r>    37.4138     0.8554    29.2512 </r>
       <r>    37.6143     0.9284    29.4374 </r>
       <r>    37.8149     0.7445    29.5867 </r>
       <r>    38.0154     1.1261    29.8125 </r>
       <r>    38.2160     0.8498    29.9829 </r>
       <r>    38.4165     0.0852    30.0000 </r>
       <r>    38.6171     0.0000    30.0000 </r>
       <r>    38.8176     0.2776    30.0557 </r>
       <r>    39.0181     3.7498    30.8077 </r>
       <r>    39.2187     0.0241    30.8125 </r>
       <r>    39.4192     0.0000    30.8125 </r>
       <r>    39.6198     0.0000    30.8125 </r>
       <r>    39.8203     0.0000    30.8125 </r>
       <r>    40.0209     0.0055    30.8136 </r>
       <r>    40.2214     0.9287    30.9998 </r>
       <r>    40.4219     0.0008    31.0000 </r>
       <r>    40.6225     0.0000    31.0000 </r>
       <r>    40.8230     0.2352    31.0472 </r>
       <r>    41.0236     1.4595    31.3399 </r>
       <r>    41.2241     3.2916    32.0000 </r>
       <r>    41.4247     0.0002    32.0000 </r>
       <r>    41.6252     0.0000    32.0000 </r>
       <r>    41.8257     0.0000    32.0000 </r>
       <r>    42.0263     0.0000    32.0000 </r>
       <r>    42.2268     0.0000    32.0000 </r>
       <r>    42.4274     0.0000    32.0000 </r>
       <r>    42.6279     0.0000    32.0000 </r>
       <r>    42.8285     0.0000    32.0000 </r>
       <r>    43.0290     0.0000    32.0000 </r>
       <r>    43.2296     0.0000    32.0000 </r>
       <r>    43.4301     0.0000    32.0000 </r>
       <r>    43.6306     0.0000    32.0000 </r>
       <r>    43.8312     0.0000    32.0000 </r>
      </set>
     </set>
    </array>
   </total>
  </dos>
 </calculation>
 <structure name="finalpos" >
  <crystal>
   <varray name="basis" >
    <v>       3.00978800       0.00000000       0.00000000 </v>
    <v>       1.50489400       2.60655300       0.00000000 </v>
    <v>       1.50489400       0.86885100       2.45748200 </v>
   </varray>
   <i name="volume">     19.27936883 </i>
   <varray name="rec_basis" >
    <v>       0.33224931      -0.19182422      -0.13564019 </v>
    <v>       0.00000000       0.38364844      -0.13564019 </v>
    <v>       0.00000000       0.00000000       0.40692058 </v>
   </varray>
  </crystal>
  <varray name="positions" >
   <v>       0.00000000       0.00000000       0.00000000 </v>
   <v>       0.50000000       0.50000000       0.50000000 </v>
  </varray>
 </structure>
</modeling>
