LAMMPS (10 Feb 2015)
# ---- initialize simulations
clear
units metal
dimension 3
boundary p p p
atom_style charge
atom_modify map array
# ---- create atoms
read_data /Users/eugeneragasa/pyflamestk_git/pypospack/tests/tests_integration/workflow/WorkflowLammpsThermalExpansion/param_1256/MgO_NaCl_unit.npt.T400/lammps.structure
  triclinic box = (0 0 0) to (4.2565 4.2565 4.2565) with tilt (0 0 0)
  1 by 1 by 1 MPI processor grid
  reading atoms ...
  8 atoms
# ---- define interatomic potential
include potential.mod
mass 1 24.305
mass 2 15.999

group Mg type 1
4 atoms in group Mg
group O type 2
4 atoms in group O

set group Mg charge 1.66039996869
  4 settings made for charge
set group O charge -1.66039996869
  4 settings made for charge

variable R_cut equal 10.0

pair_style buck/coul/long ${R_cut}
pair_style buck/coul/long 10
pair_coeff 1 1 0.0 0.5 0.0 ${R_cut}
pair_coeff 1 1 0.0 0.5 0.0 10
pair_coeff 1 2 1528.2261267 0.282600919639 0.0 ${R_cut}
pair_coeff 1 2 1528.2261267 0.282600919639 0.0 10
pair_coeff 2 2 6677.06285722 0.138925130231 8.13419383626 ${R_cut}
pair_coeff 2 2 6677.06285722 0.138925130231 8.13419383626 10

kspace_style pppm 1.0e-5

neighbor 1.0 bin
neigh_modify every 1 delay 0 check yes
# ---- define settings
compute eng all pe/atom
compute eatoms all reduce sum c_eng
# ---- run minimization
reset_timestep 0
fix 1 all box/relax iso 0.0 vmax 0.001
thermo 10
thermo_style custom step pe lx ly lz xy xz yz press pxx pyy pzz pxy pxz pyz c_eatoms
min_style cg
minimize 1e-25 1e-25 5000 10000
PPPM initialization ...
  G vector (1/distance) = 0.352851
  grid = 8 8 8
  stencil order = 5
  estimated absolute RMS force accuracy = 3.9608e-05
  estimated relative force accuracy = 2.75062e-06
  using double precision FFTs
  3d grid and FFT values/proc = 3375 512
Neighbor list info ...
  1 neighbor list requests
  update every 1 steps, delay 0 steps, check yes
  master list distance cutoff = 11
Memory usage per processor = 4.06549 Mbytes
Step PotEng Lx Ly Lz Xy Xz Yz Press Pxx Pyy Pzz Pxy Pxz Pyz eatoms 
       0   -110.92329       4.2565       4.2565       4.2565            0            0            0    120138.29    120138.29    120138.29    120138.29 1.5343687e-10 -1.0407196e-10 -1.3145771e-10   -110.92329 
      10   -111.05478     4.299065     4.299065     4.299065            0            0            0    61836.089    61836.089    61836.089    61836.089 1.0666232e-10 -5.0344756e-11 -1.3613158e-10   -111.05478 
      20   -111.10767      4.34163      4.34163      4.34163            0            0            0    10591.608    10591.608    10591.608    10591.608 -1.2465538e-10 -9.1160209e-12 2.8254225e-10   -111.10767 
      25   -111.10952     4.351169     4.351169     4.351169            0            0            0   -6.6622077   -6.6622077   -6.6622077   -6.6622077 -1.5540302e-10 -3.5403029e-11 3.0098099e-10   -111.10952 
Loop time of 0.0140162 on 1 procs for 25 steps with 8 atoms

Minimization stats:
  Stopping criterion = linesearch alpha is zero
  Energy initial, next-to-last, final = 
        -110.923293971     -111.109518965     -111.109518965
  Force two-norm initial, final = 17.348 0.0010058
  Force max component initial, final = 17.348 0.0010053
  Final line search alpha, max atom move = 0.00777135 7.8125e-06
  Iterations, force evaluations = 25 41

Pair  time (%) = 0.00373578 (26.6534)
Kspce time (%) = 0.00224376 (16.0084)
Neigh time (%) = 0 (0)
Comm  time (%) = 0.000415802 (2.96659)
Outpt time (%) = 2.69413e-05 (0.192216)
Other time (%) = 0.00759387 (54.1794)

Nlocal:    8 ave 8 max 8 min
Histogram: 1 0 0 0 0 0 0 0 0 0
Nghost:    2189 ave 2189 max 2189 min
Histogram: 1 0 0 0 0 0 0 0 0 0
Neighs:    2344 ave 2344 max 2344 min
Histogram: 1 0 0 0 0 0 0 0 0 0

Total # of neighbors = 2344
Ave neighs/atom = 293
Neighbor list builds = 0
Dangerous builds = 0
unfix 1
# ---- define output variables ----
variable natoms equal "count(all)"
variable tot_energy equal "c_eatoms"
variable length_x equal "lx"
variable length_y equal "ly"
variable length_z equal "lz"
variable tilt_xy equal "xy"
variable tilt_xz equal "xz"
variable tilt_yz equal "yz"
variable tot_press equal "press"
variable press_xx equal "pxx"
variable press_yy equal "pyy"
variable press_zz equal "pzz"
variable press_xy equal "pxy"
variable press_xz equal "pxz"
variable press_yz equal "pyz"

# ---- output ----
print "pypospack:output_section:begin"
pypospack:output_section:begin
print "tot_energy = ${tot_energy}"
tot_energy = -111.109518965105
print "num_atoms = ${natoms}"
num_atoms = 8
print "xx = ${length_x}"
xx = 4.35116899821938
print "yy = ${length_y}"
yy = 4.35116899821938
print "zz = ${length_z}"
zz = 4.35116899821938
print "xy = ${tilt_xy}"
xy = 0
print "xz = ${tilt_xz}"
xz = 0
print "yz = ${tilt_yz}"
yz = 0
print "tot_press = ${tot_press}"
tot_press = -6.66220766530753
print "pxx = ${press_xx}"
pxx = -6.66220766529406
print "pyy = ${press_yy}"
pyy = -6.66220766581444
print "pzz = ${press_zz}"
pzz = -6.6622076648141
print "pxy = ${press_xy}"
pxy = -1.55403020158447e-10
print "pxz = ${press_xz}"
pxz = -3.54030294322521e-11
print "pyz = ${press_yz}"
pyz = 3.00980987063428e-10
print "pypospack:output_section:done"
pypospack:output_section:done
print "pypospack:lammps_sim:done"
pypospack:lammps_sim:done
#------------------------------------------------------------------------------
# RUN THERMOSTAT
# running using an NPT Nose-Hoover style thermostat
#------------------------------------------------------------------------------
variable tempdamp equal 0.1
variable pressdamp equal 1.0
# set initial velocities
velocity all create 400 5279480 mom yes dist gaussian loop all
# fix for Nose-Hoover style thermostat
fix 20 all npt temp 400 400 0.1 aniso 0.0 0.0 1.0 drag 1.0 couple xyz
variable boxx equal lx
variable boxy equal ly
variable boxz equal lz
variable boxp equal press
variable boxt equal temp
# calculate averages every 10000 steps
reset_timestep 0
fix 21 all ave/time 10 10 100 v_boxx v_boxy v_boxz v_boxp v_boxt file lattice.out
thermo_style custom step temp pe ke etotal press lx ly lz press pxx pyy pzz pxy pxz pyz vol
thermo_modify flush yes
thermo 100
run 100000
PPPM initialization ...
  G vector (1/distance) = 0.351894
  grid = 8 8 8
  stencil order = 5
  estimated absolute RMS force accuracy = 4.14019e-05
  estimated relative force accuracy = 2.8752e-06
  using double precision FFTs
  3d grid and FFT values/proc = 3375 512
Memory usage per processor = 3.06549 Mbytes
Step Temp PotEng KinEng TotEng Press Lx Ly Lz Press Pxx Pyy Pzz Pxy Pxz Pyz Volume 
       0          400   -111.10953   0.36192841    -110.7476    4683.8666     4.351169     4.351169     4.351169    4683.8666    4126.7604    7302.2498    2622.5897    -1378.669    244.24554   -1314.1675    82.379254 
     100    121.20812   -110.80351   0.10967165   -110.69384   -3267.7234    4.3756623    4.3756623    4.3756623   -3267.7234   -5470.4968    8104.3723   -12437.046    1036.3205   -655.09238    2763.3092    83.778271 
     200    343.76745   -110.91138   0.31104802   -110.60033    3817.2487    4.3594034    4.3594034    4.3594034    3817.2487   -1269.7704    12462.867    258.64933   -1797.7406   -441.95763   -853.01709     82.84784 
     300    151.82281   -110.65279   0.13737246   -110.51542   -2426.4037    4.3798666    4.3798666    4.3798666   -2426.4037   -11098.058    12405.492   -8586.6455   -146.24431     1936.592    5437.8508    84.019994 
     400    423.01368   -110.82812   0.38275167   -110.44537    1976.7569    4.3681835    4.3681835    4.3681835    1976.7569    4783.9918   -4011.2523    5157.5313     935.5821   -322.93357    -389.7569    83.349427 
     500    397.41437   -110.76321   0.35958888   -110.40362   -1466.7189    4.3800547    4.3800547    4.3800547   -1466.7189   -13769.904    23643.777   -14274.029    4208.4108   -1423.0133   -4176.5287    84.030818 
     600    494.85824   -110.82996   0.44775813    -110.3822    4138.0391     4.372698     4.372698     4.372698    4138.0391    4387.0311    9200.3501    -1173.264   -4839.5889   -2516.4795    1909.5978    83.608118 
     700    393.86766   -110.73471   0.35637973   -110.37833   -2008.0211    4.3793574    4.3793574    4.3793574   -2008.0211   -10201.189    21830.458   -17653.332   -3163.7894   -623.97326      2273.02    83.990691 
     800    388.64005   -110.73135   0.35164969    -110.3797   -4683.2334     4.374798     4.374798     4.374798   -4683.2334   -2884.5484   -8540.4157   -2624.7361   -128.16756    590.32326    4052.7195    83.728634 
     900    304.30716   -110.66095   0.27534351   -110.38561    1628.3004    4.3769916    4.3769916    4.3769916    1628.3004   -6064.8337     18201.98   -7252.2451    513.59798    2126.3166   -5110.6198    83.854649 
    1000    403.57244   -110.74932   0.36516083   -110.38416   -442.79765    4.3778977    4.3778977    4.3778977   -442.79765   -9343.2774    18445.122   -10430.237     5044.359    240.54354   -511.16211    83.906737 
    1100    432.81734    -110.7744   0.39162222   -110.38278    5105.4359    4.3718598    4.3718598    4.3718598    5105.4359    511.81632    16759.674   -1955.1824   -4601.4612   -2091.4004   -4849.5592    83.560045 
    1200    556.64677   -110.88546   0.50366569    -110.3818   -13004.672    4.3829935    4.3829935    4.3829935   -13004.672   -12271.372   -4711.8825   -22030.762   -2383.5233   -3545.6055    2413.5927    84.200074 
    1300    324.57417   -110.67803   0.29368153   -110.38435    7603.7473    4.3678666    4.3678666    4.3678666    7603.7473    4929.0325    24786.656   -6904.4464    2594.9016   -3753.9621   -41.935679    83.331286 
    1400    253.76366   -110.61698   0.22961069   -110.38737   -1259.3132    4.3840027    4.3840027    4.3840027   -1259.3132   -12326.105    20774.368   -12226.203    6036.5774    1476.1603    315.14886    84.258253 
    1500    441.54894   -110.78371   0.39952276   -110.38419   -2273.7844    4.3715119    4.3715119    4.3715119   -2273.7844     258.5484    5304.9699   -12384.871   -3918.8152    558.68965   -3944.8892    83.540101 
    1600     375.7341   -110.72535   0.33997211   -110.38538    2123.9092    4.3771704    4.3771704    4.3771704    2123.9092   -5800.4504     11281.41    890.76768    2520.4853    2610.4117    102.01284    83.864922 
    1700    492.65791   -110.82888   0.44576723   -110.38311   -3187.7376     4.378342     4.378342     4.378342   -3187.7376    -18034.22    19497.926   -11026.918   -679.15013    1325.2331    6022.1731    83.932285 
    1800    361.45414   -110.71128    0.3270513   -110.38423    7579.4378    4.3709986    4.3709986    4.3709986    7579.4378   -5446.0878    26072.582    2111.8198    3932.3212   -4525.3478   -693.21049    83.510676 
    1900    431.78189   -110.77315   0.39068533   -110.38247   -9140.5992    4.3817253    4.3817253    4.3817253   -9140.5992   -19312.566    6022.0921   -14131.324   -2175.3505   -1613.2984   -661.43308    84.127007 
    2000    309.52779   -110.66224   0.28006725   -110.38217    1612.9657     4.371628     4.371628     4.371628    1612.9657    969.04457    8412.9008   -4543.0482    -1509.051    -3553.499    666.32387    83.546757 
    2100    374.74054   -110.72207   0.33907311     -110.383   -1486.1331    4.3783918    4.3783918    4.3783918   -1486.1331   -6133.7337    17785.545   -16110.211    1192.8652    292.31719    1216.9728    83.935149 
    2200    475.94344   -110.81487   0.43064363   -110.38422    -1049.363    4.3754879    4.3754879    4.3754879    -1049.363   -10473.267    14703.767   -7378.5892    4469.3761    3073.7642   -3543.2337    83.768253 
    2300    452.15043    -110.7963   0.40911521   -110.38719   -2021.6771    4.3758559    4.3758559    4.3758559   -2021.6771   -12714.232    13534.773   -6885.5714    3485.1425   -1254.7513   -5046.3385     83.78939 
    2400    357.55295   -110.71071   0.32352142   -110.38719   -1596.1998    4.3769173    4.3769173    4.3769173   -1596.1998   -16319.418    13916.799   -2385.9804   -5971.7475    712.25509    1312.6857    83.850379 
    2500     433.6434   -110.77557   0.39236966    -110.3832   -4377.0963    4.3755742    4.3755742    4.3755742   -4377.0963   -16387.495    5458.8636   -2202.6573    4528.0617   -2001.1906    3520.4359     83.77321 
    2600    268.79393   -110.62562    0.2432104   -110.38241    964.71691    4.3788116    4.3788116    4.3788116    964.71691    -6031.843    20541.125   -11615.131   -3753.9469   -3474.0437    2098.3078    83.959297 
    2700    537.71432   -110.86767   0.48653522   -110.38114   -2388.8522    4.3709653    4.3709653    4.3709653   -2388.8522   -3509.0396    7003.2555   -10660.773    8484.5887   -12.438856   -249.52361     83.50877 
    2800    366.24521   -110.71562   0.33138636   -110.38424   -3777.6468    4.3836467    4.3836467    4.3836467   -3777.6468   -11912.081    13571.073   -12991.933   -4925.3985    324.38127   -2664.5612    84.237727 
    2900    463.75841   -110.80143   0.41961835   -110.38182    4292.1642     4.368769     4.368769     4.368769    4292.1642   -4599.3691    23667.296   -6191.4342   -4860.8205    389.40261    1263.1234    83.382948 
    3000    270.95855   -110.63032   0.24516899   -110.38515    2028.6147    4.3810453    4.3810453    4.3810453    2028.6147    -23722.63    36440.821   -6632.3469   -69.837843   -133.94499    1871.9137    84.087846 
    3100    425.23229   -110.77082   0.38475911   -110.38606    898.76903    4.3727893    4.3727893    4.3727893    898.76903   -4278.2363     9875.689   -2901.1457   -550.20454   -2658.9158    2445.5662    83.613358 
    3200    415.15049   -110.76302   0.37563688   -110.38738   -3365.3492    4.3766793    4.3766793    4.3766793   -3365.3492   -15805.224    15062.685   -9353.5095    1956.9351   -1921.4898    -7652.401    83.836701 
    3300    382.65343   -110.73207   0.34623287   -110.38584   -4328.4837    4.3797029    4.3797029    4.3797029   -4328.4837   -14519.296    18352.995    -16819.15   -2724.7017    765.46268    -1104.177    84.010575 
    3400    349.68393   -110.70141   0.31640137   -110.38501     8622.713    4.3692854    4.3692854    4.3692854     8622.713   -2280.2453     34936.51   -6788.1257    2030.2441    -1148.668    1966.0556    83.412519 
    3500    475.86147   -110.81858   0.43056946   -110.38801   -12179.823     4.384456     4.384456     4.384456   -12179.823   -22922.046     8529.633   -22147.055    342.61741    1120.2044    5811.5544    84.284392 
    3600    476.14463   -110.81756   0.43082566   -110.38673    6434.9887    4.3657971    4.3657971    4.3657971    6434.9887     2213.318      20784.9   -3693.2516    2708.6201     2515.013   -4883.3874    83.212895 
    3700    217.31612   -110.58441   0.19663219   -110.38778   -2929.0706    4.3866632    4.3866632    4.3866632   -2929.0706   -19183.298    29402.738   -19006.652   -4575.1131   -1960.3838    444.17916    84.411742 
    3800    555.92662   -110.88464   0.50301409   -110.38162   -2304.1723    4.3683078    4.3683078    4.3683078   -2304.1723    -8237.538    807.42938    517.59188    2388.9876   -1660.3325   -3632.7796    83.356545 
    3900    242.35931   -110.60536    0.2192918   -110.38607    3254.3326    4.3814715    4.3814715    4.3814715    3254.3326   -9684.6861    39157.515   -19709.831   -1789.5414   -1945.0986    5409.5686    84.112392 
    4000    406.71562   -110.75171   0.36800484    -110.3837    4296.6305    4.3731886    4.3731886    4.3731886    4296.6305   -10193.027    27305.408   -4222.4891    3172.0399   -1926.8157   -287.14475    83.636261 
    4100    526.99194   -110.86219   0.47683338   -110.38535   -3901.1891    4.3773606    4.3773606    4.3773606   -3901.1891    -12937.94    18721.062    -17486.69   -1610.9255   -1358.7943   -760.03987    83.875856 
    4200    407.49682   -110.75856   0.36871169   -110.38984   -4733.3777    4.3750264    4.3750264    4.3750264   -4733.3777   -3293.9217    3146.1312   -14052.343   -1101.3269   -1069.4338    -4946.319     83.74175 
    4300    419.79433   -110.77088   0.37983873   -110.39104   -1364.1823    4.3762233    4.3762233    4.3762233   -1364.1823   -14514.649    24176.771   -13754.669     1659.107    959.16025    3042.3094    83.810497 
    4400    285.50905   -110.64547   0.25833459   -110.38713    679.37281     4.379201     4.379201     4.379201    679.37281   -12687.249      33602.8   -18877.432    3430.6746    491.07711    4112.4839    83.981697 
    4500    454.10886   -110.79464   0.41088724   -110.38375   -2897.9502    4.3692689    4.3692689    4.3692689   -2897.9502   -1720.7695   -6285.8786   -687.20259    3707.0543   -2466.9189    551.41232    83.411575 
    4600    323.89603   -110.67908   0.29306793   -110.38601   -2889.8694    4.3858686    4.3858686    4.3858686   -2889.8694   -20586.795    31516.401   -19599.215     -4891.74   -1492.1377   -2884.5835     84.36588 
    4700    450.18689   -110.79142   0.40733856   -110.38408    16040.847    4.3627266    4.3627266    4.3627266    16040.847    15358.273    33504.697   -740.42826   -7248.6441   -1063.1368   -4806.2682    83.037448 
    4800    377.90634     -110.728   0.34193759   -110.38606    -10299.96    4.3898222    4.3898222    4.3898222    -10299.96   -20690.266    11010.801   -21220.415   -296.10815   -2005.4356    3001.2401    84.594242 
    4900    493.90256   -110.82853   0.44689341   -110.38164    9540.5119    4.3627218    4.3627218    4.3627218    9540.5119    8319.1253    25176.583   -4874.1728     6327.775    135.67326    1209.9724    83.037174 
    5000    307.02992   -110.66359   0.27780713   -110.38578   -12158.814    4.3866631    4.3866631    4.3866631   -12158.814   -22072.456    11303.432   -25707.419   -1499.1223    284.74063    2405.7333    84.411737 
    5100    431.64775   -110.77218   0.39056396   -110.38162    -1785.849    4.3692088    4.3692088    4.3692088    -1785.849   -11180.525    11370.143    -5547.165    -1525.822    412.01794   -6726.3902    83.408131 
    5200    520.52334   -110.85321   0.47098045   -110.38223   -3914.6059    4.3765504    4.3765504    4.3765504   -3914.6059   -4592.0646    8621.0305   -15772.784    -3352.675   -1894.2734    1309.8478    83.829292 
    5300    288.23436   -110.64928   0.26080051   -110.38848     5454.984    4.3776735    4.3776735    4.3776735     5454.984   -300.50904    29665.861     -13000.4    5779.3848    -4165.847   -68.625784    83.893845 
    5400    416.77505   -110.76588   0.37710683   -110.38877     6891.241    4.3698726    4.3698726    4.3698726     6891.241   -964.05818    21273.703    364.07871    6908.9487   -686.45187    4507.0638    83.446152 
    5500    252.25346   -110.61492   0.22824423   -110.38667     -5600.19     4.385704     4.385704     4.385704     -5600.19   -3012.2567    9679.1215   -23467.435    4889.4819    -893.6557     529.3887    84.356385 
    5600    487.33708   -110.82055   0.44095283   -110.37959     4804.262    4.3619708    4.3619708    4.3619708     4804.262   -1324.2331    7127.5737    8609.4455   -5163.6816   -931.06855   -3587.2062    82.994301 
    5700    336.73782   -110.68488   0.30468746   -110.38019   -11836.352    4.3919081    4.3919081    4.3919081   -11836.352    -27881.09    26148.097   -33776.063    596.49082    2604.2536   -1143.4237    84.714888 
    5800    557.35483   -110.88039   0.50430636   -110.37608    13994.668    4.3584046    4.3584046    4.3584046    13994.668    13017.222    22695.442    6271.3408   -2259.1864    1546.9259   -162.81949    82.790905 
    5900    424.82978   -110.76582   0.38439492   -110.38142   -12183.398      4.38975      4.38975      4.38975   -12183.398   -13904.018    8857.9126   -31504.088    6769.5096   -2129.8266     5022.777    84.590068 
    6000     390.0835   -110.73456   0.35295575    -110.3816    8254.0691     4.365547     4.365547     4.365547    8254.0691    25295.877   -6574.9267    6041.2565   -2285.1934   -3263.9384    1158.7859      83.1986 
    6100    312.25909   -110.66941   0.28253859   -110.38687   -676.55771    4.3807018    4.3807018    4.3807018   -676.55771   -11104.197    18757.216   -9682.6921   -4559.2361   -4067.5515   -2981.7514    84.068069 
    6200    288.05818   -110.64423   0.26064109   -110.38359    3559.6392    4.3753691    4.3753691    4.3753691    3559.6392   -8489.1336    23230.398   -4062.3464   -2082.2241   -2419.6157   -6309.3323    83.761428 
    6300    431.32502   -110.77205   0.39027194   -110.38177   -332.85678    4.3718289    4.3718289    4.3718289   -332.85678   -10963.401    13216.788   -3251.9574    1359.0869    1142.7096    648.41624    83.558276 
    6400    600.04713   -110.92274   0.54293525   -110.37981   -14942.193    4.3816653    4.3816653    4.3816653   -14942.193   -19209.129   -8522.1157   -17095.333     2375.822    747.08151    1306.4765    84.123551 
    6500    478.78731   -110.81667   0.43321682   -110.38346    3872.5458     4.366541     4.366541     4.366541    3872.5458    5033.9237     16526.59   -9942.8768   -2878.3868    2759.2559    4485.4332    83.255439 
    6600    273.90881   -110.63365   0.24783844   -110.38581    549.47007    4.3853321    4.3853321    4.3853321    549.47007   -10155.115    27773.195    -15969.67    581.43447     203.6649   -2842.7378    84.334926 
    6700    426.76266   -110.76754   0.38614382    -110.3814    5551.0935    4.3648217    4.3648217    4.3648217    5551.0935    10143.792    9042.1625    -2532.674   -6496.5234   -2772.8261   -2142.1366    83.157137 
    6800    280.27032   -110.63766   0.25359448   -110.38407   -5487.7565    4.3835362    4.3835362    4.3835362   -5487.7565   -15149.891    4179.2034    -5492.582    5994.0153   -2526.6027   -1128.7485    84.231354 
    6900    506.78979   -110.83926   0.45855405    -110.3807    1011.8297    4.3714861    4.3714861    4.3714861    1011.8297   -14397.569    19329.283    -1896.225   -2983.3292   -2283.4432    5525.4679    83.538622 
    7000     323.7838   -110.67679   0.29296639   -110.38383    12721.761    4.3717005    4.3717005    4.3717005    12721.761   -1493.6035    41527.325   -1868.4386    1751.3193    625.33513    2085.2031    83.550915 
    7100    475.54261   -110.81469   0.43028095   -110.38441   -11342.351    4.3836027    4.3836027    4.3836027   -11342.351   -21645.445    2737.2727   -15118.882   -3439.7972    2681.3759   -470.86521    84.235188 
    7200    451.99226   -110.79119   0.40897209   -110.38221    6344.1143    4.3635267    4.3635267    4.3635267    6344.1143     6843.596    13752.017   -1563.2702    3016.3518    905.01188   -4639.5224    83.083145 
    7300    269.88507   -110.62708   0.24419768   -110.38288   -12982.919    4.3897362    4.3897362    4.3897362   -12982.919   -21604.366    4874.1415   -22218.534    5348.5343   -1265.4102   -214.41334    84.589269 
    7400    334.57108   -110.68155   0.30272694   -110.37883    14234.783    4.3642255    4.3642255    4.3642255    14234.783   -2599.7645     44248.06    1056.0544    3644.5332   -730.08532     6517.935    83.123066 
    7500    524.69249    -110.8564    0.4747528   -110.38165   -11826.049    4.3844112    4.3844112    4.3844112   -11826.049   -19726.152   -12243.423   -3508.5714   -1383.0237   -3432.1826    3934.4159    84.281805 
    7600    395.51088    -110.7417   0.35786655   -110.38384     9414.227    4.3671608    4.3671608    4.3671608     9414.227    -2442.371    20099.267    10585.785   -4119.0391   -1951.5572   -2775.3455    83.290899 
    7700    346.16383   -110.69873   0.31321631   -110.38551   -4491.3674    4.3802125    4.3802125    4.3802125   -4491.3674    -26232.35    15499.252   -2741.0043    2044.3171    963.18807    -3945.058    84.039903 
    7800    303.82003   -110.65781   0.27490275   -110.38291    1665.3727    4.3757043    4.3757043    4.3757043    1665.3727   -7946.7342    23873.657   -10930.805   -2957.7842    -157.8673    423.00249    83.780685 
    7900     510.0502   -110.84329   0.46150414   -110.38179   -820.43187     4.370632     4.370632     4.370632   -820.43187    -7113.443    8232.3508   -3580.2034    3021.0577    1071.1809    2554.1696    83.489668 
    8000    473.47248    -110.8102   0.42840785   -110.38179   -9417.7208    4.3835274    4.3835274    4.3835274   -9417.7208   -23636.383    14153.987   -18770.767   -435.84229   -237.85425    3073.4765    84.230848 
    8100     315.1622   -110.66721   0.28516539   -110.38204    18068.237    4.3665823    4.3665823    4.3665823    18068.237    488.20779    44897.777    8818.7275   -2151.2308   -850.35807   -6880.2995    83.257803 
    8200    389.59604   -110.73679   0.35251468   -110.38428   -6143.7756    4.3813885    4.3813885    4.3813885   -6143.7756    -22317.82    4943.3699   -1056.8763    497.39986   -816.77852   -4851.7304    84.107608 
    8300    392.27154   -110.73889   0.35493554   -110.38395   -3705.2325    4.3705094    4.3705094    4.3705094   -3705.2325   -14738.272    -2475.959    6098.5332    -126.6213   -2138.4409    1819.4785     83.48264 
    8400    321.56337   -110.67621    0.2909573   -110.38525    4510.2309    4.3780589    4.3780589    4.3780589    4510.2309   -4179.9656    22301.138   -4590.4799    3506.9976    26.066878    5071.0607    83.916008 
    8500    419.73954   -110.76427   0.37978915   -110.38448   -2897.4292    4.3744499    4.3744499    4.3744499   -2897.4292   -18416.879    26803.553   -17078.961   -1437.0166      599.021    1526.0453     83.70865 
    8600    454.05418    -110.7973   0.41083776   -110.38646   -5128.3513    4.3760672    4.3760672    4.3760672   -5128.3513   -9436.0531    3454.9029   -9403.9039   -2242.5484   -481.74653   -5347.7391    83.801528 
    8700    481.03446   -110.82078   0.43525009   -110.38553   -2887.3653    4.3772929    4.3772929    4.3772929   -2887.3653   -12448.033     12818.99   -9033.0528   -2203.4558    184.15615   -3191.0996    83.871967 
    8800    401.60124   -110.74706   0.36337724   -110.38368    3583.6959    4.3705359    4.3705359    4.3705359    3583.6959   -17665.005    14987.131    13428.961    4934.8285   -1522.1958    6101.4732    83.484159 
    8900    189.22646   -110.55562   0.17121608   -110.38441    4553.0324    4.3841955    4.3841955    4.3841955    4553.0324   -19949.532    40061.459   -6452.8296   -53.309147    -2391.915    6437.9154    84.269369 
    9000    479.52362   -110.81312   0.43388305   -110.37924     11072.55    4.3625117    4.3625117    4.3625117     11072.55    8824.4064    6530.2383    17863.006    3700.1352     328.7706    2130.8867    83.025178 
    9100    436.31293   -110.77579   0.39478511   -110.38101   -21381.613    4.3902006    4.3902006    4.3902006   -21381.613   -31181.429   -8571.5222   -24391.888    -2175.521   -1250.0501   -4776.0056    84.616116 
    9200    459.79824   -110.79595   0.41603511   -110.37992    12267.523    4.3621705    4.3621705    4.3621705    12267.523    4836.8124    32840.795   -875.03766   -415.78427    -1287.758   -2108.9024    83.005701 
    9300    460.05402   -110.80027   0.41626655     -110.384   -12132.262    4.3859701    4.3859701    4.3859701   -12132.262   -29529.777    5868.5969   -12735.606   -1232.4361    1383.1203    2766.8051    84.371739 
    9400    286.26161   -110.64304   0.25901552   -110.38403    6606.8959    4.3673505    4.3673505    4.3673505    6606.8959    -15028.01    28019.162    6829.5367    2838.8965   -3925.1243    5540.6833    83.301751 
    9500    384.36367   -110.73224   0.34778033   -110.38446    -3528.597    4.3755007    4.3755007    4.3755007    -3528.597   -7762.4174   -16419.217    13595.844    3106.3303    -2999.084   -4353.2725    83.768991 
    9600    398.24128   -110.74303   0.36033708   -110.38269   -6423.8902    4.3808251    4.3808251    4.3808251   -6423.8902   -15250.365    6404.8293   -10426.135   -3795.2365    496.02364   -2651.4833     84.07517 
    9700    386.59808   -110.73181   0.34980207   -110.38201    6720.4134    4.3650969    4.3650969    4.3650969    6720.4134    -6356.736    26816.107   -298.13039    -182.2016   -1877.6062   -2693.3665    83.172868 
    9800    421.39425   -110.76287   0.38128637   -110.38159   -10134.783     4.387237     4.387237     4.387237   -10134.783   -19729.409     12085.56   -22760.501   -2558.7372    486.35893    8276.3586    84.444872 
    9900    531.32791    -110.8602   0.48075666   -110.37944    4997.8917    4.3633314    4.3633314    4.3633314    4997.8917   -7517.8779    9843.4223    12668.131     3628.131     2000.596    185.95342     83.07199 
   10000     284.6832   -110.64211   0.25758734   -110.38452   -4663.2927    4.3843337    4.3843337    4.3843337   -4663.2927    -26525.44    15942.329   -3406.7665    946.57392   -99.658614   -1436.5017    84.277335 
   10100    363.68203   -110.71071   0.32906715   -110.38165    7049.8914    4.3696034    4.3696034    4.3696034    7049.8914   -5026.6432    13019.844    13156.474   -196.95332   -2809.7523   -7616.8297    83.430731 
   10200    416.25859   -110.75905   0.37663952   -110.38241    1371.9676    4.3739959    4.3739959    4.3739959    1371.9676   -9937.6698    12676.727    1376.8461   -1300.2568   -2980.7769    1692.8683    83.682588 
   10300    514.58477   -110.84782   0.46560712   -110.38222    -13593.57    4.3793705    4.3793705    4.3793705    -13593.57   -15463.792   -8785.7069   -16531.213   -3061.8191   -918.49898    3329.5692    83.991447 
   10400     314.9781    -110.6705    0.2849988    -110.3855    14980.678    4.3667066    4.3667066    4.3667066    14980.678    3661.7318    32983.073    8297.2282     5471.418    1479.8736    2558.7639    83.264917 
   10500    431.25542    -110.7759   0.39020897   -110.38569   -11989.072    4.3834355    4.3834355    4.3834355   -11989.072   -25043.466   -486.61724   -10437.132    1148.0684    3232.6798   -3837.4431    84.225551 
   10600    262.08384   -110.62063   0.23713896   -110.38349    9163.7781    4.3654493    4.3654493    4.3654493    9163.7781   -402.90093     3145.605     24748.63    6304.9134    2642.2655    1213.4879    83.193012 
   10700    500.03448   -110.83376   0.45244171   -110.38131   -9398.2763    4.3817793    4.3817793    4.3817793   -9398.2763   -20277.409   -1230.6129   -6686.8066   -1075.9041   -127.41983    800.01044    84.130117 
   10800    377.13634   -110.72262   0.34124088   -110.38138    -747.4559    4.3707893    4.3707893    4.3707893    -747.4559   -14736.189     12646.21   -152.38859   -982.81974   -3320.5233    7824.8937    83.498682 
   10900    458.39181   -110.79622   0.41476254   -110.38146   -6856.0398    4.3746423    4.3746423    4.3746423   -6856.0398   -15315.714    3638.5875   -8890.9929    2560.3641   -1711.0102   -2812.9105    83.719697 
   11000    403.02498   -110.74483   0.36466547   -110.38016    245.16212    4.3792853    4.3792853    4.3792853    245.16212   -18423.107    21632.977   -2474.3832    482.01293   -577.77321   -4692.6106    83.986546 
   11100    456.38848    -110.7927   0.41294989   -110.37975    2219.0279    4.3672401    4.3672401    4.3672401    2219.0279   -4854.1371   -5323.8562    16835.077    1511.9218       1507.5    1045.4735    83.295437 
   11200      261.501   -110.61984    0.2366116   -110.38323    1863.7405    4.3829036    4.3829036    4.3829036    1863.7405   -8972.8163    18303.493   -3739.4549   -3494.2694     5650.843    3098.4737    84.194895 
   11300    412.99558   -110.75345   0.37368708   -110.37976    9366.0598    4.3670932    4.3670932    4.3670932    9366.0598    302.12571    16936.724     10859.33     1511.604    2279.2324    3274.2428    83.287028 
   11400    384.29187   -110.72945   0.34771536   -110.38173   -4792.8304    4.3758169    4.3758169    4.3758169   -4792.8304   -10001.222    11546.239   -15923.508    -522.7266   -2474.9256   -1984.7392    83.787153 
   11500     442.0713    -110.7813    0.3999954    -110.3813   -4545.4531    4.3780907    4.3780907    4.3780907   -4545.4531   -14454.624     875.5575    -57.29237    2069.0396   -3082.2222   -696.50787    83.917836 
   11600    464.94042   -110.80246   0.42068786   -110.38177    5313.6091    4.3687587    4.3687587    4.3687587    5313.6091   -8574.3286    19407.841    5107.3146    4952.9962   -3358.1014   -2220.9467    83.382357 
   11700    379.45478   -110.72745   0.34333866   -110.38412   -7110.1715    4.3815037    4.3815037    4.3815037   -7110.1715   -22559.434   -1821.4341    3050.3532   -1459.7127   -2586.9604    8944.3888    84.114245 
   11800    387.10174   -110.73103   0.35025779   -110.38077    5206.1903    4.3688323    4.3688323    4.3688323    5206.1903   -5270.4225    10251.251    10637.742   -5072.9996    4323.2977   -5719.4744    83.386575 
   11900    465.05675    -110.8005   0.42079312    -110.3797   -8407.2866    4.3769531    4.3769531    4.3769531   -8407.2866   -15044.879   -8356.6695    -1820.311   -1934.6313     1841.942   -25.657368    83.852433 
   12000    364.89794   -110.71094   0.33016733   -110.38078   -6571.0534    4.3769202    4.3769202    4.3769202   -6571.0534   -13057.642   -14856.004    8200.4859    1153.5003   -2933.0314   -1021.8355    83.850546 
   12100    314.49101   -110.66674   0.28455807   -110.38218    10420.475    4.3687516    4.3687516    4.3687516    10420.475   -1544.7716    12552.015    20254.182    1866.7254   -1433.5766    4792.6068    83.381951 
   12200    450.86779   -110.79082   0.40795465   -110.38286   -6324.4422    4.3806911    4.3806911    4.3806911   -6324.4422   -11196.128   -2528.3025   -5248.8964    8100.2114   -3532.9574   -291.15769    84.067451 
   12300    357.92549   -110.70649   0.32385851   -110.38264    4896.7449    4.3692981    4.3692981    4.3692981    4896.7449   -3928.9123    12031.834    6587.3126    577.47392    926.84822    -1887.714    83.413246 
   12400      434.448   -110.77541   0.39309768   -110.38231   -4681.8927    4.3768917    4.3768917    4.3768917   -4681.8927   -11727.069    -14861.76     12543.15   -1789.2705     2224.389   -3436.1476    83.848907 
   12500    417.49103   -110.75984   0.37775465   -110.38208   -7006.1304    4.3752736    4.3752736    4.3752736   -7006.1304   -22504.943   -5288.7047    6775.2564     105.3435    1839.8064    1490.4656    83.755949 
   12600      375.717   -110.72252   0.33995664   -110.38256   -2358.6444     4.371117     4.371117     4.371117   -2358.6444   -19189.162   -2422.1789    14535.408   -3458.7996    -3366.002    9776.5829    83.517462 
   12700    392.46554   -110.73932   0.35511107   -110.38421    1585.8682    4.3762468    4.3762468    4.3762468    1585.8682   -13288.898    20232.355   -2185.8528    3076.4514    297.75735    310.41078    83.811849 
   12800    507.75604    -110.8437   0.45942833   -110.38427   -245.10446    4.3725129    4.3725129    4.3725129   -245.10446   -7160.4731    6367.8802    57.279546    3710.8219     -797.177   -6161.7355    83.597499 
   12900    288.51906   -110.64562   0.26105811   -110.38457    4180.7949    4.3762222    4.3762222    4.3762222    4180.7949   -5026.7301    2569.1544     14999.96    1791.6086    1516.2757   -3056.5361    83.810436 
   13000    387.41241   -110.73206   0.35053889   -110.38153   -2295.1048    4.3737066    4.3737066    4.3737066   -2295.1048    -1424.541   -13314.297    7853.5233   -2081.4165    3709.3984   -461.79722    83.665987 
   13100    395.46015   -110.73933   0.35782066   -110.38151   -1843.8733    4.3733623    4.3733623    4.3733623   -1843.8733   -14284.868    8281.7214     471.5267   -3804.7012   -2480.6472    1153.3169    83.646231 
   13200    347.38502   -110.69645   0.31432127   -110.38212   -949.60025     4.376513     4.376513     4.376513   -949.60025   -14262.956    13050.252   -1636.0969   -2633.6151   -1165.5625    411.82829    83.827141 
   13300    470.20436   -110.80655   0.42545079    -110.3811     3672.522    4.3694568    4.3694568    4.3694568     3672.522   -6927.9712    10943.088    7002.4487   -2569.2657   -1978.4928   -5380.0906    83.422338 
   13400    438.75339   -110.77846   0.39699329   -110.38147   -5306.1615    4.3792461    4.3792461    4.3792461   -5306.1615    -23408.95    2574.8811     4915.584    4223.0314    2760.4884    1378.8201    83.984293 
   13500     425.9828   -110.76506   0.38543819   -110.37962    -7354.557    4.3726394    4.3726394    4.3726394    -7354.557   -8697.1137   -17473.537    4106.9799    152.15131    2406.1679    284.59102    83.604758 
   13600    353.57831    -110.6997   0.31992508   -110.37978    -714.8462    4.3732664    4.3732664    4.3732664    -714.8462   -18527.046     13277.43    3105.0774   -487.70035   -2417.8826    751.23642     83.64073 
   13700    392.17258   -110.73434   0.35484599    -110.3795   -5089.7486    4.3782273    4.3782273    4.3782273   -5089.7486   -22277.404    5609.0398    1399.1185   -3272.9458    988.37634   -3796.6931    83.925687 
   13800    329.68168   -110.67928   0.29830291   -110.38098    7894.4894    4.3687948    4.3687948    4.3687948    7894.4894   -6983.4266    13141.786    17525.108   -5481.7924   -5640.9254   -9076.2082    83.384426 
   13900    465.53733   -110.80479   0.42122796   -110.38356   -2514.9651    4.3781611    4.3781611    4.3781611   -2514.9651   -9833.6231    2156.2002    132.52766    251.29613   -5382.3316     820.0597    83.921881 
   14000    373.16631   -110.72217   0.33764872   -110.38452    909.84709    4.3692155    4.3692155    4.3692155    909.84709   -5476.0167   -6462.9993    14668.557   -1847.3964    -379.9049    2376.2021    83.408519 
   14100    355.18229    -110.7063    0.3213764   -110.38492   -8762.6761    4.3774339    4.3774339    4.3774339   -8762.6761   -9492.6395   -6188.1837   -10607.205    3633.7016    898.79861    -1869.924     83.88007 
   14200    360.90616   -110.70988   0.32655548   -110.38332    4314.4515    4.3726861    4.3726861    4.3726861    4314.4515   -20655.671    14704.057    18894.969   -1104.8359    3684.4994   -3961.6293    83.607438 
   14300    465.74582   -110.80502    0.4214166    -110.3836    -181.0379    4.3715579    4.3715579    4.3715579    -181.0379   -16186.551   -2744.2603    18387.698    227.89679   -922.52625   -3400.0889    83.542739 
   14400    410.14115   -110.75596   0.37110433   -110.38486   -781.28347     4.378454     4.378454     4.378454   -781.28347   -20900.857    19927.711   -1370.7044   -2079.3102   -1545.7501    1080.3233    83.938729 
   14500    581.23628   -110.90862    0.5259148    -110.3827   -2990.5543    4.3679226    4.3679226    4.3679226   -2990.5543    -10691.05   -3402.7669    5122.1538   -2592.3497   -2595.1953    2442.3725    83.334494 
   14600    209.55402   -110.57531   0.18960888    -110.3857    2739.8176    4.3787105    4.3787105    4.3787105    2739.8176   -21275.392    21369.287    8125.5569    2059.8488    3259.3492   -3085.7225    83.953477 
   14700    361.13959   -110.71015   0.32676669   -110.38339   -197.80447    4.3727638    4.3727638    4.3727638   -197.80447   -9556.5869   -6533.0573    15496.231    557.34146    3647.2286   -3205.4492    83.611891 
   14800    332.66863   -110.68438   0.30100557   -110.38338    13471.557    4.3691415    4.3691415    4.3691415    13471.557    -7030.173    34055.912    13388.933    4105.0527    1764.4721   -5108.0248    83.404276 
   14900    467.58969   -110.80679   0.42308498    -110.3837   -12707.241    4.3831554    4.3831554    4.3831554   -12707.241   -10449.468   -15987.564   -11684.691    263.17961    5750.1581    682.33238    84.209406 
   15000    434.35141   -110.77431   0.39301028    -110.3813     7682.425    4.3612322    4.3612322    4.3612322     7682.425    8162.6505    10270.976    4613.6487   -1043.0912   -3608.7965   -4749.7431    82.952145 
   15100    351.16961   -110.69841   0.31774564   -110.38066   -15852.738      4.38762      4.38762      4.38762   -15852.738   -30258.025   -18697.924     1397.736   -2817.5525   -3564.7731    117.88046    84.466991 
   15200    214.71734   -110.57357   0.19428076   -110.37929    10359.041    4.3638335    4.3638335    4.3638335    10359.041   -8718.7764    12825.212    26970.688   -2949.6443   -2434.0361   -9042.1973    83.100666 
   15300    519.25745   -110.85315   0.46983505   -110.38331   -11530.453    4.3780413    4.3780413    4.3780413   -11530.453   -20761.404   -10214.451   -3615.5025    1537.9259    5.9383802     1841.442    83.914993 
   15400    484.25181   -110.82269   0.43816122   -110.38453   -2829.2494    4.3754266    4.3754266    4.3754266   -2829.2494   -19915.684    11734.853   -306.91708   -974.35319      1786.76    11.049553    83.764731 
   15500    511.14905   -110.84684    0.4624984   -110.38435   -1132.4473    4.3671823    4.3671823    4.3671823   -1132.4473   -3421.4765   -8210.7384     8234.873    2985.4776     1526.326   -2603.2975     83.29213 
   15600    312.68306   -110.66682    0.2829222    -110.3839   -5789.6377     4.383804     4.383804     4.383804   -5789.6377   -27638.517    4855.7584     5413.846   -523.82636   -342.07006   -3161.6588    84.246797 
   15700    341.94848   -110.68953   0.30940217   -110.38013    8706.9923    4.3647886    4.3647886    4.3647886    8706.9923   -8006.5722     4636.771    29490.778   -2714.6326   -5466.8812   -5572.5509    83.155245 
   15800     281.5677   -110.63921   0.25476838   -110.38445   -1867.5608    4.3795545    4.3795545    4.3795545   -1867.5608   -13337.532    10279.481   -2544.6307    -1306.457    914.82032   -2921.0742    84.002037 
   15900    527.10665    -110.8603   0.47693717   -110.38336   -1031.4817    4.3718541    4.3718541    4.3718541   -1031.4817    -2004.353    1602.0855   -2692.1776   -5012.0686   -1687.4908    6454.0168    83.559722 
   16000    476.28515    -110.8147   0.43095282   -110.38374    4271.8474    4.3726147    4.3726147    4.3726147    4271.8474   -5694.5849    3992.5642    14517.563    2798.4016     2817.368    1157.3694    83.603341 
   16100    281.60058   -110.63762   0.25479813   -110.38282    1063.0464    4.3783662    4.3783662    4.3783662    1063.0464   -9991.9313    1511.9527    11669.118    2379.3304     5206.451   -5292.1502    83.933674 
   16200    368.97824   -110.71296   0.33385927    -110.3791    3245.3235     4.369252     4.369252     4.369252    3245.3235   -16455.177    10500.676    15690.471    4020.6443    411.36419   -2734.2919    83.410605 
   16300    372.62889   -110.71877   0.33716245   -110.38161   -2983.0371    4.3769187    4.3769187    4.3769187   -2983.0371   -21282.089    20940.226    -8607.248    797.92089    815.60535   -2656.3318     83.85046 
   16400    430.86601   -110.77586   0.38985662     -110.386   -6948.9596    4.3721843    4.3721843    4.3721843   -6948.9596   -13052.193   -5798.6354   -1996.0508   -428.03092   -3780.9484    1852.0968    83.578657 
   16500    545.89711   -110.87954   0.49393918    -110.3856   -2686.1309    4.3729829    4.3729829    4.3729829   -2686.1309   -14443.618    1437.6871    4947.5385    1489.4717    1913.0223     1561.324    83.624459 
   16600    355.99111     -110.707   0.32210824   -110.38489   -1027.3322    4.3776879    4.3776879    4.3776879   -1027.3322   -13994.672    6162.5514    4750.1242   -3130.8838   -1018.5202   -5766.3981    83.894672 
   16700    265.50565   -110.62398   0.24023509   -110.38375    5064.2393    4.3681778    4.3681778    4.3681778    5064.2393   -8281.2745    14956.949    8517.0436    3850.7488    1363.0473     -6481.87      83.3491 
   16800    464.20558   -110.80202   0.42002297   -110.38199   -11458.696    4.3797569    4.3797569    4.3797569   -11458.696   -20690.792   -769.58919   -12915.706    -1828.404    -462.8369      4652.82     84.01368 
   16900    382.59721   -110.72886     0.346182   -110.38267     901.6993    4.3690509    4.3690509    4.3690509     901.6993   -7390.6657    6009.0466     4086.717   -1403.2327   -2951.7339   -1607.9101    83.399093 
   17000    470.51066   -110.81085   0.42572793   -110.38512   -7160.8939    4.3772646    4.3772646    4.3772646   -7160.8939   -20165.363    6731.8276   -8049.1461   -686.17554    1382.5027   -2783.6792    83.870337 
   17100    307.61539   -110.66313   0.27833687   -110.38479    11589.802    4.3719099    4.3719099    4.3719099    11589.802    -9215.313    27694.583    16290.135   -6033.2209   -2005.1931   -2875.7831    83.562919 
   17200    443.02749   -110.78391   0.40086058   -110.38305   -4224.4306    4.3724619    4.3724619    4.3724619   -4224.4306   -13412.374       1291.1   -552.01734    4475.9046   -362.22682   -4010.1647    83.594578 
   17300    355.19709   -110.70191   0.32138979   -110.38052    -4403.471    4.3776852    4.3776852    4.3776852    -4403.471   -14933.865   -812.59523    2536.0477   -2031.0602    721.95048    3921.0355    83.894521 
   17400    501.01402   -110.83249   0.45332801   -110.37916   -3522.9457     4.369909     4.369909     4.369909   -3522.9457    -3163.021   -3831.7679   -3574.0481    4049.7077      314.441    2295.8633     83.44824 
   17500     318.5802   -110.67088   0.28825806   -110.38262   -2148.4637    4.3784772    4.3784772    4.3784772   -2148.4637   -18691.688    9395.0478    2851.2488    -564.0915    -652.6127   -5590.1739    83.940062 
   17600    389.01618   -110.73374   0.35199002   -110.38175    6620.8354    4.3696472    4.3696472    4.3696472    6620.8354   -5861.9187    11960.554    13763.871    282.47329   -1850.8999   -4202.7382    83.433242 
   17700    423.78479   -110.76548   0.38344938   -110.38204   -1915.5313    4.3750072    4.3750072    4.3750072   -1915.5313   -15376.819    6635.6577    2994.5677     1904.446    1491.8251   -1381.3912     83.74065 
   17800    480.99876   -110.81751   0.43521778   -110.38229    -10731.72    4.3760118    4.3760118    4.3760118    -10731.72   -20166.655   -9518.3603   -2510.1442   -2249.4122   -144.32896    2945.1793    83.798346 
   17900    351.42759   -110.70206   0.31797907   -110.38408    1297.9546    4.3703027    4.3703027    4.3703027    1297.9546     111.9999    7475.2479   -3693.3839    4309.8375    1169.8477    4844.5984    83.470797 
   18000    389.00859   -110.73623   0.35198314   -110.38424   -3050.7448    4.3769094    4.3769094    4.3769094   -3050.7448   -18723.614    1701.7339    7869.6455   -4968.7633    -1048.939   -5682.5585    83.849922 
   18100    285.30059   -110.64216   0.25814597   -110.38401    10060.117    4.3720087    4.3720087    4.3720087    10060.117   -3062.8047     16104.83    17138.325    4061.3978    1076.0971   -7815.7685    83.568585 
   18200    511.44662   -110.84621   0.46276765   -110.38344   -4384.7674    4.3723369    4.3723369    4.3723369   -4384.7674   -9156.8829    -6915.709    2918.2898   -631.00902    908.61558    1251.5308    83.587408 
   18300    440.00594   -110.78083   0.39812662    -110.3827   -9012.8354    4.3786135    4.3786135    4.3786135   -9012.8354   -24041.074    232.43954    -3229.872    2072.1898    576.72304    1068.4954    83.947901 
   18400     436.0321   -110.77505     0.394531   -110.38052   -1971.9202    4.3688192    4.3688192    4.3688192   -1971.9202   -216.24726   -4244.7513   -1454.7621    1206.7683    1264.3353    267.12171     83.38582 
   18500     276.6317   -110.63328   0.25030217   -110.38298    1728.1967    4.3765283    4.3765283    4.3765283    1728.1967   -12757.894    3217.4873    14724.997   -4793.5324   -3190.3162   -1807.4904    83.828021 
   18600    402.44466   -110.74601   0.36414039   -110.38187    4447.5534     4.372548     4.372548     4.372548    4447.5534   -5859.9482    8323.9512    10878.657    4307.8664    3369.4432   -5431.5188    83.599515 
   18700    398.33481   -110.74267   0.36042171   -110.38225    1888.5252    4.3735316    4.3735316    4.3735316    1888.5252   -3116.0681    6644.5561    2137.0875   -3336.8161   -1007.6631   -899.05171    83.655946 
   18800    528.24492   -110.85853    0.4779671   -110.38057   -10617.826    4.3744369    4.3744369    4.3744369   -10617.826   -19191.125   -3804.5333   -8857.8195    196.36502    1143.6253     7273.374    83.707904 
   18900     386.7215   -110.73175   0.34991374   -110.38183   -1985.1415    4.3746082    4.3746082    4.3746082   -1985.1415   -8111.3434    10909.668   -8753.7492   -455.45034    860.57028   -3988.1841    83.717737 
   19000    282.27714   -110.63847   0.25541029   -110.38306    6287.8434      4.37142      4.37142      4.37142    6287.8434   -13017.082    10583.235    21297.378    1127.2071    841.81302   -5379.5769    83.534832 
   19100    418.74752   -110.76145   0.37889155   -110.38256   -2119.4261    4.3757296    4.3757296    4.3757296   -2119.4261    -6911.535   -1543.9043    2097.1609   -2877.6262   -1015.2902   -798.12085    83.782138 
   19200    355.47213   -110.70239   0.32163865   -110.38075    7621.0734    4.3737677    4.3737677    4.3737677    7621.0734     -4170.37    12515.172    14518.418   -4066.2461    -4386.274   -3606.8877    83.669492 
   19300    579.61775   -110.90537   0.52445032   -110.38092   -9644.9342    4.3717918    4.3717918    4.3717918   -9644.9342   -7345.3572   -7098.5106   -14490.935    3114.4312    1309.5705    5258.5791     83.55615 
   19400    317.70729   -110.67236   0.28746824    -110.3849    194.00606     4.374962     4.374962     4.374962    194.00606   -9082.8293     14305.96   -4641.1125     163.9887   -314.08559    2864.3359    83.738053 
   19500    395.78801   -110.74194   0.35811731   -110.38382    1490.9082     4.372457     4.372457     4.372457    1490.9082   -13324.897    3236.5078    14561.114     2502.865    3361.7621     -9061.08    83.594293 
   19600     312.6337    -110.6669   0.28287754   -110.38403    2793.6921    4.3743294    4.3743294    4.3743294    2793.6921   -11220.415    7194.2252    12407.266   -4488.7853   -1386.4037   -1118.9295    83.701731 
   19700     487.1225   -110.82226   0.44075867    -110.3815   -2081.2098    4.3737169    4.3737169    4.3737169   -2081.2098   -250.08454   -10129.836    4136.2907   -266.91063   -3201.4276    6126.6522    83.666578 
   19800    464.16225   -110.80104   0.41998376   -110.38105   -1280.7278    4.3738318    4.3738318    4.3738318   -1280.7278   -11759.405    11124.906   -3207.6842   -1323.4717    118.68967   -2953.2199    83.673173 
   19900    388.01685   -110.73348    0.3510858   -110.38239   -1093.6904    4.3726626    4.3726626    4.3726626   -1093.6904    1818.3645   -2074.9422   -3024.4934   -299.76212    1074.8162    3551.3209    83.606089 
   20000    289.19924   -110.64452   0.26167355   -110.38285    4815.9481    4.3753523    4.3753523    4.3753523    4815.9481   -12566.034    7649.3432    19364.535    5342.2507    4534.9329   -3624.0876    83.760466 
   20100    369.12392   -110.71531   0.33399108   -110.38132    3592.0125    4.3722445    4.3722445    4.3722445    3592.0125   -8225.8746   -2959.1676     21961.08   -213.11867    3063.4293    -6144.498    83.582108 
   20200    453.27171   -110.79106   0.41012977   -110.38093   -4887.6317    4.3754518    4.3754518    4.3754518   -4887.6317   -6339.4876   -9269.7752     946.3676    3105.5458     2392.376     2024.308     83.76618 
   20300    509.48253    -110.8404    0.4609905   -110.37941   -3628.3412    4.3725455    4.3725455    4.3725455   -3628.3412   -13681.486    2804.7279    -8.265647   -3705.7019   -3345.8576    4778.0916    83.599374 
   20400    361.01566   -110.70998   0.32665456   -110.38333   -415.62995       4.3745       4.3745       4.3745   -415.62995   -14721.161    31.645519    13442.625   -417.77514   -413.56252    -5564.113    83.711525 
   20500    375.27002   -110.72475    0.3395522    -110.3852    2904.9649    4.3723897    4.3723897    4.3723897    2904.9649   -8500.8204    8419.8865    8795.8285    589.61423    730.08468    2056.8221    83.590437 
   20600    389.05392    -110.7365   0.35202417   -110.38447   -402.73062    4.3735603    4.3735603    4.3735603   -402.73062   -10249.197   -2090.3331    11131.338   -265.48857    1408.2729   -1488.7559    83.657593 
   20700    426.23938   -110.76926   0.38567035   -110.38359   -1836.5408    4.3735307    4.3735307    4.3735307   -1836.5408   -3753.2423    2308.2862   -4064.6663    5216.3759    2335.4333   -1569.1938    83.655891 
   20800    464.22338   -110.80212   0.42003907   -110.38209    -1451.099    4.3729735    4.3729735    4.3729735    -1451.099   -534.18576   -5812.9702    1993.8588   -1020.7839   -2270.0166     3527.359    83.623921 
   20900    273.49889   -110.63114   0.24746754   -110.38368    5175.8885    4.3741241    4.3741241    4.3741241    5175.8885   -11344.832     11831.93    15040.567   -417.14858   -3747.2578   -7350.2839    83.689949 
   21000    396.23842   -110.74244   0.35852485   -110.38392    3657.2753    4.3719848    4.3719848    4.3719848    3657.2753   -5088.9442    917.64818    15143.122   -2727.3152   -3390.7459   -4410.4776    83.567214 
   21100    325.39464    -110.6776   0.29442391   -110.38318    3678.3149    4.3749871    4.3749871    4.3749871    3678.3149   -9412.3769    19100.797    1346.5248    2235.7011    1643.4833      2105.69    83.739496 
   21200    560.55351   -110.88738    0.5072006   -110.38018   -9763.3367    4.3722309    4.3722309    4.3722309   -9763.3367   -13730.616   -10783.306   -4776.0883   -841.95606    378.01861    4464.1333     83.58133 
   21300     359.6375   -110.70645   0.32540757   -110.38105    3213.9704    4.3754052    4.3754052    4.3754052    3213.9704   -11806.458    14869.459    6578.9097   -15.557853    15.244074   -1923.3689    83.763504 
   21400    470.51912   -110.80533   0.42573559   -110.37959   -5649.2569    4.3741394    4.3741394    4.3741394   -5649.2569   -13598.457   -5696.2382    2346.9241    4014.0583    2019.1133    3186.6022    83.690825 
   21500    307.37016   -110.66061   0.27811498   -110.38249    7194.1761    4.3695627    4.3695627    4.3695627    7194.1761   -10843.372    24933.727    7492.1727    -2379.034   -4236.8239   -6544.0175    83.428403 
   21600    401.57672   -110.74674   0.36335505   -110.38339   -1949.5157    4.3783314    4.3783314    4.3783314   -1949.5157   -283.60251   -835.64482   -4729.2999   -2740.8784    190.86829   -1869.7266    83.931676 
   21700    434.83049   -110.77604   0.39344376    -110.3826   -522.88938    4.3683753    4.3683753    4.3683753   -522.88938    2329.3543   -1247.3829   -2650.6395   -776.93384   -296.34859     6889.294    83.360408 
   21800     339.0073   -110.69125   0.30674093   -110.38451    3419.6028    4.3761057    4.3761057    4.3761057    3419.6028   -624.30892    4185.0767    6698.0406    20.667518    4433.3263   -2729.2431    83.803742 
   21900    429.25302   -110.77129   0.38839715   -110.38289    -914.7397     4.373118     4.373118     4.373118    -914.7397   -10258.177    1897.5909    5616.3675    1604.2317    1767.1387   -2368.4475    83.632211 
   22000     407.1121   -110.75188   0.36836358   -110.38352    1223.2042     4.368983     4.368983     4.368983    1223.2042   -12323.523    5802.7406    10190.395   -423.50772   -1781.2544   -721.59902      83.3952 
   22100    419.68551   -110.76269   0.37974026   -110.38295    -7737.677    4.3820621    4.3820621    4.3820621    -7737.677    -24091.19    2023.1438   -1144.9848   -1997.8279   -762.71497   -539.37927    84.146408 
   22200    528.38012    -110.8577   0.47808944   -110.37961    1860.6187    4.3643437    4.3643437    4.3643437    1860.6187   -912.93281    1532.0018     4962.787   -680.84474   -1805.7279    3001.2141    83.129818 
   22300     323.1777   -110.67547   0.29241797   -110.38305   -6060.8417    4.3822604    4.3822604    4.3822604   -6060.8417   -18643.733   -3818.7021    4279.9103    1415.8294    3612.1585    1122.8202    84.157833 
   22400    391.50537   -110.73604   0.35424228    -110.3818    8775.9514    4.3664221    4.3664221    4.3664221    8775.9514    7354.3968    12547.825    6425.6321    2616.2075    4685.4605   -7293.2198    83.248642 
   22500    346.19561   -110.69556   0.31324506   -110.38231    2890.7988    4.3743266    4.3743266    4.3743266    2890.7988     -7890.86    4489.7531    12073.503    2244.7533    1792.4602    2535.7742    83.701572 
   22600    415.33968   -110.75617   0.37580807   -110.38036   -6854.1195    4.3775697    4.3775697    4.3775697   -6854.1195   -7056.4525   -1279.0753   -12226.831    2856.8907    495.16637    1474.3227    83.887879 
   22700    404.77516   -110.74616   0.36624907   -110.37991    6210.9679    4.3655348    4.3655348    4.3655348    6210.9679    1855.2814    2741.2385    14036.384   -4935.5801   -759.70406   -2863.0345    83.197898 
   22800    407.29346   -110.74976   0.36852768   -110.38123   -13038.428    4.3827111    4.3827111    4.3827111   -13038.428   -19090.448   -273.88396   -19750.952   -3805.6487   -2292.0459     2333.139    84.183803 
   22900     374.7283   -110.71907   0.33906204   -110.38001    6109.1465    4.3652646    4.3652646    4.3652646    6109.1465     782.2698     12914.78    4630.3895   -828.56394   -719.29302   -7952.8798    83.182452 
   23000    371.26742   -110.71685   0.33593056   -110.38092   -1694.9429    4.3772401    4.3772401    4.3772401   -1694.9429   -12701.029    5415.0367    2201.1634    1836.4662    4510.0644   -2694.4451    83.868929 
   23100    538.31083     -110.867   0.48707495   -110.37993   -13933.782    4.3745505    4.3745505    4.3745505   -13933.782    -11815.91   -17642.815   -12342.621    2912.7467    2432.6595    8551.6967    83.714423 
   23200    276.96499   -110.63282   0.25060375   -110.38221    7121.6562    4.3688858    4.3688858    4.3688858    7121.6562   -2587.1851    13757.094    10195.059   -2399.0709   -398.75157   -1012.8074    83.389637 
   23300    496.56348   -110.82987   0.44930107   -110.38057   -12816.345    4.3797655    4.3797655    4.3797655   -12816.345   -16138.738   -3419.3562   -18890.941   -2300.5721   -48.543869   -844.94974    84.014175 
   23400    183.44126   -110.54883   0.16598151   -110.38284    12884.681    4.3667535    4.3667535    4.3667535    12884.681    3281.7913    26744.209    8628.0427   -3307.6404   -2636.4686    -1002.841    83.267599 
   23500    490.03451   -110.82691   0.44339352   -110.38351   -8392.0342    4.3766668    4.3766668    4.3766668   -8392.0342   -11912.461   -12282.374   -981.26736   -681.45681   -1781.8709   -3005.1572    83.835983 
   23600    438.90716   -110.78019   0.39713242   -110.38305   -4542.6132    4.3746357    4.3746357    4.3746357   -4542.6132   -14179.259    -4264.289    4815.7084    5545.8693    691.47076    1421.2054    83.719319 
   23700    431.91991   -110.77255   0.39081021   -110.38174    1512.4207     4.366983     4.366983     4.366983    1512.4207   -6525.0212    4776.7891    6285.4943   -232.60636    984.32774    6158.3588    83.280723 
   23800    356.98605   -110.70454   0.32300848   -110.38153   -4966.9857    4.3821305    4.3821305    4.3821305   -4966.9857   -23825.723    11358.324   -2433.5585   -336.45544    237.56967   -3766.7878    84.150352 
   23900    350.90435   -110.69712   0.31750563   -110.37961    8818.9497    4.3650248    4.3650248    4.3650248    8818.9497    583.89718    18647.986    7224.9661   -4403.5184    1175.2689    702.60151    83.168747 
   24000    441.62625   -110.78106   0.39959271   -110.38147   -6438.9536    4.3768667    4.3768667    4.3768667   -6438.9536   -4841.4255   -6975.7823   -7499.6531    355.53687     1219.955    4886.1164    83.847467 
   24100    424.49499   -110.76363   0.38409199   -110.37954   -3067.0621    4.3764309    4.3764309    4.3764309   -3067.0621   -11861.596   -14267.105    16927.515     544.8319    1789.9705   -1879.7414    83.822426 
   24200    445.05652   -110.78152   0.40269649   -110.37882    6786.9438    4.3655586    4.3655586    4.3655586    6786.9438   -2168.4936    21940.785    588.54004    3193.6471    3536.8285    2910.1809    83.199259 
   24300    259.78257   -110.61742   0.23505673   -110.38236    2539.7458    4.3808774    4.3808774    4.3808774    2539.7458   -16480.198    5972.0833    18127.352    4470.8424    1057.4212   -1360.5529     84.07818 
   24400    404.71858   -110.74578   0.36619788   -110.37958    5690.2086    4.3669174    4.3669174    4.3669174    5690.2086   -10627.423    22147.558    5550.4913   -2033.5114    998.55365   -5851.6866    83.276976 
   24500    483.02731   -110.81873   0.43705326   -110.38167   -6392.4941    4.3750622    4.3750622    4.3750622   -6392.4941   -11481.591   -7064.8785   -631.01239    683.84972   -1300.5501    3140.2675    83.743804 
   24600     414.6025   -110.75775   0.37514106   -110.38261    -4967.729    4.3740282    4.3740282    4.3740282    -4967.729   -10473.146   -13979.906    9549.8651   -3668.2676    -981.6886    7721.1645    83.684443 
   24700    511.43038   -110.84442   0.46275296   -110.38167     -2743.18    4.3709849    4.3709849    4.3709849     -2743.18    -16069.57    10274.862   -2434.8322    2923.2818    1017.7325   -3327.1836    83.509889 
   24800    240.40063   -110.60165   0.21751954   -110.38413    8127.3845    4.3766749    4.3766749    4.3766749    8127.3845   -4448.5225    6102.4433    22728.233      1183.14    1546.3098   -5993.7296     83.83645 
   24900     302.7791   -110.65799   0.27396089   -110.38403    1571.9518    4.3692706    4.3692706    4.3692706    1571.9518   -10804.237    15612.074   -91.981525    533.28866    4977.6954   -1377.2031    83.411671 
   25000    486.19732   -110.82302   0.43992155    -110.3831   -9589.7219    4.3767221    4.3767221    4.3767221   -9589.7219   -11114.367   -9214.6932   -8440.1058     718.7573   -721.62268   -1819.0339    83.839162 
   25100    454.47774   -110.79254   0.41122101   -110.38132   -3667.0219    4.3713299    4.3713299    4.3713299   -3667.0219   -4094.7078   -7175.8707    269.51295   -3282.3266   -1434.2161     8643.196    83.529664 
   25200     454.9934   -110.79374   0.41168759   -110.38205   -6039.3828    4.3728869    4.3728869    4.3728869   -6039.3828   -17950.935   -2733.6143    2566.4009   -1192.5788    2199.6719    1023.9494    83.618956 
   25300    309.84165   -110.66399   0.28035124   -110.38364    8687.7785    4.3742857    4.3742857    4.3742857    8687.7785   -7648.4646    17628.443    16083.357    1337.7999    1286.1577   -8341.1151    83.699223 
   25400    341.14873   -110.69282   0.30867854   -110.38414     2794.865    4.3708799    4.3708799    4.3708799     2794.865   -12559.385    15441.967    5502.0125    2959.0064   -148.51032   -2150.4727    83.503871 
   25500    352.80199   -110.70197   0.31922266   -110.38275   -6417.4199    4.3760142    4.3760142    4.3760142   -6417.4199   -11017.806    6763.6588   -14998.113    746.34613    2012.8558   -525.84608    83.798484 
   25600    589.90313   -110.91305   0.53375675   -110.37929   -4096.4059    4.3702557    4.3702557    4.3702557   -4096.4059   -2350.3671   -2942.1578   -6996.6929    2125.9871    1136.4894    1151.7867    83.468101 
   25700    347.78296   -110.69523   0.31468133   -110.38055   -3197.6972    4.3780768    4.3780768    4.3780768   -3197.6972   -20621.664    12976.544   -1947.9715   -2314.2271   -2169.4888    2543.7257    83.917034 
   25800    358.32794   -110.70534   0.32422265   -110.38112    7861.5842    4.3668633    4.3668633    4.3668633    7861.5842   -3312.9456    16344.885    10552.813   -823.24756   -38.840503   -1748.0404    83.273879 
   25900     394.4531   -110.74008   0.35690945   -110.38317    2196.8853    4.3766393    4.3766393    4.3766393    2196.8853   -16634.354    10406.325    12818.685    1350.8506    1279.0557   -6040.8573    83.834402 
   26000    381.30286   -110.72835   0.34501084   -110.38334   -7213.5239    4.3723058    4.3723058    4.3723058   -7213.5239    -10884.97   -5044.6559   -5710.9461   -1136.0283    4160.2528     3811.132    83.585626 
   26100    420.03597   -110.76331   0.38005738   -110.38325   -2170.9816    4.3704076    4.3704076    4.3704076   -2170.9816   -54.015719    7714.6766   -14173.606    171.08089    3885.3891     5403.673    83.476805 
   26200    480.28807   -110.81517   0.43457474   -110.38059   -5197.6965    4.3785127    4.3785127    4.3785127   -5197.6965   -15276.644    -1070.655     754.2096    219.69759   -2037.1895   -3529.8042    83.942102 
   26300    245.93848   -110.60438   0.22253031   -110.38185    11310.527     4.366797     4.366797     4.366797    11310.527   -3420.3352     25835.06    11516.856   -2345.4186    1272.6894   -2229.1957    83.270084 
   26400     432.3382   -110.77509   0.39118869    -110.3839   -6296.7065    4.3784352    4.3784352    4.3784352   -6296.7065   -19769.799   -11430.871     12310.55    562.98117   -2499.3389   -3337.7946    83.937646 
   26500    401.27073   -110.74633   0.36307819   -110.38325    733.63705    4.3695784    4.3695784    4.3695784    733.63705   -12096.419     1838.491    12458.839    3899.7951    2838.8558    282.94338    83.429304 
   26600    493.47515   -110.82939   0.44650669   -110.38288   -15022.604    4.3754006    4.3754006    4.3754006   -15022.604   -8487.4315   -13494.215   -23086.166   -335.13725    4370.9483    7276.5405    83.763237 
   26700    376.88847   -110.72295    0.3410166   -110.38194     3578.506     4.373784     4.373784     4.373784     3578.506   -12618.233    4140.2742    19213.476   -1762.5253   -2832.1436   -70.763524    83.670431 
   26800    399.62577   -110.74254    0.3615898   -110.38095     3833.634    4.3702133    4.3702133    4.3702133     3833.634    -7137.541     2936.939    15701.504    -1247.065   -844.17702   -7947.4278    83.465675 
   26900    243.02305   -110.60293   0.21989236   -110.38304     5530.861    4.3765456    4.3765456    4.3765456     5530.861   -14797.781    7303.3599    24087.004   -3226.9579   -4335.5725   -673.40803    83.829015 
   27000    525.53048   -110.85497   0.47551102   -110.37946   -4521.4788    4.3714822    4.3714822    4.3714822   -4521.4788   -10206.363   -1013.3048    -2344.768   -1663.7407   -686.61122    2120.7435    83.538398 
   27100    433.65416   -110.77251    0.3923794   -110.38013   -3815.7463    4.3734884    4.3734884    4.3734884   -3815.7463   -6679.8507   -3094.0341   -1673.3542   -624.82739   -880.02677    2435.1931    83.653467 
   27200    305.81763   -110.65831   0.27671022    -110.3816    132.16699    4.3753078    4.3753078    4.3753078    132.16699   -7980.9899   -2526.4877    10903.979    3821.9671    4886.2489    4072.7696     83.75791 
   27300    419.16189    -110.7606   0.37926649   -110.38133    877.54395    4.3703649    4.3703649    4.3703649    877.54395   -14640.341    5694.1639    11578.809     3928.062   -1850.2683   -7516.6781    83.474358 
   27400    326.51364   -110.67878    0.2954364   -110.38334    524.25966    4.3769531    4.3769531    4.3769531    524.25966   -17823.078    20491.782   -1095.9244    -1520.307   -2342.1804   -2389.2759    83.852434 
   27500    530.87616   -110.86271    0.4803479   -110.38236   -7151.8425    4.3685381    4.3685381    4.3685381   -7151.8425   -12412.599    322.20137   -9365.1305   -1529.1637    585.25472    2749.6165     83.36973 
   27600    447.52432   -110.78765   0.40492941   -110.38272   -8629.3439    4.3774993    4.3774993    4.3774993   -8629.3439   -16078.926   -5895.4941   -3913.6121   -2914.3374    -1751.016    3322.6724     83.88383 
   27700     320.2903   -110.67376    0.2898054   -110.38395    7011.9966    4.3705673    4.3705673    4.3705673    7011.9966   -4064.4041    4775.8725    20324.522    1255.0468    8686.4308   -1399.5933    83.485961 
   27800    344.98385   -110.69786   0.31214864   -110.38572   -146.87214    4.3728347    4.3728347    4.3728347   -146.87214   -8441.4051    5828.3614    2172.4272    2466.7557    3499.3587   -1278.3161    83.615958 
   27900    279.21558   -110.63732   0.25264012   -110.38468    3123.2864    4.3774833    4.3774833    4.3774833    3123.2864   -9270.0515    21855.673   -3215.7627    4337.7561    707.37431   -1527.2971    83.882911 
   28000    514.97234   -110.84806    0.4659578    -110.3821    2700.0474    4.3645962    4.3645962    4.3645962    2700.0474   -3308.5224     8850.965    2557.6994   -432.67424    833.78823    3625.9987    83.144246 
   28100     454.0092   -110.79304   0.41079707   -110.38224    -13284.56    4.3815271    4.3815271    4.3815271    -13284.56   -19406.488   -15214.261   -5232.9302   -1508.6514   -3466.4959    223.92659    84.115591 
   28200    395.19265    -110.7374   0.35757861   -110.37982    6177.5877    4.3694386    4.3694386    4.3694386    6177.5877    -13157.86    22023.976    9666.6468   -4081.3609   -565.41946   -3373.7825    83.421297 
   28300    365.00975   -110.71154    0.3302685   -110.38127    1269.2969    4.3723565    4.3723565    4.3723565    1269.2969   -13069.111    16995.745   -118.74339    1631.2332    1294.4439   -1969.4242    83.588534 
   28400    287.63134   -110.64223   0.26025488   -110.38197   -1170.2814    4.3774915    4.3774915    4.3774915   -1170.2814   -14468.916    10187.871     770.2007    5668.2838    1346.5164   -907.50218    83.883383 
   28500    586.25375   -110.90922   0.53045471   -110.37877   -3775.4443    4.3700443    4.3700443    4.3700443   -3775.4443    354.39173   -5596.6323   -6084.0923    2058.5693    1823.5066     5043.601    83.455991 
   28600     352.1025   -110.69964   0.31858974   -110.38105    6903.8949    4.3732972    4.3732972    4.3732972    6903.8949   -573.32597    9207.2245    12077.786   -2367.4614    1197.0696    174.81415    83.642494 
   28700     391.5578   -110.73512   0.35428973   -110.38083   -6191.7173    4.3783182    4.3783182    4.3783182   -6191.7173   -5409.4048    3163.3226    -16329.07   -4733.3172   -1594.7301    1215.6177    83.930916 
   28800     271.8601   -110.62794   0.24598474   -110.38195    18998.776    4.3644845    4.3644845    4.3644845    18998.776    1898.2426    30374.318    24723.767   -5612.6162   -3033.9315   -10401.461    83.137864 
   28900    376.04956   -110.72547   0.34025754   -110.38522   -13682.513    4.3826268    4.3826268    4.3826268   -13682.513   -17837.215   -5200.8807   -18009.442    -845.8017    -1924.873    1729.8978    84.178944 
   29000    440.38488   -110.78091    0.3984695   -110.38244   -3212.9255    4.3658355    4.3658355    4.3658355   -3212.9255    -6674.208   -1291.5408   -1673.0276    2588.1526   -4622.6664   -7.1001463    83.215096 
   29100    549.58066   -110.87912   0.49727213   -110.38184   -3425.8334    4.3749162    4.3749162    4.3749162   -3425.8334   -15696.827     1090.136    4329.1903    2226.5965    1817.2036    3187.0606    83.735421 
   29200    425.85581   -110.76836   0.38532329   -110.38303   -12114.458     4.378307     4.378307     4.378307   -12114.458   -22233.421    -346.0532   -13763.901    1302.1285   -1745.2837    1051.0198    83.930275 
   29300    284.21321   -110.63942   0.25716209   -110.38226    11644.543    4.3621195    4.3621195    4.3621195    11644.543    2091.7658    19141.635    13700.227   -2866.1642   -5145.2872   -3943.1412    83.002789 
   29400    385.95226   -110.72972   0.34921772    -110.3805   -12126.935    4.3849634    4.3849634    4.3849634   -12126.935   -18302.953   -8655.8221   -9422.0301   -1256.2678    436.39272   -222.72861    84.313656 
   29500    332.18051   -110.68035   0.30056391   -110.37978      3605.32    4.3610545    4.3610545    4.3610545      3605.32    13814.405    1153.6693    -4152.114   -1940.9652   -6016.4107    981.04904    82.942009 
   29600     445.5375   -110.78563   0.40313169    -110.3825   -9336.5588    4.3810853    4.3810853    4.3810853   -9336.5588   -15521.752   -9338.7163   -3149.2085    4711.0609    1690.9093    2165.4385    84.090151 
   29700    492.93864   -110.82645   0.44602124   -110.38043    5951.5436    4.3688547    4.3688547    4.3688547    5951.5436   -5521.7179    7647.8388     15728.51    1776.5232   -563.91637   -1927.6244    83.387858 
   29800    301.73774   -110.65483   0.27301865   -110.38181    2244.8847    4.3717559    4.3717559    4.3717559    2244.8847   -11719.702    15819.601    2634.7549    689.72665    128.37212   -247.16057    83.554089 
   29900    376.71662   -110.72128   0.34086111   -110.38042   -2217.1252    4.3751585    4.3751585    4.3751585   -2217.1252   -17824.218   -488.72488    11661.567   -2460.4269   -3500.4074    -4308.454    83.749337 
   30000    450.17135   -110.78806    0.4073245   -110.38074    22.462469    4.3679438    4.3679438    4.3679438    22.462469   -370.19358    6352.5829   -5915.0019   -2718.1546    106.02044    3471.6816    83.335708 
   30100    374.89598    -110.7224   0.33921376   -110.38319    -8602.744      4.37978      4.37978      4.37978    -8602.744   -18038.989   -15883.742    8114.4989    501.70638    264.96025    3612.6809    84.015011 
   30200    478.26114   -110.81407   0.43274073   -110.38133    8587.3543    4.3654337    4.3654337    4.3654337    8587.3543   -101.30527    14373.654    11489.714    2855.1665    584.19714   -3288.5961    83.192121 
   30300    319.58309   -110.67132    0.2891655   -110.38215    6449.8491    4.3779085    4.3779085    4.3779085    6449.8491   -13799.283    10593.968    22554.863    5397.9005     6247.051   -2334.3446     83.90736 
   30400    362.01635   -110.70972      0.32756   -110.38216   -2826.3338    4.3699542    4.3699542    4.3699542   -2826.3338    -1666.546     5800.139   -12612.594    2370.3771   -3699.1634    3310.5214    83.450831 
   30500    328.02882   -110.67955   0.29680737   -110.38275   -445.41124    4.3712463    4.3712463    4.3712463   -445.41124   -6887.6208    6912.6614   -1361.2744    1014.4574   -1032.2553    1689.9899    83.524874 
   30600    513.33593   -110.84526   0.46447714   -110.38079    -15036.69    4.3789521    4.3789521    4.3789521    -15036.69   -13545.891    -17970.99   -13593.189   -3615.7445    147.74801    2088.9918    83.967376 
   30700    329.48797   -110.68016   0.29812764   -110.38203    4209.0959    4.3652251    4.3652251    4.3652251    4209.0959   -10929.072    18217.424    5338.9353   -2492.7072   -7663.6659   -951.22983    83.180195 
   30800    506.78814    -110.8393   0.45855256   -110.38075   -6836.1733    4.3791721    4.3791721    4.3791721   -6836.1733   -17342.032     3840.384   -7006.8723    53.102232    4140.7871   -6598.7976    83.980032 
   30900    337.90109   -110.68615   0.30574001   -110.38041    2926.7959    4.3705256    4.3705256    4.3705256    2926.7959   -7138.0779    14967.208    951.25794    2882.7016   -609.79473    1098.0835    83.483571 
   31000    378.24275   -110.72379   0.34224199   -110.38155   -6422.6768    4.3686655    4.3686655    4.3686655   -6422.6768    250.68908   -2325.2158   -17193.504    2267.5186   -2887.0684    2808.1195    83.377025 
   31100    388.73461   -110.73355   0.35173524   -110.38181   -8772.3352    4.3815027    4.3815027    4.3815027   -8772.3352   -8791.4443   -7724.5572   -9801.0042    -2361.859    527.29746    1180.2988    84.114189 
   31200    337.41157   -110.68662   0.30529708   -110.38132    13888.359    4.3615084    4.3615084    4.3615084    13888.359    223.18893    29905.895    11535.994   -3767.5271   -3653.0477   -1034.2796    82.967907 
   31300    446.79225   -110.78787   0.40426702    -110.3836   -7409.1834    4.3790593    4.3790593    4.3790593   -7409.1834   -18161.419    3554.3054   -7620.4369   -1653.1607   -1406.9951    2080.1574    83.973543 
   31400    410.54047    -110.7517   0.37146564   -110.38023    6617.4615    4.3722118    4.3722118    4.3722118    6617.4615   -8866.0178     11049.11    17669.293    24.636797    189.65397   -3832.9994    83.580231 
   31500    545.35402   -110.87487   0.49344778   -110.38142   -3968.1582    4.3653493    4.3653493    4.3653493   -3968.1582    -7929.755    3770.0224   -7744.7419    2639.1175   -677.80235    4000.3465    83.187294 
   31600    260.62799   -110.62146   0.23582168   -110.38564   -7763.7268    4.3831397    4.3831397    4.3831397   -7763.7268   -14575.033   -6014.5904   -2701.5571   -328.62864   -978.75644   -673.68734    84.208499 
   31700    403.37511   -110.74691   0.36498227   -110.38193    16423.038    4.3607844    4.3607844    4.3607844    16423.038   -2592.1115    44138.792    7722.4337   -2603.7304   -1834.4689   -4076.9266    82.926595 
   31800    358.57818   -110.70887   0.32444907   -110.38442    867.64281    4.3785284    4.3785284    4.3785284    867.64281   -5944.7171   -648.21931    9195.8648   -4607.6039   -4203.4131    323.43557    83.943007 
   31900    404.69776    -110.7471   0.36617904   -110.38093    1221.9374    4.3737037    4.3737037    4.3737037    1221.9374    2948.7851   -1516.2099    2233.2369   -1538.4178    58.963096    1103.2334    83.665823 
   32000    531.20463   -110.85886   0.48064512   -110.37821    2470.2372    4.3660692    4.3660692    4.3660692    2470.2372    4321.4496   -180.87548    3270.1374     950.6675    2369.2238    2001.5207    83.228458 
   32100    260.04561   -110.61545   0.23529474   -110.38015   -5021.8012    4.3809945    4.3809945    4.3809945   -5021.8012   -3689.6981    4280.4656   -15656.171    6281.4338   -1444.5055   -293.37167    84.084923 
   32200    390.40181   -110.73143   0.35324376   -110.37819   -112.61776    4.3679583    4.3679583    4.3679583   -112.61776    -9509.073    19846.567   -10675.348    775.26064    6817.5093   -499.64399    83.336537 
   32300    426.55132   -110.76521    0.3859526   -110.37926    6181.7082    4.3720961    4.3720961    4.3720961    6181.7082   -9307.4151    14818.629    13033.911   -2120.6658    -448.5881   -8970.1186      83.5736 
   32400     459.0487   -110.79582   0.41535691   -110.38047   -7168.5132    4.3778119    4.3778119    4.3778119   -7168.5132   -9524.6015   -11594.247   -386.69152   -1263.9677    -4522.592    2568.7772    83.901803 
   32500    445.13035   -110.78246    0.4027633    -110.3797    2233.9547    4.3665021    4.3665021    4.3665021    2233.9547    179.64874    -1245.383    7767.5984   -1519.3061    472.78164    1804.2307    83.253219 
   32600    340.66239   -110.68963   0.30823849   -110.38139    584.74929       4.3746       4.3746       4.3746    584.74929    51.061315    19483.539   -17780.353    5280.7759   -2149.5601    896.72113     83.71727 
   32700    295.75472    -110.6518   0.26760508   -110.38419   -5802.6913    4.3726377    4.3726377    4.3726377   -5802.6913   -9224.1731    8041.7687    -16225.67    84.370554    1755.9283   -99.140303    83.604658 
   32800    389.67272   -110.73704   0.35258406   -110.38446     6135.653    4.3676758    4.3676758    4.3676758     6135.653   -4314.0926    9105.2597    13615.792    1531.1742    2411.5705   -4542.8865    83.320369 
   32900    512.75504   -110.84714   0.46395153   -110.38319   -6660.1714    4.3790592    4.3790592    4.3790592   -6660.1714   -17424.538   -12096.275    9540.2994   -2825.0918    817.79169    1405.8218    83.973536 
   33000    495.09733   -110.83014   0.44797447   -110.38217   -2359.9758    4.3672496    4.3672496    4.3672496   -2359.9758   -7931.8702   -4363.2645    5215.2073    451.82216    -743.6625    5678.5491    83.295983 
   33100    366.08047   -110.71386    0.3312373   -110.38262   -1360.1518    4.3749525    4.3749525    4.3749525   -1360.1518   -9205.9041    10885.985   -5760.5365     700.2757    334.78501    2068.1173    83.737506 
   33200    390.62172   -110.73554   0.35344275    -110.3821   -642.07266    4.3716372    4.3716372    4.3716372   -642.07266   -9495.6463    9218.9594   -1649.5311    2762.7276    72.732159   -7479.7018    83.547284 
   33300    200.86571   -110.56644   0.18174752   -110.38469    10639.658    4.3709276    4.3709276    4.3709276    10639.658   -1297.4094    1723.8848    31492.498    2382.7423     4844.719    -27.37417    83.506606 
   33400     481.9137    -110.8182   0.43604564   -110.38216   -2189.2452    4.3752439    4.3752439    4.3752439   -2189.2452   -1018.2178   -12120.431    6570.9136   -552.23279    2890.5596   -1873.0801    83.754242 
   33500    550.48197   -110.87889   0.49808765    -110.3808     972.7785    4.3699507    4.3699507    4.3699507     972.7785   -2339.1151   -5494.7223    10752.173    71.909873   -6758.8839    1988.4174    83.450627 
[...]
   91300    464.87629   -110.80318   0.42062984   -110.38255   -4116.3812    4.3730032    4.3730032    4.3730032   -4116.3812    9476.2451   -12616.581   -9208.8072     1224.888    1398.1169    5809.6039    83.625628 
   91400    397.58858   -110.74136    0.3597465   -110.38161    5226.2077    4.3670031    4.3670031    4.3670031    5226.2077    12774.732   -7482.1546    10386.046    3167.1825   -853.22591   -8345.7685    83.281874 
   91500    351.51619   -110.70068   0.31805923   -110.38262   -6549.9677     4.370143     4.370143     4.370143   -6549.9677    1101.6832   -5128.1662    -15623.42    -3033.947    -2031.133    1899.8835    83.461648 
   91600    333.96506   -110.68427    0.3021786   -110.38209   -1523.7007    4.3708219    4.3708219    4.3708219   -1523.7007    20910.157   -7492.4191    -17988.84   -3660.0006   -1532.5866    1958.8307    83.500551 
   91700    421.72307   -110.76334    0.3815839   -110.38176    1201.8389    4.3682734    4.3682734    4.3682734    1201.8389    25224.779   -15018.123   -6601.1389   -1325.0429     4967.075   -2453.7802    83.354572 
   91800     454.4894   -110.79309   0.41123156   -110.38186   -5230.5168    4.3706342    4.3706342    4.3706342   -5230.5168    2568.5072   -14510.483   -3749.5749    3821.3502    5833.0812    5505.3472    83.489789 
   91900    471.85585   -110.80801   0.42694509   -110.38107   -641.93747    4.3695831    4.3695831    4.3695831   -641.93747    2269.2668    -13519.57     9324.491    985.23651    1543.0277   -4208.0762    83.429573 
   92000    409.80147   -110.75215   0.37079698   -110.38135   -4642.6723    4.3701442    4.3701442    4.3701442   -4642.6723    8200.8208   -19183.961   -2944.8762   -1134.3436   -6664.8911   -4855.4393    83.461716 
   92100    187.39319   -110.55275   0.16955729   -110.38319    4577.4635    4.3685705    4.3685705    4.3685705    4577.4635    26795.669   -1727.5002   -11335.778   -3316.0261   -1058.8821    2786.7429    83.371581 
   92200    449.14404   -110.78858   0.40639496   -110.38218   -3622.0549      4.37045      4.37045      4.37045   -3622.0549    14442.615   -6658.5298    -18650.25   -4679.5068   -1542.7164   -2674.4205    83.479239 
   92300    415.01966   -110.75809   0.37551851   -110.38257    2514.2435    4.3672941    4.3672941    4.3672941    2514.2435     8483.188   -1348.0654    407.60799   -1033.0176    4073.8735    800.33596    83.298528 
   92400    504.57804   -110.83897   0.45655282   -110.38242   -3947.5585    4.3706514    4.3706514    4.3706514   -3947.5585    5884.8049   -11749.901   -5977.5797    5390.9043    -600.1757     8294.312    83.490776 
   92500    360.89135   -110.70931   0.32654208   -110.38276    5180.3522    4.3680578    4.3680578    4.3680578    5180.3522    23342.163   -12191.084     4389.977   -3340.3159   -1355.2818   -5924.2921    83.342234 
   92600    338.67215    -110.6889   0.30643768   -110.38247   -1377.4703    4.3687248    4.3687248    4.3687248   -1377.4703    19069.663     -15914.8   -7287.2737   -1432.5558   -2797.2151   -1111.4429    83.380417 
   92700    390.80933   -110.73587    0.3536125   -110.38226   -2245.2442    4.3703418    4.3703418    4.3703418   -2245.2442    1097.5989    7175.3107   -15008.642   -2442.0614    5048.3284    853.46531    83.473034 
   92800    450.55733   -110.78971   0.40767374   -110.38203   -1927.3262    4.3690115    4.3690115    4.3690115   -1927.3262    6689.0363   -1167.6551    -11303.36    2028.6904    1273.7146     -6927.23    83.396834 
   92900    405.55084   -110.74907   0.36695093   -110.38212    4493.5596    4.3698901    4.3698901    4.3698901    4493.5596    18542.062   -1736.9625   -3324.4205    5517.4311     1610.574    3938.2355    83.447154 
   93000    450.82958   -110.78888   0.40792008   -110.38096    405.55176    4.3711745    4.3711745    4.3711745    405.55176    19571.102    -10177.14    -8177.307    2388.4787   -4795.6591    335.45676     83.52076 
   93100    311.59715   -110.66354   0.28193965    -110.3816    4989.6072    4.3668463    4.3668463    4.3668463    4989.6072    20895.498   -16234.035    10307.358   -2295.7899   -4701.2393   -3346.6894    83.272904 
   93200    482.58291   -110.81706   0.43665116   -110.38041   -10554.921    4.3733128    4.3733128    4.3733128   -10554.921   -9029.4929   -13346.038   -9289.2331   -4364.1889   -1392.1985    2393.6204    83.643387 
   93300    335.63454   -110.68484   0.30368918   -110.38115    5105.4518    4.3659384    4.3659384    4.3659384    5105.4518    15943.557    7338.2182   -7965.4198    1094.7243    6633.3869   -5489.5899    83.220975 
   93400    388.57171   -110.73394   0.35158785   -110.38235   -2838.1978    4.3722658    4.3722658    4.3722658   -2838.1978    10575.339   -9863.2001   -9226.7326   -2290.3562   -289.83445   -2331.4566    83.583331 
   93500    455.17632    -110.7927    0.4118531   -110.38085     4564.356    4.3670739    4.3670739    4.3670739     4564.356    16698.252    5009.1203   -8014.3043    6826.2692    2264.9559    6768.9014    83.285928 
   93600    369.74157   -110.71755   0.33454994     -110.383    300.97196     4.368778     4.368778     4.368778    300.97196    8940.9272   -8536.1307    498.11934   -1922.8187   -154.81393   -4669.1708    83.383462 
   93700    439.22711   -110.77995   0.39742192   -110.38253   -7190.0068    4.3703678    4.3703678    4.3703678   -7190.0068    4497.6326   -19505.372   -6562.2814   -374.58056    379.60676   -1167.3351    83.474526 
   93800    351.78149   -110.70126   0.31829928   -110.38296    6368.7781    4.3662798    4.3662798    4.3662798    6368.7781    21779.036    4023.9068   -6696.6087      -316.94    4060.2575    2435.3366    83.240501 
   93900    337.62882   -110.68915   0.30549365   -110.38366   -3776.3258    4.3712139    4.3712139    4.3712139   -3776.3258    19247.067   -11059.363   -19516.682    4619.9605    1593.7141   -11326.039    83.523017 
   94000    423.56964   -110.76518   0.38325471   -110.38193    3373.3658    4.3679197    4.3679197    4.3679197    3373.3658      4841.37    9079.4299   -3800.7024    1097.1075    -3915.167    827.58491    83.334328 
   94100    548.67785   -110.87709   0.49645524   -110.38064   -4647.4679    4.3706493    4.3706493    4.3706493   -4647.4679     2891.038   -2542.7127   -14290.729   -1920.0143   -2958.8841    2013.2204    83.490659 
   94200     344.6865   -110.69365   0.31187959   -110.38177    559.57678    4.3681383    4.3681383    4.3681383    559.57678    9206.9978   -4507.9468   -3020.3206   -4052.9016    2878.6588   -4871.5389    83.346842 
   94300    376.04468    -110.7206   0.34025313   -110.38034    118.07955    4.3727761    4.3727761    4.3727761    118.07955     27432.82   -13959.529   -13119.052   -5322.1945     2467.966    3574.8338    83.612596 
   94400    352.99047   -110.69988   0.31939319   -110.38049    3638.6653    4.3651779    4.3651779    4.3651779    3638.6653     20462.15    -1445.847   -8100.3074    4273.0002    8492.2374   -3901.5059    83.177497 
   94500    360.52646   -110.70876   0.32621192   -110.38255    -6281.753    4.3723401    4.3723401    4.3723401    -6281.753   -1169.9345   -3901.6844    -13773.64    2109.9259    485.68897   -6275.4001    83.587594 
   94600    526.99543   -110.85716   0.47683654   -110.38032    1865.5689     4.367488     4.367488     4.367488    1865.5689    3378.7134    3502.3233   -1284.3301    31.713032   -2067.8592    752.51509    83.309621 
   94700    390.57576   -110.73619   0.35340116   -110.38278    -2717.358    4.3687253    4.3687253    4.3687253    -2717.358    15521.991   -6373.7087   -17300.357   -4274.3154   -1276.0643   -6040.3108    83.380448 
   94800    267.04137   -110.62541   0.24162464   -110.38378    592.33826    4.3703732    4.3703732    4.3703732    592.33826    23777.991   -12911.263   -9089.7134   -1076.5152    1581.6553    -1092.193    83.474835 
   94900    502.46763   -110.83597   0.45464327   -110.38132   -2262.7786    4.3662363    4.3662363    4.3662363   -2262.7786    14486.069    -11015.22   -10259.185   -430.73897    368.12308    3695.1314    83.238014 
   95000    363.33517   -110.71221    0.3287533   -110.38346   -8774.0056    4.3706489    4.3706489    4.3706489   -8774.0056   -3484.8079   -8708.0815   -14129.128    1611.2145    3784.0426   -10360.733    83.490635 
   95100    448.71676   -110.78932   0.40600836   -110.38331    1290.2667    4.3683964    4.3683964    4.3683964    1290.2667    15908.043   -5929.7954   -6107.4477   -2162.5359   -3788.9155     593.8007    83.361613 
   95200    372.45789    -110.7193   0.33700772   -110.38229    6144.4535    4.3685431    4.3685431    4.3685431    6144.4535    26750.241    22.460767   -8339.3416   -6033.5172   -1265.6352   -1619.4048    83.370011 
   95300    274.53092   -110.63143   0.24840135   -110.38303   -1114.6061    4.3692466    4.3692466    4.3692466   -1114.6061    14852.763   -1778.0665   -16418.514   -4024.2987     1014.052   -9466.1013    83.410295 
   95400    492.35499   -110.82542   0.44549314   -110.37993   -5973.9072    4.3704984    4.3704984    4.3704984   -5973.9072   -3688.7694    -7737.213   -6495.7393   -672.30174    3417.1695    4949.3397     83.48201 
   95500    443.06986   -110.78129   0.40089892   -110.38039    354.06064    4.3656636    4.3656636    4.3656636    354.06064    8347.5233    2885.6102   -10170.952    4099.7728   -773.93274   -4220.4111    83.205265 
   95600    414.77247   -110.75772   0.37529484   -110.38242   -9573.7899    4.3756358    4.3756358    4.3756358   -9573.7899    5597.0303   -14836.904   -19481.496    1059.4749     1196.863    -5586.771    83.776747 
   95700    396.84274   -110.73977   0.35907165    -110.3807    15559.879    4.3602116    4.3602116    4.3602116    15559.879    30538.901    11439.149    4701.5854   -5866.2408   -4985.6017    746.73506    82.893923 
   95800    340.04577   -110.69029   0.30768056   -110.38261   -6398.8224    4.3748969    4.3748969    4.3748969   -6398.8224    2751.9489   -2413.2014   -19535.215   -2277.3279   -578.11745   -5528.5532    83.734314 
   95900    373.83176   -110.71885   0.33825083    -110.3806   -3496.7422    4.3679513    4.3679513    4.3679513   -3496.7422   -6163.7914    5109.6388   -9436.0741   -736.61811    1201.2109   -2670.6015    83.336135 
   96000    462.69331    -110.7984   0.41865463   -110.37975    4623.3223    4.3641503    4.3641503    4.3641503    4623.3223    13786.965    538.88041   -455.87889    2090.1885    732.64732     2086.557    83.118768 
   96100    406.60749   -110.74999     0.367907   -110.38208   -9734.3729    4.3765858    4.3765858    4.3765858   -9734.3729    6328.9477   -9049.9224   -26482.144    745.83623    1168.3144   -5208.8541    83.831326 
   96200    402.32897   -110.74479   0.36403571   -110.38075    10094.295    4.3618171    4.3618171    4.3618171    10094.295    25623.484    5911.9149   -1252.5133   -2216.9041   -27.271134   -1456.9206    82.985526 
   96300    430.36105   -110.77058   0.38939972   -110.38118   -2026.8105    4.3713729    4.3713729    4.3713729   -2026.8105    -3176.528    7522.9335   -10426.837   -3945.5296    795.85582   -3420.1322    83.532134 
   96400    341.77685   -110.69152   0.30924687   -110.38228   -8597.9491    4.3701957    4.3701957    4.3701957   -8597.9491   -5712.3747   -2685.0073   -17396.465    2890.1818   -259.27301   -11223.586    83.464667 
   96500    381.31636    -110.7266   0.34502306   -110.38158    4670.7908    4.3652727    4.3652727    4.3652727    4670.7908    13542.124    7.5965293    462.65167    3397.8618    3484.8297    2593.8118    83.182915 
   96600    386.25877   -110.73191   0.34949505   -110.38241    1003.5166    4.3712758    4.3712758    4.3712758    1003.5166    21144.493   -5361.5838   -12772.359   -1165.1381   -634.83263   -4199.1311    83.526564 
   96700     408.1124   -110.75134   0.36926868   -110.38207   -94.313421    4.3692068    4.3692068    4.3692068   -94.313421    20088.509   -9863.5056   -10507.944   -2755.1519   -1340.4556    -3444.552    83.408018 
   96800    557.02049   -110.88449   0.50400384   -110.38049   -2384.3368    4.3683965    4.3683965    4.3683965   -2384.3368   -6556.1568    8363.4438   -8960.2973   -5668.9439   -4355.1093    2792.9498    83.361622 
   96900    353.77447    -110.7028   0.32010257    -110.3827   -5158.4473     4.370389     4.370389     4.370389   -5158.4473   -107.47854   -5270.5748   -10097.289    2962.4754    1251.0309   -9595.2869    83.475743 
   97000    307.70427   -110.66081   0.27841729   -110.38239    4628.4915    4.3671209    4.3671209    4.3671209    4628.4915    29246.417   -2846.1778   -12514.765    4120.6286     3021.478   -2703.4835    83.288618 
   97100    340.18385   -110.68988    0.3078055   -110.38208    4839.3955    4.3695454    4.3695454    4.3695454    4839.3955     20546.34    -3228.944   -2799.2093    3237.6833    3422.2036    84.724619     83.42741 
   97200     392.5976   -110.73783   0.35523056    -110.3826   -1203.5667    4.3680244    4.3680244    4.3680244   -1203.5667    18592.423   -13409.583   -8793.5403   -3153.2507   -425.83656   -7991.9104    83.340323 
   97300    606.36603   -110.92941   0.54865273   -110.38076   -5394.6428    4.3698492    4.3698492    4.3698492   -5394.6428   -4935.5998   -3935.5293   -7312.7993   -1133.5109    1006.8928    7.5738535    83.444811 
   97400    416.29563   -110.75928   0.37667303    -110.3826   -825.98953    4.3688359    4.3688359    4.3688359   -825.98953    9062.1184    317.93311    -11858.02   -1457.6285   -3356.5941   -1273.3319    83.386778 
   97500    215.77875    -110.5791   0.19524115   -110.38386    4058.3895    4.3667592    4.3667592    4.3667592    4058.3895    35398.622   -10529.008   -12694.445     2891.276    2336.1926   -9178.8931    83.267924 
   97600    416.80835   -110.75893   0.37713695   -110.38179   -4949.5463     4.371364     4.371364     4.371364   -4949.5463    5451.6581   -2784.8169    -17515.48   -691.07201    260.86588    246.79635    83.531623 
   97700    347.47134   -110.69673   0.31439937   -110.38233   -1996.4197    4.3676898    4.3676898    4.3676898   -1996.4197    11.812913   -8527.1655    2526.0934   -2806.1548   -708.40702   -5566.7033    83.321171 
   97800    552.30165   -110.88155   0.49973414   -110.38182   -6758.5928    4.3684617    4.3684617    4.3684617   -6758.5928    4297.2325   -10337.679   -14235.332   -4534.5254   -3667.9354   -5810.8848    83.365355 
   97900    434.89932   -110.77577   0.39350604   -110.38227    3837.9972    4.3711174    4.3711174    4.3711174    3837.9972    20557.128    -5024.934   -4018.2021    3016.0184   -732.29258    3336.4697    83.517486 
   98000    309.77454   -110.66397   0.28029052   -110.38368    3245.8721     4.366879     4.366879     4.366879    3245.8721    33844.907   -5225.3394   -18881.952    3555.4671    2669.1796   -8848.9309    83.274776 
   98100    358.44695   -110.70599   0.32433033   -110.38166   -3135.5294    4.3716438    4.3716438    4.3716438   -3135.5294    4188.3206   -16.028911    -13578.88    6007.9037     4335.685   -3284.6669    83.547663 
   98200    425.55103   -110.76539   0.38504751   -110.38034     -5241.53    4.3693425    4.3693425    4.3693425     -5241.53   -5091.8138   -1095.5507   -9537.2255   -2517.6592    911.07026   -2806.4224    83.415788 
   98300     288.6958   -110.64348   0.26121802   -110.38226    2789.2677    4.3680916    4.3680916    4.3680916    2789.2677    10164.769    85.707597   -1882.6729    -3319.989    -2498.205   -11399.516    83.344167 
   98400    566.03576    -110.8922   0.51216105   -110.38004    2397.4811     4.368842     4.368842     4.368842    2397.4811    24325.717   -8993.9659   -8139.3081   -2827.4858   -3367.4612    3262.8975    83.387127 
   98500    401.03947   -110.74571   0.36286894   -110.38284    3995.9415    4.3696468    4.3696468    4.3696468    3995.9415     18968.82   -1492.4028   -5488.5927    2208.5906   -2339.9099    -3354.738    83.433217 
   98600    401.45979   -110.74578   0.36324926   -110.38253   -3769.3393    4.3658439    4.3658439    4.3658439   -3769.3393    10139.547   -2910.1376   -18537.428    204.57985   -131.81672   -8509.0625    83.215572 
   98700    412.88229    -110.7545   0.37358457   -110.38092   -4326.6478    4.3719231    4.3719231    4.3719231   -4326.6478   -4433.1868    1356.7832   -9903.5399   -2828.6879    600.09311    975.20755    83.563676 
   98800    291.40459   -110.64648     0.263669   -110.38281     765.8935    4.3675898    4.3675898    4.3675898     765.8935    13789.249   -3878.7763    -7612.792   -224.85552   -4054.6536   -9737.0206    83.315447 
   98900    287.97301   -110.64402   0.26056403   -110.38345    7809.6129    4.3672529    4.3672529    4.3672529    7809.6129    27864.219   -3157.9768    -1277.403   -4170.5694   -2098.0915   -6405.3228    83.296168 
   99000    588.49976   -110.91296   0.53248695   -110.38048   -4574.2191     4.373376     4.373376     4.373376   -4574.2191     4782.921   -10415.864   -8089.7145    7309.3796    954.31734    2935.2836    83.647014 
   99100    452.63595   -110.79204   0.40955452   -110.38248     -2744.83    4.3649445    4.3649445    4.3649445     -2744.83    3455.8265   -3509.8363     -8180.48    1283.5282    835.67699   -7203.0272    83.164155 
   99200    409.80979   -110.75346   0.37080451   -110.38265   -7644.4091    4.3720701    4.3720701    4.3720701   -7644.4091   -3636.2423   -2346.5218   -16950.463    496.84126    2064.5346   -878.89367    83.572106 
   99300    395.39072   -110.73858   0.35775784   -110.38082   -1896.0267    4.3701934    4.3701934    4.3701934   -1896.0267    13929.828   -5189.2308   -14428.678    -7309.284   -2303.9294   -1213.1981    83.464533 
   99400    134.62233    -110.5059   0.12180912   -110.38409    14672.106    4.3655119    4.3655119    4.3655119    14672.106    36562.854    1617.3324    5836.1328   -3861.2855   -5489.7605   -11155.939     83.19659 
   99500    471.18121    -110.8072   0.42633466   -110.38087     -3052.58    4.3739768    4.3739768    4.3739768     -3052.58    6785.5439   -8792.0284   -7151.2555   -5174.2765   -3325.6447    1078.1332    83.681496 
   99600    485.60671   -110.81984   0.43938716   -110.38046    1634.8913    4.3666729    4.3666729    4.3666729    1634.8913    5552.2006   -6629.6466    5982.1197    4400.2638    2092.4727   -4584.1882    83.262988 
   99700    491.41488   -110.82525   0.44464251   -110.38061   -6745.9358     4.369618     4.369618     4.369618   -6745.9358    8742.1388    -12181.74   -16798.206     2188.037   -1216.7769   -7182.1127    83.431572 
   99800    383.71381   -110.72782   0.34719232   -110.38063    1447.3609     4.370198     4.370198     4.370198    1447.3609    23879.144   -9415.8543   -10121.207   -1608.8984    1693.5087    5356.7556    83.464796 
   99900    362.37586   -110.70926   0.32788529   -110.38137    -329.4971    4.3680876    4.3680876    4.3680876    -329.4971    24169.311   -14001.834   -11155.969   -221.10904   -4529.4161   -10142.087    83.343939 
  100000    286.55223   -110.64164   0.25927848   -110.38236    7220.2322    4.3676621    4.3676621    4.3676621    7220.2322    9135.3529    611.20014    11914.144    -2236.986    -2620.712    -6199.733    83.319587 
Loop time of 21.6612 on 1 procs for 100000 steps with 8 atoms

Pair  time (%) = 6.64994 (30.6998)
Kspce time (%) = 5.29389 (24.4395)
Neigh time (%) = 0 (0)
Comm  time (%) = 1.05519 (4.87132)
Outpt time (%) = 0.0259733 (0.119907)
Other time (%) = 8.63621 (39.8695)

Nlocal:    8 ave 8 max 8 min
Histogram: 1 0 0 0 0 0 0 0 0 0
Nghost:    2189 ave 2189 max 2189 min
Histogram: 1 0 0 0 0 0 0 0 0 0
Neighs:    2056 ave 2056 max 2056 min
Histogram: 1 0 0 0 0 0 0 0 0 0

Total # of neighbors = 2056
Ave neighs/atom = 257
Neighbor list builds = 0
Dangerous builds = 0
unfix 20
unfix 21
print "seeds:5279480"
seeds:5279480
