LAMMPS (10 Feb 2015)
Reading data file ...
  triclinic box = (0 0 0) to (4.2565 4.2565 4.2565) with tilt (0 0 0)
  1 by 1 by 1 MPI processor grid
  reading atoms ...
  8 atoms
4 atoms in group Mg
4 atoms in group O
Setting atom values ...
  4 settings made for charge
Setting atom values ...
  4 settings made for charge
PPPM initialization ...
  G vector (1/distance) = 0.353047
  grid = 8 8 8
  stencil order = 5
  estimated absolute RMS force accuracy = 4.05219e-05
  estimated relative force accuracy = 2.81409e-06
  using double precision FFTs
  3d grid and FFT values/proc = 3375 512
Neighbor list info ...
  1 neighbor list requests
  update every 1 steps, delay 0 steps, check yes
  master list distance cutoff = 11
Setting up minimization ...
Memory usage per processor = 4.06549 Mbytes
Step PotEng Lx Ly Lz Xy Xz Yz Press Pxx Pyy Pzz Pxy Pxz Pyz eatoms 
       0   -115.66496       4.2565       4.2565       4.2565            0            0            0    45758.215    45758.215    45758.215    45758.215 1.7170796e-11 2.2312869e-10 1.3064853e-10   -115.66496 
      10   -115.69248    4.2933032    4.2933032    4.2933032            0            0            0   -6.7922673   -6.7922673   -6.7922673   -6.7922673 -6.3857142e-11 -7.0573166e-11 -5.8083176e-11   -115.69248 
      13    -115.6925     4.293297     4.293297     4.293297            0            0            0   0.20218487   0.20218487   0.20218487   0.20218487 1.6450748e-10 -9.163684e-11 -3.6202501e-11    -115.6925 
Loop time of 0.00654483 on 1 procs for 13 steps with 8 atoms

Minimization stats:
  Stopping criterion = linesearch alpha is zero
  Energy initial, next-to-last, final = 
        -115.664963059     -115.692495365     -115.692495365
  Force two-norm initial, final = 6.60751 4.45929e-05
  Force max component initial, final = 6.60751 2.97026e-05
  Final line search alpha, max atom move = 0.5 1.48513e-05
  Iterations, force evaluations = 13 19

Pair  time (%) = 0.00185966 (28.4143)
Kspce time (%) = 0.00105929 (16.1852)
Neigh time (%) = 0 (0)
Comm  time (%) = 0.000199556 (3.04907)
Outpt time (%) = 1.19209e-05 (0.182143)
Other time (%) = 0.00341439 (52.1693)

Nlocal:    8 ave 8 max 8 min
Histogram: 1 0 0 0 0 0 0 0 0 0
Nghost:    2189 ave 2189 max 2189 min
Histogram: 1 0 0 0 0 0 0 0 0 0
Neighs:    2344 ave 2344 max 2344 min
Histogram: 1 0 0 0 0 0 0 0 0 0

Total # of neighbors = 2344
Ave neighs/atom = 293
Neighbor list builds = 0
Dangerous builds = 0
pypospack:output_section:begin
tot_energy = -115.692495364628
num_atoms = 8
xx = 4.29329700926666
yy = 4.29329700926666
zz = 4.29329700926666
xy = 0
xz = 0
yz = 0
tot_press = 0.202184869803092
pxx = 0.202184869911938
pyy = 0.202184869729888
pzz = 0.20218486976745
pxy = 1.64507477572858e-10
pxz = -9.16368397176372e-11
pyz = -3.62025011042311e-11
pypospack:output_section:done
pypospack:lammps_sim:done
PPPM initialization ...
  G vector (1/distance) = 0.352672
  grid = 8 8 8
  stencil order = 5
  estimated absolute RMS force accuracy = 4.1232e-05
  estimated relative force accuracy = 2.8634e-06
  using double precision FFTs
  3d grid and FFT values/proc = 3375 512
Setting up run ...
Memory usage per processor = 3.06549 Mbytes
Step Temp PotEng KinEng TotEng Press Lx Ly Lz Press Pxx Pyy Pzz Pxy Pxz Pyz Volume 
       0         1400    -115.6925    1.2667494   -114.42575    17096.648     4.293297     4.293297     4.293297    17096.648    17715.409    9774.3725    23800.163    2222.3887     8093.973   -5844.4432    79.135764 
     100    578.97091   -114.79012   0.52386505   -114.26626    2138.9408    4.3212421    4.3212421    4.3212421    2138.9408    34942.215   -18297.919   -10227.473   -1537.5597   -4373.2547    11961.465    80.691128 
     200    805.15536   -114.63878   0.72852149   -113.91026   -37767.062    4.3500412    4.3500412    4.3500412   -37767.062    121.39144   -68350.525   -45072.052    4465.2007    16944.074    20148.424    82.315212 
     300    1645.3721   -115.09016    1.4887673   -113.60139    1307.6649     4.343485     4.343485     4.343485    1307.6649   -2452.7467    3057.9344     3317.807    8171.9941   -5366.3927   -1249.6187    81.943588 
     400    1253.9899   -114.50903    1.1346364   -113.37439    6390.8094    4.3363156    4.3363156    4.3363156    6390.8094    41739.101   -21454.964   -1111.7087   -7208.7487   -14354.487    20186.249    81.538486 
     500    1200.4511   -114.30798    1.0861934   -113.22178   -18328.599    4.3410042    4.3410042    4.3410042   -18328.599    23095.719   -46213.131   -31868.385    4337.8287    12834.298    32809.297    81.803261 
     600    1594.0875   -114.57764    1.4423639   -113.13527    9583.9343    4.3498851    4.3498851    4.3498851    9583.9343    -16668.81    16593.989    28826.625   -1421.4528    -6764.297    -16037.91    82.306355 
     700    1303.2998   -114.28143    1.1792531   -113.10218     9793.647    4.3514644    4.3514644    4.3514644     9793.647   -2825.5232    16113.876    16092.588   -15265.244     373.8823    16475.655    82.396035 
     800      1287.14   -114.26522    1.1646313   -113.10059    3711.9533     4.355482     4.355482     4.355482    3711.9533    68113.016   -44844.701   -12132.455    3000.9487   -8157.4853    15444.501    82.624466 
     900    1613.3571   -114.56215    1.4597994   -113.10235   -12195.695     4.360661     4.360661     4.360661   -12195.695   -6385.5899   -34809.872    4608.3782   -16115.514    6390.3953   -21549.823    82.919558 
    1000    1099.9226   -114.09724   0.99523309   -113.10201    10347.992    4.3445165    4.3445165    4.3445165    10347.992    35549.006   -5096.3884    591.35924   -12747.739   -20238.164    25539.376    82.001984 
    1100     887.1963   -113.92334   0.80275385   -113.12059    19600.255    4.3398174    4.3398174    4.3398174    19600.255    92498.537   -11949.327   -21748.444   -8920.4606    520.34442    14250.028    81.736187 
    1200    1996.5186    -114.9267     1.806492   -113.12021   -1355.2363    4.3543559    4.3543559    4.3543559   -1355.2363    31427.053   -8164.5128   -27328.249   -7409.5653    5105.0512   -7775.5057    82.560394 
    1300    1248.8666   -114.25984    1.1300007   -113.12984    17466.934    4.3572725    4.3572725    4.3572725    17466.934    41403.495    16310.679   -5313.3715   -17648.425   -8559.5559    29121.234    82.726407 
    1400    1001.6998   -114.02766   0.90635904   -113.12131   -2726.5767    4.3547613    4.3547613    4.3547613   -2726.5767   -1166.9025   -14736.965    7724.1376    3896.3857    7878.1341     1904.586    82.583457 
    1500    1805.7558   -114.74173    1.6338858   -113.10784    18748.614    4.3420927    4.3420927    4.3420927    18748.614     17052.69    13981.507    25211.643     11172.32    -834.8806   -11829.875    81.864815 
    1600    1652.5947   -114.61557    1.4953024   -113.12027   -3966.3747    4.3457884    4.3457884    4.3457884   -3966.3747    -1175.391   -32423.805    21700.072   -877.89898    5642.7635    25251.258    82.074025 
    1700    868.95885   -113.92136   0.78625223   -113.13511   -13153.645    4.3591805    4.3591805    4.3591805   -13153.645     13378.01   -35438.247   -17400.698    14712.816   -19370.798    11910.612     82.83513 
    1800    1511.1873   -114.48292    1.3673541   -113.11556   -2040.9699    4.3573986    4.3573986    4.3573986   -2040.9699   -11540.216    -30059.43    35476.736    3382.4283    10786.789   -18886.749     82.73359 
    1900    1484.2963   -114.45154    1.3430225   -113.10852   -3837.0577    4.3566391    4.3566391    4.3566391   -3837.0577     10662.98    -22849.74    675.58772   -567.00723    10282.553    777.62639    82.690333 
    2000    1352.2625   -114.33511    1.2235555   -113.11156    -34782.26    4.3608947    4.3608947    4.3608947    -34782.26    -6286.239   -34276.713   -63783.829    10703.646   -21265.479    11623.348    82.932888 
    2100    1394.5571   -114.37313    1.2618245    -113.1113    12361.494    4.3358793    4.3358793    4.3358793    12361.494    11749.085    24574.281    761.11438     2157.828    14005.886   -20080.424    81.513879 
    2200    1071.5034   -114.10122   0.96951881    -113.1317     42943.38    4.3369502    4.3369502    4.3369502     42943.38    66196.963    55014.627    7618.5494   -573.47341    4852.6568   -9377.0417    81.574291 
    2300    1265.0729   -114.28105    1.1446645   -113.13639   -30569.729    4.3760411    4.3760411    4.3760411   -30569.729    -40647.88    15829.798   -66891.106    7428.6204   -20792.601   -5849.7315    83.800028 
    2400    1380.3662   -114.36208    1.2489844   -113.11309    -212.5619    4.3636595    4.3636595    4.3636595    -212.5619    43857.557    13292.765   -57788.007    19553.633     2013.452   -10815.015    83.090727 
    2500    1821.5819   -114.75406    1.6482056   -113.10585    13925.172    4.3178092    4.3178092    4.3178092    13925.172   -9016.1393    50571.841     219.8149   -13342.902    11498.921   -3185.6635    80.498972 
    2600    1074.7851   -114.12131   0.97248819   -113.14883    7591.2296    4.3206813    4.3206813    4.3206813    7591.2296   -2074.2735    46537.827   -21689.865   -2758.9926   -7530.6536   -15958.076    80.659717 
    2700    1201.2557   -114.26364    1.0869214   -113.17671   -15947.934     4.364125     4.364125     4.364125   -15947.934    28134.347   -43746.746   -32231.404    5030.6321   -13331.918   -15454.301     83.11732 
    2800    1623.9084    -114.5971    1.4693464   -113.12776   -33368.432    4.3777601    4.3777601    4.3777601   -33368.432   -20712.774   -24102.753   -55289.769    12798.356    31661.407    5618.6147    83.898824 
    2900    1431.4541   -114.40694    1.2952097   -113.11173    18917.865    4.3284521    4.3284521    4.3284521    18917.865    55779.423    38294.371   -37320.198   -7097.3884    1062.6831   -12865.813    81.095702 
    3000     1366.703   -114.34518    1.2366216   -113.10856    27309.417    4.3123348    4.3123348    4.3123348    27309.417    59545.381    30217.758   -7834.8865    4216.9006   -21910.345   -28824.476    80.193174 
    3100    1604.3788   -114.58969    1.4516757   -113.13802    450.85289    4.3493897    4.3493897    4.3493897    450.85289    16290.868    -11262.31   -3675.9989    7941.6669    24329.246   -7578.4884    82.278237 
    3200    1162.1565    -114.1847    1.0515437   -113.13316   -2585.3365     4.362107     4.362107     4.362107   -2585.3365    17851.887    36512.224    -62120.12     1859.554   -12732.911    2240.9365    83.002076 
    3300    1293.9798   -114.29151    1.1708201   -113.12069    12686.295    4.3421382    4.3421382    4.3421382    12686.295    17240.047    73138.879   -52320.042    -1881.376   -24077.139    -16772.83    81.867386 
    3400    1918.8872   -114.85517    1.7362495   -113.11892    7773.9473    4.3266868    4.3266868    4.3266868    7773.9473     42284.25    -3506.653   -15455.755   -18.875594    5277.1887   -17924.627    80.996523 
    3500    1133.8826   -114.17151    1.0259608   -113.14555    -5272.363    4.3426506    4.3426506    4.3426506    -5272.363   -6627.0637    31396.308   -40586.334   -18586.584    -15159.17    9558.3936    81.896373 
    3600    1188.8989   -114.21863    1.0757407   -113.14289   -35843.053     4.352348     4.352348     4.352348   -35843.053   -22299.919   -21139.132   -64090.107    -3291.863   -12785.835   -18675.697    82.446237 
    3700    1871.2001   -114.81991    1.6931012    -113.1268   -11406.143    4.3358564    4.3358564    4.3358564   -11406.143     37184.64   -30831.103   -40571.966    8904.0308    6904.8506   -11652.406    81.512587 
    3800    1741.5274   -114.70599    1.5757706   -113.13022   -5065.7609     4.339058     4.339058     4.339058   -5065.7609    17119.365    15567.089   -47883.736    5336.9431   -7516.1734    8318.8152    81.693284 
    3900    1296.5536   -114.30932     1.173149   -113.13617   -6414.4631    4.3477778    4.3477778    4.3477778   -6414.4631    33264.958   -4922.2026   -47586.145    3146.8888   -13196.484   -8687.9334     82.18679 
    4000     1017.474   -114.06135   0.92063184   -113.14072    3618.9202    4.3465837    4.3465837    4.3465837    3618.9202    94721.953   -36508.076   -47357.116   -1313.4775    8240.9376    605.65324    82.119093 
    4100    1704.4735   -114.67861    1.5422434   -113.13636    2695.5601    4.3414349    4.3414349    4.3414349    2695.5601    61522.202   -20423.159   -33012.363   -7195.4483    4831.3096     15136.29    81.827613 
    4200    1787.7522     -114.749    1.6175958   -113.13141    35174.818    4.3288567    4.3288567    4.3288567    35174.818    109236.92     20121.15   -23833.613    3127.4849   -4650.2027   -6134.2248    81.118449 
    4300    1333.4378   -114.37217    1.2065225   -113.16565   -35454.329    4.3407897    4.3407897    4.3407897   -35454.329   -25494.008   -35330.441   -45538.538    2664.3614    13014.952   -7317.0344    81.791136 
    4400    664.95234    -113.7783   0.60166285   -113.17664   -18615.684    4.3379611    4.3379611    4.3379611   -18615.684   -43718.804    6959.6484   -19087.896    75.770304    13339.378    18768.355    81.631347 
    4500    1616.5612   -114.61975    1.4626986   -113.15705    11481.961    4.3383056    4.3383056    4.3383056    11481.961    55366.803    11236.868   -32157.788   -12737.891    -14113.83   -1436.1471    81.650796 
    4600    2135.0278   -115.06166     1.931818   -113.12984   -31271.454    4.3652275    4.3652275    4.3652275   -31271.454   -6730.9119   -40650.227   -46433.224    4207.1722    6536.0271   -7165.7522    83.180334 
    4700    1125.9634   -114.13591    1.0187953   -113.11712   -11039.453     4.354861     4.354861     4.354861   -11039.453   -14617.525    11423.314   -29924.147    1096.5192   -803.80427      18521.9    82.589132 
    4800    918.64969   -113.93542   0.83121355   -113.10421    31495.853    4.3351121    4.3351121    4.3351121    31495.853    69495.575    32887.957   -7895.9713   -19389.071   -18074.106    3679.2313    81.470613 
    4900    1886.0143   -114.81748    1.7065054   -113.11098    6631.0684    4.3375721    4.3375721    4.3375721    6631.0684    21573.483     11594.37   -13274.648    11420.121    2322.4952    6430.9454    81.609388 
    5000    1659.4794   -114.62853    1.5015318     -113.127    21194.247    4.3410879    4.3410879    4.3410879    21194.247    62982.195   -3015.7047    3616.2503    2374.7788    3977.0329     16117.57    81.807992 
    5100     1110.416   -114.14421    1.0047278   -113.13949    3293.6434    4.3501509    4.3501509    4.3501509    3293.6434    36437.633   -2994.9123   -23561.791   -19296.951   -3076.7015    6548.5492     82.32144 
    5200    866.28632   -113.92774   0.78383407    -113.1439   -13061.947    4.3452177    4.3452177    4.3452177   -13061.947   -52062.548    37104.071   -24227.364    20196.785    9965.9805    8247.5762    82.041692 
    5300    1456.1189   -114.44622    1.3175269   -113.12869    12575.896    4.3379645    4.3379645    4.3379645    12575.896    46401.072   -8570.0006   -103.38285   -13125.385    12436.818    10048.447    81.631538 
    5400     1757.898   -114.71564    1.5905831   -113.12506    -10559.79     4.356117     4.356117     4.356117    -10559.79    46791.511   -36569.507   -41901.372   -8787.4206   -248.18971   -4279.5752    82.660608 
    5500    1094.6512   -114.11666   0.99046342    -113.1262   -10357.989    4.3508296    4.3508296    4.3508296   -10357.989    24997.711    11034.917   -67106.595    13600.575    13883.035   -8576.6943     82.35998 
    5600     1250.314   -114.25241    1.1313104    -113.1211   -4470.7728    4.3298026    4.3298026    4.3298026   -4470.7728    25025.581    4359.6836   -42797.583     -16283.9    2093.7155   -1209.5386    81.171632 
    5700    1579.8952   -114.57212    1.4295224    -113.1426   -31079.288    4.3498466    4.3498466    4.3498466   -31079.288   -2053.2853   -49557.883   -41626.697   -5689.0137    2690.4926   -14816.042    82.304168 
    5800    1864.6743   -114.81337    1.6871965   -113.12617   -7007.3897    4.3635301    4.3635301    4.3635301   -7007.3897    26624.495   -20947.467   -26699.197   -17140.115      11952.9   -9772.0063    83.083339 
    5900    1350.1771   -114.34197    1.2216686    -113.1203   -13461.705    4.3594621    4.3594621    4.3594621   -13461.705   -3452.7616   -38434.285    1501.9307    1820.7979   -1133.0237    375.85263    82.851185 
    6000    940.21003   -113.96468   0.85072179   -113.11396    5533.5328    4.3347895    4.3347895    4.3347895    5533.5328    10120.722   -45804.204    52284.081   -6653.0738    8024.8648   -5121.9412    81.452429 
    6100     1610.593   -114.57624    1.4572984   -113.11894    37820.738    4.3346374    4.3346374    4.3346374    37820.738    36465.552    13225.724    63770.938   -17846.977    7307.4467    5793.2071    81.443853 
    6200    1610.5473   -114.57865    1.4572571    -113.1214   -7275.1911     4.371435     4.371435     4.371435   -7275.1911    24005.323   -21198.437    -24632.46    9590.8493   -950.65895   -1708.0445    83.535695 
    6300    1007.7944   -114.03299   0.91187357   -113.12112   -37335.878    4.3576744    4.3576744    4.3576744   -37335.878   -9855.3938   -71367.581   -30784.659   -1808.6836    8713.9937   -12835.745    82.749301 
    6400    993.45188   -114.00956   0.89889614   -113.11067    39783.893    4.3088455    4.3088455    4.3088455    39783.893    25752.662    33142.396    60456.623    -5364.618    7775.5907    11214.625    79.998668 
    6500    2298.4288    -115.2148    2.0796666   -113.13514    13071.599    4.3207157    4.3207157    4.3207157    13071.599    45701.179    803.45442   -7289.8358    10303.312    19738.917   -12716.919    80.661644 
    6600    1565.6391   -114.56037    1.4166232   -113.14375   -27111.208    4.3589443    4.3589443    4.3589443   -27111.208   -5244.1577   -35623.492   -40465.974   -17526.825   -2774.4716   -21179.446    82.821664 
    6700    765.63066   -113.83532   0.69275871   -113.14256     2901.724    4.3485234    4.3485234    4.3485234     2901.724    879.17409    5664.3195    2161.6783    3291.0367   -6316.5558    2622.8547    82.229081 
    6800     1420.961   -114.40362    1.2857154   -113.11791    20291.734    4.3367528    4.3367528    4.3367528    20291.734    54984.548    32128.173    -26237.52    20877.224    20405.518   -1761.8022    81.563152 
    6900    1660.6506   -114.62121    1.5025915   -113.11862   -22913.236     4.347151     4.347151     4.347151   -22913.236    34365.514   -28607.824   -74497.397   -6059.0274    4477.3208   -30627.676     82.15125 
    7000    1459.3087   -114.43415    1.3204131   -113.11374    5904.4011     4.351249     4.351249     4.351249    5904.4011    43111.503    6271.9838   -31670.284    16638.696     7239.327    5996.1632    82.383796 
    7100    1533.9192    -114.4941    1.3879223   -113.10618   -5862.0984    4.3529706    4.3529706    4.3529706   -5862.0984    10172.936     11137.46   -38896.691    22150.599   -51.295783    4012.5348    82.481621 
    7200    908.56701   -113.93004   0.82209052   -113.10795    7677.5028    4.3490526    4.3490526    4.3490526    7677.5028    19498.516    42840.883   -39306.891   -2825.6648   -7782.9025   -22758.135    82.259107 
    7300    1197.6309   -114.18993    1.0836416   -113.10629    21980.913     4.340394     4.340394     4.340394    21980.913    18529.851    22680.153    24732.736    10594.477   -3116.6983    12424.432    81.768768 
    7400    1648.2568   -114.60397    1.4913774   -113.11259    7414.9755    4.3409382    4.3409382    4.3409382    7414.9755    25777.106    11687.857   -15220.036    6846.8647   -7051.9211    20277.465    81.799528 
    7500    1430.5036   -114.41871    1.2943497   -113.12436   -32140.604    4.3496591    4.3496591    4.3496591   -32140.604    3251.0705   -35930.855   -63742.026    1837.7876    3543.4963   -59709.859    82.293526 
    7600     1009.609   -114.04351   0.91351545      -113.13    -1695.135    4.3314419    4.3314419    4.3314419    -1695.135    23466.489   -2838.4851   -25713.409    7821.8569    29.769544   -17440.815    81.263865 
    7700    1499.9036     -114.497    1.3571443   -113.13986    3010.4768     4.327215     4.327215     4.327215    3010.4768    32136.998    7048.5886   -30154.157   -5308.6377    2317.5229    51041.146    81.026189 
    7800    1461.9255   -114.46779    1.3227809   -113.14501   -16948.726    4.3420026    4.3420026    4.3420026   -16948.726    11140.034   -14150.054   -47836.157    13154.943   -5905.4049   -40585.517    81.859716 
    7900    1375.0334   -114.37597    1.2441591   -113.13181    11172.972    4.3337497    4.3337497    4.3337497    11172.972    41306.513    15760.837   -23548.433   -9599.0044   -908.79092   -20839.456    81.393829 
    8000     988.8183   -114.03549   0.89470358   -113.14078   -6938.3491    4.3518089    4.3518089    4.3518089   -6938.3491   -20131.253    -2996.521    2312.7262    1638.5954    10040.464    60610.103    82.415603 
    8100     1603.721   -114.56576    1.4510804   -113.11468   -4832.9593    4.3537038    4.3537038    4.3537038   -4832.9593    -29068.86   -15901.307    30471.289    12275.776   -13832.343    3337.8454    82.523311 
    8200    1634.2031   -114.58595    1.4786613   -113.10729    11282.631     4.340801     4.340801     4.340801    11282.631    2748.6966   -6830.0453    37929.243   -8043.5351    3918.5429    9888.3076    81.791772 
    8300     702.9069   -113.76765   0.63600493   -113.13165    297.05374    4.3485504    4.3485504    4.3485504    297.05374    16861.871     -27808.4    11837.691    10740.645     10415.06     44270.16    82.230614 
    8400    1237.1337   -114.23339    1.1193846     -113.114    268.02227    4.3487722    4.3487722    4.3487722    268.02227   -6532.1518    7958.9562   -622.73759    2528.7318   -10807.501    -478.5301    82.243195 
    8500    1905.8576   -114.81813      1.72446   -113.09367   -2675.6767      4.34896      4.34896      4.34896   -2675.6767    4394.3004    10966.867   -23388.198   -1428.8889   -6719.9843    7877.9233     82.25385 
    8600    1628.6228   -114.56964    1.4736121   -113.09603   -35411.384    4.3540867    4.3540867    4.3540867   -35411.384   -18192.074   -14336.404   -73705.674    10782.499    2367.6391    22366.378    82.545084 
    8700    1239.1747    -114.2259    1.1212313   -113.10467    6617.3735    4.3329487    4.3329487    4.3329487    6617.3735    33414.138      13977.6   -27539.618    12300.533   -21958.557   -8299.3549    81.348703 
    8800    1624.2696   -114.58828    1.4696733   -113.11861   -146.84488    4.3377043    4.3377043    4.3377043   -146.84488    43612.541   -1298.2687   -42754.807     11689.89   -12222.451   -2959.2173    81.616852 
    8900    1800.0749   -114.74116    1.6287456   -113.11241   -50350.525    4.3631516    4.3631516    4.3631516   -50350.525   -30369.491   -66543.695   -54138.389   -3513.5191    266.87896     22783.53    83.061717 
    9000    1523.6971   -114.47941    1.3786731   -113.10074   -19430.514    4.3434338    4.3434338    4.3434338   -19430.514   -3195.7019    -20843.23   -34252.611   -1152.8598   -12631.766   -7332.9498    81.940693 
    9100    1415.4694   -114.38282    1.2807465   -113.10208    1638.2918    4.3276491    4.3276491    4.3276491    1638.2918   -2945.0129    19401.291   -11541.403    26010.497   -23638.524   -7264.3813    81.050578 
    9200    1183.6488   -114.19291    1.0709903   -113.12192   -32902.869    4.3479665    4.3479665    4.3479665   -32902.869   -25237.637     -61096.7   -12374.268   -26395.461    245.24145    45979.297    82.197495 
    9300    1607.5699    -114.5638     1.454563   -113.10924    -24550.02    4.3489395    4.3489395    4.3489395    -24550.02   -31105.656   -47273.093    4728.6904   -24546.242   -3234.4788   -998.46559    82.252687 
    9400     1729.039   -114.66716    1.5644708   -113.10269   -4301.2463     4.342658     4.342658     4.342658   -4301.2463   -1847.1234   -7902.9882   -3153.6271    16926.429    311.61564   -6235.3675    81.896792 
    9500    851.98282   -113.88962   0.77089196   -113.11873   -5153.0401    4.3449988    4.3449988    4.3449988   -5153.0401   -856.09596   -21599.673    6996.6485   -25380.036   -2344.7463    37397.894    82.029295 
    9600    1455.2718   -114.42446    1.3167605    -113.1077     16097.09    4.3305385    4.3305385    4.3305385     16097.09    48751.997   -34199.722    33738.995   -12203.825    7833.1374    23094.854    81.213028 
    9700    1735.6464   -114.68807    1.5704493   -113.11762    8208.2356    4.3394062    4.3394062    4.3394062    8208.2356    10635.525    13788.332    200.84924    10883.249   -631.65163   -5399.8393    81.712952 
    9800    1014.4834   -114.04755   0.91792591   -113.12962   -14974.634    4.3491586    4.3491586    4.3491586   -14974.634   -4985.0415   -33678.549   -6260.3123    -22755.04   -8886.0917    3864.6467    82.265122 
    9900    1050.8296   -114.07505   0.95081267   -113.12424    13017.527    4.3321188    4.3321188    4.3321188    13017.527    65530.929   -53213.827     26735.48   -14512.871    798.56333    24951.902     81.30197 
   10000    1873.0779   -114.81356    1.6948002   -113.11876   -1120.6488    4.3386015    4.3386015    4.3386015   -1120.6488      6745.46    -15315.15    5207.7436    11121.461    1946.0437    1031.4435    81.667505 
   10100    1557.2339   -114.52676     1.409018   -113.11774    -5243.411    4.3435949    4.3435949    4.3435949    -5243.411    9317.2441   -26676.788    1629.3109     -15871.9   -1336.7922    2442.2867    81.949809 
   10200    578.16203    -113.6524   0.52313315   -113.12927    26296.227    4.3362568    4.3362568    4.3362568    26296.227    89378.357   -65584.646     55094.97   -5695.8639    1588.8527    22214.568     81.53517 
   10300    1988.1873   -114.91865    1.7989537    -113.1197   -30339.913    4.3565727    4.3565727    4.3565727   -30339.913   -6100.2228   -71961.262   -12958.252   -1215.8799    11068.115   -4322.8791    82.686555 
   10400    2097.4949   -114.99312    1.8978575   -113.09526   -12231.764    4.3505559    4.3505559    4.3505559   -12231.764    26246.174   -31987.821   -30953.644   -12184.454    16573.888    -8839.018    82.344435 
   10500     629.4063   -113.66362   0.56950005   -113.09412    33348.358    4.3348309    4.3348309    4.3348309    33348.358    81851.092   -10522.725    28716.707    1516.9011   -454.46538    19913.085    81.454765 
   10600    1479.3747   -114.44002    1.3385693   -113.10145   -14104.371    4.3532164    4.3532164    4.3532164   -14104.371   -7967.8786   -22227.995   -12117.238   -11311.892    5494.0609   -869.45323    82.495596 
   10700    1872.3736   -114.79452     1.694163   -113.10036   -10700.094    4.3426007    4.3426007    4.3426007   -10700.094    20038.327    -20193.77   -31944.839    4003.7196    -3497.369   -1897.5465    81.893547 
   10800    1235.0032   -114.22846    1.1174569   -113.11101    30389.752    4.3169814    4.3169814    4.3169814    30389.752    71255.978     715.3766    19197.903   -7243.4244   -3819.7574    22114.637    80.452681 
   10900      1253.65   -114.27253    1.1343289    -113.1382   -1359.4517    4.3325332    4.3325332    4.3325332   -1359.4517   -88.833249   -19114.201    15124.679   -6973.6799    4172.7159   -1960.6339    81.325306 
   11000    1482.4875   -114.47374    1.3413858   -113.13235   -31086.355    4.3501147    4.3501147    4.3501147   -31086.355    19057.676   -45762.214   -66554.526   -4319.0989    6168.0234   -24985.752    82.319386 
   11100    1312.2366   -114.31593    1.1873393   -113.12859    1499.1668    4.3339721    4.3339721    4.3339721    1499.1668    64522.263   -15237.383    -44787.38   -2694.1147   -1469.4092    3885.7798    81.406361 
   11200    1494.0826   -114.47397    1.3518774   -113.12209    15979.422    4.3244808    4.3244808    4.3244808    15979.422    46609.301   -3947.7732    5276.7386   -20644.258   -5920.3194    12360.592    80.872696 
   11300    1591.8813   -114.57096    1.4403676   -113.13059   -12152.778    4.3361208    4.3361208    4.3361208   -12152.778    41856.637   -37619.473     -40695.5   -15394.182    6452.9027    -24831.42    81.527498 
   11400    1409.0702   -114.40902    1.2749563   -113.13406   -8528.4035    4.3362332    4.3362332    4.3362332   -8528.4035    56454.803   -29168.625   -52871.388    11381.866    2320.3687   -13248.867    81.533839 
   11500    1350.2518   -114.36565    1.2217362   -113.14391   -15626.745    4.3298942    4.3298942    4.3298942   -15626.745   -34918.784   -17838.574    5877.1223   -24445.374   -10444.175    14580.408    81.176786 
   11600    1130.1669   -114.17306    1.0225987   -113.15046   -4879.4356    4.3264961    4.3264961    4.3264961   -4879.4356    4255.3972   -24955.305    6061.6007   -9528.3904   -11067.557   -21097.277    80.985811 
   11700     1670.837   -114.65196    1.5118084   -113.14015   -5244.3618    4.3342417    4.3342417    4.3342417   -5244.3618    33073.769   -39279.454   -9527.4005    10250.876    8436.9045   -37018.442    81.421552 
   11800    1759.2824   -114.71426    1.5918356   -113.12242   -32965.265    4.3530747    4.3530747    4.3530747   -32965.265   -35015.263   -32521.527   -31359.006   -32472.973   -6592.9087    5576.5674    82.487539 
   11900    1082.6941   -114.11106   0.97964438   -113.13142   -13609.678    4.3353393    4.3353393    4.3353393   -13609.678   -22244.126    -13547.57   -5037.3387   -23230.752   -9453.1308    -3876.068    81.483428 
   12000    1098.5004   -114.12631   0.99394624   -113.13237    22929.018    4.3081732    4.3081732    4.3081732    22929.018    99624.224   -22593.936   -8243.2356    18264.201    7750.7619   -54763.642    79.961228 
   12100     1699.546   -114.69379    1.5377849     -113.156    3777.3342    4.3344599    4.3344599    4.3344599    3777.3342    315.86797    29493.724   -18477.589    14001.505    14251.415    1350.5934    81.433848 
   12200    1875.0003    -114.8338    1.6965397   -113.13726   -18745.487     4.348482     4.348482     4.348482   -18745.487   -5974.5093   -37917.088   -12344.863   -26661.711   -1040.8576    8582.1736    82.226734 
   12300    1084.3978   -114.12003   0.98118593   -113.13884   -5532.9931    4.3274724    4.3274724    4.3274724   -5532.9931    23563.805    -22355.85   -17806.934   -1065.8595   -1181.5557   -51117.916    81.040651 
   12400    1285.4303   -114.30098    1.1630844   -113.13789   -8789.5529    4.3242517    4.3242517    4.3242517   -8789.5529    2103.5995   -8487.5219   -19984.736     31792.68     20657.07   -10619.528     80.85984 
   12500      1698.75   -114.68113    1.5370647   -113.14407   -6625.1608    4.3402501    4.3402501    4.3402501   -6625.1608   -16939.737   -20850.904    17915.159   -5932.5486   -3359.7474    9968.4969    81.760639 
   12600    1509.0421   -114.50164     1.365413   -113.13623   -17585.969    4.3494474    4.3494474    4.3494474   -17585.969   -6951.1032   -23203.532   -22603.271   -19244.458   -9567.6597    -32273.53    82.281507 
   12700    1282.3339   -114.29123    1.1602826   -113.13095   -1523.8947    4.3325735    4.3325735    4.3325735   -1523.8947   -3624.1982   -24274.334    23326.848    14071.929    16420.517    -5218.125    81.327571 
   12800    1353.3429   -114.35117    1.2245331   -113.12664    6451.8073     4.320505     4.320505     4.320505    6451.8073    8363.0562   -7423.2786    18415.644    17678.223    31299.043    15345.226    80.649844 
   12900    1735.5706    -114.7092    1.5703807   -113.13882    10585.332     4.335407     4.335407     4.335407    10585.332   -1746.7099    1991.0395    31511.668   -10847.407   -20832.553    7562.0713    81.487242 
   13000    1542.0856   -114.52417    1.3953114   -113.12886   -15419.377    4.3599025    4.3599025    4.3599025   -15419.377   -9785.1139   -32538.437   -3934.5798    7460.2798    1586.3518   -11106.918    82.876293 
   13100    867.56099   -113.89795   0.78498742   -113.11296   -17956.952    4.3561489    4.3561489    4.3561489   -17956.952   -6581.1438   -48529.105    1239.3939    13120.034    42457.419    7084.2346    82.662425 
   13200    1774.0277   -114.70566    1.6051775   -113.10049    7215.5054    4.3199245    4.3199245    4.3199245    7215.5054    57220.222    -27112.08   -8461.6262   -804.48658   -13101.271    23681.219    80.617339 
   13300    1771.4771   -114.71433    1.6028697   -113.11146    37451.961    4.3133738    4.3133738    4.3133738    37451.961    25200.919    30065.049    57089.915    11229.322   -4149.6151   -12105.056    80.251154 
   13400    934.91096   -113.99562   0.84592709   -113.14969   -50425.981    4.3487803    4.3487803    4.3487803   -50425.981   -69187.719   -26001.845   -56088.379     21107.57    39413.817    15927.519    82.243655 
   13500    1083.7738   -114.12006   0.98062135   -113.13943   -19618.283    4.3459685    4.3459685    4.3459685   -19618.283    21066.242   -42116.646   -37804.444    3963.1578   -4797.8381    33322.579    82.084231 
   13600    2244.6592   -115.13927    2.0310148   -113.10826   -11243.318    4.3451577    4.3451577    4.3451577   -11243.318    32177.341   -37085.642   -28821.654    6730.3473   -3974.0704   -22205.694    82.038298 
   13700    846.65453   -113.87912   0.76607081   -113.11305   -11308.035    4.3564484    4.3564484    4.3564484   -11308.035     15232.55   -24549.206   -24607.448    2869.7729    17401.177    18524.976    82.679477 
   13800    1272.5071   -114.23973    1.1513912   -113.08834   -578.35566     4.349473     4.349473     4.349473   -578.35566    25205.274   -10672.521    -16267.82    3868.9245    4568.5818    20007.365    82.282964 
   13900    1807.9938   -114.71658    1.6359108   -113.08067   -10657.597    4.3475648    4.3475648    4.3475648   -10657.597   -6179.6319    24063.333   -49856.492   -11345.161   -8215.6902   -15107.332     82.17471 
   14000    1270.7011   -114.24492     1.149757   -113.09516   -13045.972    4.3439274    4.3439274    4.3439274   -13045.972   -1396.1696    9541.8469   -47283.593   -9227.6645    26806.191     19857.93    81.968631 
   14100    1438.5475   -114.40511     1.301628   -113.10348   -10078.992    4.3340716    4.3340716    4.3340716   -10078.992   -32338.324    -20049.88    22151.228    15342.682    4509.6932    3114.0398    81.411967 
   14200    1505.5941   -114.47915    1.3622932   -113.11685   -16289.386      4.34572      4.34572      4.34572   -16289.386   -20945.156   -10592.268   -17330.733   -9522.8033   -7754.9947    -19022.59    82.070152 
   14300    1694.9538   -114.63345    1.5336298   -113.09982   -20673.658    4.3594938    4.3594938    4.3594938   -20673.658   -20455.119   -17574.782   -23991.072   -7089.2696    10758.922    16212.001    82.852994 
   14400    1630.4523   -114.57343    1.4752675   -113.09817   -5115.0261    4.3395433    4.3395433    4.3395433   -5115.0261   -25753.815   -15276.529    25685.265    14433.085    10146.271    -8705.676    81.720698 
   14500    803.67879   -113.83751   0.72718546   -113.11033    16696.533    4.3188051    4.3188051    4.3188051    16696.533    29305.622    6358.2538    14425.722   -783.77996   -25406.364   -10603.301     80.55469 
   14600    1640.7471   -114.61061    1.4845824   -113.12602    17811.566    4.3319383    4.3319383    4.3319383    17811.566    44335.301    15715.466   -6616.0697    -28601.82   -23697.943    1772.8972     81.29181 
   14700     1928.347   -114.87459    1.7448089   -113.12978    4084.9555    4.3454786    4.3454786    4.3454786    4084.9555    46625.235    -26979.88   -7390.4884    22574.592    18705.593   -2845.6216    82.056472 
   14800    792.19861   -113.85927   0.71679795   -113.14247   -35254.845    4.3501439    4.3501439    4.3501439   -35254.845   -32520.957   -73664.035    420.45753    5458.1353   -35129.926   -29673.821    82.321047 
   14900    1150.9732   -114.18311    1.0414247   -113.14169   -13963.047     4.327471     4.327471     4.327471   -13963.047   -31124.571   -22782.585    12018.016   -20974.949   -18552.313   -19525.987     81.04057 
   15000    1581.0535   -114.56102    1.4305705   -113.13045    36800.405    4.3161832    4.3161832    4.3161832    36800.405    11498.703    10672.224    88230.287    3200.7106    22350.491    3238.2005    80.408065 
   15100    1157.0405   -114.20157    1.0469145   -113.15466   -14788.438    4.3487522    4.3487522    4.3487522   -14788.438   -20220.297   -51684.792    27539.776   -7416.2823   -19773.219   -13785.535    82.242059 
   15200     1361.367   -114.34955    1.2317935   -113.11776   -25279.229    4.3558984    4.3558984    4.3558984   -25279.229   -20664.912   -40598.721   -14574.054   -12403.826   -38311.883   -6085.9617    82.648166 
   15300    1858.2269   -114.77728    1.6813627   -113.09592    -5853.819    4.3367435    4.3367435    4.3367435    -5853.819   -14623.639    15185.799   -18123.617    9058.7368    30795.574    1924.9333    81.562627 
   15400    1454.4322   -114.42024    1.3160008   -113.10424   -15451.162    4.3288442    4.3288442    4.3288442   -15451.162   -36284.918   -3217.2531   -6851.3165   -15765.854   -802.54137   -16005.661    81.117742 
   15500    1140.9409   -114.15077    1.0323473   -113.11842    32175.403    4.3330979    4.3330979    4.3330979    32175.403     3414.637    24632.692     68478.88   -369.05528   -37872.857   -17876.213    81.357107 
   15600    1555.4556   -114.52305    1.4074089   -113.11564   -1527.3255    4.3568925    4.3568925    4.3568925   -1527.3255   -14589.539   -6299.5947    16307.157    5381.1101    31340.631    6258.5683    82.704768 
   15700    1154.2202   -114.15686    1.0443627    -113.1125   -6333.9838     4.346619     4.346619     4.346619   -6333.9838   -48638.502   -26937.809     56574.36   -23965.201   -1327.1611     3049.081    82.121093 
   15800    1339.0912    -114.3187    1.2116379   -113.10707    9128.6953    4.3099316    4.3099316    4.3099316    9128.6953   -14081.346    22835.751    18631.681   -11603.508   -36718.778   -13681.765     80.05918 
   15900    1604.8112   -114.57716    1.4520669    -113.1251    20196.243    4.3143688    4.3143688    4.3143688    20196.243    26200.464    14163.407     20224.86    15684.946    12755.629     7804.588    80.306704 
   16000    1364.7961   -114.36703    1.2348962   -113.13214   -32848.349    4.3593993    4.3593993    4.3593993   -32848.349   -53169.841   -11562.504   -33812.702   -29594.804    2895.8411    8502.9696    82.847605 
   16100    1576.0421   -114.52992     1.426036   -113.10388   -35437.778    4.3559217    4.3559217    4.3559217   -35437.778   -38102.708    -34834.39   -33376.235   -14557.853   -28524.291   -15325.846    82.649493 
   16200    1466.9198   -114.41728    1.3272998   -113.08998    24953.431    4.3086308    4.3086308    4.3086308    24953.431    10674.934    51990.873    12194.485    46297.068    5547.8462    8849.6211    79.986713 
   16300    1452.7952   -114.42671    1.3145196   -113.11219   -1582.1952    4.3033925    4.3033925    4.3033925   -1582.1952    -8601.914   -9212.7267    13068.055   -10415.795    14032.009    22717.265    79.695333 
   16400    1441.0282   -114.44112    1.3038726   -113.13724     -2488.99    4.3387642    4.3387642    4.3387642     -2488.99    -26119.28    14172.561    4479.7487   -30387.106   -11527.906   -13313.716    81.676692 
   16500     1480.398   -114.45614    1.3394952   -113.11664   -36144.015    4.3625689    4.3625689    4.3625689   -36144.015   -46976.916   -57893.929   -3561.2007    54044.094    2565.5182    9041.3471    83.028446 
   16600     1315.733   -114.30251    1.1905029   -113.11201    6748.2294    4.3302576    4.3302576    4.3302576    6748.2294    14698.271    3767.5983    1778.8195   -5947.6022    1944.6036    24425.299    81.197229 
   16700    1856.2385   -114.76726    1.6795636    -113.0877    17542.908    4.2965122    4.2965122    4.2965122    17542.908    5158.3228    19150.216    28320.184   -24890.519   -4174.0757    2496.3625    79.313689 
   16800    1044.3823    -114.0779   0.94497909   -113.13292    1669.4878    4.3195621    4.3195621    4.3195621    1669.4878   -28246.489   -6809.5482      40064.5    68362.355   -6002.4298   -1797.9992    80.597055 
   16900    1591.6936   -114.56598    1.4401979   -113.12578   -16987.892    4.3571538    4.3571538    4.3571538   -16987.892   -15738.663    7529.6075    -42754.62     935.4124    517.90843    11340.237    82.719649 
   17000    1537.3073   -114.51164     1.390988   -113.12066   -24648.462    4.3465374    4.3465374    4.3465374   -24648.462   -44932.609   -5749.1274    -23263.65    12394.081    2523.7221    20517.266    82.116468 
   17100     847.0536   -113.88136   0.76643189   -113.11492    22085.021    4.2923947    4.2923947    4.2923947    22085.021   -48528.647    32636.429     82147.28      89976.4   -2966.4676   -5164.4642    79.085882 
   17200    1768.1671   -114.72335    1.5998747   -113.12347    23351.497    4.3002925    4.3002925    4.3002925    23351.497    10236.129    41340.133    18478.228   -16439.184   -15576.693    15693.867    79.523226 
   17300    1229.4374   -114.23966    1.1124208   -113.12724   -21512.067     4.348205     4.348205     4.348205   -21512.067   -31204.933    -18374.16   -14957.107    12746.909    4245.2104    23167.802    82.211017 
   17400    1594.4748   -114.54593    1.4427143   -113.10322   -36093.742     4.351847     4.351847     4.351847   -36093.742   -52417.385   -43042.493   -12821.348    48963.354   -3121.2399    -8043.992     82.41777 
   17500    1240.8966   -114.22318    1.1227893   -113.10039   -17474.197    4.3301164    4.3301164    4.3301164   -17474.197   -53633.885    16237.292   -15025.998   -27161.049   -11109.323    6944.7288    81.189282 
   17600    1293.6878   -114.28129    1.1705559   -113.11074   -6454.2798    4.3100518    4.3100518    4.3100518   -6454.2798   -30264.276     8584.672    2316.7649   -16865.301    8681.9654    9357.6951     80.06588 
   17700    2024.0728   -114.95198    1.8314236   -113.12055    17477.139    4.3189459    4.3189459    4.3189459    17477.139   -4399.6368    3559.2386    53271.816    11997.487   -3371.8732    7504.1955    80.562564 
   17800    1197.9368   -114.21867    1.0839184   -113.13475   -26686.717    4.3460839    4.3460839    4.3460839   -26686.717   -62997.116    33015.844    -50078.88   -7203.3004   -13072.033   -18613.857    82.090768 
   17900    1111.2525   -114.13139    1.0054847   -113.12591   -15783.911     4.343422     4.343422     4.343422   -15783.911   -58810.297    15172.293   -3713.7289   -24556.558    9387.5488    4326.6438     81.94002 
   18000    2404.5589   -115.27052    2.1756954   -113.09483   -577.69251    4.3228412    4.3228412    4.3228412   -577.69251   -20024.499    7011.1123     11280.31   -1032.6141   -3281.5277     12961.18    80.780742 
   18100    1076.2989   -114.08832   0.97385787   -113.11446    402.53317    4.3187911    4.3187911    4.3187911    402.53317   -40398.836    58861.785    -17255.35    5997.2302   -23020.756   -15517.128    80.553905 
   18200    1480.6103   -114.46042    1.3396873   -113.12073   -12131.887    4.3328725    4.3328725    4.3328725   -12131.887   -52501.779    22164.417   -6058.2991   -31668.392    24605.453   -15043.898    81.344416 
   18300    1853.4211    -114.7796    1.6770144   -113.10258   -11280.652    4.3441198    4.3441198    4.3441198   -11280.652   -46173.155    2843.1927     9488.006    10414.257   -11731.652    9488.8467    81.979523 
   18400    788.52753    -113.8289   0.71347628   -113.11543   -8521.2171    4.3344358    4.3344358    4.3344358   -8521.2171    -76621.72    60095.762   -9037.6936    24267.882   -7971.6938   -2851.8447    81.432492 
   18500    1737.6979   -114.67662    1.5723056   -113.10432    14689.585    4.3174539    4.3174539    4.3174539    14689.585   -13110.303    31552.186    25626.873   -15985.463    25543.071    -25118.19    80.479101 
   18600    1654.3574    -114.6082    1.4968974   -113.11131    22881.522    4.3190108    4.3190108    4.3190108    22881.522    2544.3646    33696.334    32403.867    7854.3996   -11683.105    23490.741      80.5662 
   18700    928.28338   -113.97246   0.83993031   -113.13253   -21761.433    4.3402012    4.3402012    4.3402012   -21761.433   -53054.065   -20383.302    8153.0689    26767.429   -607.27123    9443.8116    81.757873 
   18800    1705.3278   -114.65506    1.5430164   -113.11204    -9641.644    4.3371901    4.3371901    4.3371901    -9641.644   -38007.643   -4731.5476    13814.259   -7724.8893    8817.4891   -14838.065     81.58783 
   18900    1377.4246   -114.36255    1.2463227   -113.11623    17642.994    4.3103482    4.3103482    4.3103482    17642.994    499.09488   -2985.9868    55415.874    -27538.32    2740.6977    18999.303    80.082398 
   19000    982.14561   -114.02574   0.88866599   -113.13707   -21675.666    4.3143632    4.3143632    4.3143632   -21675.666   -31843.701   -36307.447    3124.1484    27781.859   -21348.131    20702.896     80.30639 
   19100    1686.3134   -114.65514    1.5258118   -113.12933   -3810.3605     4.331811     4.331811     4.331811   -3810.3605   -18692.177   -4600.4073    11861.502    8335.5456   -10663.319   -1480.1461    81.284641 
   19200    1418.8511   -114.40603    1.2838063   -113.12222   -28863.525    4.3469021    4.3469021    4.3469021   -28863.525   -29571.024   -55918.624   -1100.9268   -37889.724    12845.997   -5426.4957    82.137141 
   19300    1010.6193   -114.02733    0.9144296    -113.1129   -29427.405    4.3361328    4.3361328    4.3361328   -29427.405   -28976.736   -27469.128   -31836.353    15410.431   -36584.679    28154.723    81.528176 
   19400    1875.9841   -114.79843    1.6974298     -113.101    18265.764    4.3015271    4.3015271    4.3015271    18265.764    24288.941    24156.101    6352.2492    4142.4024   -21948.402   -6225.5686    79.591738 
   19500    1457.3473   -114.44494    1.3186384    -113.1263    14024.132    4.3105299    4.3105299    4.3105299    14024.132    19708.731   -12293.188    34656.851   -25740.285    10800.341   -25855.472    80.092523 
   19600     1452.907   -114.44804    1.3146208   -113.13342   -12460.382    4.3393671    4.3393671    4.3393671   -12460.382   -12009.654   -16019.002   -9352.4896    3882.3124   -9895.9298     19502.65    81.710743 
   19700    1409.9777    -114.3905    1.2757774   -113.11472    2771.9049    4.3473863    4.3473863    4.3473863    2771.9049   -10273.161    4512.9974    14075.878   -1739.0164     -22746.9   -14021.668     82.16459 
   19800    1463.3601   -114.42349    1.3240789   -113.09941   -14935.331    4.3413508    4.3413508    4.3413508   -14935.331    3799.7517    -21342.74   -27263.005   -11815.757    11447.342   -36752.213    81.822855 
   19900    1282.0505   -114.25612    1.1600262    -113.0961    7301.2766    4.3220402    4.3220402    4.3220402    7301.2766    6851.1045    16446.545   -1393.8196    40.764128   -22543.412    21271.529    80.735848 
   20000     1757.434   -114.69081    1.5901632   -113.10065    4021.1912    4.3166183    4.3166183    4.3166183    4021.1912    2504.1536    26531.247   -16971.827    2294.8227   -25426.819    1780.8915    80.432384 
   20100    1031.6824   -114.05987   0.93348793   -113.12638     4119.442    4.3292911    4.3292911    4.3292911     4119.442    3413.8195    24494.796    -15550.29   -9517.8987    12249.568   -36725.929    81.142869 
   20200     1184.658   -114.20297    1.0719034   -113.13107   -138.15199    4.3354828    4.3354828    4.3354828   -138.15199    904.15074    -14663.13    13344.523   -5072.9243    4522.3744    19813.254    81.491519 
   20300     1790.245   -114.73492    1.6198513   -113.11507    6146.4232    4.3364393    4.3364393    4.3364393    6146.4232   -11436.079    1764.0956    28111.253    4147.9009   -12554.183    18241.484    81.545463 
   20400    801.50522   -113.85285   0.72521877   -113.12763   -1643.5034    4.3285986    4.3285986    4.3285986   -1643.5034   -8509.8678   -980.49285    4559.8506   -9292.4791   -36.475179   -40689.605    81.103937 
   20500    952.39358   -113.99285   0.86174573    -113.1311    8641.6957    4.3196556    4.3196556    4.3196556    8641.6957    12132.866   -6644.0341    20436.256   -4258.2252    12575.401    7058.1074    80.602285 
   20600    2045.0946   -114.97183    1.8504446   -113.12138   -3694.4217     4.329033     4.329033     4.329033   -3694.4217   -10855.039   -4015.9512    3787.7255    -119.0131     11068.73    23411.036    81.128361 
   20700    745.16609    -113.8152   0.67424194   -113.14096   -6533.2994    4.3300256    4.3300256    4.3300256   -6533.2994    8621.4749   -35180.703    6959.3302    -14261.31    -3596.633   -45915.182    81.184179 
   20800    1258.8933   -114.27171    1.1390731   -113.13263    4096.7162    4.3291347    4.3291347    4.3291347    4096.7162    42995.849     -34497.1    3791.3996   -3107.8429     7251.445   -21125.807    81.134077 
   20900    1915.7546   -114.84985    1.7334151   -113.11644   -3012.6637    4.3353651    4.3353651    4.3353651   -3012.6637   -5635.0147     1465.727   -4868.7034   -2287.0141    3153.4932    15244.493    81.484879 
   21000    825.72171   -113.87968   0.74713035   -113.13255    19971.811    4.3178652    4.3178652    4.3178652    19971.811    61089.984   -18338.535    17163.983   -3571.4429    112.60334   -43183.476    80.502106 
   21100    1391.0091   -114.39402    1.2586142    -113.1354    20330.758    4.3255528    4.3255528    4.3255528    20330.758    65132.718   -25984.218    21843.775    -10668.09   -1577.7951    -22677.41    80.932853 
   21200    2303.1395   -115.20084     2.083929   -113.11691   -8072.3813    4.3398548    4.3398548    4.3398548   -8072.3813   -252.54467    -7833.252   -16131.347    446.72806    7176.8356    17519.805    81.738297 
   21300    806.36209   -113.87274   0.72961336   -113.14313    23067.683    4.3167768    4.3167768    4.3167768    23067.683    105559.48   -11543.169   -24813.267   -4892.5954    6399.7279   -26915.061    80.441245 
   21400    955.63053   -114.01441   0.86467458   -113.14974    2657.4244    4.3237616    4.3237616    4.3237616    2657.4244    24606.462      20425.3   -37059.489   -5592.8181   -4566.5055   -32378.033    80.832354 
   21500    2038.8508   -114.97218    1.8447951   -113.12739   -13687.481     4.330485     4.330485     4.330485   -13687.481   -21232.127    9866.2627   -29696.579    4467.1656   -4280.7055    18106.635    81.210021 
   21600    1235.3518   -114.25433    1.1177723   -113.13656    22072.399    4.3102642    4.3102642    4.3102642    22072.399     75590.44    13452.958     -22826.2   -4250.1347   -1710.0225   -26930.884    80.077715 
   21700    920.82936   -113.98781   0.83318575   -113.15463    1572.3276    4.3327521    4.3327521    4.3327521    1572.3276    40595.981     12621.74   -48500.738     4461.119   -2492.3368   -33984.135    81.337632 
   21800    2069.9939   -114.98835    1.8729739   -113.11538   -5141.4234    4.3396381    4.3396381    4.3396381   -5141.4234   -30140.092    32475.982    -17760.16    1068.2651   -1000.2587    6175.3499    81.726056 
   21900    983.67889   -114.01578   0.89005333   -113.12573    28176.148    4.3097436    4.3097436    4.3097436    28176.148    45173.614    66281.319   -26926.489   -3322.4822    5917.9384   -46528.097    80.048703 
   22000    802.35478    -113.8712   0.72598747   -113.14521   -11660.204    4.3215667    4.3215667    4.3215667   -11660.204    77816.857   -54671.872   -58125.597    4928.2451   -120.61798   -12829.337    80.709313 
   22100    2061.0434    -114.9854    1.8648754   -113.12052    7505.4524    4.3266374    4.3266374    4.3266374    7505.4524    1811.6038    18805.088    1899.6657   -6639.4186   -5477.4741    28660.671     80.99375 
   22200      1482.64   -114.47858    1.3415238   -113.13705   -2123.9981      4.32493      4.32493      4.32493   -2123.9981    13260.744   -6868.5458   -12764.192    -647.7891      663.678    -43248.28      80.8979 
   22300    954.82453   -114.00997    0.8639453   -113.14602   -23116.955    4.3275143    4.3275143    4.3275143   -23116.955    48744.713   -63976.254   -54119.324    3116.5166    4579.1638    -29416.36    81.043005 
   22400     1891.311   -114.83423    1.7112979   -113.12294    21157.835    4.3149439    4.3149439    4.3149439    21157.835    40973.191    17382.938    5117.3744    3540.5702   -857.67529    28479.216    80.338824 
   22500    1299.4428   -114.31663    1.1757631   -113.14086   -31640.181    4.3319194    4.3319194    4.3319194   -31640.181   -15462.002     -58086.9   -21371.641    3906.4409   -4407.7774   -30352.846    81.290747 
   22600    886.34391   -113.94456    0.8019826   -113.14258   -31495.496    4.3351781    4.3351781    4.3351781   -31495.496    24738.434    -78582.82   -40642.102    2312.4651    -7077.106    -57327.13    81.474336 
   22700    2400.6032   -115.27964    2.1721162   -113.10752    26613.177     4.320032     4.320032     4.320032    26613.177    54812.697    16665.393     8361.442   -11587.459   -6654.3575    11082.443    80.623357 
   22800    1047.1204   -114.08099   0.94745655   -113.13353   -8218.1188    4.3371551    4.3371551    4.3371551   -8218.1188    17325.562   -33019.009   -8960.9101   -8854.2168   -4848.3581   -38568.149    81.585851 
   22900    943.85046   -113.96585   0.85401573   -113.11184   -9771.3844     4.343595     4.343595     4.343595   -9771.3844    36629.876   -55092.673   -10851.356    12764.071   -2147.0609   -41415.403    81.949814 
   23000    2057.2653   -114.94295    1.8614569   -113.08149    13258.578    4.3320384    4.3320384    4.3320384    13258.578    33091.025    15021.187   -8336.4768    1733.9332    1193.9286    19560.886    81.297444 
   23100    1007.3741   -114.01795   0.91149327   -113.10645   -5004.7572    4.3265933    4.3265933    4.3265933   -5004.7572     52367.36    -26388.61   -40993.022   -16771.134   -6966.2659   -29677.232     80.99127 
   23200    1183.1484   -114.18861    1.0705375   -113.11807    6102.8377    4.3253894    4.3253894    4.3253894    6102.8377     7500.813    20268.931   -9461.2306   -8157.3104   -17.942439   -24255.973     80.92368 
   23300    1981.8343   -114.89925    1.7932053   -113.10604    11262.188    4.3292186    4.3292186    4.3292186    11262.188   -5618.0272    46346.727    -6942.137     10101.67    17663.633    12385.621    81.138792 
   23400     1053.018   -114.07638   0.95279283   -113.12359   -10781.674    4.3346388    4.3346388    4.3346388   -10781.674    18063.999    9694.2872   -60103.308   -9232.2489    4477.0051   -28265.411    81.443936 
   23500    1346.5897   -114.34776    1.2184226   -113.12934   -11714.004    4.3263125    4.3263125    4.3263125   -11714.004    11246.288   -10010.107   -36378.193   -25349.626      3443.83   -7026.5232    80.975505 
   23600    2118.0529   -115.02944    1.9164588   -113.11299    25797.935    4.3195755    4.3195755    4.3195755    25797.935    7276.9234    63014.821    7102.0603    1986.3573    15414.411    2839.4979    80.597802 
   23700    1172.2209   -114.19249    1.0606501   -113.13184   -33964.435    4.3402935    4.3402935    4.3402935   -33964.435   -7571.8854   -20929.945   -73391.474    2010.7696    8909.1112   -31772.434    81.763087 
   23800    1151.1341   -114.16806    1.0415703   -113.12649   -26321.937    4.3331735    4.3331735    4.3331735   -26321.937    7930.2729   -30214.851   -56681.232   -20648.667   -2198.8083    2655.5334    81.361368 
   23900    1856.2383   -114.78714    1.6795634   -113.10757    23738.227    4.3113482    4.3113482    4.3113482    23738.227    6745.6648    40855.338    23613.677    7837.1764   -12890.499    6172.2049    80.138149 
   24000     1275.413   -114.28253    1.1540205   -113.12851   -15433.664    4.3255647    4.3255647    4.3255647   -15433.664   -12898.625   -12021.037   -21381.328    20852.262    6836.3085   -27513.165     80.93352 
   24100    1289.6332   -114.29192    1.1668872   -113.12504   -5840.9113    4.3343143    4.3343143    4.3343143   -5840.9113    25920.835   -2897.6145   -40545.955   -1974.3779    9105.1025   -2588.3513    81.425645 
   24200    1608.9568   -114.57238     1.455818   -113.11657   -2092.8077    4.3312428    4.3312428    4.3312428   -2092.8077   -926.16427    26567.064   -31919.323   -2228.1319   -39225.894    16593.926    81.252658 
   24300    1352.6792   -114.34305    1.2239325   -113.11912   -15831.231     4.327553     4.327553     4.327553   -15831.231   -13624.028   -17011.542   -16858.124      28764.9   -15134.772   -21861.797    81.045181 
   24400    1671.5213   -114.63337    1.5124276   -113.12094    7646.4669    4.3146618    4.3146618    4.3146618    7646.4669    35966.297    -6621.813   -6405.0828   -1040.2602    5047.7876   -6708.9332    80.323067 
   24500    1406.7959   -114.40631    1.2728985   -113.13341    23550.471    4.3163821    4.3163821    4.3163821    23550.471    36882.841    42914.139   -9145.5685   -7127.0955   -19646.571    16041.867     80.41918 
   24600     1186.292   -114.21155     1.073382   -113.13817   -16422.829    4.3333917    4.3333917    4.3333917   -16422.829   -15215.745   -9293.1808    -24759.56    50049.254   -21906.764    1515.7442     81.37366 
   24700    1588.6199   -114.56193    1.4374167   -113.12451   -167.94934    4.3330709    4.3330709    4.3330709   -167.94934    12227.727    -19396.29    6664.7147   -10323.409    5774.0236   -23472.405    81.355587 
   24800    1223.2385   -114.22558    1.1068119   -113.11877    15490.593    4.3248992    4.3248992    4.3248992    15490.593    9798.4877    13760.777    22912.516    -15713.99   -13894.378    6864.0686    80.896173 
   24900    1052.8031   -114.07173   0.95259836   -113.11913    7599.3506    4.3270838    4.3270838    4.3270838    7599.3506    2276.8636   -6528.6939    27049.882    58295.608    -25010.33    5850.0508    81.018823 
   25000    1887.2437   -114.81627    1.7076178   -113.10865   -13487.511    4.3344357    4.3344357    4.3344357   -13487.511   -25954.597   -18159.613    3651.6781   -9175.0717    2623.2796   -5935.4821    81.432488 
   25100    1401.6658    -114.3861    1.2682567   -113.11785    -11395.58    4.3275731    4.3275731    4.3275731    -11395.58    -18299.78   -22149.418    6262.4574   -18176.834    1876.4504    12808.934     81.04631 
   25200    391.70219   -113.49924   0.35442038   -113.14482   -8447.0443    4.3130622    4.3130622    4.3130622   -8447.0443   -46593.014   -10885.981    32137.862    54871.285   -30206.206    19116.446    80.233763 
   25300    1711.2922   -114.69584    1.5484131   -113.14743   -234.94816    4.3203102    4.3203102    4.3203102   -234.94816    -2224.393    20622.744   -19103.195     3338.007   -13329.901   -264.18089    80.638936 
   25400    1854.3004    -114.8113      1.67781   -113.13349     -8446.94    4.3348478    4.3348478    4.3348478     -8446.94   -12222.128   -3240.9296   -9877.7627    7004.1162    21831.025   -10363.318    81.455713 
   25500    1011.4856   -114.04757   0.91521346   -113.13236    -7995.271    4.3322005    4.3322005    4.3322005    -7995.271   -20129.851   -29701.562      25845.6    41411.669   -18297.456     20964.68    81.306569 
   25600    1515.3771   -114.48471     1.371145   -113.11357   -14231.298    4.3303826    4.3303826    4.3303826   -14231.298     -13657.4    7482.6236   -36519.118   -11280.741   -13207.856   -1089.7121     81.20426 
   25700    1665.0521   -114.61241    1.5065741   -113.10584   -3654.2618    4.3273603    4.3273603    4.3273603   -3654.2618    19356.164   -7942.3286    -22376.62    5338.1521    23232.176   -28924.935    81.034355 
   25800    1523.4902    -114.4897     1.378486   -113.11121     7376.466    4.3200748    4.3200748    4.3200748     7376.466    24827.838   -1804.9487   -893.49095    23869.739   -12755.174    25044.305    80.625757 
   25900    1031.5595   -114.06706   0.93337668   -113.13369   -13287.728      4.32487      4.32487      4.32487   -13287.728     3115.116   -1547.8178   -41430.483    5269.5963   -28889.752    7525.2217    80.894532 
   26000    1536.3797   -114.52551    1.3901486   -113.13536    3645.7627     4.322269     4.322269     4.322269    3645.7627    32986.489   -13452.279   -8596.9222   -19504.941   -3889.9443    -37022.33    80.748667 
   26100    1672.3451   -114.64718     1.513173     -113.134    16809.096    4.3219978    4.3219978    4.3219978    16809.096    33511.966   -3891.7005    20807.022   -13510.466   -2565.5455    14988.142    80.733469 
   26200    1071.9549   -114.10791   0.96992735   -113.13798    6052.8138    4.3349904    4.3349904    4.3349904    6052.8138    18832.685     17199.81   -17874.054    17052.019     -32386.7    16254.052    81.463756 
   26300    1441.7083   -114.41853    1.3044879   -113.11404    793.18329    4.3413463    4.3413463    4.3413463    793.18329    11561.635   -9703.7401    521.65479   -18403.859   -8213.8263   -15357.836    81.822604 
   26400    1432.5246   -114.40379    1.2961784   -113.10761   -1786.6696    4.3335023    4.3335023    4.3335023   -1786.6696   -18980.519   -5150.4843    18770.995    -30249.87    3374.3766   -2478.4744    81.379891 
   26500     1395.053   -114.37367    1.2622733    -113.1114    11501.744    4.3081391    4.3081391    4.3081391    11501.744    115.78687    54066.409   -19676.964    18306.469   -38742.124    17353.675    79.959329 
   26600    1136.6783   -114.16521    1.0284904   -113.13672    14344.856    4.3117381    4.3117381    4.3117381    14344.856   -12439.286    32237.948    23235.906   -25304.473   -8619.0405    19784.764    80.159889 
   26700    1369.9671   -114.37808     1.239575   -113.13851    -4732.612    4.3349424    4.3349424    4.3349424    -4732.612   -42445.883   -28902.028    57150.075   -46026.669    -169.8417   -21057.223    81.461047 
   26800    1541.4838    -114.5212     1.394767   -113.12643    4608.6629    4.3320325    4.3320325    4.3320325    4608.6629   -44603.766    31197.213    27232.542    21936.536   -8478.8575    5895.9649    81.297112 
   26900    974.22781   -114.01065    0.8815018   -113.12915   -14006.526    4.3305991    4.3305991    4.3305991   -14006.526   -51454.927    17405.101   -7969.7525   -25233.184   -14995.089    18252.735    81.216438 
   27000    1798.5208   -114.74779    1.6273394   -113.12046   -10764.114    4.3202926    4.3202926    4.3202926   -10764.114   -36556.061   -36122.301     40386.02   -35042.569    1465.4554   -5318.5435    80.637952 
   27100    1733.8125   -114.69765    1.5687899   -113.12886    9131.9806    4.3078596    4.3078596    4.3078596    9131.9806   -29091.888    21509.156    34978.673    34770.832   -8015.8022   -8847.7723     79.94377 
   27200    1088.6037   -114.13575   0.98499154   -113.15076   -10264.821    4.3238431    4.3238431    4.3238431   -10264.821   -58560.465    21827.327    5938.6748   -10695.892   -13027.884    14373.941    80.836922 
   27300    1388.4001   -114.39222    1.2562536   -113.13597   -2634.1277    4.3385982    4.3385982    4.3385982   -2634.1277    -38287.03   -25421.576    55806.224   -11521.243    -916.8836    8241.2836     81.66732 
   27400    1460.3102   -114.43902    1.3213193    -113.1177    4063.5439    4.3320153    4.3320153    4.3320153    4063.5439   -5307.6625   -23875.373    41373.667    34278.223    1457.6364    -31559.11    81.296141 
   27500    1315.7073   -114.29914    1.1904796   -113.10867    13073.192    4.3239302    4.3239302    4.3239302    13073.192   -35207.937    9319.1034     65108.41   -6729.3869   -14461.813    9537.6651     80.84181 
   27600    1617.5456   -114.57285    1.4635893   -113.10926   -15827.061    4.3292525    4.3292525    4.3292525   -15827.061   -23758.383   -18997.305   -4725.4935   -9274.2234   -20558.294    4863.9859      81.1407 
   27700    1136.2668   -114.14747    1.0281181   -113.11935   -4901.1844    4.3241279    4.3241279    4.3241279   -4901.1844   -5197.9615   -26544.235    17038.644    39294.388    5570.3664   -53540.905      80.8529 
   27800    1730.6291   -114.68501    1.5659096    -113.1191   -7097.6757    4.3289875    4.3289875    4.3289875   -7097.6757   -23683.782   -28152.808    30543.563    2675.6237   -4528.5959    995.18482    81.125802 
   27900     1532.459   -114.50347    1.3866011   -113.11687   -7538.4503    4.3389686    4.3389686    4.3389686   -7538.4503   -5316.2922   -22710.908    5411.8494    -7814.879   -12636.447    8386.7699    81.688238 
   28000    712.31899    -113.7664   0.64452119   -113.12188    5547.3784    4.3299876    4.3299876    4.3299876    5547.3784    6699.6678   -28525.132      38467.6    27991.387   -5461.8864   -53478.653     81.18204 
   28100     1490.309   -114.46422    1.3484629   -113.11576    12586.103    4.3260502    4.3260502    4.3260502    12586.103   -8321.3594   -23394.284    69473.953    5321.0431   -3384.0387    -8175.937    80.960776 
   28200    1714.5999   -114.66838    1.5514061   -113.11698    11298.533    4.3274742    4.3274742    4.3274742    11298.533    2134.8082     19276.02     12484.77   -22168.338   -17890.131   -420.85622    81.040752 
   28300    875.32984   -113.92347   0.79201683   -113.13145   -2127.5226    4.3318088    4.3318088    4.3318088   -2127.5226    5645.9806   -22845.757    10817.208    22102.921   -10069.581   -53605.408    81.284519 
   28400    1319.4535   -114.31238    1.1938692   -113.11851   -5609.5145    4.3386783    4.3386783    4.3386783   -5609.5145    -20573.37   -31017.686    34762.512    14766.104    3024.5094   -10215.764    81.671841 
   28500    1737.1093   -114.67672     1.571773   -113.10494    6861.8295    4.3310635    4.3310635    4.3310635    6861.8295    4864.1236    9919.8707    5801.4943   -29376.101   -6549.7979   -1264.5266    81.242573 
   28600    738.18773   -113.78599   0.66792777   -113.11806    2607.0002    4.3261957    4.3261957    4.3261957    2607.0002    6987.6965   -3074.5137    3907.8179    19980.659   -11547.013   -58994.899    80.968944 
   28700    1183.0042   -114.19566    1.0704071   -113.12525   -594.99251    4.3286679    4.3286679    4.3286679   -594.99251   -20918.313    9444.3576    9688.9776    36695.385   -8048.1853   -2412.4306    81.107832 
   28800    1954.0864   -114.88185    1.7680985   -113.11375    3988.0429    4.3366503    4.3366503    4.3366503    3988.0429   -16233.709    37376.714   -9178.8759   -19228.607    6330.9428   -10683.388    81.557369 
   28900     879.1301   -113.92287   0.79545539   -113.12742   -17430.596    4.3410344    4.3410344    4.3410344   -17430.596    -18467.72   -22432.152   -11391.916    20579.617    1378.4522   -62929.536    81.804966 
   29000    906.41315   -113.94195   0.82014166   -113.12181    53.024774    4.3278587    4.3278587    4.3278587    53.024774   -41211.282    21404.436     19965.92    45146.555   -17530.536   -2048.3167    81.062354 
   29100    1923.5101   -114.84724    1.7404323   -113.10681    13683.805    4.3223657    4.3223657    4.3223657    13683.805    6820.5846    22041.111    12189.718    -13942.33   -122.80467    1293.9947    80.754091 
   29200    1094.8656   -114.11866   0.99065741     -113.128   -796.23472    4.3252094    4.3252094    4.3252094   -796.23472    30817.607    -43552.95    10346.638    18021.999    6468.4797   -45414.426     80.91358 
   29300    875.32031   -113.92735   0.79200821   -113.13534   -6803.0762    4.3379324    4.3379324    4.3379324   -6803.0762   -44943.731    -32711.16    57245.663    46983.831   -13594.013   -18080.585    81.629729 
   29400    1977.1748   -114.89855    1.7889893   -113.10956   -601.10899    4.3400077    4.3400077    4.3400077   -601.10899   -25063.064   -21421.172    44680.909   -12234.362   -13562.226    2959.4903    81.746937 
   29500    1120.9257   -114.14273    1.0142371    -113.1285     20069.09    4.3161149    4.3161149    4.3161149     20069.09     32271.61   -40694.296    68629.957    23929.795    14564.599   -42821.698     80.40425 
   29600    810.57638   -113.87692   0.73342655   -113.14349   -2740.7841    4.3171325    4.3171325    4.3171325   -2740.7841   -11745.339   -33726.928    37249.914    33488.184   -15364.232   -30599.144    80.461133 
   29700    1740.2942   -114.70331    1.5746547   -113.12866   -15136.291     4.336221     4.336221     4.336221   -15136.291   -33415.194   -498.00273   -11495.676   -10661.239   -26290.115    16530.851    81.533151 
   29800    1364.4873   -114.36423    1.2346168   -113.12961   -560.54526    4.3314293    4.3314293    4.3314293   -560.54526    -15416.91   -21874.666     35609.94    23081.624    1389.9225   -14860.811    81.263156 
   29900    1040.0152    -114.0652   0.94102757   -113.12417    9298.5949    4.3270926    4.3270926    4.3270926    9298.5949    11804.185   -16037.013    32128.613    37737.065    894.62658   -45176.178    81.019315 
   30000    1939.0898   -114.86769    1.7545292   -113.11316   -5270.3492    4.3319761    4.3319761    4.3319761   -5270.3492    -28288.32    22309.309   -9832.0358   -11755.185   -17920.383    4346.4727    81.293936 
   30100    1444.9644   -114.43479    1.3074342   -113.12736   -2093.1272     4.324037     4.324037     4.324037   -2093.1272   -30917.079    8364.5504    16273.147    17513.869   -4598.4128    980.16886    80.847797 
   30200    1177.0483    -114.1983    1.0650181   -113.13328   -5435.6674    4.3255658    4.3255658    4.3255658   -5435.6674    5299.1994   -20206.274   -1399.9278    31926.574   -377.14876    -36090.88    80.933582 
   30300    1527.4563    -114.5099    1.3820746   -113.12782   -12730.909    4.3377467    4.3377467    4.3377467   -12730.909   -26302.334    -713.8735   -11176.518   -31424.864   -13416.562   -14379.651    81.619243 
   30400    1633.6617   -114.59876    1.4781715   -113.12059   -7430.4058    4.3245051    4.3245051    4.3245051   -7430.4058   -37337.586    20740.304   -5693.9348   -1669.9513   -7797.1518    4715.5508    80.874057 
   30500    1501.9373   -114.48052    1.3589844   -113.12154    19919.699    4.3151304    4.3151304    4.3151304    19919.699    28002.835    5456.1168    26300.144    35655.596    4842.2655   -15366.768    80.349241 
   30600    979.52809   -114.02243    0.8862976   -113.13613   -16290.635    4.3281292    4.3281292    4.3281292   -16290.635   -37163.152   -10188.422   -1520.3315   -37830.799   -8087.2335   -27754.926    81.077556 
   30700    1190.7124   -114.21563    1.0773816   -113.13825    986.89408    4.3240036    4.3240036    4.3240036    986.89408   -40114.797    48773.194   -5697.7146   -35744.844   -14257.509    8582.9196    80.845926 
   30800    1993.6387   -114.92635    1.8038862   -113.12247    12014.047    4.3268467    4.3268467    4.3268467    12014.047   -4393.3103    30484.064    9951.3856    15469.743    7851.8671   -11035.137    81.005501 
   30900    808.62026   -113.86208    0.7316566   -113.13043   -2050.5584    4.3386376    4.3386376    4.3386376   -2050.5584   -17339.374   -7286.1666    18473.865    -49267.19   -6972.8212   -42118.837    81.669541 
   31000    1418.0893   -114.39873     1.283117   -113.11561    1166.0284    4.3302401    4.3302401    4.3302401    1166.0284    -20897.21    766.19956    23629.095    -36351.93    8553.7708    7755.2315     81.19624 
   31100    1866.9583   -114.79159    1.6892631   -113.10233    10528.608    4.3196777    4.3196777    4.3196777    10528.608    11468.317   -1037.3552    21154.862    19342.948     2683.988   -15601.656    80.603525 
   31200    636.86827    -113.7106   0.57625179   -113.13435    11273.894    4.3230142    4.3230142    4.3230142    11273.894    34261.573   -55198.193    54758.302    -36220.18   -11036.294   -44580.328    80.790443 
   31300    1503.8962   -114.48621    1.3607569   -113.12545   -11099.993    4.3397423    4.3397423    4.3397423   -11099.993   -8596.4465   -24746.323    42.789969   -33674.603   -9071.9098    6692.4745    81.731944 
   31400    1834.8668   -114.77821    1.6602261   -113.11799    17185.028    4.3222245    4.3222245    4.3222245    17185.028     29557.55    7183.0009    14814.533    16325.746    1652.7631    8924.4496    80.746175 
   31500    1118.5806    -114.1386    1.0121153   -113.12648     22402.76    4.3123582    4.3123582    4.3123582     22402.76    43171.775   -16766.439    40802.942   -32718.556    904.55338     -36683.7    80.194479 
   31600    1185.2922   -114.20932    1.0724773   -113.13684   -27621.925    4.3364844    4.3364844    4.3364844   -27621.925   -27248.452   -51455.176   -4162.1467   -50351.074   -446.58094   -339.23216    81.548008 
   31700    1852.2842   -114.79441    1.6759856   -113.11842    12418.538    4.3245038    4.3245038    4.3245038    12418.538    37278.968    5970.0434   -5993.3987    17535.467   -1678.3448    31213.768    80.873989 
   31800    1138.4176   -114.15602    1.0300642   -113.12595    4009.4286    4.3254647    4.3254647    4.3254647    4009.4286   -5798.1522    1219.6588    16606.779   -36176.617   -978.21056   -21131.556    80.927908 
   31900    1217.3497   -114.22695    1.1014836   -113.12546   -37998.876    4.3389415    4.3389415    4.3389415   -37998.876   -51169.143   -61515.562   -1311.9217   -60837.612    6772.3031   -15421.653    81.686707 
   32000    2128.9841   -115.02829    1.9263495   -113.10194    22851.208    4.3159019    4.3159019    4.3159019    22851.208    17446.414     50185.71    921.50012    23649.919   -1385.0565    21451.652    80.392346 
   32100    1107.0863   -114.12832    1.0017149   -113.12661   -19817.643    4.3286871    4.3286871    4.3286871   -19817.643    -49839.46   -42955.809    33342.338   -51985.142    4511.8483   -2749.0044    81.108915 
   32200    1178.6368   -114.19023    1.0664553   -113.12377   -35328.265    4.3345111    4.3345111    4.3345111   -35328.265   -57530.108   -58315.462    9860.7748   -24088.292    3602.6681   -21173.578    81.436738 
   32300    1580.7499   -114.54735    1.4302957   -113.11706    31658.375    4.3110093    4.3110093    4.3110093    31658.375    9834.0388    59216.105    25924.981    42896.561   -2289.7876   -2461.6263     80.11925 
   32400    1708.0491   -114.67559    1.5454787   -113.13011    839.00628    4.3212393    4.3212393    4.3212393    839.00628   -32553.525    9237.3586    25833.185   -39354.205    2379.4041    11887.145    80.690972 
   32500    1185.5828   -114.20272    1.0727402   -113.12998   -11124.947    4.3355607    4.3355607    4.3355607   -11124.947   -38663.135   -4204.9673    9493.2601   -13413.494   -2736.2879   -8488.1815    81.495909 
   32600    791.94357   -113.84703   0.71656719   -113.13047   -3623.5034    4.3285685    4.3285685    4.3285685   -3623.5034    48.207007    -32316.64    21397.922     51551.22    -906.2453   -31351.964    81.102246 
   32700    1843.0078   -114.78597    1.6675922   -113.11837     10807.72    4.3203574    4.3203574    4.3203574     10807.72    8807.4718    27287.885   -3672.1973    -13924.58   -6187.6794    25599.977    80.641582 
   32800    1548.0315   -114.52722    1.4006914   -113.12653   -5435.5434    4.3256119    4.3256119    4.3256119   -5435.5434   -41166.062    7501.1455    17358.286      12718.8    -3471.538    3170.5426    80.936168 
   32900     736.5712   -113.80614    0.6664651   -113.13968   -1026.7614    4.3230089    4.3230089    4.3230089   -1026.7614   -5390.1325   -14016.766    16326.614    46377.673    2117.6346   -35946.126    80.790144 
   33000    1276.7213   -114.29244    1.1552043   -113.13724    2868.9671    4.3273833    4.3273833    4.3273833    2868.9671    18109.409    19946.087   -29448.595   -7569.0024   -3257.8982    11252.439    81.035647 
   33100    1461.0891   -114.44877    1.3220242   -113.12675   -12618.528    4.3366688    4.3366688    4.3366688   -12618.528   -39012.791    4873.3331   -3716.1254    9664.3428   -7042.5087    29325.113    81.558413 
   33200    1477.9462   -114.45386    1.3372768   -113.11658   -4954.3873    4.3248008    4.3248008    4.3248008   -4954.3873   -17749.726   -8390.5341    11277.098    37431.567    4782.2123   -24727.262    80.890651 
   33300    1239.5289   -114.24096    1.1215518   -113.11941   -10206.247    4.3224439    4.3224439    4.3224439   -10206.247    39702.519    -18676.11    -51645.15   -3571.5766    3010.5292   -28437.361    80.758472 
   33400    1558.8773    -114.5266    1.4105049    -113.1161   -10344.449    4.3256057    4.3256057    4.3256057   -10344.449   -1079.3658   -16729.502   -13224.479   -8663.1332    -4466.646    37812.918    80.935821 
   33500    1318.7253   -114.31675    1.1932104   -113.12354   -8081.0414     4.328183     4.328183     4.328183   -8081.0414   -18991.956   -19649.455    14398.287    18489.172    5411.5395   -17225.874     81.08058 
   33600    1084.4594   -114.11403   0.98124169   -113.13279   -16304.148    4.3262647    4.3262647    4.3262647   -16304.148    18898.127   -21639.829   -46170.743    4148.2917    7084.5111   -63264.991    80.972819 
   33700    1809.0288   -114.75943    1.6368473   -113.12258    6809.9603    4.3188357    4.3188357    4.3188357    6809.9603    16126.907     6900.454   -2597.4797   -6063.8825    4108.7561    23260.016      80.5564 
   33800    1324.1518   -114.33183    1.1981204   -113.13371   -1884.1565    4.3236043    4.3236043    4.3236043   -1884.1565   -1112.5783   -37454.393    32914.502    -7666.607   -3732.3795   -11854.799    80.823533 
   33900     582.2045   -113.67848   0.52679087   -113.15169   -18461.547    4.3281197    4.3281197    4.3281197   -18461.547     19981.55   -71803.957   -3562.2338    3266.8446   -6566.1201   -78629.166    81.077025 
   34000    2226.5535   -115.14187    2.0146324   -113.12724    4186.5779    4.3229003    4.3229003    4.3229003    4186.5779    10054.832    -20478.29    22983.192    12936.406    6840.0112     12218.67    80.784059 
   34100    1563.3408   -114.53992    1.4145436   -113.12538    8037.3531    4.3275675    4.3275675    4.3275675    8037.3531    25483.647   -10151.187    8779.5994   -14260.758   -5726.9947   -32605.129    81.045996 
   34200    873.32559   -113.91933   0.79020335   -113.12912   -18127.571    4.3353136    4.3353136    4.3353136   -18127.571    324.18524   -67108.148    12401.249    9931.3378   -22.502793   -60862.498    81.481974 
   34300    1610.6078   -114.57369    1.4573118   -113.11638   -4907.3844    4.3270313    4.3270313    4.3270313   -4907.3844   -4429.2938   -28172.573    17879.714    16708.741    1233.0591    32784.336    81.015874 
   34400    1360.0183   -114.34892    1.2305732   -113.11835    11169.394    4.3143069    4.3143069    4.3143069    11169.394    64275.179    -7269.765   -23497.232   -12726.976    -9563.646   -11088.794    80.303247 
   34500    1528.6828   -114.50881    1.3831843   -113.12563    1308.7734    4.3197375    4.3197375    4.3197375    1308.7734    20259.394   -16251.543   -81.531296    10359.966    2572.2008    -40188.56    80.606872 
   34600    1134.5605   -114.16127    1.0265742   -113.13469   -9019.7592    4.3287576    4.3287576    4.3287576   -9019.7592   -18348.743   -47255.323    38544.788    22113.625    -8921.832    19213.637    81.112878 
   34700    1307.2951   -114.32077     1.182868    -113.1379   -5003.6258    4.3236815    4.3236815    4.3236815   -5003.6258    45466.617   -36262.748   -24214.747   -11097.984    2148.3991    28294.751    80.827861 
   34800    1855.6673   -114.80318    1.6790467   -113.12413     16259.46    4.3199733    4.3199733    4.3199733     16259.46    36390.773    -6506.316    18893.924   -1337.8989    4418.8494   -11048.506    80.620074 
   34900     980.4642    -114.0228   0.88714461   -113.13566   -14189.643    4.3291968    4.3291968    4.3291968   -14189.643   -41415.607   -62473.298    61319.975    49090.163   -20557.819    4785.9721    81.137567 
   35000    955.31798   -113.99486   0.86439178   -113.13047   -16766.683     4.330594     4.330594     4.330594   -16766.683   -548.14635   -63788.782    14036.881   -20061.193    9954.3416    32038.673    81.216152 
[...]
   91200    1426.3099   -114.41581    1.2905551   -113.12526    7563.7325    4.3068633    4.3068633    4.3068633    7563.7325      20286.8    3983.1854   -1578.7878   -15281.484    13153.328   -46837.454    79.888316 
   91300    1312.2562   -114.31654     1.187357   -113.12918   -6973.4245     4.313406     4.313406     4.313406   -6973.4245     24854.41   -28576.902   -17197.781   -8675.4831    7904.8799     37692.41     80.25295 
   91400    1240.8414   -114.25355    1.1227394   -113.13081   -3238.9151    4.3120946    4.3120946    4.3120946   -3238.9151    39138.157   -40326.241   -8528.6609    7993.8742   -6448.5524    57834.548    80.179776 
   91500    1502.8288    -114.4888    1.3597911   -113.12901    5428.7813     4.313055     4.313055     4.313055    5428.7813    17120.518   -17014.327    16180.153    5003.2233     7193.604   -60668.778     80.23336 
   91600    1275.3659    -114.2875    1.1539779   -113.13352   -22821.692    4.3196803    4.3196803    4.3196803   -22821.692    7597.4152    -28974.88   -47087.612   -1930.5275    18519.374     10296.23    80.603668 
   91700    1535.4342   -114.51996    1.3892931   -113.13067    15016.822    4.3018347    4.3018347    4.3018347    15016.822    32590.379   -4843.4378    17303.524   -7037.8037    4042.0117    67076.522    79.608816 
   91800    1636.9761   -114.61599    1.4811704   -113.13482   -1974.7649    4.3094143    4.3094143    4.3094143   -1974.7649    15510.112   -13558.988   -7875.4191    6470.0764   -12233.004   -51151.088    80.030353 
   91900    1362.8266   -114.36985    1.2331142   -113.13673   -17422.856    4.3182462    4.3182462    4.3182462   -17422.856   -11017.376   -3717.7766   -37533.414    4905.2926    28294.555   -21194.076    80.523416 
   92000    1607.4035   -114.58308    1.4544125   -113.12867    6219.3981    4.3116829    4.3116829    4.3116829    6219.3981   -777.47808    20658.886   -1223.2132   -1383.7431     23814.11    45976.876    80.156811 
   92100    1470.8789   -114.45743    1.3308822   -113.12654   -15095.192    4.3194781    4.3194781    4.3194781   -15095.192   -978.04597   -25922.696   -18384.833   -14998.862   -36236.215   -23439.783    80.592353 
   92200    1192.4796   -114.20798    1.0789806     -113.129   -4840.2594    4.3125981    4.3125981    4.3125981   -4840.2594   -21559.646    14930.932   -7892.0637      3013.29    24820.776   -29877.009    80.207867 
   92300    1552.5817   -114.53037    1.4048085   -113.12556     12943.15    4.3107708    4.3107708    4.3107708     12943.15   -30526.098    49438.525    19917.024    2961.0183    45822.323    18595.395    80.105956 
   92400    1638.5753   -114.60523    1.4826174   -113.12261    -7786.324     4.319068     4.319068     4.319068    -7786.324   -21942.794   -25370.833    23954.655    -30383.76   -26635.842   -5348.0916    80.569401 
   92500    780.20748   -113.84316   0.70594812   -113.13722   -2693.6249     4.311382     4.311382     4.311382   -2693.6249   -24786.472    15913.664    791.93279   -1003.1356    21988.442   -36591.509     80.14003 
   92600    1318.1491   -114.32863     1.192689   -113.13594    1386.1764    4.3095822    4.3095822    4.3095822    1386.1764   -29829.064    50457.134   -16469.541    2674.3007    42003.916    1849.8243     80.03971 
   92700    1643.1388    -114.6137    1.4867465   -113.12695   -5514.7431    4.3166493    4.3166493    4.3166493   -5514.7431   -10081.558   -28983.103    22520.432   -32625.597   -14623.019     18700.87    80.434115 
   92800     1079.116   -114.11054   0.97640682   -113.13413   -12524.776    4.3162501    4.3162501    4.3162501   -12524.776   -12245.055     -12716.1   -12613.174   -15080.967    19645.925   -21280.877    80.411806 
   92900     1421.593    -114.4156    1.2862872   -113.12932    1094.0049    4.3127059    4.3127059    4.3127059    1094.0049    2120.6425    38223.162    -37061.79    13849.638    36621.614   -15278.102    80.213882 
   93000     1303.392   -114.30602    1.1793365   -113.12668     3428.427    4.3141411    4.3141411    4.3141411     3428.427    32959.262   -37417.536    14743.555   -17652.803   -8798.0111     34885.92    80.293991 
   93100    1040.5805   -114.07131   0.94153914   -113.12977   -1813.5163    4.3186482    4.3186482    4.3186482   -1813.5163     6024.683   -15440.139     3974.907    -29600.87    13900.935    20318.056    80.545911 
   93200    1917.8259   -114.85009    1.7352892   -113.11481    10316.816    4.3205767    4.3205767    4.3205767    10316.816    5898.6457     43831.14   -18779.337    11424.746      23868.4   -12073.279    80.653859 
   93300    1226.0223   -114.23516    1.1093308   -113.12583   -2948.5533    4.3175624    4.3175624    4.3175624   -2948.5533    29880.751   -23448.326   -15278.085    -19172.29   -8103.9474    34759.922     80.48517 
   93400    729.00983   -113.79808   0.65962341   -113.13846   -3860.7908    4.3095381    4.3095381    4.3095381   -3860.7908   -4071.4109   -9782.1136    2271.1521   -26571.969    7439.4992    33694.517    80.037253 
   93500    1822.6824   -114.77768    1.6492013   -113.12848    6568.9862    4.3122083    4.3122083    4.3122083    6568.9862    3986.7552     30843.87   -15123.667    8370.9553    25455.137   -13719.846     80.18612 
   93600    1296.5614    -114.3097     1.173156   -113.13654   -5814.5291    4.3186228    4.3186228    4.3186228   -5814.5291    22133.608   -6906.2115   -32670.983     -1413.11   -4577.8207   -7913.2736    80.544488 
   93700    898.96272   -113.95343   0.81340036   -113.14003   -4989.8803    4.3178337    4.3178337    4.3178337   -4989.8803    11614.269   -20994.374   -5589.5358   -32558.902   -10064.845    39872.261    80.500341 
   93800    1937.3077   -114.87015    1.7529168   -113.11723    -1138.942    4.3197885    4.3197885    4.3197885    -1138.942    3455.1538   -839.75734   -6032.2224   -3159.5572    5121.9446   -13746.037    80.609728 
   93900    1174.2417   -114.18809    1.0624785   -113.12562   -11088.039    4.3174758    4.3174758    4.3174758   -11088.039     38951.25   -40070.255   -32145.111    4161.5773    624.41079   -52226.573    80.480328 
   94000    1276.0568    -114.2749     1.154603    -113.1203    8128.4645    4.3100154    4.3100154    4.3100154    8128.4645    9893.7524    10916.754    3574.8871    -30335.37   -11321.005    44072.886    80.063848 
   94100    1534.1359   -114.50831    1.3881184   -113.12019    2065.2278    4.3142354    4.3142354    4.3142354    2065.2278     13725.39   -8714.9341    1185.2272    744.81305   -7758.5899   -9654.7604    80.299253 
   94200     1409.169    -114.3999    1.2750457   -113.12486    6640.2708    4.3112342    4.3112342    4.3112342    6640.2708    36084.396   -2372.5666   -13791.017    13024.146   -1537.9281   -62526.164    80.131793 
   94300    1322.5862   -114.32329    1.1967038   -113.12659    2264.5475    4.3175277    4.3175277    4.3175277    2264.5475    532.09464    1132.7663    5128.7816   -35551.807    2122.4935    29289.409    80.483228 
   94400    1395.6339    -114.3868    1.2627989     -113.124    -16210.63    4.3218332    4.3218332    4.3218332    -16210.63     -17330.8   -23997.242   -7303.8492   -1974.2181   -15063.594    1715.6289     80.72425 
   94500    1578.0313   -114.54972    1.4278359   -113.12188    5751.2262    4.3057021    4.3057021    4.3057021    5751.2262    24857.331   -5487.0414   -2116.6114    16945.147   -11683.602   -46107.838    79.823716 
   94600    1469.5966   -114.45713    1.3297218   -113.12741   -4956.0818    4.3093977    4.3093977    4.3093977   -4956.0818   -5720.8141   -17477.459    8330.0279    -31822.11    27845.679     13999.97    80.029433 
   94700    1244.5112   -114.25946    1.1260599    -113.1334   -16021.334    4.3177912    4.3177912    4.3177912   -16021.334   -28673.846   -13898.567   -5491.5887   -7484.7385   -14233.841    15769.787    80.497969 
   94800    1913.5254   -114.84858     1.731398   -113.11718   -5773.3547    4.3188238    4.3188238    4.3188238   -5773.3547   -3753.1765     9023.357   -22590.245    10241.701    -29336.72   -22002.939    80.555734 
   94900    1261.6051   -114.26298    1.1415268   -113.12145   -17991.674    4.3240253    4.3240253    4.3240253   -17991.674   -32007.032   -4978.1741   -16989.816   -34200.688    51640.432   -3802.2524    80.847143 
   95000    1254.4136   -114.25516    1.1350198   -113.12014   -13070.857    4.3149106    4.3149106    4.3149106   -13070.857   -33767.779    9005.3424   -14450.135   -13306.607   -5469.3695    17745.357    80.336965 
   95100    1960.3816   -114.88507    1.7737945   -113.11127    12833.478    4.3055805    4.3055805    4.3055805    12833.478   -1790.0298     51385.13   -11094.668    17245.979   -39258.043   -3546.4714     79.81695 
   95200    1311.7792   -114.31395    1.1869254   -113.12702   -17970.409     4.315686     4.315686     4.315686   -17970.409   -51576.696    25280.015   -27614.545   -17779.698    63253.249   -356.09095    80.380283 
   95300    1079.1243   -114.10967   0.97641435   -113.13326   -9034.2267    4.3167624    4.3167624    4.3167624   -9034.2267   -48009.156    29865.138   -8958.6619   -22253.122    9973.8183    10179.828     80.44044 
   95400    1659.5311   -114.62262    1.5015786   -113.12105    4627.7194     4.314276     4.314276     4.314276    4627.7194   -15181.144    37076.525   -8012.2233    19112.468   -27685.953   -3625.3218    80.301519 
   95500    1094.3952   -114.11674   0.99023181   -113.12651     -15236.5    4.3157315    4.3157315    4.3157315     -15236.5   -56123.135    42567.914   -32154.281   -7995.3259    76263.591   -3887.1877    80.382821 
   95600    1543.9271   -114.51894    1.3969777   -113.12196    2844.7406    4.3091406    4.3091406    4.3091406    2844.7406   -31995.509    31134.995    9394.7358   -13782.837    10672.377    -1433.376    80.015106 
   95700    1317.0412    -114.3186    1.1916865   -113.12691    175.45176    4.3136169    4.3136169    4.3136169    175.45176   -23305.548    25976.943   -2145.0397    9901.3214   -10607.907    13398.944    80.264723 
   95800    637.76456   -113.71632   0.57706277   -113.13926   -16785.238    4.3206991    4.3206991    4.3206991   -16785.238   -79943.309    43779.594       -14192    9379.7146    81460.862   -3205.0021    80.660715 
   95900    2115.7848   -115.03039    1.9144066   -113.11598    13407.797    4.3140588    4.3140588    4.3140588    13407.797    -11074.47    13090.334    38207.528    231.25687   -244.03609   -6816.3407    80.289395 
   96000    1389.7941   -114.38723    1.2575149   -113.12972   -6722.8462    4.3152278    4.3152278    4.3152278   -6722.8462   -21018.326    17176.454   -16326.667   -7112.4291    19359.272    28507.546    80.354683 
   96100    643.78587   -113.72248   0.58251098   -113.13997   -13884.636    4.3155317    4.3155317    4.3155317   -13884.636    -74443.46    48137.883   -15348.331    12109.944    71814.712   -837.10488     80.37166 
   96200    2035.5689   -114.96038    1.8418255   -113.11856    6964.2776    4.3145004    4.3145004    4.3145004    6964.2776   -22330.796    4023.4362    39200.193    14466.418   -15474.705   -5481.5681    80.314055 
   96300    1269.6256   -114.27984     1.148784   -113.13106   -16404.839    4.3168783    4.3168783    4.3168783   -16404.839    -29424.61    11184.631   -30974.537   -4066.5174    36166.464    26263.721     80.44692 
   96400    916.16988   -113.96879   0.82896976   -113.13983   -8393.5171    4.3114488    4.3114488    4.3114488   -8393.5171   -33773.826    46582.904   -37989.629   -7365.6669    67665.787    18447.652    80.143755 
   96500     2357.624   -115.25068    2.1332278   -113.11746    14441.195    4.3131125    4.3131125    4.3131125    14441.195    4119.3562    14354.006    24850.222    6844.9396   -21506.743   -7611.7585    80.236573 
   96600    1053.1138   -114.09279   0.95287953   -113.13991   -11877.087      4.31968      4.31968      4.31968   -11877.087   -47825.518    30921.022   -18726.765     769.5719    53132.708    8489.6726    80.603655 
   96700    701.74989   -113.78166   0.63495804    -113.1467   -10190.211    4.3155687    4.3155687    4.3155687   -10190.211   -35054.499    25621.798   -21137.933   -6356.5439    52832.425    24671.867    80.373724 
   96800    2432.7116   -115.32125    2.2011685   -113.12008    13144.534    4.3151183    4.3151183    4.3151183    13144.534    8076.1694    7229.5673    24127.866    7868.4535   -22858.771   -12982.061    80.348566 
   96900    1318.0912   -114.32856    1.1926366   -113.13592   -3683.6848    4.3163036    4.3163036    4.3163036   -3683.6848   -50014.429    55150.385    -16187.01   -5115.8499     67976.62     3283.057    80.414796 
   97000    1070.6597    -114.1031   0.96875542   -113.13434   -6259.9894    4.3174481    4.3174481    4.3174481   -6259.9894   -18263.657    27054.337   -27570.649   -2745.5682     31168.16    21648.431    80.478781 
   97100    1994.9891   -114.91432    1.8051081   -113.10921   -7166.9784    4.3214716    4.3214716    4.3214716   -7166.9784   -19925.088   -19818.976    18243.128   -3921.2203    -12642.83    9507.5513    80.703985 
   97200    1247.8559   -114.25063    1.1290862   -113.12154   -8668.1476    4.3132694    4.3132694    4.3132694   -8668.1476   -45259.317    36657.903    -17403.03    8354.7614    71394.607   -7462.2159    80.245325 
   97300    1375.6554   -114.36726    1.2447219   -113.12254    6904.1166    4.3057206    4.3057206    4.3057206    6904.1166   -53.311024    41954.121    -21188.46   -2363.6394    4196.7731    25805.209    79.824743 
   97400    1697.9816     -114.656    1.5363695   -113.11963   -5145.2859    4.3167242    4.3167242    4.3167242   -5145.2859    832.08368   -22010.866     5742.925   -5244.3212   -17191.397     24101.04    80.438302 
   97500    1269.7582   -114.27494    1.1489039   -113.12603   -11588.175    4.3198113    4.3198113    4.3198113   -11588.175   -33405.238    16265.842   -17625.127    6534.0914    58493.396   -24133.837    80.611003 
   97600    1159.5707   -114.17347    1.0492039   -113.12427    2905.6049    4.3124964    4.3124964    4.3124964    2905.6049    5836.2775    15685.615   -12805.078   -5072.6737    270.61552    36232.304    80.202189 
   97700    1370.6667   -114.36189     1.240208   -113.12168   -2829.4409    4.3156314    4.3156314    4.3156314   -2829.4409    16644.398   -11539.382   -13593.339    5432.4586   -29795.651    34926.909    80.377232 
   97800    1574.3935   -114.54494    1.4245443   -113.12039    2781.1795    4.3117281    4.3117281    4.3117281    2781.1795    4684.5524    21984.606    -18325.62    1398.8871    32706.513   -38619.944    80.159334 
   97900    1001.6947   -114.03557    0.9063544   -113.12921     5773.854     4.310624     4.310624     4.310624     5773.854    27498.384    1542.3262   -11719.148   -1355.2929    16580.269     43866.45    80.097771 
   98000    1344.6126   -114.34551    1.2166337   -113.12887   -13598.265    4.3223387    4.3223387    4.3223387   -13598.265     14542.13   -13605.767   -41731.159    7610.5387   -24452.232    43239.414    80.752579 
   98100    1931.8457   -114.86467    1.7479746   -113.11669    12610.327    4.3120404    4.3120404    4.3120404    12610.327    9876.5596    44156.737   -16202.316   -4590.0046    16162.034   -36460.503     80.17675 
   98200    812.56968   -113.87281   0.73523013   -113.13758    -2613.191    4.3067726    4.3067726    4.3067726    -2613.191    39098.389    4959.6014   -51897.563    4368.6932     20343.34    59233.529    79.883266 
   98300    1501.5894   -114.49237    1.3586697    -113.1337   -15415.136    4.3189974    4.3189974    4.3189974   -15415.136    7568.9829   -25076.576   -28737.814    308.89053   -9653.3308    38568.808    80.565448 
   98400    2164.4737   -115.07616    1.9584613    -113.1177    13044.885     4.314834     4.314834     4.314834    13044.885   -20090.095    47836.338    11388.412   -11172.352     5230.992   -18341.678    80.332682 
   98500    804.24839    -113.8678   0.72770084    -113.1401   -13224.176    4.3147602    4.3147602    4.3147602   -13224.176    24415.977   -10167.498   -53921.006    2704.1282    19567.181    76130.417    80.328563 
   98600    1650.3456   -114.62907    1.4932674    -113.1358   -2963.5466    4.3102871    4.3102871    4.3102871   -2963.5466    12854.678    7188.1046   -28933.423    2110.7377    7466.1963    10330.644     80.07899 
   98700    2214.6485   -115.13032    2.0038605   -113.12646    14783.553    4.3077887    4.3077887    4.3077887    14783.553   -8048.7934    18681.939    33717.514   -412.63041    -5287.201   -18532.961    79.939823 
   98800    658.22051   -113.74833   0.59557175   -113.15276   -23567.451    4.3211667    4.3211667    4.3211667   -23567.451   -9503.9041   -21642.314   -39556.135   -1304.1386    15697.749    79912.811    80.686904 
   98900    1389.8569   -114.39803    1.2575718   -113.14046    3667.9532    4.3177867    4.3177867    4.3177867    3667.9532   -22904.945    32509.736    1399.0688    2611.4745     13862.63    7503.5746    80.497713 
   99000    2206.5641   -115.11323    1.9965456   -113.11668    11772.675    4.3142153    4.3142153    4.3142153    11772.675    3456.4537   -1188.8175    33050.387    2743.2687   -10734.561    2952.0098    80.298133 
   99100    767.13377   -113.83182   0.69411876    -113.1377   -6811.6465    4.3162122    4.3162122    4.3162122   -6811.6465    17001.297   -1985.6461    -35450.59   -5009.7627    12357.484    76186.705    80.409684 
   99200    1403.8576   -114.39196    1.2702398   -113.12172   -2370.6593    4.3146916    4.3146916    4.3146916   -2370.6593   -40611.882    29621.101    3878.8028    4754.3936    18077.964   -7855.5406    80.324728 
   99300    1433.8201   -114.41809    1.2973506   -113.12074    6.8992686    4.3140123    4.3140123    4.3140123    6.8992686   -18655.801    3097.9605    15578.539    20598.953   -13885.423    14864.116    80.286798 
   99400    999.14391   -114.03367   0.90404641   -113.12962   -4968.7179    4.3150049    4.3150049    4.3150049   -4968.7179    27970.296   -13738.349   -29138.101   -5412.6877     5591.046    66992.505    80.342228 
   99500     1670.944   -114.62715    1.5119053   -113.11525   -9307.6064    4.3194882    4.3194882    4.3194882   -9307.6064   -44019.595    34483.307   -18386.531   -701.75315    20061.554   -10754.489     80.59292 
   99600    1097.7487   -114.11513    0.9932661   -113.12186   -10232.624    4.3174491    4.3174491    4.3174491   -10232.624   -20056.711    6202.2329   -16843.394    13317.214   -1858.9977    25949.963    80.478834 
   99700    847.99668   -113.89462   0.76728521   -113.12733     2168.549    4.3122191    4.3122191    4.3122191     2168.549    11534.471   -11488.255    6459.4313    959.49534   -14138.216    69847.388    80.186723 
   99800    2032.9846   -114.95383    1.8394872   -113.11434    6834.4612    4.3143188    4.3143188    4.3143188    6834.4612   -28018.177    18650.954    29870.606   -13177.159    7509.0223   -20512.567    80.303912 
   99900    1058.1071   -114.09649   0.95739753    -113.1391    -1959.648    4.3129505    4.3129505    4.3129505    -1959.648     9235.632   -9341.9594   -5772.6165   -2606.9655    11268.791    47711.687    80.227528 
  100000    595.18169   -113.68381    0.5385329   -113.14528   -8436.5324    4.3159654    4.3159654    4.3159654   -8436.5324    7210.6384   -20815.946    -11704.29    10416.909   -6662.0404    60662.787    80.395892 
Loop time of 22.6711 on 1 procs for 100000 steps with 8 atoms

Pair  time (%) = 7.22703 (31.8777)
Kspce time (%) = 5.36843 (23.6796)
Neigh time (%) = 0.164384 (0.72508)
Comm  time (%) = 1.13021 (4.98522)
Outpt time (%) = 0.0249772 (0.110172)
Other time (%) = 8.75608 (38.6222)

Nlocal:    8 ave 8 max 8 min
Histogram: 1 0 0 0 0 0 0 0 0 0
Nghost:    2189 ave 2189 max 2189 min
Histogram: 1 0 0 0 0 0 0 0 0 0
Neighs:    2205 ave 2205 max 2205 min
Histogram: 1 0 0 0 0 0 0 0 0 0

Total # of neighbors = 2205
Ave neighs/atom = 275.625
Neighbor list builds = 1874
Dangerous builds = 0
seeds:275458
