# ['Ni']

28 atoms
1 atom types

    0.0000     2.4710 xlo xhi
    0.0000     4.2799 ylo yhi
    0.0000    28.2460 zlo zhi

    0.0000     0.0000     0.0000 xy xz yz

Atoms

1 1     0.0000     0.0000     0.0000
2 1     1.2355     2.1400     0.0000
3 1     1.2355     0.7133     2.0176
4 1     0.0000     2.8533     2.0176
5 1     0.0000     1.4266     4.0351
6 1     1.2355     3.5666     4.0351
7 1     0.0000     0.0000     6.0527
8 1     1.2355     2.1400     6.0527
9 1     1.2355     0.7133     8.0703
10 1     0.0000     2.8533     8.0703
11 1     0.0000     1.4266    10.0878
12 1     1.2355     3.5666    10.0878
13 1     0.0000     0.0000    12.1054
14 1     1.2355     2.1400    12.1054
15 1     0.0000     1.4266    14.1230
16 1     1.2355     3.5666    14.1230
17 1     0.0000     0.0000    16.1406
18 1     1.2355     2.1400    16.1406
19 1     1.2355     0.7133    18.1581
20 1     0.0000     2.8533    18.1581
21 1     0.0000     1.4266    20.1757
22 1     1.2355     3.5666    20.1757
23 1     0.0000     0.0000    22.1933
24 1     1.2355     2.1400    22.1933
25 1     1.2355     0.7133    24.2108
26 1     0.0000     2.8533    24.2108
27 1     0.0000     1.4266    26.2284
28 1     1.2355     3.5666    26.2284
