LAMMPS (11 Aug 2017)
Reading data file ...
  triclinic box = (0 0 0) to (3.5167 3.5167 3.5167) with tilt (0 -0 0)
  1 by 1 by 1 MPI processor grid
  reading atoms ...
  4 atoms
4 atoms in group Ni
Neighbor list info ...
  update every 1 steps, delay 0 steps, check yes
  max neighbors/atom: 2000, page size: 100000
  master list distance cutoff = 11
  ghost atom cutoff = 11
  binsize = 5.5, bins = 1 1 1
  1 neighbor lists, perpetual/occasional/extra = 1 0 0
  (1) pair eam/alloy, perpetual
      attributes: half, newton on
      pair build: half/bin/newton/tri
      stencil: half/bin/3d/newton/tri
      bin: standard
Setting up cg style minimization ...
  Unit style    : metal
  Current step  : 0
WARNING: Energy due to 3 extra global DOFs will be included in minimizer energies
Per MPI rank memory allocation (min/avg/max) = 4.182 | 4.182 | 4.182 Mbytes
Step Temp PotEng Press Pxx Pyy Pzz Pxy Pxz Pyz Lx Ly Lz Volume 
       0            0   -19.224685   -28649.238   -28649.238   -28649.238   -28649.238 1.8327996e-11 9.558711e-11 9.6529708e-11       3.5167       3.5167       3.5167    43.491658 
       1            0   -19.224917    -28131.63    -28131.63    -28131.63    -28131.63 -2.3783279e-10 -1.1006689e-10 -1.2989861e-10    3.5163483    3.5163483    3.5163483    43.478612 
       2            0   -19.225144   -27613.656   -27613.656   -27613.656   -27613.656 1.1299155e-10 -8.7553156e-11 -3.0413796e-11    3.5159967    3.5159967    3.5159967    43.465568 
       3            0   -19.225366   -27095.317   -27095.317   -27095.317   -27095.317 5.5117079e-11 4.4298043e-11 1.7804318e-11     3.515645     3.515645     3.515645    43.452527 
       4            0   -19.225585   -26576.614   -26576.614   -26576.614   -26576.614 4.3499446e-12 -6.0106826e-11 -2.0042274e-11    3.5152933    3.5152933    3.5152933    43.439489 
       5            0   -19.225799   -26057.546   -26057.546   -26057.546   -26057.546 -8.3605646e-11 -7.3686315e-11 -8.6406499e-11    3.5149417    3.5149417    3.5149417    43.426453 
       6            0   -19.226009   -25538.258   -25538.258   -25538.258   -25538.258 2.716367e-11 1.4487357e-10 1.5728573e-10      3.51459      3.51459      3.51459     43.41342 
       7            0   -19.226214   -25018.004   -25018.004   -25018.004   -25018.004 -9.6615883e-11 -2.7689394e-10 -2.7809167e-10    3.5142383    3.5142383    3.5142383    43.400389 
       8            0   -19.226415   -24496.589   -24496.589   -24496.589   -24496.589 1.2192933e-10 7.9962886e-11 4.373425e-11    3.5138866    3.5138866    3.5138866    43.387362 
       9            0   -19.226612   -23974.012   -23974.012   -23974.012   -23974.012 -1.1838929e-10 -1.135837e-10 -1.2496753e-10     3.513535     3.513535     3.513535    43.374336 
      10            0   -19.226805   -23450.271   -23450.271   -23450.271   -23450.271 -8.7098968e-11 -1.1501694e-10 -1.0214444e-10    3.5131833    3.5131833    3.5131833    43.361313 
      11            0   -19.226994   -22925.362   -22925.362   -22925.362   -22925.362 -1.2296033e-10 1.8229824e-11 2.8779714e-12    3.5128316    3.5128316    3.5128316    43.348293 
      12            0   -19.227178   -22399.283   -22399.283   -22399.283   -22399.283 1.5401127e-10 -3.2841177e-11 -2.7415457e-12      3.51248      3.51248      3.51248    43.335276 
      13            0   -19.227358   -21872.034   -21872.034   -21872.034   -21872.034 2.8898753e-11 1.005304e-10 1.1229279e-10    3.5121283    3.5121283    3.5121283    43.322261 
      14            0   -19.227533    -21343.61    -21343.61    -21343.61    -21343.61 -5.9606232e-11 -2.2297501e-11 -7.349617e-11    3.5117766    3.5117766    3.5117766    43.309249 
      15            0   -19.227704   -20814.009   -20814.009   -20814.009   -20814.009 -9.9919988e-11 -4.5890263e-11 -6.6231048e-11     3.511425     3.511425     3.511425    43.296239 
      16            0   -19.227871    -20283.23    -20283.23    -20283.23    -20283.23 -1.5743882e-10 -2.8087312e-10 -1.4972872e-10    3.5110733    3.5110733    3.5110733    43.283232 
      17            0   -19.228034    -19751.27    -19751.27    -19751.27    -19751.27 -4.1025053e-11 -1.0383153e-10 -1.5030012e-10    3.5107216    3.5107216    3.5107216    43.270227 
      18            0   -19.228192   -19218.127   -19218.127   -19218.127   -19218.127 -4.2312371e-11 9.7798266e-11 6.2412362e-11    3.5103699    3.5103699    3.5103699    43.257226 
      19            0   -19.228345   -18683.797   -18683.797   -18683.797   -18683.797 4.7541303e-11 6.0957167e-11 4.7961196e-11    3.5100183    3.5100183    3.5100183    43.244226 
      20            0   -19.228495    -18148.28    -18148.28    -18148.28    -18148.28 1.6415407e-11 5.1004274e-11 6.3106353e-11    3.5096666    3.5096666    3.5096666     43.23123 
      21            0    -19.22864   -17611.572   -17611.572   -17611.572   -17611.572 -2.2378998e-11 -4.4978054e-11 -1.1629201e-10    3.5093149    3.5093149    3.5093149    43.218236 
      22            0    -19.22878   -17073.672   -17073.672   -17073.672   -17073.672 -2.9895338e-11 -9.7148761e-11 -5.1670949e-11    3.5089633    3.5089633    3.5089633    43.205244 
      23            0   -19.228917   -16534.576   -16534.576   -16534.576   -16534.576 3.3802909e-11 2.5228922e-12 3.7675475e-11    3.5086116    3.5086116    3.5086116    43.192255 
      24            0   -19.229049   -15994.283   -15994.283   -15994.283   -15994.283 3.5983838e-11 6.3653733e-11 4.4172818e-11    3.5082599    3.5082599    3.5082599    43.179269 
      25            0   -19.229176    -15452.79    -15452.79    -15452.79    -15452.79 9.377899e-11 6.6690501e-11 2.2142725e-11    3.5079083    3.5079083    3.5079083    43.166285 
      26            0   -19.229299   -14910.095   -14910.095   -14910.095   -14910.095 -5.2231155e-11 6.0991759e-11 1.4154484e-11    3.5075566    3.5075566    3.5075566    43.153304 
      27            0   -19.229418   -14366.195   -14366.195   -14366.195   -14366.195 -1.9080428e-11 -2.3276448e-11 2.8041411e-11    3.5072049    3.5072049    3.5072049    43.140326 
      28            0   -19.229532   -13821.088   -13821.088   -13821.088   -13821.088 -1.2444617e-10 -7.9030715e-11 -9.673944e-11    3.5068532    3.5068532    3.5068532     43.12735 
      29            0   -19.229641   -13274.772   -13274.772   -13274.772   -13274.772 4.9402229e-11 5.269645e-11 7.1349515e-11    3.5065016    3.5065016    3.5065016    43.114377 
      30            0   -19.229747   -12727.244   -12727.244   -12727.244   -12727.244 -9.9855728e-12 -1.2731478e-10 -9.2445028e-11    3.5061499    3.5061499    3.5061499    43.101406 
      31            0   -19.229847   -12178.502   -12178.502   -12178.502   -12178.502 -6.830111e-11 -7.2702431e-11 -1.0664411e-11    3.5057982    3.5057982    3.5057982    43.088438 
      32            0   -19.229944   -11628.531   -11628.531   -11628.531   -11628.531 -1.6127407e-10 -1.0485672e-10 -6.7653004e-11    3.5054466    3.5054466    3.5054466    43.075473 
      33            0   -19.230036   -11077.843   -11077.843   -11077.843   -11077.843 2.8756745e-10 3.0936689e-10 3.2124864e-10    3.5050949    3.5050949    3.5050949     43.06251 
      34            0   -19.230123   -10526.855   -10526.855   -10526.855   -10526.855 -2.5547723e-11 2.1243151e-10 1.6461079e-10    3.5047432    3.5047432    3.5047432     43.04955 
      35            0   -19.230206   -9975.5692   -9975.5692   -9975.5692   -9975.5692 4.5996152e-11 3.4118034e-11 6.1632943e-11    3.5043916    3.5043916    3.5043916    43.036592 
      36            0   -19.230284   -9423.9858   -9423.9858   -9423.9858   -9423.9858 1.9390705e-11 2.1995264e-10 1.8813581e-10    3.5040399    3.5040399    3.5040399    43.023637 
      37            0   -19.230358    -8872.106    -8872.106    -8872.106    -8872.106 -1.0592055e-10 -3.217584e-10 -3.6191292e-10    3.5036882    3.5036882    3.5036882    43.010685 
      38            0   -19.230428   -8319.9306   -8319.9306   -8319.9306   -8319.9306 -2.7176559e-11 -1.4123509e-10 -1.4009734e-10    3.5033365    3.5033365    3.5033365    42.997735 
      39            0   -19.230493   -7767.4606   -7767.4606   -7767.4606   -7767.4606 4.503759e-10 4.6376002e-10 4.6636203e-10    3.5029849    3.5029849    3.5029849    42.984788 
      40            0   -19.230553    -7214.697    -7214.697    -7214.697    -7214.697 3.1081699e-11 -5.4842403e-12 -6.2167945e-11    3.5026332    3.5026332    3.5026332    42.971843 
      41            0   -19.230609    -6661.641    -6661.641    -6661.641    -6661.641 -6.6066123e-11 8.7296125e-12 -1.8790831e-11    3.5022815    3.5022815    3.5022815    42.958901 
      42            0   -19.230661   -6108.2934   -6108.2934   -6108.2934   -6108.2934 1.0954487e-11 1.0023928e-10 8.0129741e-11    3.5019299    3.5019299    3.5019299    42.945961 
      43            0   -19.230708    -5554.655    -5554.655    -5554.655    -5554.655 -5.0720532e-11 7.3580098e-11 -2.6733135e-11    3.5015782    3.5015782    3.5015782    42.933025 
      44            0   -19.230751    -5000.727    -5000.727    -5000.727    -5000.727 -5.680726e-11 -1.9917528e-11 2.2158439e-11    3.5012265    3.5012265    3.5012265     42.92009 
      45            0   -19.230789   -4446.5106   -4446.5106   -4446.5106   -4446.5106 5.1242681e-11 -1.2147357e-10 -9.3202347e-11    3.5008749    3.5008749    3.5008749    42.907159 
      46            0   -19.230822   -3892.0066   -3892.0066   -3892.0066   -3892.0066 -5.2188985e-11 5.8672412e-12 -5.3944399e-12    3.5005232    3.5005232    3.5005232     42.89423 
      47            0   -19.230852   -3337.2158   -3337.2158   -3337.2158   -3337.2158 7.3286669e-12 7.3739231e-12 -8.6692018e-12    3.5001715    3.5001715    3.5001715    42.881303 
      48            0   -19.230876   -2782.1395   -2782.1395   -2782.1395   -2782.1395 -6.1548653e-11 -9.9797169e-11 -5.6881547e-11    3.4998198    3.4998198    3.4998198    42.868379 
      49            0   -19.230896   -2226.7788   -2226.7788   -2226.7788   -2226.7788 6.0347784e-11 -4.4610196e-11 -5.4451485e-11    3.4994682    3.4994682    3.4994682    42.855458 
      50            0   -19.230912   -1671.1347   -1671.1347   -1671.1347   -1671.1347 -1.3973133e-10 -2.4877357e-10 -1.2576458e-10    3.4991165    3.4991165    3.4991165     42.84254 
      51            0   -19.230923   -1115.2078   -1115.2078   -1115.2078   -1115.2078 -4.9679603e-11 1.1406021e-10 -9.5452458e-11    3.4987648    3.4987648    3.4987648    42.829624 
      52            0    -19.23093   -558.99964   -558.99964   -558.99964   -558.99964 -5.2322015e-11 -7.2318441e-11 1.9369819e-10    3.4984132    3.4984132    3.4984132     42.81671 
      53            0   -19.230932   -2.5114268   -2.5114268   -2.5114268   -2.5114268 7.8782529e-11 1.1569804e-11 -9.7630987e-11    3.4980615    3.4980615    3.4980615    42.803799 
      54            0   -19.230932    9.6200167    9.6200167    9.6200167    9.6200167 -2.6157086e-11 -1.0273871e-10 -4.7965479e-11    3.4980538    3.4980538    3.4980538    42.803518 
      55            0   -19.230932 -0.0096429799 -0.0096429801 -0.0096429795  -0.00964298 2.3171751e-10 5.6589266e-11 3.1251754e-10    3.4980599    3.4980599    3.4980599    42.803741 
      56            0   -19.230932 -0.0011316374 -0.0011316373 -0.0011316376 -0.0011316373 -2.3553708e-12 4.7569702e-10 1.3502841e-10    3.4980599    3.4980599    3.4980599    42.803741 
      57            0   -19.230932 1.2137083e-05 1.2137079e-05 1.2137046e-05 1.2137124e-05 1.9114838e-10 7.7538973e-11 7.6479515e-11    3.4980599    3.4980599    3.4980599    42.803741 
      58            0   -19.230932 -4.9041678e-10 -4.1334637e-10 -5.9367761e-10 -4.6422637e-10 3.7474143e-12 3.6002317e-10 2.1453868e-10    3.4980599    3.4980599    3.4980599    42.803741 
Loop time of 0.00676799 on 1 procs for 58 steps with 4 atoms

100.0% CPU use with 1 MPI tasks x no OpenMP threads

Minimization stats:
  Stopping criterion = force tolerance
  Energy initial, next-to-last, final = 
        -19.2246854426     -19.2309324684     -19.2309324684
  Force two-norm initial, final = 1.34701 2.49115e-14
  Force max component initial, final = 0.777694 1.59452e-14
  Final line search alpha, max atom move = 1 1.59452e-14
  Iterations, force evaluations = 58 63

MPI task timing breakdown:
Section |  min time  |  avg time  |  max time  |%varavg| %total
---------------------------------------------------------------
Pair    | 0.0043049  | 0.0043049  | 0.0043049  |   0.0 | 63.61
Neigh   | 0          | 0          | 0          |   0.0 |  0.00
Comm    | 0.00048828 | 0.00048828 | 0.00048828 |   0.0 |  7.21
Output  | 0.00046563 | 0.00046563 | 0.00046563 |   0.0 |  6.88
Modify  | 0          | 0          | 0          |   0.0 |  0.00
Other   |            | 0.001509   |            |       | 22.30

Nlocal:    4 ave 4 max 4 min
Histogram: 1 0 0 0 0 0 0 0 0 0
Nghost:    1684 ave 1684 max 1684 min
Histogram: 1 0 0 0 0 0 0 0 0 0
Neighs:    1060 ave 1060 max 1060 min
Histogram: 1 0 0 0 0 0 0 0 0 0

Total # of neighbors = 1060
Ave neighs/atom = 265
Neighbor list builds = 0
Dangerous builds = 0
System init for write_restart ...
Reading restart file ...
  restart file = 11 Aug 2017, LAMMPS = 11 Aug 2017
  triclinic box = (0.00932005 0.00932005 0.00932005) to (3.50738 3.50738 3.50738) with tilt (0 -0 0)
  1 by 1 by 1 MPI processor grid
  4 atoms
4 atoms in group Ni
Changing box ...
  triclinic box = (0.00932005 0.00932005 0.00932005) to (3.50738 3.50738 3.50738) with tilt (0 -0 0)
Neighbor list info ...
  update every 1 steps, delay 0 steps, check yes
  max neighbors/atom: 2000, page size: 100000
  master list distance cutoff = 11
  ghost atom cutoff = 11
  binsize = 5.5, bins = 1 1 1
  1 neighbor lists, perpetual/occasional/extra = 1 0 0
  (1) pair eam/alloy, perpetual
      attributes: half, newton on
      pair build: half/bin/newton/tri
      stencil: half/bin/3d/newton/tri
      bin: standard
Setting up cg style minimization ...
  Unit style    : metal
  Current step  : 58
Per MPI rank memory allocation (min/avg/max) = 4.182 | 4.182 | 4.182 Mbytes
Step Temp PotEng Press Pxx Pyy Pzz Pxy Pxz Pyz Lx Ly Lz Volume 
      58            0   -19.230932    1.8456012    2.1447341    1.6960348    1.6960348 4.9235448e-11 2.9802811e-13 4.6854076e-11    3.4980564    3.4980599    3.4980599    42.803698 
      59            0   -19.230932    1.8456012    2.1447341    1.6960348    1.6960348 4.996289e-11 -2.8226787e-10 -3.9356704e-11    3.4980564    3.4980599    3.4980599    42.803698 
Loop time of 0.000247002 on 1 procs for 1 steps with 4 atoms

86.2% CPU use with 1 MPI tasks x no OpenMP threads

Minimization stats:
  Stopping criterion = force tolerance
  Energy initial, next-to-last, final = 
        -19.2309324684     -19.2309324684     -19.2309324684
  Force two-norm initial, final = 1.56863e-14 1.61174e-14
  Force max component initial, final = 1.01585e-14 6.55032e-15
  Final line search alpha, max atom move = 1 6.55032e-15
  Iterations, force evaluations = 1 2

MPI task timing breakdown:
Section |  min time  |  avg time  |  max time  |%varavg| %total
---------------------------------------------------------------
Pair    | 0.0002079  | 0.0002079  | 0.0002079  |   0.0 | 84.17
Neigh   | 0          | 0          | 0          |   0.0 |  0.00
Comm    | 2.3365e-05 | 2.3365e-05 | 2.3365e-05 |   0.0 |  9.46
Output  | 0          | 0          | 0          |   0.0 |  0.00
Modify  | 0          | 0          | 0          |   0.0 |  0.00
Other   |            | 1.574e-05  |            |       |  6.37

Nlocal:    4 ave 4 max 4 min
Histogram: 1 0 0 0 0 0 0 0 0 0
Nghost:    1684 ave 1684 max 1684 min
Histogram: 1 0 0 0 0 0 0 0 0 0
Neighs:    1060 ave 1060 max 1060 min
Histogram: 1 0 0 0 0 0 0 0 0 0

Total # of neighbors = 1060
Ave neighs/atom = 265
Neighbor list builds = 0
Dangerous builds = 0
Reading restart file ...
  restart file = 11 Aug 2017, LAMMPS = 11 Aug 2017
  triclinic box = (0.00932005 0.00932005 0.00932005) to (3.50738 3.50738 3.50738) with tilt (0 -0 0)
  1 by 1 by 1 MPI processor grid
  4 atoms
4 atoms in group Ni
Changing box ...
  triclinic box = (0.00932005 0.00932005 0.00932005) to (3.50738 3.50738 3.50738) with tilt (0 -0 0)
Neighbor list info ...
  update every 1 steps, delay 0 steps, check yes
  max neighbors/atom: 2000, page size: 100000
  master list distance cutoff = 11
  ghost atom cutoff = 11
  binsize = 5.5, bins = 1 1 1
  1 neighbor lists, perpetual/occasional/extra = 1 0 0
  (1) pair eam/alloy, perpetual
      attributes: half, newton on
      pair build: half/bin/newton/tri
      stencil: half/bin/3d/newton/tri
      bin: standard
Setting up cg style minimization ...
  Unit style    : metal
  Current step  : 58
Per MPI rank memory allocation (min/avg/max) = 4.182 | 4.182 | 4.182 Mbytes
Step Temp PotEng Press Pxx Pyy Pzz Pxy Pxz Pyz Lx Ly Lz Volume 
      58            0   -19.230932   -1.8455966   -2.1447318   -1.6960291   -1.6960291 -1.3407306e-11 -1.3162239e-10 -1.6725101e-10    3.4980634    3.4980599    3.4980599    42.803784 
      59            0   -19.230932   -1.8455966   -2.1447318   -1.6960291    -1.696029 -1.7388371e-10 -1.2924223e-10 -7.085268e-11    3.4980634    3.4980599    3.4980599    42.803784 
Loop time of 0.000379801 on 1 procs for 1 steps with 4 atoms

71.6% CPU use with 1 MPI tasks x no OpenMP threads

Minimization stats:
  Stopping criterion = force tolerance
  Energy initial, next-to-last, final = 
        -19.2309324684     -19.2309324684     -19.2309324684
  Force two-norm initial, final = 1.33852e-14 1.63207e-14
  Force max component initial, final = 5.84949e-15 8.21565e-15
  Final line search alpha, max atom move = 1 8.21565e-15
  Iterations, force evaluations = 1 2

MPI task timing breakdown:
Section |  min time  |  avg time  |  max time  |%varavg| %total
---------------------------------------------------------------
Pair    | 0.00033307 | 0.00033307 | 0.00033307 |   0.0 | 87.70
Neigh   | 0          | 0          | 0          |   0.0 |  0.00
Comm    | 2.5988e-05 | 2.5988e-05 | 2.5988e-05 |   0.0 |  6.84
Output  | 0          | 0          | 0          |   0.0 |  0.00
Modify  | 0          | 0          | 0          |   0.0 |  0.00
Other   |            | 2.074e-05  |            |       |  5.46

Nlocal:    4 ave 4 max 4 min
Histogram: 1 0 0 0 0 0 0 0 0 0
Nghost:    1684 ave 1684 max 1684 min
Histogram: 1 0 0 0 0 0 0 0 0 0
Neighs:    1060 ave 1060 max 1060 min
Histogram: 1 0 0 0 0 0 0 0 0 0

Total # of neighbors = 1060
Ave neighs/atom = 265
Neighbor list builds = 0
Dangerous builds = 0
Reading restart file ...
  restart file = 11 Aug 2017, LAMMPS = 11 Aug 2017
  triclinic box = (0.00932005 0.00932005 0.00932005) to (3.50738 3.50738 3.50738) with tilt (0 -0 0)
  1 by 1 by 1 MPI processor grid
  4 atoms
4 atoms in group Ni
Changing box ...
  triclinic box = (0.00932005 0.00932005 0.00932005) to (3.50738 3.50738 3.50738) with tilt (0 -0 0)
Neighbor list info ...
  update every 1 steps, delay 0 steps, check yes
  max neighbors/atom: 2000, page size: 100000
  master list distance cutoff = 11
  ghost atom cutoff = 11
  binsize = 5.5, bins = 1 1 1
  1 neighbor lists, perpetual/occasional/extra = 1 0 0
  (1) pair eam/alloy, perpetual
      attributes: half, newton on
      pair build: half/bin/newton/tri
      stencil: half/bin/3d/newton/tri
      bin: standard
Setting up cg style minimization ...
  Unit style    : metal
  Current step  : 58
Per MPI rank memory allocation (min/avg/max) = 4.182 | 4.182 | 4.182 Mbytes
Step Temp PotEng Press Pxx Pyy Pzz Pxy Pxz Pyz Lx Ly Lz Volume 
      58            0   -19.230932    1.8456012    1.6960348    2.1447341    1.6960348 -6.0224568e-11 5.802417e-11 1.6676232e-10    3.4980599    3.4980564    3.4980599    42.803698 
      59            0   -19.230932    1.8456012    1.6960348    2.1447341    1.6960348 -8.6384778e-11 5.3930151e-11 -9.4818086e-11    3.4980599    3.4980564    3.4980599    42.803698 
Loop time of 0.000247002 on 1 procs for 1 steps with 4 atoms

88.7% CPU use with 1 MPI tasks x no OpenMP threads

Minimization stats:
  Stopping criterion = force tolerance
  Energy initial, next-to-last, final = 
        -19.2309324684     -19.2309324684     -19.2309324684
  Force two-norm initial, final = 1.81271e-14 2.01823e-14
  Force max component initial, final = 8.90954e-15 1.04292e-14
  Final line search alpha, max atom move = 1 1.04292e-14
  Iterations, force evaluations = 1 2

MPI task timing breakdown:
Section |  min time  |  avg time  |  max time  |%varavg| %total
---------------------------------------------------------------
Pair    | 0.00020885 | 0.00020885 | 0.00020885 |   0.0 | 84.56
Neigh   | 0          | 0          | 0          |   0.0 |  0.00
Comm    | 2.3365e-05 | 2.3365e-05 | 2.3365e-05 |   0.0 |  9.46
Output  | 0          | 0          | 0          |   0.0 |  0.00
Modify  | 0          | 0          | 0          |   0.0 |  0.00
Other   |            | 1.478e-05  |            |       |  5.98

Nlocal:    4 ave 4 max 4 min
Histogram: 1 0 0 0 0 0 0 0 0 0
Nghost:    1684 ave 1684 max 1684 min
Histogram: 1 0 0 0 0 0 0 0 0 0
Neighs:    1060 ave 1060 max 1060 min
Histogram: 1 0 0 0 0 0 0 0 0 0

Total # of neighbors = 1060
Ave neighs/atom = 265
Neighbor list builds = 0
Dangerous builds = 0
Reading restart file ...
  restart file = 11 Aug 2017, LAMMPS = 11 Aug 2017
  triclinic box = (0.00932005 0.00932005 0.00932005) to (3.50738 3.50738 3.50738) with tilt (0 -0 0)
  1 by 1 by 1 MPI processor grid
  4 atoms
4 atoms in group Ni
Changing box ...
  triclinic box = (0.00932005 0.00932005 0.00932005) to (3.50738 3.50738 3.50738) with tilt (0 -0 0)
Neighbor list info ...
  update every 1 steps, delay 0 steps, check yes
  max neighbors/atom: 2000, page size: 100000
  master list distance cutoff = 11
  ghost atom cutoff = 11
  binsize = 5.5, bins = 1 1 1
  1 neighbor lists, perpetual/occasional/extra = 1 0 0
  (1) pair eam/alloy, perpetual
      attributes: half, newton on
      pair build: half/bin/newton/tri
      stencil: half/bin/3d/newton/tri
      bin: standard
Setting up cg style minimization ...
  Unit style    : metal
  Current step  : 58
Per MPI rank memory allocation (min/avg/max) = 4.182 | 4.182 | 4.182 Mbytes
Step Temp PotEng Press Pxx Pyy Pzz Pxy Pxz Pyz Lx Ly Lz Volume 
      58            0   -19.230932   -1.8455966    -1.696029   -2.1447318   -1.6960291 -6.0441247e-12 -9.6265422e-11 -4.3696667e-11    3.4980599    3.4980634    3.4980599    42.803784 
      59            0   -19.230932   -1.8455966   -1.6960291   -2.1447318   -1.6960291 1.3106108e-11 -7.8168177e-11 -1.266064e-10    3.4980599    3.4980634    3.4980599    42.803784 
Loop time of 0.000262976 on 1 procs for 1 steps with 4 atoms

100.4% CPU use with 1 MPI tasks x no OpenMP threads

Minimization stats:
  Stopping criterion = force tolerance
  Energy initial, next-to-last, final = 
        -19.2309324684     -19.2309324684     -19.2309324684
  Force two-norm initial, final = 9.60761e-15 1.14526e-14
  Force max component initial, final = 7.44543e-15 7.81319e-15
  Final line search alpha, max atom move = 1 7.81319e-15
  Iterations, force evaluations = 1 2

MPI task timing breakdown:
Section |  min time  |  avg time  |  max time  |%varavg| %total
---------------------------------------------------------------
Pair    | 0.00022388 | 0.00022388 | 0.00022388 |   0.0 | 85.13
Neigh   | 0          | 0          | 0          |   0.0 |  0.00
Comm    | 2.2173e-05 | 2.2173e-05 | 2.2173e-05 |   0.0 |  8.43
Output  | 0          | 0          | 0          |   0.0 |  0.00
Modify  | 0          | 0          | 0          |   0.0 |  0.00
Other   |            | 1.693e-05  |            |       |  6.44

Nlocal:    4 ave 4 max 4 min
Histogram: 1 0 0 0 0 0 0 0 0 0
Nghost:    1684 ave 1684 max 1684 min
Histogram: 1 0 0 0 0 0 0 0 0 0
Neighs:    1060 ave 1060 max 1060 min
Histogram: 1 0 0 0 0 0 0 0 0 0

Total # of neighbors = 1060
Ave neighs/atom = 265
Neighbor list builds = 0
Dangerous builds = 0
Reading restart file ...
  restart file = 11 Aug 2017, LAMMPS = 11 Aug 2017
  triclinic box = (0.00932005 0.00932005 0.00932005) to (3.50738 3.50738 3.50738) with tilt (0 -0 0)
  1 by 1 by 1 MPI processor grid
  4 atoms
4 atoms in group Ni
Changing box ...
  triclinic box = (0.00932005 0.00932005 0.00932005) to (3.50738 3.50738 3.50738) with tilt (0 -0 0)
Neighbor list info ...
  update every 1 steps, delay 0 steps, check yes
  max neighbors/atom: 2000, page size: 100000
  master list distance cutoff = 11
  ghost atom cutoff = 11
  binsize = 5.5, bins = 1 1 1
  1 neighbor lists, perpetual/occasional/extra = 1 0 0
  (1) pair eam/alloy, perpetual
      attributes: half, newton on
      pair build: half/bin/newton/tri
      stencil: half/bin/3d/newton/tri
      bin: standard
Setting up cg style minimization ...
  Unit style    : metal
  Current step  : 58
Per MPI rank memory allocation (min/avg/max) = 4.182 | 4.182 | 4.182 Mbytes
Step Temp PotEng Press Pxx Pyy Pzz Pxy Pxz Pyz Lx Ly Lz Volume 
      58            0   -19.230932    1.8456012    1.6960348    1.6960348    2.1447341 -1.3649053e-11 -4.1557039e-11 -2.1518669e-10    3.4980599    3.4980599    3.4980564    42.803698 
      59            0   -19.230932    1.8456012    1.6960348    1.6960348    2.1447341 6.8964972e-12 -8.1671622e-11 8.7052107e-12    3.4980599    3.4980599    3.4980564    42.803698 
Loop time of 0.000251055 on 1 procs for 1 steps with 4 atoms

100.4% CPU use with 1 MPI tasks x no OpenMP threads

Minimization stats:
  Stopping criterion = force tolerance
  Energy initial, next-to-last, final = 
        -19.2309324684     -19.2309324684     -19.2309324684
  Force two-norm initial, final = 1.79398e-14 2.16738e-14
  Force max component initial, final = 1.14769e-14 1.27121e-14
  Final line search alpha, max atom move = 1 1.27121e-14
  Iterations, force evaluations = 1 2

MPI task timing breakdown:
Section |  min time  |  avg time  |  max time  |%varavg| %total
---------------------------------------------------------------
Pair    | 0.00021195 | 0.00021195 | 0.00021195 |   0.0 | 84.43
Neigh   | 0          | 0          | 0          |   0.0 |  0.00
Comm    | 2.1935e-05 | 2.1935e-05 | 2.1935e-05 |   0.0 |  8.74
Output  | 0          | 0          | 0          |   0.0 |  0.00
Modify  | 0          | 0          | 0          |   0.0 |  0.00
Other   |            | 1.717e-05  |            |       |  6.84

Nlocal:    4 ave 4 max 4 min
Histogram: 1 0 0 0 0 0 0 0 0 0
Nghost:    1684 ave 1684 max 1684 min
Histogram: 1 0 0 0 0 0 0 0 0 0
Neighs:    1060 ave 1060 max 1060 min
Histogram: 1 0 0 0 0 0 0 0 0 0

Total # of neighbors = 1060
Ave neighs/atom = 265
Neighbor list builds = 0
Dangerous builds = 0
Reading restart file ...
  restart file = 11 Aug 2017, LAMMPS = 11 Aug 2017
  triclinic box = (0.00932005 0.00932005 0.00932005) to (3.50738 3.50738 3.50738) with tilt (0 -0 0)
  1 by 1 by 1 MPI processor grid
  4 atoms
4 atoms in group Ni
Changing box ...
  triclinic box = (0.00932005 0.00932005 0.00932005) to (3.50738 3.50738 3.50738) with tilt (0 -0 0)
Neighbor list info ...
  update every 1 steps, delay 0 steps, check yes
  max neighbors/atom: 2000, page size: 100000
  master list distance cutoff = 11
  ghost atom cutoff = 11
  binsize = 5.5, bins = 1 1 1
  1 neighbor lists, perpetual/occasional/extra = 1 0 0
  (1) pair eam/alloy, perpetual
      attributes: half, newton on
      pair build: half/bin/newton/tri
      stencil: half/bin/3d/newton/tri
      bin: standard
Setting up cg style minimization ...
  Unit style    : metal
  Current step  : 58
Per MPI rank memory allocation (min/avg/max) = 4.182 | 4.182 | 4.182 Mbytes
Step Temp PotEng Press Pxx Pyy Pzz Pxy Pxz Pyz Lx Ly Lz Volume 
      58            0   -19.230932   -1.8455966   -1.6960291   -1.6960291   -2.1447318 1.1067981e-11 2.8894718e-12 1.7584181e-10    3.4980599    3.4980599    3.4980634    42.803784 
      59            0   -19.230932   -1.8455966   -1.6960291   -1.6960291   -2.1447318 2.6710874e-12 9.9963246e-11 1.6285288e-10    3.4980599    3.4980599    3.4980634    42.803784 
Loop time of 0.000257969 on 1 procs for 1 steps with 4 atoms

100.0% CPU use with 1 MPI tasks x no OpenMP threads

Minimization stats:
  Stopping criterion = force tolerance
  Energy initial, next-to-last, final = 
        -19.2309324684     -19.2309324684     -19.2309324684
  Force two-norm initial, final = 7.7305e-15 1.04033e-14
  Force max component initial, final = 5.02376e-15 7.11931e-15
  Final line search alpha, max atom move = 1 7.11931e-15
  Iterations, force evaluations = 1 2

MPI task timing breakdown:
Section |  min time  |  avg time  |  max time  |%varavg| %total
---------------------------------------------------------------
Pair    | 0.000211   | 0.000211   | 0.000211   |   0.0 | 81.79
Neigh   | 0          | 0          | 0          |   0.0 |  0.00
Comm    | 2.1219e-05 | 2.1219e-05 | 2.1219e-05 |   0.0 |  8.23
Output  | 0          | 0          | 0          |   0.0 |  0.00
Modify  | 0          | 0          | 0          |   0.0 |  0.00
Other   |            | 2.575e-05  |            |       |  9.98

Nlocal:    4 ave 4 max 4 min
Histogram: 1 0 0 0 0 0 0 0 0 0
Nghost:    1684 ave 1684 max 1684 min
Histogram: 1 0 0 0 0 0 0 0 0 0
Neighs:    1060 ave 1060 max 1060 min
Histogram: 1 0 0 0 0 0 0 0 0 0

Total # of neighbors = 1060
Ave neighs/atom = 265
Neighbor list builds = 0
Dangerous builds = 0
Reading restart file ...
  restart file = 11 Aug 2017, LAMMPS = 11 Aug 2017
  triclinic box = (0.00932005 0.00932005 0.00932005) to (3.50738 3.50738 3.50738) with tilt (0 -0 0)
  1 by 1 by 1 MPI processor grid
  4 atoms
4 atoms in group Ni
Changing box ...
  triclinic box = (0.00932005 0.00932005 0.00932005) to (3.50738 3.50738 3.50738) with tilt (0 -0 -3.49806e-06)
Neighbor list info ...
  update every 1 steps, delay 0 steps, check yes
  max neighbors/atom: 2000, page size: 100000
  master list distance cutoff = 11
  ghost atom cutoff = 11
  binsize = 5.5, bins = 1 1 1
  1 neighbor lists, perpetual/occasional/extra = 1 0 0
  (1) pair eam/alloy, perpetual
      attributes: half, newton on
      pair build: half/bin/newton/tri
      stencil: half/bin/3d/newton/tri
      bin: standard
Setting up cg style minimization ...
  Unit style    : metal
  Current step  : 58
Per MPI rank memory allocation (min/avg/max) = 4.182 | 4.182 | 4.182 Mbytes
Step Temp PotEng Press Pxx Pyy Pzz Pxy Pxz Pyz Lx Ly Lz Volume 
      58            0   -19.230932 9.3199988e-07 -1.0198955e-06 8.0533999e-07 3.0105551e-06 -5.6693005e-11 5.1792414e-11    1.2148847    3.4980599    3.4980599    3.4980599    42.803741 
      59            0   -19.230932 9.3213474e-07 -1.0199447e-06 8.0547154e-07 3.0108774e-06 -2.9642607e-11 7.8786378e-11    1.2148847    3.4980599    3.4980599    3.4980599    42.803741 
Loop time of 0.000248909 on 1 procs for 1 steps with 4 atoms

92.4% CPU use with 1 MPI tasks x no OpenMP threads

Minimization stats:
  Stopping criterion = force tolerance
  Energy initial, next-to-last, final = 
        -19.2309324684     -19.2309324684     -19.2309324684
  Force two-norm initial, final = 5.80494e-15 8.387e-15
  Force max component initial, final = 4.02456e-15 4.01762e-15
  Final line search alpha, max atom move = 1 4.01762e-15
  Iterations, force evaluations = 1 2

MPI task timing breakdown:
Section |  min time  |  avg time  |  max time  |%varavg| %total
---------------------------------------------------------------
Pair    | 0.00020909 | 0.00020909 | 0.00020909 |   0.0 | 84.00
Neigh   | 0          | 0          | 0          |   0.0 |  0.00
Comm    | 2.408e-05  | 2.408e-05  | 2.408e-05  |   0.0 |  9.67
Output  | 0          | 0          | 0          |   0.0 |  0.00
Modify  | 0          | 0          | 0          |   0.0 |  0.00
Other   |            | 1.574e-05  |            |       |  6.32

Nlocal:    4 ave 4 max 4 min
Histogram: 1 0 0 0 0 0 0 0 0 0
Nghost:    1684 ave 1684 max 1684 min
Histogram: 1 0 0 0 0 0 0 0 0 0
Neighs:    1060 ave 1060 max 1060 min
Histogram: 1 0 0 0 0 0 0 0 0 0

Total # of neighbors = 1060
Ave neighs/atom = 265
Neighbor list builds = 0
Dangerous builds = 0
Reading restart file ...
  restart file = 11 Aug 2017, LAMMPS = 11 Aug 2017
  triclinic box = (0.00932005 0.00932005 0.00932005) to (3.50738 3.50738 3.50738) with tilt (0 -0 0)
  1 by 1 by 1 MPI processor grid
  4 atoms
4 atoms in group Ni
Changing box ...
  triclinic box = (0.00932005 0.00932005 0.00932005) to (3.50738 3.50738 3.50738) with tilt (0 -0 3.49806e-06)
Neighbor list info ...
  update every 1 steps, delay 0 steps, check yes
  max neighbors/atom: 2000, page size: 100000
  master list distance cutoff = 11
  ghost atom cutoff = 11
  binsize = 5.5, bins = 1 1 1
  1 neighbor lists, perpetual/occasional/extra = 1 0 0
  (1) pair eam/alloy, perpetual
      attributes: half, newton on
      pair build: half/bin/newton/tri
      stencil: half/bin/3d/newton/tri
      bin: standard
Setting up cg style minimization ...
  Unit style    : metal
  Current step  : 58
Per MPI rank memory allocation (min/avg/max) = 4.182 | 4.182 | 4.182 Mbytes
Step Temp PotEng Press Pxx Pyy Pzz Pxy Pxz Pyz Lx Ly Lz Volume 
      58            0   -19.230932 9.3178811e-07 -1.020322e-06 8.0502079e-07 3.0106655e-06 -2.8692469e-11 1.9746942e-11   -1.2148847    3.4980599    3.4980599    3.4980599    42.803741 
      59            0   -19.230932 9.319824e-07 -1.0199095e-06 8.0509144e-07 3.0107653e-06 -2.5463115e-11 5.3704357e-11   -1.2148847    3.4980599    3.4980599    3.4980599    42.803741 
Loop time of 0.000248909 on 1 procs for 1 steps with 4 atoms

100.0% CPU use with 1 MPI tasks x no OpenMP threads

Minimization stats:
  Stopping criterion = force tolerance
  Energy initial, next-to-last, final = 
        -19.2309324684     -19.2309324684     -19.2309324684
  Force two-norm initial, final = 1.45658e-14 1.28549e-14
  Force max component initial, final = 1.1352e-14 6.83481e-15
  Final line search alpha, max atom move = 1 6.83481e-15
  Iterations, force evaluations = 1 2

MPI task timing breakdown:
Section |  min time  |  avg time  |  max time  |%varavg| %total
---------------------------------------------------------------
Pair    | 0.00020885 | 0.00020885 | 0.00020885 |   0.0 | 83.91
Neigh   | 0          | 0          | 0          |   0.0 |  0.00
Comm    | 2.4319e-05 | 2.4319e-05 | 2.4319e-05 |   0.0 |  9.77
Output  | 0          | 0          | 0          |   0.0 |  0.00
Modify  | 0          | 0          | 0          |   0.0 |  0.00
Other   |            | 1.574e-05  |            |       |  6.32

Nlocal:    4 ave 4 max 4 min
Histogram: 1 0 0 0 0 0 0 0 0 0
Nghost:    1684 ave 1684 max 1684 min
Histogram: 1 0 0 0 0 0 0 0 0 0
Neighs:    1060 ave 1060 max 1060 min
Histogram: 1 0 0 0 0 0 0 0 0 0

Total # of neighbors = 1060
Ave neighs/atom = 265
Neighbor list builds = 0
Dangerous builds = 0
Reading restart file ...
  restart file = 11 Aug 2017, LAMMPS = 11 Aug 2017
  triclinic box = (0.00932005 0.00932005 0.00932005) to (3.50738 3.50738 3.50738) with tilt (0 -0 0)
  1 by 1 by 1 MPI processor grid
  4 atoms
4 atoms in group Ni
Changing box ...
  triclinic box = (0.00932005 0.00932005 0.00932005) to (3.50738 3.50738 3.50738) with tilt (0 -3.49806e-06 0)
Neighbor list info ...
  update every 1 steps, delay 0 steps, check yes
  max neighbors/atom: 2000, page size: 100000
  master list distance cutoff = 11
  ghost atom cutoff = 11
  binsize = 5.5, bins = 1 1 1
  1 neighbor lists, perpetual/occasional/extra = 1 0 0
  (1) pair eam/alloy, perpetual
      attributes: half, newton on
      pair build: half/bin/newton/tri
      stencil: half/bin/3d/newton/tri
      bin: standard
Setting up cg style minimization ...
  Unit style    : metal
  Current step  : 58
Per MPI rank memory allocation (min/avg/max) = 4.182 | 4.182 | 4.182 Mbytes
Step Temp PotEng Press Pxx Pyy Pzz Pxy Pxz Pyz Lx Ly Lz Volume 
      58            0   -19.230932 9.3201498e-07 8.0515963e-07 -1.0196842e-06 3.0105695e-06 -1.6111637e-11    1.2148847 9.2315825e-11    3.4980599    3.4980599    3.4980599    42.803741 
      59            0   -19.230932 9.3198724e-07 8.0509037e-07 -1.0199047e-06 3.010776e-06 -4.1323458e-11    1.2148847 5.0007037e-11    3.4980599    3.4980599    3.4980599    42.803741 
Loop time of 0.000247002 on 1 procs for 1 steps with 4 atoms

93.9% CPU use with 1 MPI tasks x no OpenMP threads

Minimization stats:
  Stopping criterion = force tolerance
  Energy initial, next-to-last, final = 
        -19.2309324684     -19.2309324684     -19.2309324684
  Force two-norm initial, final = 7.52956e-15 9.84976e-15
  Force max component initial, final = 5.35683e-15 4.88498e-15
  Final line search alpha, max atom move = 1 4.88498e-15
  Iterations, force evaluations = 1 2

MPI task timing breakdown:
Section |  min time  |  avg time  |  max time  |%varavg| %total
---------------------------------------------------------------
Pair    | 0.00020695 | 0.00020695 | 0.00020695 |   0.0 | 83.78
Neigh   | 0          | 0          | 0          |   0.0 |  0.00
Comm    | 2.5988e-05 | 2.5988e-05 | 2.5988e-05 |   0.0 | 10.52
Output  | 0          | 0          | 0          |   0.0 |  0.00
Modify  | 0          | 0          | 0          |   0.0 |  0.00
Other   |            | 1.407e-05  |            |       |  5.69

Nlocal:    4 ave 4 max 4 min
Histogram: 1 0 0 0 0 0 0 0 0 0
Nghost:    1684 ave 1684 max 1684 min
Histogram: 1 0 0 0 0 0 0 0 0 0
Neighs:    1060 ave 1060 max 1060 min
Histogram: 1 0 0 0 0 0 0 0 0 0

Total # of neighbors = 1060
Ave neighs/atom = 265
Neighbor list builds = 0
Dangerous builds = 0
Reading restart file ...
  restart file = 11 Aug 2017, LAMMPS = 11 Aug 2017
  triclinic box = (0.00932005 0.00932005 0.00932005) to (3.50738 3.50738 3.50738) with tilt (0 -0 0)
  1 by 1 by 1 MPI processor grid
  4 atoms
4 atoms in group Ni
Changing box ...
  triclinic box = (0.00932005 0.00932005 0.00932005) to (3.50738 3.50738 3.50738) with tilt (0 3.49806e-06 0)
Neighbor list info ...
  update every 1 steps, delay 0 steps, check yes
  max neighbors/atom: 2000, page size: 100000
  master list distance cutoff = 11
  ghost atom cutoff = 11
  binsize = 5.5, bins = 1 1 1
  1 neighbor lists, perpetual/occasional/extra = 1 0 0
  (1) pair eam/alloy, perpetual
      attributes: half, newton on
      pair build: half/bin/newton/tri
      stencil: half/bin/3d/newton/tri
      bin: standard
Setting up cg style minimization ...
  Unit style    : metal
  Current step  : 58
Per MPI rank memory allocation (min/avg/max) = 4.182 | 4.182 | 4.182 Mbytes
Step Temp PotEng Press Pxx Pyy Pzz Pxy Pxz Pyz Lx Ly Lz Volume 
      58            0   -19.230932 9.3201771e-07 8.0511739e-07 -1.0197076e-06 3.0106434e-06 -7.5737426e-11   -1.2148847 1.1727052e-10    3.4980599    3.4980599    3.4980599    42.803741 
      59            0   -19.230932 9.320788e-07 8.0515604e-07 -1.0197736e-06 3.0108539e-06 -8.3762618e-11   -1.2148847 1.3667175e-11    3.4980599    3.4980599    3.4980599    42.803741 
Loop time of 0.000257015 on 1 procs for 1 steps with 4 atoms

100.4% CPU use with 1 MPI tasks x no OpenMP threads

Minimization stats:
  Stopping criterion = force tolerance
  Energy initial, next-to-last, final = 
        -19.2309324684     -19.2309324684     -19.2309324684
  Force two-norm initial, final = 2.0015e-14 9.92996e-15
  Force max component initial, final = 1.53211e-14 6.43929e-15
  Final line search alpha, max atom move = 1 6.43929e-15
  Iterations, force evaluations = 1 2

MPI task timing breakdown:
Section |  min time  |  avg time  |  max time  |%varavg| %total
---------------------------------------------------------------
Pair    | 0.0002172  | 0.0002172  | 0.0002172  |   0.0 | 84.51
Neigh   | 0          | 0          | 0          |   0.0 |  0.00
Comm    | 2.3365e-05 | 2.3365e-05 | 2.3365e-05 |   0.0 |  9.09
Output  | 0          | 0          | 0          |   0.0 |  0.00
Modify  | 0          | 0          | 0          |   0.0 |  0.00
Other   |            | 1.645e-05  |            |       |  6.40

Nlocal:    4 ave 4 max 4 min
Histogram: 1 0 0 0 0 0 0 0 0 0
Nghost:    1684 ave 1684 max 1684 min
Histogram: 1 0 0 0 0 0 0 0 0 0
Neighs:    1060 ave 1060 max 1060 min
Histogram: 1 0 0 0 0 0 0 0 0 0

Total # of neighbors = 1060
Ave neighs/atom = 265
Neighbor list builds = 0
Dangerous builds = 0
Reading restart file ...
  restart file = 11 Aug 2017, LAMMPS = 11 Aug 2017
  triclinic box = (0.00932005 0.00932005 0.00932005) to (3.50738 3.50738 3.50738) with tilt (0 -0 0)
  1 by 1 by 1 MPI processor grid
  4 atoms
4 atoms in group Ni
Changing box ...
  triclinic box = (0.00932005 0.00932005 0.00932005) to (3.50738 3.50738 3.50738) with tilt (-3.49806e-06 -0 0)
Neighbor list info ...
  update every 1 steps, delay 0 steps, check yes
  max neighbors/atom: 2000, page size: 100000
  master list distance cutoff = 11
  ghost atom cutoff = 11
  binsize = 5.5, bins = 1 1 1
  1 neighbor lists, perpetual/occasional/extra = 1 0 0
  (1) pair eam/alloy, perpetual
      attributes: half, newton on
      pair build: half/bin/newton/tri
      stencil: half/bin/3d/newton/tri
      bin: standard
Setting up cg style minimization ...
  Unit style    : metal
  Current step  : 58
Per MPI rank memory allocation (min/avg/max) = 4.182 | 4.182 | 4.182 Mbytes
Step Temp PotEng Press Pxx Pyy Pzz Pxy Pxz Pyz Lx Ly Lz Volume 
      58            0   -19.230932 9.3227459e-07 8.054272e-07 3.0112891e-06 -1.0198926e-06    1.2148847 -1.0436249e-10 -3.0705488e-11    3.4980599    3.4980599    3.4980599    42.803741 
      59            0   -19.230932 9.3227198e-07 8.0543476e-07 3.0111139e-06 -1.0197327e-06    1.2148847 -8.9035237e-11 -7.77325e-11    3.4980599    3.4980599    3.4980599    42.803741 
Loop time of 0.000262976 on 1 procs for 1 steps with 4 atoms

100.4% CPU use with 1 MPI tasks x no OpenMP threads

Minimization stats:
  Stopping criterion = force tolerance
  Energy initial, next-to-last, final = 
        -19.2309324684     -19.2309324684     -19.2309324684
  Force two-norm initial, final = 6.98243e-15 6.00281e-15
  Force max component initial, final = 3.71925e-15 3.69149e-15
  Final line search alpha, max atom move = 1 3.69149e-15
  Iterations, force evaluations = 1 2

MPI task timing breakdown:
Section |  min time  |  avg time  |  max time  |%varavg| %total
---------------------------------------------------------------
Pair    | 0.00022388 | 0.00022388 | 0.00022388 |   0.0 | 85.13
Neigh   | 0          | 0          | 0          |   0.0 |  0.00
Comm    | 2.5272e-05 | 2.5272e-05 | 2.5272e-05 |   0.0 |  9.61
Output  | 0          | 0          | 0          |   0.0 |  0.00
Modify  | 0          | 0          | 0          |   0.0 |  0.00
Other   |            | 1.383e-05  |            |       |  5.26

Nlocal:    4 ave 4 max 4 min
Histogram: 1 0 0 0 0 0 0 0 0 0
Nghost:    1684 ave 1684 max 1684 min
Histogram: 1 0 0 0 0 0 0 0 0 0
Neighs:    1060 ave 1060 max 1060 min
Histogram: 1 0 0 0 0 0 0 0 0 0

Total # of neighbors = 1060
Ave neighs/atom = 265
Neighbor list builds = 0
Dangerous builds = 0
Reading restart file ...
  restart file = 11 Aug 2017, LAMMPS = 11 Aug 2017
  triclinic box = (0.00932005 0.00932005 0.00932005) to (3.50738 3.50738 3.50738) with tilt (0 -0 0)
  1 by 1 by 1 MPI processor grid
  4 atoms
4 atoms in group Ni
Changing box ...
  triclinic box = (0.00932005 0.00932005 0.00932005) to (3.50738 3.50738 3.50738) with tilt (3.49806e-06 -0 0)
Neighbor list info ...
  update every 1 steps, delay 0 steps, check yes
  max neighbors/atom: 2000, page size: 100000
  master list distance cutoff = 11
  ghost atom cutoff = 11
  binsize = 5.5, bins = 1 1 1
  1 neighbor lists, perpetual/occasional/extra = 1 0 0
  (1) pair eam/alloy, perpetual
      attributes: half, newton on
      pair build: half/bin/newton/tri
      stencil: half/bin/3d/newton/tri
      bin: standard
Setting up cg style minimization ...
  Unit style    : metal
  Current step  : 58
Per MPI rank memory allocation (min/avg/max) = 4.182 | 4.182 | 4.182 Mbytes
Step Temp PotEng Press Pxx Pyy Pzz Pxy Pxz Pyz Lx Ly Lz Volume 
      58            0   -19.230932 9.3192551e-07 8.049599e-07 3.0109481e-06 -1.0201315e-06   -1.2148847 -2.0333689e-10 -1.8880252e-11    3.4980599    3.4980599    3.4980599    42.803741 
      59            0   -19.230932 9.3219775e-07 8.0522866e-07 3.0111961e-06 -1.0198315e-06   -1.2148847 -1.5248269e-10 -9.1309886e-11    3.4980599    3.4980599    3.4980599    42.803741 
Loop time of 0.000247955 on 1 procs for 1 steps with 4 atoms

100.4% CPU use with 1 MPI tasks x no OpenMP threads

Minimization stats:
  Stopping criterion = force tolerance
  Energy initial, next-to-last, final = 
        -19.2309324684     -19.2309324684     -19.2309324684
  Force two-norm initial, final = 2.26748e-14 9.36853e-15
  Force max component initial, final = 1.57652e-14 5.32907e-15
  Final line search alpha, max atom move = 1 5.32907e-15
  Iterations, force evaluations = 1 2

MPI task timing breakdown:
Section |  min time  |  avg time  |  max time  |%varavg| %total
---------------------------------------------------------------
Pair    | 0.00020885 | 0.00020885 | 0.00020885 |   0.0 | 84.23
Neigh   | 0          | 0          | 0          |   0.0 |  0.00
Comm    | 2.3365e-05 | 2.3365e-05 | 2.3365e-05 |   0.0 |  9.42
Output  | 0          | 0          | 0          |   0.0 |  0.00
Modify  | 0          | 0          | 0          |   0.0 |  0.00
Other   |            | 1.574e-05  |            |       |  6.35

Nlocal:    4 ave 4 max 4 min
Histogram: 1 0 0 0 0 0 0 0 0 0
Nghost:    1684 ave 1684 max 1684 min
Histogram: 1 0 0 0 0 0 0 0 0 0
Neighs:    1060 ave 1060 max 1060 min
Histogram: 1 0 0 0 0 0 0 0 0 0

Total # of neighbors = 1060
Ave neighs/atom = 265
Neighbor list builds = 0
Dangerous builds = 0
c11 = 214.473298068422 GPa
c22 = 214.473298028662 GPa
c33 = 214.473298046417 GPa
c12 = 169.603192241657 GPa
c13 = 169.603192245699 GPa
c23 = 169.603192249993 GPa
c44 = 121.488472119512 GPa
c55 = 121.48847212441 GPa
c66 = 121.488472118606 GPa
c14 = -9.22011450492151e-11 GPa
c15 = -5.46761576029446e-09 GPa
c16 = 1.07485980524905e-08 GPa
c24 = 1.02972610351834e-08 GPa
c25 = 2.50638496428001e-11 GPa
c26 = -4.54294432683483e-09 GPa
c34 = -1.05121588002896e-09 GPa
c35 = -6.4884263478372e-09 GPa
c36 = 2.57581653237214e-09 GPa
c45 = 1.53554706102067e-09 GPa
c46 = 2.34947368506658e-10 GPa
c56 = 2.64716541855679e-09 GPa
lammps_sim_done
Total wall time: 0:00:00
