LAMMPS (11 Aug 2017)
Reading data file ...
  triclinic box = (0 0 0) to (10.0061 10.0061 10.0061) with tilt (0 -0 -0)
  1 by 1 by 1 MPI processor grid
  reading atoms ...
  107 atoms
107 atoms in group Ni
Neighbor list info ...
  update every 1 steps, delay 0 steps, check yes
  max neighbors/atom: 2000, page size: 100000
  master list distance cutoff = 5.64464
  ghost atom cutoff = 5.64464
  binsize = 2.82232, bins = 4 4 4
  1 neighbor lists, perpetual/occasional/extra = 1 0 0
  (1) pair eam/alloy, perpetual
      attributes: half, newton on
      pair build: half/bin/newton/tri
      stencil: half/bin/3d/newton/tri
      bin: standard
Setting up cg style minimization ...
  Unit style    : metal
  Current step  : 0
Per MPI rank memory allocation (min/avg/max) = 4.229 | 4.229 | 4.229 Mbytes
Step PotEng Lx Ly Lz Xy Xz Yz Press Pxx Pyy Pzz Pxy Pxz Pyz c_eatoms 
       0   -594.04554      10.0061      10.0061      10.0061            0           -0           -0   -5358.1306   -5358.1306   -5358.1306   -5358.1306 2.0127074e-08 2.0131601e-08 2.0123256e-08   -594.04554 
       1   -594.07436      10.0061      10.0061      10.0061            0           -0           -0   -6456.2751   -6456.2751   -6456.2751   -6456.2751 -7.7703077e-06 -7.7702812e-06 -7.7702684e-06   -594.07436 
       2   -594.08024      10.0061      10.0061      10.0061            0           -0           -0   -6626.5674   -6626.5674   -6626.5674   -6626.5674 -6.6259242e-05 -6.6259239e-05 -6.6259248e-05   -594.08024 
       3   -594.08156      10.0061      10.0061      10.0061            0           -0           -0   -6812.8902   -6812.8902   -6812.8902   -6812.8902 -2.9462017e-05 -2.9461998e-05 -2.9461995e-05   -594.08156 
       4   -594.08161      10.0061      10.0061      10.0061            0           -0           -0   -6812.4939   -6812.4939   -6812.4939   -6812.4939 -2.7732084e-05 -2.7732085e-05 -2.773211e-05   -594.08161 
       5   -594.08162      10.0061      10.0061      10.0061            0           -0           -0   -6812.5056   -6812.5056   -6812.5056   -6812.5056 -7.3516707e-06 -7.3516775e-06 -7.3516702e-06   -594.08162 
       6   -594.08162      10.0061      10.0061      10.0061            0           -0           -0   -6813.2541   -6813.2541   -6813.2541   -6813.2541 -7.5805839e-06 -7.5805884e-06 -7.5805948e-06   -594.08162 
       7   -594.08162      10.0061      10.0061      10.0061            0           -0           -0    -6815.453    -6815.453    -6815.453    -6815.453 -5.0562141e-06 -5.0561873e-06 -5.0561818e-06   -594.08162 
       8   -594.08162      10.0061      10.0061      10.0061            0           -0           -0   -6815.9186   -6815.9186   -6815.9186   -6815.9186 -2.4405642e-06 -2.4405943e-06 -2.4405958e-06   -594.08162 
       9   -594.08162      10.0061      10.0061      10.0061            0           -0           -0   -6815.8484   -6815.8484   -6815.8484   -6815.8484 -1.3900259e-06 -1.3900375e-06 -1.39001e-06   -594.08162 
      10   -594.08162      10.0061      10.0061      10.0061            0           -0           -0   -6815.8303   -6815.8303   -6815.8303   -6815.8303 -1.2264566e-06 -1.2264701e-06 -1.2264681e-06   -594.08162 
      11   -594.08162      10.0061      10.0061      10.0061            0           -0           -0   -6815.8357   -6815.8357   -6815.8357   -6815.8357 -6.6671867e-07 -6.6672098e-07 -6.6670309e-07   -594.08162 
      12   -594.08162      10.0061      10.0061      10.0061            0           -0           -0   -6815.8359   -6815.8359   -6815.8359   -6815.8359 -5.5487716e-07 -5.5490697e-07 -5.5488628e-07   -594.08162 
      13   -594.08162      10.0061      10.0061      10.0061            0           -0           -0   -6815.8362   -6815.8362   -6815.8362   -6815.8362 -3.0813448e-07 -3.0809906e-07 -3.0813337e-07   -594.08162 
      14   -594.08162      10.0061      10.0061      10.0061            0           -0           -0   -6815.8363   -6815.8363   -6815.8363   -6815.8363 -7.6903164e-08 -7.6891912e-08 -7.690656e-08   -594.08162 
      15   -594.08162      10.0061      10.0061      10.0061            0           -0           -0   -6815.8363   -6815.8363   -6815.8363   -6815.8363 1.6023288e-08 1.600773e-08 1.6018116e-08   -594.08162 
      16   -594.08162      10.0061      10.0061      10.0061            0           -0           -0   -6815.8363   -6815.8363   -6815.8363   -6815.8363 4.0311675e-08 4.0300911e-08 4.0284664e-08   -594.08162 
      17   -594.08162      10.0061      10.0061      10.0061            0           -0           -0   -6815.8362   -6815.8362   -6815.8362   -6815.8362 3.1037834e-08 3.1058053e-08 3.1024585e-08   -594.08162 
      18   -594.08162      10.0061      10.0061      10.0061            0           -0           -0   -6815.8362   -6815.8362   -6815.8362   -6815.8362 9.2031966e-09 9.1902131e-09 9.1325086e-09   -594.08162 
      19   -594.08162      10.0061      10.0061      10.0061            0           -0           -0   -6815.8362   -6815.8362   -6815.8362   -6815.8362 9.1386786e-09 9.1163958e-09 9.0940908e-09   -594.08162 
      20   -594.08162      10.0061      10.0061      10.0061            0           -0           -0   -6815.8362   -6815.8362   -6815.8362   -6815.8362 6.6579858e-09 6.6661754e-09 6.6406966e-09   -594.08162 
      21   -594.08162      10.0061      10.0061      10.0061            0           -0           -0   -6815.8362   -6815.8362   -6815.8362   -6815.8362 4.2945884e-09 4.2959422e-09 4.2826258e-09   -594.08162 
      22   -594.08162      10.0061      10.0061      10.0061            0           -0           -0   -6815.8362   -6815.8362   -6815.8362   -6815.8362 2.6338094e-09 2.6550713e-09 2.6774873e-09   -594.08162 
      23   -594.08162      10.0061      10.0061      10.0061            0           -0           -0   -6815.8362   -6815.8362   -6815.8362   -6815.8362 5.3676251e-10 5.278849e-10 5.5993307e-10   -594.08162 
      24   -594.08162      10.0061      10.0061      10.0061            0           -0           -0   -6815.8362   -6815.8362   -6815.8362   -6815.8362 4.9044358e-10 4.7967948e-10 5.1354756e-10   -594.08162 
      25   -594.08162      10.0061      10.0061      10.0061            0           -0           -0   -6815.8362   -6815.8362   -6815.8362   -6815.8362 3.5690213e-10 3.7592241e-10 3.5608095e-10   -594.08162 
      26   -594.08162      10.0061      10.0061      10.0061            0           -0           -0   -6815.8362   -6815.8362   -6815.8362   -6815.8362 2.3614443e-10 2.4209243e-10 2.4464474e-10   -594.08162 
      27   -594.08162      10.0061      10.0061      10.0061            0           -0           -0   -6815.8362   -6815.8362   -6815.8362   -6815.8362 1.809035e-10 1.7096058e-10 1.3323074e-10   -594.08162 
      28   -594.08162      10.0061      10.0061      10.0061            0           -0           -0   -6815.8362   -6815.8362   -6815.8362   -6815.8362 1.3942287e-10 1.4090987e-10 1.5444822e-10   -594.08162 
      29   -594.08162      10.0061      10.0061      10.0061            0           -0           -0   -6815.8362   -6815.8362   -6815.8362   -6815.8362 9.2593475e-11 7.7124239e-11 1.1221299e-10   -594.08162 
      30   -594.08162      10.0061      10.0061      10.0061            0           -0           -0   -6815.8362   -6815.8362   -6815.8362   -6815.8362 7.415024e-11  6.24096e-11 7.0710166e-11   -594.08162 
      31   -594.08162      10.0061      10.0061      10.0061            0           -0           -0   -6815.8362   -6815.8362   -6815.8362   -6815.8362 5.0358244e-11 6.5960644e-11 7.8256134e-11   -594.08162 
      32   -594.08162      10.0061      10.0061      10.0061            0           -0           -0   -6815.8362   -6815.8362   -6815.8362   -6815.8362 5.1223811e-11 3.8351276e-11 4.8161036e-11   -594.08162 
      33   -594.08162      10.0061      10.0061      10.0061            0           -0           -0   -6815.8362   -6815.8362   -6815.8362   -6815.8362 9.3880729e-12 -1.9308802e-12 3.0716532e-11   -594.08162 
      34   -594.08162      10.0061      10.0061      10.0061            0           -0           -0   -6815.8362   -6815.8362   -6815.8362   -6815.8362 2.3370309e-11 7.3240285e-13 2.7631562e-11   -594.08162 
      35   -594.08162      10.0061      10.0061      10.0061            0           -0           -0   -6815.8362   -6815.8362   -6815.8362   -6815.8362 -5.171208e-12 1.7377922e-11 1.7377922e-11   -594.08162 
Loop time of 0.075407 on 1 procs for 35 steps with 107 atoms

22.8% CPU use with 1 MPI tasks x no OpenMP threads

Minimization stats:
  Stopping criterion = energy tolerance
  Energy initial, next-to-last, final = 
        -594.045540446     -594.081618778     -594.081618778
  Force two-norm initial, final = 0.799498 9.6138e-14
  Force max component initial, final = 0.156369 1.97065e-14
  Final line search alpha, max atom move = 1 1.97065e-14
  Iterations, force evaluations = 35 70

MPI task timing breakdown:
Section |  min time  |  avg time  |  max time  |%varavg| %total
---------------------------------------------------------------
Pair    | 0.015765   | 0.015765   | 0.015765   |   0.0 | 20.91
Neigh   | 0          | 0          | 0          |   0.0 |  0.00
Comm    | 0.0003643  | 0.0003643  | 0.0003643  |   0.0 |  0.48
Output  | 0.037178   | 0.037178   | 0.037178   |   0.0 | 49.30
Modify  | 0          | 0          | 0          |   0.0 |  0.00
Other   |            | 0.0221     |            |       | 29.31

Nlocal:    107 ave 107 max 107 min
Histogram: 1 0 0 0 0 0 0 0 0 0
Nghost:    983 ave 983 max 983 min
Histogram: 1 0 0 0 0 0 0 0 0 0
Neighs:    4134 ave 4134 max 4134 min
Histogram: 1 0 0 0 0 0 0 0 0 0

Total # of neighbors = 4134
Ave neighs/atom = 38.6355
Neighbor list builds = 0
Dangerous builds = 0
pypospack:output_section:begin
tot_energy = -594.081618777858
num_atoms = 107
a11 = 10.0061
a22 = 10.0061
a33 = 10.0061
a12 = 0
a13 = -0
a23 = -0
tot_press = -6815.83620760629
pxx = -6815.83620760628
pyy = -6815.83620760631
pzz = -6815.83620760628
pxy = -5.17120797656603e-12
pxz = 1.73779220843399e-11
pyz = 1.73779220843399e-11
pypospack:output_section:done
pypospack:lammps_sim:done
Total wall time: 0:00:00
