# ['Ni']

107 atoms
1 atom types

    0.0000    10.0061 xlo xhi
    0.0000    10.0061 ylo yhi
    0.0000    10.0061 zlo zhi

    0.0000    -0.0000    -0.0000 xy xz yz

Atoms

1 1     1.6677     1.6677     0.0000
2 1     1.6677     0.0000     1.6677
3 1     0.0000     1.6677     1.6677
4 1     0.0000     0.0000     3.3354
5 1     1.6677     1.6677     3.3354
6 1     1.6677     0.0000     5.0031
7 1     0.0000     1.6677     5.0031
8 1     0.0000     0.0000     6.6707
9 1     1.6677     1.6677     6.6707
10 1     1.6677     0.0000     8.3384
11 1     0.0000     1.6677     8.3384
12 1     0.0000     3.3354     0.0000
13 1     1.6677     5.0031     0.0000
14 1     1.6677     3.3354     1.6677
15 1     0.0000     5.0031     1.6677
16 1     0.0000     3.3354     3.3354
17 1     1.6677     5.0031     3.3354
18 1     1.6677     3.3354     5.0031
19 1     0.0000     5.0031     5.0031
20 1     0.0000     3.3354     6.6707
21 1     1.6677     5.0031     6.6707
22 1     1.6677     3.3354     8.3384
23 1     0.0000     5.0031     8.3384
24 1     0.0000     6.6707     0.0000
25 1     1.6677     8.3384     0.0000
26 1     1.6677     6.6707     1.6677
27 1     0.0000     8.3384     1.6677
28 1     0.0000     6.6707     3.3354
29 1     1.6677     8.3384     3.3354
30 1     1.6677     6.6707     5.0031
31 1     0.0000     8.3384     5.0031
32 1     0.0000     6.6707     6.6707
33 1     1.6677     8.3384     6.6707
34 1     1.6677     6.6707     8.3384
35 1     0.0000     8.3384     8.3384
36 1     3.3354     0.0000     0.0000
37 1     5.0031     1.6677     0.0000
38 1     5.0031     0.0000     1.6677
39 1     3.3354     1.6677     1.6677
40 1     3.3354     0.0000     3.3354
41 1     5.0031     1.6677     3.3354
42 1     5.0031     0.0000     5.0031
43 1     3.3354     1.6677     5.0031
44 1     3.3354     0.0000     6.6707
45 1     5.0031     1.6677     6.6707
46 1     5.0031     0.0000     8.3384
47 1     3.3354     1.6677     8.3384
48 1     3.3354     3.3354     0.0000
49 1     5.0031     5.0031     0.0000
50 1     5.0031     3.3354     1.6677
51 1     3.3354     5.0031     1.6677
52 1     3.3354     3.3354     3.3354
53 1     5.0031     5.0031     3.3354
54 1     5.0031     3.3354     5.0031
55 1     3.3354     5.0031     5.0031
56 1     3.3354     3.3354     6.6707
57 1     5.0031     5.0031     6.6707
58 1     5.0031     3.3354     8.3384
59 1     3.3354     5.0031     8.3384
60 1     3.3354     6.6707     0.0000
61 1     5.0031     8.3384     0.0000
62 1     5.0031     6.6707     1.6677
63 1     3.3354     8.3384     1.6677
64 1     3.3354     6.6707     3.3354
65 1     5.0031     8.3384     3.3354
66 1     5.0031     6.6707     5.0031
67 1     3.3354     8.3384     5.0031
68 1     3.3354     6.6707     6.6707
69 1     5.0031     8.3384     6.6707
70 1     5.0031     6.6707     8.3384
71 1     3.3354     8.3384     8.3384
72 1     6.6707     0.0000     0.0000
73 1     8.3384     1.6677     0.0000
74 1     8.3384     0.0000     1.6677
75 1     6.6707     1.6677     1.6677
76 1     6.6707     0.0000     3.3354
77 1     8.3384     1.6677     3.3354
78 1     8.3384     0.0000     5.0031
79 1     6.6707     1.6677     5.0031
80 1     6.6707     0.0000     6.6707
81 1     8.3384     1.6677     6.6707
82 1     8.3384     0.0000     8.3384
83 1     6.6707     1.6677     8.3384
84 1     6.6707     3.3354     0.0000
85 1     8.3384     5.0031     0.0000
86 1     8.3384     3.3354     1.6677
87 1     6.6707     5.0031     1.6677
88 1     6.6707     3.3354     3.3354
89 1     8.3384     5.0031     3.3354
90 1     8.3384     3.3354     5.0031
91 1     6.6707     5.0031     5.0031
92 1     6.6707     3.3354     6.6707
93 1     8.3384     5.0031     6.6707
94 1     8.3384     3.3354     8.3384
95 1     6.6707     5.0031     8.3384
96 1     6.6707     6.6707     0.0000
97 1     8.3384     8.3384     0.0000
98 1     8.3384     6.6707     1.6677
99 1     6.6707     8.3384     1.6677
100 1     6.6707     6.6707     3.3354
101 1     8.3384     8.3384     3.3354
102 1     8.3384     6.6707     5.0031
103 1     6.6707     8.3384     5.0031
104 1     6.6707     6.6707     6.6707
105 1     8.3384     8.3384     6.6707
106 1     8.3384     6.6707     8.3384
107 1     6.6707     8.3384     8.3384
