# ['Ni']

107 atoms
1 atom types

    0.0000     9.6281 xlo xhi
    0.0000     9.6281 ylo yhi
    0.0000     9.6281 zlo zhi

    0.0000    -0.0000    -0.0000 xy xz yz

Atoms

1 1     1.6047     1.6047     0.0000
2 1     1.6047     0.0000     1.6047
3 1     0.0000     1.6047     1.6047
4 1     0.0000     0.0000     3.2094
5 1     1.6047     1.6047     3.2094
6 1     1.6047     0.0000     4.8140
7 1     0.0000     1.6047     4.8140
8 1     0.0000     0.0000     6.4187
9 1     1.6047     1.6047     6.4187
10 1     1.6047     0.0000     8.0234
11 1     0.0000     1.6047     8.0234
12 1     0.0000     3.2094     0.0000
13 1     1.6047     4.8140     0.0000
14 1     1.6047     3.2094     1.6047
15 1     0.0000     4.8140     1.6047
16 1     0.0000     3.2094     3.2094
17 1     1.6047     4.8140     3.2094
18 1     1.6047     3.2094     4.8140
19 1     0.0000     4.8140     4.8140
20 1     0.0000     3.2094     6.4187
21 1     1.6047     4.8140     6.4187
22 1     1.6047     3.2094     8.0234
23 1     0.0000     4.8140     8.0234
24 1     0.0000     6.4187     0.0000
25 1     1.6047     8.0234     0.0000
26 1     1.6047     6.4187     1.6047
27 1     0.0000     8.0234     1.6047
28 1     0.0000     6.4187     3.2094
29 1     1.6047     8.0234     3.2094
30 1     1.6047     6.4187     4.8140
31 1     0.0000     8.0234     4.8140
32 1     0.0000     6.4187     6.4187
33 1     1.6047     8.0234     6.4187
34 1     1.6047     6.4187     8.0234
35 1     0.0000     8.0234     8.0234
36 1     3.2094     0.0000     0.0000
37 1     4.8140     1.6047     0.0000
38 1     4.8140     0.0000     1.6047
39 1     3.2094     1.6047     1.6047
40 1     3.2094     0.0000     3.2094
41 1     4.8140     1.6047     3.2094
42 1     4.8140     0.0000     4.8140
43 1     3.2094     1.6047     4.8140
44 1     3.2094     0.0000     6.4187
45 1     4.8140     1.6047     6.4187
46 1     4.8140     0.0000     8.0234
47 1     3.2094     1.6047     8.0234
48 1     3.2094     3.2094     0.0000
49 1     4.8140     4.8140     0.0000
50 1     4.8140     3.2094     1.6047
51 1     3.2094     4.8140     1.6047
52 1     3.2094     3.2094     3.2094
53 1     4.8140     4.8140     3.2094
54 1     4.8140     3.2094     4.8140
55 1     3.2094     4.8140     4.8140
56 1     3.2094     3.2094     6.4187
57 1     4.8140     4.8140     6.4187
58 1     4.8140     3.2094     8.0234
59 1     3.2094     4.8140     8.0234
60 1     3.2094     6.4187     0.0000
61 1     4.8140     8.0234     0.0000
62 1     4.8140     6.4187     1.6047
63 1     3.2094     8.0234     1.6047
64 1     3.2094     6.4187     3.2094
65 1     4.8140     8.0234     3.2094
66 1     4.8140     6.4187     4.8140
67 1     3.2094     8.0234     4.8140
68 1     3.2094     6.4187     6.4187
69 1     4.8140     8.0234     6.4187
70 1     4.8140     6.4187     8.0234
71 1     3.2094     8.0234     8.0234
72 1     6.4187     0.0000     0.0000
73 1     8.0234     1.6047     0.0000
74 1     8.0234     0.0000     1.6047
75 1     6.4187     1.6047     1.6047
76 1     6.4187     0.0000     3.2094
77 1     8.0234     1.6047     3.2094
78 1     8.0234     0.0000     4.8140
79 1     6.4187     1.6047     4.8140
80 1     6.4187     0.0000     6.4187
81 1     8.0234     1.6047     6.4187
82 1     8.0234     0.0000     8.0234
83 1     6.4187     1.6047     8.0234
84 1     6.4187     3.2094     0.0000
85 1     8.0234     4.8140     0.0000
86 1     8.0234     3.2094     1.6047
87 1     6.4187     4.8140     1.6047
88 1     6.4187     3.2094     3.2094
89 1     8.0234     4.8140     3.2094
90 1     8.0234     3.2094     4.8140
91 1     6.4187     4.8140     4.8140
92 1     6.4187     3.2094     6.4187
93 1     8.0234     4.8140     6.4187
94 1     8.0234     3.2094     8.0234
95 1     6.4187     4.8140     8.0234
96 1     6.4187     6.4187     0.0000
97 1     8.0234     8.0234     0.0000
98 1     8.0234     6.4187     1.6047
99 1     6.4187     8.0234     1.6047
100 1     6.4187     6.4187     3.2094
101 1     8.0234     8.0234     3.2094
102 1     8.0234     6.4187     4.8140
103 1     6.4187     8.0234     4.8140
104 1     6.4187     6.4187     6.4187
105 1     8.0234     8.0234     6.4187
106 1     8.0234     6.4187     8.0234
107 1     6.4187     8.0234     8.0234
