# ['Ni']

10 atoms
1 atom types

    0.0000     3.5125 xlo xhi
    0.0000     2.5144 ylo yhi
    0.0000    25.1441 zlo zhi

    0.0000     0.0000     0.0000 xy xz yz

Atoms

1 1     0.0000     0.0000     0.0000
2 1     1.7563     1.2572     1.2572
3 1     0.0000     0.0000     2.5144
4 1     1.7563     1.2572     3.7716
5 1     0.0000     0.0000     5.0288
6 1     1.7563     1.2572     6.2860
7 1     0.0000     0.0000     7.5432
8 1     1.7563     1.2572     8.8004
9 1     0.0000     0.0000    10.0576
10 1     1.7563     1.2572    11.3148
