LAMMPS (11 Aug 2017)
Reading data file ...
  triclinic box = (0 0 0) to (2.4819 4.2987 6.0783) with tilt (0 0 0)
  1 by 1 by 1 MPI processor grid
  reading atoms ...
  6 atoms
6 atoms in group Ni
Neighbor list info ...
  update every 1 steps, delay 0 steps, check yes
  max neighbors/atom: 2000, page size: 100000
  master list distance cutoff = 11
  ghost atom cutoff = 11
  binsize = 5.5, bins = 1 1 2
  1 neighbor lists, perpetual/occasional/extra = 1 0 0
  (1) pair eam/alloy, perpetual
      attributes: half, newton on
      pair build: half/bin/newton/tri
      stencil: half/bin/3d/newton/tri
      bin: standard
Setting up cg style minimization ...
  Unit style    : metal
  Current step  : 0
WARNING: Energy due to 3 extra global DOFs will be included in minimizer energies
Per MPI rank memory allocation (min/avg/max) = 4.298 | 4.298 | 4.298 Mbytes
Step PotEng Xhi Xlo Yhi Ylo Zhi Xy Xz Yz Press Pxx Pyy Pzz Pxy Pxz Pyz c_eatoms 
       0   -27.593758       2.4819            0       4.2987            0       6.0783            0            0            0   -24084.058   -24198.336    -24174.88   -23878.957 -0.002234643 -0.00084096029   -6.2954393   -27.593758 
      10   -27.600247    2.4763435 0.0055564835    4.2891044 0.0095956137    6.0652157            0            0            0  0.011964325   -5.4081224   0.89582641     4.548189 2.0771139e-05 3.1399884e-05   -1.6941073   -27.600247 
      20   -27.600247    2.4763391 0.0055608517    4.2891068  0.009593228     6.065223            0            0            0 2.5953663e-06 1.4544566e-06 4.7070583e-06 1.624584e-06 -1.0958833e-10 1.5164826e-11 -8.739834e-07   -27.600247 
      27   -27.600247    2.4763391 0.0055608517    4.2891068  0.009593228     6.065223            0            0            0 4.3475411e-10 5.0901992e-10 7.3963945e-10 5.5602947e-11 -3.5779179e-11 7.6476277e-11 9.9773957e-11   -27.600247 
Loop time of 0.00727606 on 1 procs for 27 steps with 6 atoms

89.0% CPU use with 1 MPI tasks x no OpenMP threads

Minimization stats:
  Stopping criterion = energy tolerance
  Energy initial, next-to-last, final = 
        -27.5937580139     -27.6002465306     -27.6002465306
  Force two-norm initial, final = 1.68846 4.79888e-14
  Force max component initial, final = 0.979442 2.9675e-14
  Final line search alpha, max atom move = 1 2.9675e-14
  Iterations, force evaluations = 27 50

MPI task timing breakdown:
Section |  min time  |  avg time  |  max time  |%varavg| %total
---------------------------------------------------------------
Pair    | 0.0048635  | 0.0048635  | 0.0048635  |   0.0 | 66.84
Neigh   | 0          | 0          | 0          |   0.0 |  0.00
Comm    | 0.00040007 | 0.00040007 | 0.00040007 |   0.0 |  5.50
Output  | 3.0041e-05 | 3.0041e-05 | 3.0041e-05 |   0.0 |  0.41
Modify  | 0          | 0          | 0          |   0.0 |  0.00
Other   |            | 0.001982   |            |       | 27.25

Nlocal:    6 ave 6 max 6 min
Histogram: 1 0 0 0 0 0 0 0 0 0
Nghost:    1626 ave 1626 max 1626 min
Histogram: 1 0 0 0 0 0 0 0 0 0
Neighs:    1590 ave 1590 max 1590 min
Histogram: 1 0 0 0 0 0 0 0 0 0

Total # of neighbors = 1590
Ave neighs/atom = 265
Neighbor list builds = 0
Dangerous builds = 0
pypospack:output_section:begin
tot_energy = -27.6002465306078
num_atoms = 6
a11 = 2.47077829664051
a22 = 4.27951354401985
a33 = 6.05214609431222
a12 = 0
a13 = 0
a23 = 0
tot_press = 4.34754106676911e-10
pxx = 5.09019924618976e-10
pyy = 7.39639448212805e-10
pzz = 5.56029471989515e-11
pxy = -3.57791793320289e-11
pxz = 7.64762770192472e-11
pyz = 9.97739566841564e-11
pypospack:output_section:done
pypospack:lammps_sim:done
Total wall time: 0:00:00
