LAMMPS (10 Feb 2015)
Reading data file ...
  triclinic box = (0 0 0) to (4.2565 4.2565 4.2565) with tilt (0 0 0)
  1 by 1 by 1 MPI processor grid
  reading atoms ...
  8 atoms
4 atoms in group Mg
4 atoms in group O
Setting atom values ...
  4 settings made for charge
Setting atom values ...
  4 settings made for charge
PPPM initialization ...
  G vector (1/distance) = 0.352908
  grid = 8 8 8
  stencil order = 5
  estimated absolute RMS force accuracy = 3.98663e-05
  estimated relative force accuracy = 2.76856e-06
  using double precision FFTs
  3d grid and FFT values/proc = 3375 512
Neighbor list info ...
  1 neighbor list requests
  update every 1 steps, delay 0 steps, check yes
  master list distance cutoff = 11
Setting up minimization ...
Memory usage per processor = 4.06549 Mbytes
Step PotEng Lx Ly Lz Xy Xz Yz Press Pxx Pyy Pzz Pxy Pxz Pyz eatoms 
       0   -110.76064       4.2565       4.2565       4.2565            0            0            0    174504.14    174504.14    174504.14    174504.14 9.3704156e-11 -1.8744789e-10 -4.5445427e-11   -110.76064 
      10   -110.96575     4.299065     4.299065     4.299065            0            0            0    110293.78    110293.78    110293.78    110293.78 1.4024136e-10 -8.8674493e-11 1.1163093e-10   -110.96575 
      20   -111.08678      4.34163      4.34163      4.34163            0            0            0    53874.038    53874.038    53874.038    53874.038 -1.7149362e-10 -3.6153785e-12 -2.8025662e-10   -111.08678 
      30   -111.12967     4.384195     4.384195     4.384195            0            0            0    4480.0037    4480.0037    4480.0037    4480.0037 2.9824961e-11 1.1991676e-10 2.4884808e-10   -111.12967 
      35   -111.13002    4.3883439    4.3883439    4.3883439            0            0            0  -0.29149971   -0.2914997  -0.29149971  -0.29149971 -2.2034763e-11 5.2889443e-11 3.1711826e-11   -111.13002 
Loop time of 0.0159149 on 1 procs for 35 steps with 8 atoms

Minimization stats:
  Stopping criterion = linesearch alpha is zero
  Energy initial, next-to-last, final = 
        -110.760644492     -111.130018171     -111.130018171
  Force two-norm initial, final = 25.1985 4.50194e-05
  Force max component initial, final = 25.1985 4.47407e-05
  Final line search alpha, max atom move = 0.5 2.23704e-05
  Iterations, force evaluations = 35 47

Pair  time (%) = 0.00415301 (26.0951)
Kspce time (%) = 0.00253391 (15.9216)
Neigh time (%) = 0 (0)
Comm  time (%) = 0.000487804 (3.06508)
Outpt time (%) = 4.60148e-05 (0.28913)
Other time (%) = 0.00869417 (54.6291)

Nlocal:    8 ave 8 max 8 min
Histogram: 1 0 0 0 0 0 0 0 0 0
Nghost:    2189 ave 2189 max 2189 min
Histogram: 1 0 0 0 0 0 0 0 0 0
Neighs:    2344 ave 2344 max 2344 min
Histogram: 1 0 0 0 0 0 0 0 0 0

Total # of neighbors = 2344
Ave neighs/atom = 293
Neighbor list builds = 0
Dangerous builds = 0
pypospack:output_section:begin
tot_energy = -111.130018170686
num_atoms = 8
xx = 4.38834393192064
yy = 4.38834393192064
zz = 4.38834393192064
xy = 0
xz = 0
yz = 0
tot_press = -0.291499705167032
pxx = -0.291499704907524
pyy = -0.291499705134451
pzz = -0.291499705459123
pxy = -2.20347627600699e-11
pxz = 5.28894429779567e-11
pyz = 3.17118260401048e-11
pypospack:output_section:done
pypospack:lammps_sim:done
PPPM initialization ...
  G vector (1/distance) = 0.351569
  grid = 8 8 8
  stencil order = 5
  estimated absolute RMS force accuracy = 4.24255e-05
  estimated relative force accuracy = 2.94629e-06
  using double precision FFTs
  3d grid and FFT values/proc = 3375 512
Setting up run ...
Memory usage per processor = 3.06549 Mbytes
Step Temp PotEng KinEng TotEng Press Lx Ly Lz Press Pxx Pyy Pzz Pxy Pxz Pyz Volume 
       0          400   -111.12999   0.36192841   -110.76806    4578.2836    4.3883439    4.3883439    4.3883439    4578.2836    5778.4594    6465.5668    1490.8247   -2509.1271     1418.841   -1534.1637    84.508807 
     100    170.32208     -110.872     0.154111   -110.71789   -1603.4534    4.4020383    4.4020383    4.4020383   -1603.4534   -4927.9931    11246.596   -11128.963    1638.3938   -701.48975   -1523.2024    85.302438 
     200    292.69722    -110.8833    0.2648386   -110.61846   -2309.6085    4.3993806    4.3993806    4.3993806   -2309.6085   -3144.8477    8167.5474   -11951.525   -130.30313   -504.76616   -3096.0949    85.148033 
     300    481.97509   -110.96864   0.43610119   -110.53254    5067.9745    4.3972473    4.3972473    4.3972473    5067.9745    543.94707    16530.163   -1870.1869   -847.89649    1379.8509   -1117.5105    85.024224 
     400    209.60338    -110.6621   0.18965354   -110.47244    1954.2858     4.406309     4.406309     4.406309    1954.2858   -6656.5017    27882.592   -15363.233    1401.3325    -1392.902   -410.16603     85.55095 
     500    347.43324   -110.74009    0.3143649   -110.42572   -4037.6819    4.4044152    4.4044152    4.4044152   -4037.6819   -6678.5838    7840.9874   -13275.449   -264.93466    927.65503   -2777.7372    85.440692 
     600     553.4147    -110.9035   0.50074126   -110.40276    10394.207      4.39556      4.39556      4.39556    10394.207    307.23385    30329.321    546.06739    1996.8201    144.90008    2804.7801    84.926385 
     700    343.15798   -110.71192   0.31049656   -110.40143   -8489.5668    4.4149961    4.4149961    4.4149961   -8489.5668   -6308.1352    3951.7412   -23112.307    2276.6642   -1563.4722    459.64343    86.057947 
     800    451.21215   -110.80902   0.40826624   -110.40076    3870.3318    4.3940419    4.3940419    4.3940419    3870.3318    11515.342    3367.5728   -3271.9195    2259.1693    1307.3816    1019.8332    84.838422 
     900    561.48956   -110.90979   0.50804755   -110.40174   -251.20368    4.4058711    4.4058711    4.4058711   -251.20368   -2409.6209    13448.114   -11792.105    74.382436    586.18801    4275.6908    85.525449 
    1000    371.01061   -110.73908    0.3356982   -110.40338   -6579.1039    4.4102398    4.4102398    4.4102398   -6579.1039     1680.509   -6008.9305    -15408.89    2200.2903   -1627.3798    18.108366    85.780114 
    1100    411.96293    -110.7745   0.37275271   -110.40175    1508.2434    4.3943409    4.3943409    4.3943409    1508.2434    438.82725    6977.4619    -2891.559     4205.365   -122.15736    3411.3999    84.855741 
    1200    455.31728   -110.81385   0.41198064   -110.40187   -5093.3202    4.4090845    4.4090845    4.4090845   -5093.3202   -6033.0016    2169.6204   -11416.579   -227.38386    77.582873    3361.3692    85.712716 
    1300    383.34358   -110.75107   0.34685732   -110.40421   -2986.6729    4.4045384    4.4045384    4.4045384   -2986.6729   -1765.1141     2572.344   -9767.2486    2904.9497   -395.18314   -612.40687    85.447863 
    1400    395.43028   -110.76205   0.35779362   -110.40425    5421.7613    4.3973177    4.3973177    4.3973177    5421.7613     7259.283    12890.692    -3884.691    1329.1468   -157.25986    976.33721    85.028309 
    1500    459.78556   -110.81955   0.41602364   -110.40353   -4747.0542    4.4114127    4.4114127    4.4114127   -4747.0542    195.75644    2683.0602   -17119.979    -232.3727   -763.96241    2312.2868    85.848571 
    1600    377.22035   -110.74512    0.3413169    -110.4038    4721.3001    4.3998521    4.3998521    4.3998521    4721.3001    3097.9384    13563.538   -2497.5762    209.94473   -237.41906   -2329.0797    85.175412 
    1700    439.34914   -110.80112   0.39753233   -110.40359    2650.0417    4.4012711    4.4012711    4.4012711    2650.0417    551.51126    16237.047   -8838.4334    1415.8935    2322.0337   -985.50181    85.257849 
    1800    347.41259   -110.71782   0.31434621   -110.40347   -3062.3578    4.4098873    4.4098873    4.4098873   -3062.3578   -760.23597    2833.0609   -11259.898   -1837.0053   -1151.5161    1506.8783    85.759544 
    1900    360.52629   -110.72842   0.32621177   -110.40221    3309.1766    4.3972309    4.3972309    4.3972309    3309.1766   -12013.691     18815.11    3126.1107    349.43993   -1264.4849   -4105.8452     85.02327 
    2000    409.97429   -110.77459   0.37095336   -110.40364   -2720.0982     4.405623     4.405623     4.405623   -2720.0982   -1154.9776   -247.55281    -6757.764    2633.7855    1613.3986    -442.8865    85.511003 
    2100    313.76389   -110.68899   0.28390016   -110.40509    315.44579    4.4038674    4.4038674    4.4038674    315.44579    4169.3095   -2811.4224   -411.54976   -4430.9823   -1316.7862    1691.4057    85.408816 
    2200    422.50852    -110.7865   0.38229459    -110.4042   -5719.8186    4.4014601    4.4014601    4.4014601   -5719.8186    -14663.76   -1297.3631   -1198.3323    4668.4077   -860.11488   -2758.3594    85.268831 
    2300    451.60612   -110.81212   0.40862271    -110.4035   -3401.5872    4.4058251    4.4058251    4.4058251   -3401.5872    835.59277   -8516.6837   -2523.6705   -2883.2991   -749.67768    3102.2858    85.522769 
    2400    381.14804   -110.74939   0.34487075   -110.40452   -5253.3473     4.403268     4.403268     4.403268   -5253.3473   -5700.1788    -8121.293   -1938.5701   -2379.0499   -1356.3237    3247.1677    85.373947 
    2500    389.68714   -110.75672   0.35259711   -110.40412    -661.0807    4.4005971    4.4005971    4.4005971    -661.0807   -10809.963     5060.057    3766.6642    10059.195    900.90859   -1114.8073    85.218682 
    2600    430.20706   -110.79267   0.38926039   -110.40341   -2406.4781    4.4073059    4.4073059    4.4073059   -2406.4781   -4530.6818   -567.26497   -2121.4875   -4695.2076   -1404.6808    6548.2288    85.609029 
    2700    264.52511    -110.6445   0.23934788   -110.40515    4600.1635     4.400386     4.400386     4.400386    4600.1635    3777.1673    8860.6077    1162.7155    1428.5405   -4033.7911    4392.1554    85.206419 
    2800    302.08091   -110.67838   0.27332915   -110.40505    1414.7094    4.4034064    4.4034064    4.4034064    1414.7094   -14791.955     18820.33    215.75362    8691.8169   -1366.4782    583.13413    85.381998 
    2900    393.24689   -110.75932   0.35581805   -110.40351    1996.8892    4.4057462    4.4057462    4.4057462    1996.8892   -6033.4078    11409.371    614.70417    1069.5835    -1073.585    8243.7609    85.518173 
    3000    268.60486   -110.64793   0.24303932   -110.40489    4764.8304     4.403857     4.403857     4.403857    4764.8304    277.52291    18786.338   -4769.3693    3327.8015   -4351.3649    4077.3177     85.40821 
    3100    331.89504   -110.70451   0.30030561    -110.4042    8701.9639    4.4020236    4.4020236    4.4020236    8701.9639    1695.9491    19726.496    4683.4465    8508.0138   -2833.1852    2454.5552    85.301585 
    3200    475.74737   -110.83244   0.43046622   -110.40197    2376.7274    4.4083121    4.4083121    4.4083121    2376.7274    6494.7655    4699.3647   -4063.9481    4307.4913   -2278.9108    7523.3258     85.66768 
    3300    254.21454   -110.63417   0.23001865   -110.40415     6176.005    4.4028902    4.4028902    4.4028902     6176.005    6066.4077     15429.82   -2968.2129    2737.1852   -4851.9611    3357.6911    85.351974 
    3400    398.24112   -110.76427   0.36033694   -110.40394    3350.3956    4.4015366    4.4015366    4.4015366    3350.3956    958.06835    1508.2405    7584.8779    7260.3386   -1545.2375    2632.0432    85.273277 
    3500    360.14032   -110.72849   0.32586253   -110.40263    656.57983    4.4119952    4.4119952    4.4119952    656.57983    5378.1531   -463.88353   -2944.5301   -1166.1887    -4900.982    5700.0058    85.882582 
    3600    329.62975   -110.70145   0.29825592   -110.40319    2762.5522     4.399635     4.399635     4.399635    2762.5522   -385.50788    2230.9033    6442.2611     342.7443   -5276.0551    2170.2384    85.162805 
    3700    346.37815   -110.71677   0.31341023   -110.40336    1811.5498     4.408831     4.408831     4.408831    1811.5498     8531.248   -10548.148    7451.5496     3402.069   -1457.0598    694.04978    85.697935 
    3800    512.94894   -110.86456   0.46412698   -110.40043   -310.28828    4.4063468    4.4063468    4.4063468   -310.28828    1705.4258   -4903.3121    2267.0214   -4961.3808   -6231.9379    4451.1822    85.553157 
    3900    374.22104   -110.74162   0.33860306   -110.40302   -1242.0371    4.4014752    4.4014752    4.4014752   -1242.0371   -2547.8643   -8592.0166    7413.7697    -1527.908   -5881.3963    51.676565    85.269705 
    4000     481.9877   -110.83825    0.4361126   -110.40214   -4516.3075    4.4104438    4.4104438    4.4104438   -4516.3075   -2845.7515    -15449.59     4746.419    1483.3232    1156.3636    -685.6324    85.792016 
    4100    537.00043   -110.88741   0.48588927   -110.40152   -3441.1121    4.4037148    4.4037148    4.4037148   -3441.1121   -8742.0246   -1544.5204   -36.791247   -7904.3581   -3986.2513     2757.469     85.39994 
    4200     328.0822   -110.70079   0.29685567   -110.40394   -218.51675    4.4018049    4.4018049    4.4018049   -218.51675     -5561.27   -5811.6508    10717.371   -1932.6685    -1512.007   -2865.8003    85.288874 
    4300    450.00282    -110.8088   0.40717201   -110.40163   -5971.3533    4.4123605    4.4123605    4.4123605   -5971.3533   -8483.7053   -8616.2164   -814.13813    1624.4845    2561.7466    -1109.388    85.903918 
    4400    430.13648   -110.78952   0.38919652   -110.40032    2653.6187    4.3984686    4.3984686    4.3984686    2653.6187   -5365.3265    8943.5306    4382.6521   -4034.7908   -3516.2307   -67.107808    85.095085 
    4500    284.21304   -110.66119   0.25716193   -110.40403   -5482.5529    4.4083841    4.4083841    4.4083841   -5482.5529   -6202.9286   -9051.9955   -1192.7347    2174.8611    3888.5987   -3106.9754    85.671877 
    4600    453.58197    -110.8133    0.4104105   -110.40289    3318.1601    4.4050808    4.4050808    4.4050808    3318.1601     5081.305    3041.2169    1831.9582    3458.6946    1577.5422   -936.84967    85.479433 
    4700    436.39256    -110.7972   0.39485716   -110.40234    7587.6503    4.3990825    4.3990825    4.3990825    7587.6503    20990.259    5303.5742    -3530.882    2059.4347   -2526.7934   -2329.2854    85.130726 
    4800    254.59107   -110.63684   0.23035935   -110.40648     2011.218    4.4099857    4.4099857    4.4099857     2011.218    11037.507     764.1571     -5768.01    4156.0363    4552.8882   -1899.7987    85.765285 
    4900    466.02133   -110.82297   0.42166589    -110.4013    11124.106    4.4013756    4.4013756    4.4013756    11124.106    20465.346     12857.71     49.26077    4907.8229    3347.8274   -3024.7078    85.263918 
    5000    324.79012   -110.69655   0.29387692   -110.40268    4359.8496    4.4026863    4.4026863    4.4026863    4359.8496    14424.729    7300.3167   -8645.4973     3045.762   -612.94205   -1556.0997    85.340118 
    5100    191.85726   -110.58007   0.17359648   -110.40647    1653.8399    4.4051883    4.4051883    4.4051883    1653.8399   -8113.1441    11431.079    1643.5852    6952.0682   -41.248678   -1647.5888    85.485693 
    5200    427.83316   -110.78974   0.38711243   -110.40263    7966.8111    4.4026601    4.4026601    4.4026601    7966.8111    13236.159    15007.733   -4343.4587    5654.8322    3499.3549   -5085.6085     85.33859 
    5300    292.92754   -110.67005     0.265047     -110.405       3783.2    4.4048484    4.4048484    4.4048484       3783.2    274.38275    16554.999   -5479.7819   -311.92666   -2681.0665   -203.67294    85.465903 
    5400     298.4747   -110.67522   0.27006618   -110.40515    1935.7327    4.4034938    4.4034938    4.4034938    1935.7327   -11722.859    18960.671   -1430.6148    5646.7827   -51.943562   -5102.4306    85.387082 
    5500    554.37966   -110.90297   0.50161436   -110.40136    673.11884    4.4059982    4.4059982    4.4059982    673.11884    1358.4343    10500.767   -9839.8445   -540.66428   -232.99039   -3801.5717    85.532849 
    5600    373.04601   -110.74209   0.33753987   -110.40455    82.352409    4.4021457    4.4021457    4.4021457    82.352409   -12479.073    19722.137   -6996.0072   -1566.9039   -8320.4683    1673.6665    85.308682 
    5700    382.59968   -110.75116   0.34618423   -110.40497   -3714.5973     4.405266     4.405266     4.405266   -3714.5973   -12432.538    4455.4196   -3166.6731   -2140.5564     2753.278   -6488.3169    85.490213 
    5800    524.93277   -110.87616   0.47497021   -110.40119   -5050.7329     4.408583     4.408583     4.408583   -5050.7329   -6867.1848    6509.5006   -14794.515   -5652.6456   -2721.0948   -352.24032    85.683475 
    5900    337.50832   -110.70852   0.30538462   -110.40314   -786.36676    4.3991837    4.3991837    4.3991837   -786.36676   -8530.4004    8812.3684   -2641.0682   -1511.9952   -9767.1525   -411.42134    85.136597 
    6000    338.68624    -110.7107   0.30645043   -110.40425   -6110.0505    4.4098389    4.4098389    4.4098389   -6110.0505   -8467.1459   -5715.5762   -4147.4294    -4101.583     2250.083   -5559.8994    85.756721 
    6100    534.65393   -110.88457   0.48376611    -110.4008     -5623.81    4.4058951    4.4058951    4.4058951     -5623.81   -1415.8989   -481.38765   -14974.144   -1851.6441   -4946.4314    1772.2774    85.526846 
    6200    354.87929   -110.72466   0.32110224   -110.40356     1489.073    4.4002353    4.4002353    4.4002353     1489.073    5664.4269    1359.4702    -2556.678    241.74174   -5833.3537   -1855.9681    85.197664 
    6300    433.62302   -110.79593   0.39235122   -110.40358   -5860.8644    4.4119038    4.4119038    4.4119038   -5860.8644    2916.6884     -5969.63   -14529.652    3237.1177    1072.1555   -2300.0027    85.877243 
    6400    507.49579   -110.86103   0.45919286   -110.40184    3409.8876    4.4016296    4.4016296    4.4016296    3409.8876    10492.252    11825.116   -12087.706    456.23832   -9068.9964    1227.4469    85.278682 
    6500    315.46606   -110.68975   0.28544032   -110.40431    6304.9016    4.4030778    4.4030778    4.4030778    6304.9016     4970.446    19606.929   -5662.6704    5613.8646   -2334.7801   -1736.8311    85.362884 
    6600    297.47671   -110.67373   0.26916317   -110.40457   -303.71562    4.4106581    4.4106581    4.4106581   -303.71562   -6544.7857    17062.235   -11428.596    8836.8911    2073.9813   -497.24876    85.804521 
    6700    314.50863   -110.68859   0.28457402   -110.40402    9609.3336    4.3978883    4.3978883    4.3978883    9609.3336    1775.4964    35698.605   -8646.1001    2993.0301   -9901.0015    -113.4222    85.061412 
    6800    256.53692   -110.63819      0.23212   -110.40607    5676.7137    4.4066882    4.4066882    4.4066882    5676.7137   -5642.7768    28114.167    -5441.249    6758.6364   -1870.9026   -849.48925    85.573042 
    6900    298.05695   -110.67367   0.26968819   -110.40399    -462.9339    4.4082895    4.4082895    4.4082895    -462.9339    166.01824    9520.8936   -11075.713    9428.2404    295.35801    -438.6683    85.666359 
    7000    395.94576   -110.76014   0.35826004   -110.40188    7169.6975    4.3966592    4.3966592    4.3966592    7169.6975    6680.4624    23988.627   -9159.9973     1708.078   -8936.5318   -13.181691    84.990116 
    7100    443.95949   -110.80502   0.40170387   -110.40331   -4549.5623    4.4103805    4.4103805    4.4103805   -4549.5623   -956.88627   -4492.9566   -8198.8441    1281.1914     662.9408     784.6534    85.788324 
    7200    371.54316   -110.74129   0.33618006   -110.40511    -2379.384    4.4012447    4.4012447    4.4012447    -2379.384    10682.965    -5479.216     -12341.9    4718.0224   -3278.1967   -3733.7268    85.256314 
    7300    434.62004   -110.79767   0.39325335   -110.40442   -3918.3172    4.4023839    4.4023839    4.4023839   -3918.3172    -1454.647    240.79937   -10541.104     251.3372   -11421.741   -335.90447    85.322531 
    7400    418.41726   -110.78224   0.37859273   -110.40365   -3271.5261    4.4074409    4.4074409    4.4074409   -3271.5261   -134.94624   -3377.5711   -6302.0609    160.43369    4252.7221    1781.5359      85.6169 
    7500    305.22023     -110.681   0.27616968   -110.40483   -4040.4708    4.4005019    4.4005019    4.4005019   -4040.4708    286.05093   -4833.2131   -7574.2501   -2267.7322   -5006.0401   -6340.7649    85.213152 
    7600    361.94611   -110.73238   0.32749645   -110.40488   -3807.1766    4.4031989    4.4031989    4.4031989   -3807.1766   -14208.592    11405.431   -8618.3682   -2848.4189   -11445.661    3470.0909     85.36993 
    7700    420.69658   -110.78451   0.38065511   -110.40386   -1351.4869    4.4059786    4.4059786    4.4059786   -1351.4869   -9448.1584    8091.3269   -2697.6292    427.53853    5857.2434   -732.91343     85.53171 
    7800    365.14589   -110.73581   0.33039167   -110.40542   -2773.9582    4.4003233    4.4003233    4.4003233   -2773.9582   -8370.1169    7447.0942   -7398.8519   -553.83006   -6090.7062    -6549.165    85.202777 
    7900    339.52797   -110.71312   0.30721205   -110.40591    3416.6157     4.403719     4.403719     4.403719    3416.6157   -10309.737    29749.593   -9190.0093   -4701.1787   -8495.3424    3577.2871    85.400183 
    8000    576.75536   -110.92519   0.52186037   -110.40333   -1339.5314    4.4037879    4.4037879    4.4037879   -1339.5314   -8101.9315    10249.634   -6166.2965    909.95802    4936.5374   -4946.7296    85.404188 
    8100    312.35073   -110.68922   0.28262151    -110.4066   -46.275323    4.4023498    4.4023498    4.4023498   -46.275323   -11528.892    22926.609   -11536.543     5796.472   -11046.869   -1462.6299     85.32055 
    8200    347.92846    -110.7202   0.31481298   -110.40539      1895.93    4.4014762    4.4014762    4.4014762      1895.93   -14245.341     21147.61   -1214.4791   -3808.0292   -3235.0331    2225.6239    85.269765 
    8300    545.04256   -110.89571   0.49316596   -110.40255    -10125.57    4.4072432    4.4072432    4.4072432    -10125.57   -20906.137     1486.888   -10957.462    1385.6464    5725.9707    -2911.676    85.605379 
    8400    252.83517   -110.63323   0.22877057   -110.40446   -1976.9092    4.4012955    4.4012955    4.4012955   -1976.9092   -18926.812    18293.254     -5297.17    5479.7682    -14046.69   -817.06909    85.259266 
    8500    439.94986   -110.80151   0.39807588   -110.40343   -4519.3047    4.4019262    4.4019262    4.4019262   -4519.3047   -12301.022    3194.0319   -4450.9244   -4973.2734    237.03134   -102.82946    85.295925 
    8600    554.28372    -110.9045   0.50152756   -110.40298   -10096.379    4.4075112    4.4075112    4.4075112   -10096.379   -14374.167   -2046.3527   -13868.616    2502.0068    3478.2412    2807.1026    85.620996 
    8700     375.9561   -110.74578   0.34017298    -110.4056   -4497.2793    4.3994599    4.3994599    4.3994599   -4497.2793   -12583.705    9971.4574   -10879.591    3822.8367   -12735.119    19.162251    85.152636 
    8800    493.46839   -110.85137   0.44650057   -110.40487   -7987.8202    4.4056201    4.4056201    4.4056201   -7987.8202   -13633.772   -1960.1395   -8369.5489   -2622.0333    1063.4003   -360.59738    85.510831 
    8900    485.33494   -110.84179   0.43914126   -110.40265   -6620.8097    4.4063518    4.4063518    4.4063518   -6620.8097   -15395.234    11013.649   -15480.843   -72.715925   -2667.0854     4239.717    85.553446 
    9000    306.59187   -110.68049   0.27741077   -110.40308   -1648.1692    4.3996115    4.3996115    4.3996115   -1648.1692   -15357.612    18509.114   -8096.0102   -188.98631   -9803.9777   -736.09125    85.161436 
    9100    350.98053   -110.72066   0.31757456   -110.40308   -3385.2801    4.4072205    4.4072205    4.4072205   -3385.2801   -16917.419    13345.919   -6584.3396   -3689.9737    4924.2915   -372.39323    85.604056 
    9200     358.2854   -110.72782   0.32418416   -110.40363   -188.87868    4.4027837    4.4027837    4.4027837   -188.87868   -11507.912    24141.581   -13200.305   -1960.3833   -6580.4374    5810.6352    85.345778 
    9300    246.16639   -110.62777   0.22273652   -110.40503     2293.611    4.4017026    4.4017026    4.4017026     2293.611   -9026.2519     25014.13   -9107.0453   -3800.2102   -7893.2342   -4455.2855    85.282923 
    9400    396.59763   -110.76269   0.35884987   -110.40384   -6307.8361    4.4082646    4.4082646    4.4082646   -6307.8361   -14139.359    8195.0524   -12979.201   -8384.5056    6574.6444    2690.2361     85.66491 
    9500    343.63676   -110.71451   0.31092976   -110.40358     3572.468    4.4015172    4.4015172    4.4015172     3572.468   -476.52251    22355.519   -11161.592    -1619.933   -7420.3553    4292.4487     85.27215 
    9600    401.75244    -110.7664   0.36351405   -110.40289   -1295.8436    4.4036637    4.4036637    4.4036637   -1295.8436    646.77061    7959.5549   -12493.856   -4292.3508   -5411.6929   -6718.6166    85.396968 
    9700    394.89837    -110.7606   0.35731234   -110.40329   -5528.7685    4.4076859    4.4076859    4.4076859   -5528.7685   -4379.8166   -4701.4235   -7505.0653   -9096.1451    3226.1377    4512.3848     85.63118 
    9800    289.37439   -110.66609   0.26183203   -110.40426    3021.0223    4.4013419    4.4013419    4.4013419    3021.0223    8240.2845    14820.892   -13998.109   -4273.3388   -8586.0075   -79.293368    85.261964 
    9900    412.39131   -110.77656   0.37314033   -110.40342    -3078.279    4.4045425    4.4045425    4.4045425    -3078.279    1909.7123   -4295.0704    -6849.479   -400.11276    1259.2967    -2169.924      85.4481 
   10000    307.61312   -110.68234   0.27833481     -110.404   -5489.2234    4.4074959    4.4074959    4.4074959   -5489.2234   -2345.6219   -4155.7948   -9966.2534   -4803.7224   -741.52959    2563.0758    85.620106 
   10100    308.85779   -110.68306   0.27946102    -110.4036    1497.8831    4.4004329    4.4004329    4.4004329    1497.8831    3002.0098    13673.883   -12182.243    -2417.299   -10448.624   -1899.0947    85.209148 
   10200    519.47825    -110.8723   0.47003484   -110.40227   -4957.7555    4.4058783    4.4058783    4.4058783   -4957.7555    1231.8408   -11045.672   -5059.4347    823.02398    2262.6146   -1265.3627    85.525868 
   10300    385.71952   -110.75381   0.34900713    -110.4048   -3999.6722     4.405016     4.405016     4.405016   -3999.6722   -270.62782    460.80506   -12189.194   -2119.4026   -3932.4458   -855.34742    85.475661 
   10400    426.44383   -110.79038   0.38585534   -110.40452   -2557.7093    4.4013805    4.4013805    4.4013805   -2557.7093   -6431.4247    11282.005   -12523.709    1755.2747    -8612.022     1266.328    85.264204 
   10500     606.2462   -110.95047   0.54854431   -110.40192   -6050.2753    4.4063116    4.4063116    4.4063116   -6050.2753   -2324.5969   -7038.8522   -8787.3767   -1767.7935    52.336698   -3458.0216    85.551106 
   10600    337.38034   -110.70998   0.30526882   -110.40471   -2201.2363    4.4036623    4.4036623    4.4036623   -2201.2363   -12090.003    14873.836   -9387.5415   -1349.5284   -7874.0972   -645.50419    85.396881 
   10700    442.39304   -110.80416   0.40028652   -110.40387   -6121.7465    4.4014944    4.4014944    4.4014944   -6121.7465   -11808.203    5593.2362   -12150.273    3983.8968    -4538.521    3069.9969    85.270826 
   10800    480.59643   -110.83823   0.43485375   -110.40338    1529.5493    4.4049413    4.4049413    4.4049413    1529.5493    2914.9857    4084.2831   -2410.6208   -165.00361    1259.2936   -4518.1505    85.471312 
   10900    349.51726   -110.72221   0.31625056   -110.40596   -2175.7419    4.4022496    4.4022496    4.4022496   -2175.7419   -13379.193    13982.294   -7130.3273   -1940.2692   -6916.0369     1707.054    85.314726 
   11000    374.83572   -110.74624   0.33915924   -110.40708   -1063.3156    4.4014701    4.4014701    4.4014701   -1063.3156    3646.3639    1605.9372   -8442.2479    2111.7185   -3080.9624    2454.9312    85.269412 
   11100    485.74674   -110.84319   0.43951386   -110.40367    3107.8466    4.4072644    4.4072644    4.4072644    3107.8466    5368.3955    7546.5299   -3591.3856    1780.0327    1970.3417   -2793.5106    85.606613 
   11200    400.11291   -110.76667   0.36203057   -110.40464   -1590.7069    4.4004693    4.4004693    4.4004693   -1590.7069   -1314.0827     2739.199   -6197.2368   -5077.0904   -3443.2652    3756.1517    85.211258 
   11300    322.92551   -110.69778   0.29218979   -110.40559    2836.5732    4.4027352    4.4027352    4.4027352    2836.5732    14498.053   -263.24908   -5725.0842   -642.32017   -3235.8086    3742.7543    85.342958 
   11400    502.31958   -110.85739   0.45450932   -110.40288    1981.8534    4.4065544    4.4065544    4.4065544    1981.8534    592.31223    6317.5227   -964.27464   -314.07828    2249.4878   -3445.6943    85.565247 
   11500    307.43013   -110.68377   0.27816924    -110.4056    5354.2169    4.3980808    4.3980808    4.3980808    5354.2169    5579.4559     9580.875    902.31975   -3960.0141   -1727.4816    4037.5759    85.072579 
   11600    270.63507    -110.6518    0.2448763   -110.40693    513.74099     4.406137     4.406137     4.406137    513.74099   -1196.1872    5655.2998   -2917.8896   -1482.5908   -4173.3811     4476.097    85.540937 
   11700    473.19199   -110.83059   0.42815406   -110.40243    3251.7295    4.4049426    4.4049426    4.4049426    3251.7295   -3548.6841    9125.4571    4178.4157   -4359.4842    4097.6873   -3658.5853    85.471389 
   11800    328.03469   -110.70119   0.29681268   -110.40438    5536.2175    4.3991174    4.3991174    4.3991174    5536.2175    10721.487    9377.5243   -3490.3585   -3542.1914   -3894.7603     4625.646    85.132751 
   11900     309.9996     -110.686   0.28049416    -110.4055    461.69329    4.4082622    4.4082622    4.4082622    461.69329    -5591.837    6469.8598    507.05704   -1070.3689   -3559.0983    981.23357    85.664768 
   12000    561.20189   -110.90944   0.50778727   -110.40165    860.70203    4.4036523    4.4036523    4.4036523    860.70203     2815.849   -281.07386    47.330949    -4474.658    3567.7435   -2699.0668    85.396302 
   12100    345.76838   -110.71736    0.3128585    -110.4045    7037.5125    4.3985259    4.3985259    4.3985259    7037.5125    9671.0329    10520.109    921.39538   -4130.4425   -7236.5088    4772.1555    85.098414 
   12200    413.16922   -110.77865    0.3738442    -110.4048   -8575.6908     4.409043     4.409043     4.409043   -8575.6908   -15653.005   -6454.8379   -3619.2299     2401.856   -2256.4139   -186.44239    85.710299 
   12300    509.19237   -110.86291   0.46072796   -110.40218   -1323.2533    4.4022933    4.4022933    4.4022933   -1323.2533    2600.5396   -2056.3759   -4513.9238    1637.3852    1323.9708   -3953.5339    85.317265 
   12400    380.66227   -110.74851   0.34443122   -110.40408    -369.0234    4.4023381    4.4023381    4.4023381    -369.0234    -2985.414    2283.9356   -405.59176   -4720.1238   -7613.4563    2049.2985     85.31987 
   12500    425.74285   -110.78851   0.38522107   -110.40329   -8420.3619    4.4077305    4.4077305    4.4077305   -8420.3619   -15952.459   -5984.5909   -3324.0354    3109.2977   -1468.8834   -724.75593    85.633778 
   12600    516.60864   -110.86862   0.46743836   -110.40118   -3031.7133    4.4028971    4.4028971    4.4028971   -3031.7133    560.95606   -4085.9818   -5570.1142    3911.5988    458.69218   -6522.0872    85.352377 
   12700     478.2049   -110.83544   0.43268985   -110.40275   -5009.4175    4.4031249    4.4031249    4.4031249   -5009.4175   -10068.239    -295.2973   -4664.7156   -1758.4159   -6980.0903    1537.7487    85.365624 
   12800    454.24693   -110.81431   0.41101217    -110.4033   -9273.8964    4.4078879    4.4078879    4.4078879   -9273.8964   -10872.066   -10337.638   -6611.9856    1485.2127   -3954.5622   -2979.5861    85.642954 
   12900    546.94801    -110.8961   0.49489005   -110.40121   -3208.0936    4.4015937    4.4015937    4.4015937   -3208.0936    3833.9443   -5746.3219   -7711.9032   -155.92485    1619.1944   -8775.2873    85.276597 
   13000     500.1834   -110.85499   0.45257645   -110.40242   -6371.1028    4.4052732    4.4052732    4.4052732   -6371.1028   -9730.7909   -7537.2801   -1845.2373    2278.3211   -5964.2058    3159.1791    85.490637 
   13100    411.12427    -110.7754   0.37199388   -110.40341   -7941.5233    4.4067104    4.4067104    4.4067104   -7941.5233   -9258.9068   -2571.9247   -11993.738    3995.3158   -3423.7023   -5691.2859    85.574334 
   13200    457.50324   -110.81515   0.41395855    -110.4012   -1488.7832     4.401895     4.401895     4.401895   -1488.7832    -1745.948   -2229.9704   -490.43115   -2217.9524    2135.3433   -7028.9828    85.294111 
   13300    495.54698   -110.84968   0.44838132    -110.4013   -8979.3616    4.4068825    4.4068825    4.4068825   -8979.3616   -15587.698    -6110.431    -5239.956   -1415.4862   -6673.9813    3069.8672    85.584359 
   13400    322.16856   -110.69459   0.29150489   -110.40309   -1521.2217    4.4059232    4.4059232    4.4059232   -1521.2217   -5293.8639    -1870.511    2600.7099    4491.7204    1550.1464   -5918.9627     85.52848 
   13500    506.69118   -110.85968   0.45846483   -110.40121   -1863.3877    4.4025995    4.4025995    4.4025995   -1863.3877    1996.0059   -7542.6915   -43.477588   -153.71649    2010.9853   -2861.9857    85.335069 
   13600    480.41175   -110.83653   0.43468665   -110.40184   -2444.3882    4.4062088    4.4062088    4.4062088   -2444.3882   -3492.6634   -6639.9205    2799.4194   -2631.8213   -4235.5791    2010.6137    85.545114 
   13700    348.81534   -110.71917   0.31561545   -110.40356   -2034.7124    4.4063947    4.4063947    4.4063947   -2034.7124   -452.66768    -6425.585    774.11546     2029.899    4493.0948   -3677.0645    85.555945 
   13800    469.29484   -110.82684   0.42462783   -110.40222    3172.4465    4.4018966    4.4018966    4.4018966    3172.4465    7246.4264    -3361.919    5632.8322    138.15389    3077.4905     -1807.28    85.294201 
   13900    458.77921   -110.81635   0.41511307   -110.40124   -1200.8549    4.4078308    4.4078308    4.4078308   -1200.8549   -2545.4881   -3391.0725    2333.9958    363.49863   -349.38413    1397.0327    85.639621 
   14000      235.777   -110.61753   0.21333598   -110.40419    2889.4103    4.4055361    4.4055361    4.4055361    2889.4103    5419.9649   -2524.0011    5772.2672    616.76559    5267.6857   -2681.6897    85.505944 
   14100    408.81316   -110.77284   0.36990274   -110.40294    4870.4425    4.4018024    4.4018024    4.4018024    4870.4425    10431.359    -2549.466    6729.4345   -3282.9443    5223.4785   -2675.9776    85.288726 
   14200    390.47279   -110.75564   0.35330799   -110.40233    2303.3358    4.4076641    4.4076641    4.4076641    2303.3358    989.65842   -2601.8506    8522.1996   -857.90282     1840.685    2609.0971    85.629904 
   14300    214.80177   -110.59921   0.19435716   -110.40485    1139.6283    4.4071769    4.4071769    4.4071769    1139.6283    6452.9373   -6403.7159    3369.6634    971.52285    5552.8331   -3065.2406    85.601517 
   14400     446.4613    -110.8063   0.40396757   -110.40233    7783.8688    4.4007133    4.4007133    4.4007133    7783.8688    17903.794    141.43256    5306.3802   -4731.7071      6035.09   -2530.6593    85.225432 
   14500    395.80052   -110.76025   0.35812862   -110.40212    5728.4343    4.4089531    4.4089531    4.4089531    5728.4343    9650.9186   -1933.7207    9468.1051   -4624.3529    2677.9802    3577.4011    85.705052 
   14600    253.49025    -110.6343   0.22936331   -110.40494    2200.8338    4.4053719    4.4053719    4.4053719    2200.8338    14185.618   -4992.3429   -2590.7738    523.20397    7495.7213   -4824.7029    85.496383 
   14700    411.05554   -110.77474   0.37193169   -110.40281    8550.4939     4.401871     4.401871     4.401871    8550.4939    14657.405    5649.0873    5344.9898   -4224.3165    3847.4235   -1038.4288    85.292716 
   14800     372.4245   -110.73954   0.33697751   -110.40256    1982.6437    4.4085424    4.4085424    4.4085424    1982.6437    2603.0567    3041.2516    303.62271   -4233.7905    2483.9054    3703.3233    85.681107 
   14900    179.45638   -110.56767    0.1623759   -110.40529     1871.408    4.4032857    4.4032857    4.4032857     1871.408   -91.879651    5516.9581    189.14548   -1923.1746    7328.4415   -2606.5516    85.374975 
   15000    392.78399   -110.75912   0.35539921   -110.40372    5052.3933    4.4031231    4.4031231    4.4031231    5052.3933     6055.975    12288.232   -3187.0275   -6261.8206    1220.5008    789.83101    85.365517 
   15100    355.74068   -110.72483   0.32188165   -110.40295    4958.4402    4.4078891    4.4078891    4.4078891    4958.4402   -155.18206     4014.206    11016.297   -2771.2571    5081.2857     2632.923    85.643021 
   15200    259.85717   -110.63958   0.23512423   -110.40445   -490.69641    4.4043087    4.4043087    4.4043087   -490.69641   -5177.3743    6422.1446   -2716.8595   -781.65962    7342.7209   -1903.8178    85.434496 
   15300    446.49327   -110.80644   0.40399649   -110.40244    6726.3368    4.4018816    4.4018816    4.4018816    6726.3368    4563.5953    12028.061    3587.3543   -5200.5681    1868.4515    2534.4357    85.293328 
   15400     442.4565   -110.80308   0.40034394   -110.40274    -1220.133    4.4088805    4.4088805    4.4088805    -1220.133   -10370.455    3300.5272    3409.5284    421.23396    4085.5314    4370.4807    85.700821 
   15500    246.56435    -110.6287   0.22309661    -110.4056    1707.9117    4.3999447    4.3999447    4.3999447    1707.9117   -9357.1463    17387.626   -2906.7444    1854.4591    4571.2597   -2118.9026    85.180789 
   15600    415.66609   -110.78025   0.37610342   -110.40415    1170.2813     4.405428     4.405428     4.405428    1170.2813    2207.6669    4288.8305   -2985.6535   -3905.0836    3407.0635   -1408.8673    85.499647 
   15700    367.21802   -110.73539   0.33226658   -110.40312      26.7873    4.4065848    4.4065848    4.4065848      26.7873   -15025.776    4246.6842    10859.453    3333.5831    1882.0666    5487.2536    85.567015 
   15800    236.56526   -110.61879   0.21404922   -110.40474   -37.605376    4.3985415    4.3985415    4.3985415   -37.605376   -11446.638    9657.7741     1676.048    2431.2235    2259.4018   -2974.6583    85.099321 
   15900     418.6188   -110.78254   0.37877509   -110.40376   -5426.7652    4.4080147    4.4080147    4.4080147   -5426.7652   -3094.8225   -8816.1187   -4369.3543   -2754.4722    286.35844   -2304.7421    85.650342 
   16000    428.72238   -110.79076   0.38791702   -110.40285   -1137.9248    4.4038696    4.4038696    4.4038696   -1137.9248   -10212.718    2501.7938      4297.15    5345.5747    1555.8169    4500.6186    85.408944 
   16100     377.5124   -110.74568   0.34158115    -110.4041   -2134.5049    4.3990008    4.3990008    4.3990008   -2134.5049   -3508.4409    1079.9827   -3975.0567    2488.5424    3273.6108   -5684.5472    85.125982 
   16200    453.32774   -110.81354   0.41018046   -110.40336   -3436.9252    4.4088665    4.4088665    4.4088665   -3436.9252    3075.9481   -12928.674   -458.04934     90.69988   -5505.9016   -373.12887    85.700002 
   16300    496.87662   -110.85195   0.44958441   -110.40236   -1183.6332    4.4012034    4.4012034    4.4012034   -1183.6332   -8610.9151   -1973.6373    7033.6526     6404.279    4614.6958    558.58067    85.253913 
   16400    372.16425   -110.74206   0.33674203   -110.40532   -869.91577     4.398203     4.398203     4.398203   -869.91577    3100.7652   -4174.3268   -1536.1857    1189.7013    2895.2218   -8491.8177    85.079673 
   16500    384.72562   -110.75302   0.34810783   -110.40491   -10015.513    4.4119406    4.4119406    4.4119406   -10015.513   -7283.9426   -18642.999   -4119.5976     2397.072    -4038.769   -39.110883    85.879391 
   16600    470.60168   -110.82756   0.42581029   -110.40175    3836.3091    4.3947101    4.3947101    4.3947101    3836.3091   -2146.4243    2417.2231    11238.128    2454.7693    4816.0035    970.47533    84.877131 
   16700     345.0834   -110.71678   0.31223871   -110.40454   -2515.6997    4.4045814    4.4045814    4.4045814   -2515.6997    11339.675   -12436.463   -6450.3116    1376.1536    -1751.167   -7684.6229    85.450367 
   16800    344.59967     -110.717   0.31180103    -110.4052   -265.09041    4.4062827    4.4062827    4.4062827   -265.09041   -597.97193    -15329.75    15132.451    1404.2477   -584.29266   -1345.5161    85.549423 
   16900    575.80497   -110.92317   0.52100044   -110.40217    4707.7123    4.3945378    4.3945378    4.3945378    4707.7123     6661.717    -1215.308    8676.7278   -31.831023    1127.9916    2500.1243    84.867147 
   17000    360.65914   -110.73273   0.32633197   -110.40639    149.50087    4.4073803    4.4073803    4.4073803    149.50087    7542.1359   -13430.541    6336.9079    3762.3305   -3299.2709   -5852.9628    85.613366 
   17100    370.37553   -110.74108   0.33512356   -110.40596   -661.53983    4.4030814    4.4030814    4.4030814   -661.53983   -1191.5127   -13147.473    12354.366   -3085.6131     2290.864     1501.458    85.363092 
   17200    556.99066   -110.90604   0.50397685   -110.40207    7761.9914    4.3950716    4.3950716    4.3950716    7761.9914    11270.117   -1112.1725     13128.03   -1219.2001   -789.28256    1812.0009    84.898079 
   17300    334.18653   -110.70857     0.302379   -110.40619   -2677.4659     4.410343     4.410343     4.410343   -2677.4659    1662.2666   -12821.706    3127.0417    1444.4401   -2234.9965    -6730.853    85.786133 
   17400    271.13468   -110.65296   0.24532836   -110.40763    2469.1381    4.3967502    4.3967502    4.3967502    2469.1381    1840.4725   -5973.9713    11540.913   -6510.4875   -2747.5128    4840.8064    84.995389 
   17500    465.91511   -110.82644   0.42156978   -110.40487    3453.3673    4.4001418    4.4001418    4.4001418    3453.3673    3412.6114    632.57248    6314.9181    622.65855    1954.5565    2611.3053    85.192235 
   17600    356.74531   -110.72856   0.32279065   -110.40577   -10454.911    4.4107926    4.4107926    4.4107926   -10454.911   -11648.627   -12409.746   -7306.3595   -2154.5063   -1858.7721   -5584.2913    85.812372 
   17700    217.38305   -110.60374   0.19669276   -110.40705    6634.4164    4.3923033    4.3923033    4.3923033    6634.4164    20276.467   -2173.1962    1799.9778   -6079.3233    -7238.188    4632.7097    84.737759 
   17800    590.97655   -110.93937     0.534728   -110.40464   -5863.5351    4.4074381    4.4074381    4.4074381   -5863.5351    -11326.25   -4782.0403   -1482.3149    74.840719    4954.2757    1495.6175    85.616735 
   17900    368.30666   -110.74042   0.33325161   -110.40717   -2355.7687    4.4043926    4.4043926    4.4043926   -2355.7687    5396.3102   -4684.6753   -7778.9411   -1567.4616   -1889.6253   -4375.5623    85.439378 
   18000    295.81459    -110.6755   0.26765926   -110.40784   -54.308452    4.3956969    4.3956969    4.3956969   -54.308452    5951.2987   -3780.7772   -2333.4468   -4925.4681   -3263.4628    4999.3784    84.934321 
   18100    564.90957     -110.914   0.51114205   -110.40286   -7181.0216     4.409483     4.409483     4.409483   -7181.0216   -10653.739   -3690.8153    -7198.511   -1679.7089   -416.90695   -985.33575    85.735963 
   18200    321.25638    -110.6965   0.29067953   -110.40582    -191.3492    4.3997874    4.3997874    4.3997874    -191.3492    9704.4947   -3429.7032   -6848.8391    1671.7766    -4772.364    -5007.208    85.171652 
   18300    246.21067    -110.6309   0.22277659   -110.40813   -1444.2086     4.399453     4.399453     4.399453   -1444.2086    6396.0533   -6349.1909   -4379.4882   -3927.6261    2378.4927    6832.6335    85.152235 
   18400    463.76109   -110.82382   0.41962078    -110.4042   -3343.7136    4.4086256    4.4086256    4.4086256   -3343.7136   -1153.8615   -4483.9746   -4393.3047   -1936.7482   -593.93272   -1943.6505    85.685959 
   18500    307.69801   -110.68361   0.27841163    -110.4052    3821.3294    4.3971413    4.3971413    4.3971413    3821.3294     11409.32   -1261.5107    1316.1787    223.10375   -4738.7126   -3696.4558    85.018076 
   18600    308.82308   -110.68657   0.27942962   -110.40714   -6441.7191    4.4037734    4.4037734    4.4037734   -6441.7191   -2565.9936   -11299.109   -5460.0545   -2722.1826   -121.33768    6034.6663    85.403348 
   18700    425.19727   -110.78906   0.38472742   -110.40433    4853.2088    4.4053043    4.4053043    4.4053043    4853.2088    18794.496   -4789.3903    554.52115   -676.63354    3892.1019   -2501.3474    85.492444 
   18800    542.83556   -110.89602   0.49116902   -110.40485    1693.9131    4.3961509    4.3961509    4.3961509    1693.9131    6901.4692   -5653.2281     3833.498   -1423.6047   -3218.0763   -991.59846    84.960637 
   18900    235.60429   -110.62261   0.21317971   -110.40943    1674.1053    4.4080497    4.4080497    4.4080497    1674.1053    18764.302   -15904.523    2162.5366   -4470.4703   -1136.7657    4984.8697     85.65238 
   19000    564.83002   -110.91525   0.51107007   -110.40418    3705.5329    4.3989521    4.3989521    4.3989521    3705.5329    4775.3632    -1692.922    8034.1576   -261.89296    6874.4402   -3077.1731     85.12315 
   19100    447.94934   -110.80966   0.40531398   -110.40435    3528.4005    4.4012468    4.4012468    4.4012468    3528.4005     11360.84   -9026.1954    8250.5565    4068.7057   -1342.4045    1408.0944    85.256436 
   19200    256.47202   -110.63853   0.23206127   -110.40647   -771.42905    4.4058119    4.4058119    4.4058119   -771.42905     10450.72   -12413.872   -351.13541   -7074.1593    873.40453    5975.0894    85.521998 
   19300     440.0269   -110.80161   0.39814559   -110.40346    5046.5765    4.3976717    4.3976717    4.3976717    5046.5765    10530.989    456.80615    4151.9339   -656.84802    2146.3542   -1551.0636    85.048843 
   19400     412.9595   -110.77724   0.37365443   -110.40359   -994.07932    4.4047617    4.4047617    4.4047617   -994.07932    12743.384   -13473.916   -2251.7068    3694.2313   -1626.0884    1429.4919    85.460862 
   19500    265.36548   -110.64615   0.24010827   -110.40604   -4329.9457    4.4036307    4.4036307    4.4036307   -4329.9457   -1489.7023    -10929.17     -570.965   -7060.7057   -131.80398    5837.4047    85.395047 
   19600    467.46349   -110.82739   0.42297079   -110.40442    2482.6336    4.3980485    4.3980485    4.3980485    2482.6336    3265.6994   -3712.3193    7894.5208    2310.9399   -1758.5809    401.88941     85.07071 
   19700    514.93531   -110.86954   0.46592429   -110.40361   -855.41675    4.4060533    4.4060533    4.4060533   -855.41675    15161.858   -13237.543   -4490.5652   -549.24682    1198.2864    2229.8388    85.536058 
   19800     361.6819   -110.73458   0.32725738   -110.40733   -6190.9939    4.4011255    4.4011255    4.4011255   -6190.9939   -5583.5751   -10915.208    -2074.199   -3906.6502   -27.408708    5309.7597    85.249384 
   19900     434.6364   -110.79969   0.39326814   -110.40642     2666.648    4.4002657    4.4002657    4.4002657     2666.648    10843.561   -7367.6846    4524.0673    5891.7636    3437.5703    272.04528    85.199432 
   20000    614.62998   -110.95979   0.55613012   -110.40366   -11400.055    4.4069597    4.4069597    4.4069597   -11400.055   -6784.4071   -15873.648   -11542.109   -2171.4692   -4403.1451    4189.4308    85.588861 
   20100    176.97638   -110.56867   0.16013194   -110.40853    833.82596    4.3959997    4.3959997    4.3959997    833.82596    6601.8574   -5225.2951    1124.9156   -3715.4552    819.31281    6968.8909    84.951875 
   20200    462.22524   -110.82501   0.41823111   -110.40677   -8873.4536    4.4077326    4.4077326    4.4077326   -8873.4536   -10076.842   -14791.162   -1752.3566    2112.4719    7257.0563     -1106.29    85.633901 
   20300    455.41199   -110.81698   0.41206634   -110.40491    2732.4616    4.3999306    4.3999306    4.3999306    2732.4616    17892.723    -5864.415   -3830.9233    106.89969   -7232.1049    2881.0687    85.179968 
   20400     222.3147   -110.60912   0.20115501   -110.40796   -6263.1868    4.4003392    4.4003392    4.4003392   -6263.1868   -8602.2916   -7577.2322   -2610.0367    -2730.675     2418.386    5481.3935    85.203704 
   20500    467.10874    -110.8284    0.4226498   -110.40575   -8323.2756    4.4081309    4.4081309    4.4081309   -8323.2756   -3090.4255   -15665.051   -6214.3506    1309.9825    3107.8093   -1615.7262    85.657113 
   20600    505.63336   -110.86137   0.45750769   -110.40386    8831.6264    4.3954486    4.3954486    4.3954486    8831.6264    21281.002     -3100.33    8314.2076   -1025.6882   -3567.9268    1335.6997    84.919928 
   20700    357.08986   -110.73106   0.32310241   -110.40796   -5815.5093    4.4041841    4.4041841    4.4041841   -5815.5093   -6916.1008   -10270.729   -259.69793   -3491.7014    2828.7062    2904.6188    85.427246 
   20800    416.73919   -110.78344   0.37707438   -110.40636    1608.9517    4.4066707    4.4066707    4.4066707    1608.9517    19515.077   -14660.434    -27.78744    2355.9551    1232.5102   -1586.9406     85.57202 
   20900    604.44838   -110.94975    0.5469176   -110.40283    5073.9612    4.3937509    4.3937509    4.3937509    5073.9612     9642.025   -1498.7034    7078.5621    744.61813    2861.7186    806.45073    84.821568 
   21000     218.6866   -110.60599   0.19787223   -110.40811   -2429.7098    4.4069892    4.4069892    4.4069892   -2429.7098    5224.7977   -8479.1358   -4034.7915   -5513.8851    5139.7196     2973.573    85.590578 
   21100    406.14715   -110.77347   0.36749047   -110.40598   -4016.4415    4.4032828    4.4032828    4.4032828   -4016.4415    7649.5759     -14115.1   -5583.8008    745.60851    2477.1111   -4556.3097    85.374806 
   21200    445.76942   -110.80802   0.40334154   -110.40467    10178.122     4.394313     4.394313     4.394313    10178.122    15159.311    1006.7762    14368.279    2198.7031    1861.1833   -3866.6806    84.854126 
   21300    240.64141   -110.62558    0.2177374   -110.40784    -7158.124    4.4108794    4.4108794    4.4108794    -7158.124   -675.94276   -11396.353   -9402.0763   -4804.1376    5145.1277     3083.746    85.817441 
   21400    398.30845   -110.76593   0.36039786   -110.40553   -2964.6794     4.396788     4.396788     4.396788   -2964.6794    737.19927   -9630.0883   -1.1493355    3022.2012    316.28724   -7146.5276    84.997581 
   21500    483.82978   -110.84265   0.43777936   -110.40487    140.12633    4.4012838    4.4012838    4.4012838    140.12633    8087.1194   -4712.3334    -2954.407   -1029.1971   -2764.4507   -4261.8031    85.258587 
   21600    366.08833   -110.73751   0.33124442   -110.40626    -4775.316     4.406113     4.406113     4.406113    -4775.316   -5588.7403   -4338.6696   -4398.5381   -1826.9522    9832.9916    1492.4042    85.539539 
   21700    423.10533   -110.78846   0.38283459   -110.40562   -3429.8201    4.3971583    4.3971583    4.3971583   -3429.8201    7250.6193   -14040.847   -3499.2321    6397.7082   -1071.0089   -10085.036    85.019061 
   21800     484.7914   -110.84357   0.43864945   -110.40492   -1382.8148    4.4043074    4.4043074    4.4043074   -1382.8148    2561.6287   -3617.9725   -3092.1005   -2233.3092   -597.27422   -1337.9656    85.434421 
   21900      435.546   -110.79955   0.39409118   -110.40546   -9029.5333    4.4039002    4.4039002    4.4039002   -9029.5333   -15336.321   -3420.2104   -8332.0682    -2715.291    6235.5943   -594.78445    85.410722 
   22000     279.3307   -110.65882   0.25274429   -110.40608   -1213.2682    4.3961618    4.3961618    4.3961618   -1213.2682    10840.718   -10875.826   -3604.6961    3106.3483    -2476.242    -10203.08    84.961272 
   22100     450.2012    -110.8116    0.4073515   -110.40425   -10217.851    4.4087057    4.4087057    4.4087057   -10217.851   -15288.272   -3073.2778   -12292.004    1587.9022    8991.4499    534.69454    85.690627 
   22200    334.48134   -110.70765   0.30264575   -110.40501    2012.7804    4.3986413    4.3986413    4.3986413    2012.7804    443.28285    2340.7842    3254.2742      -1038.8   -61.780848   -1853.8222    85.105113 
   22300    288.22725    -110.6669   0.26079408    -110.4061   -489.17959    4.3985953    4.3985953    4.3985953   -489.17959    4917.7905   -9151.0738    2765.7444    652.98722   -3224.7041   -7561.0933    85.102441 
   22400    397.39218   -110.76511   0.35956879   -110.40554   -5756.4186    4.4083239    4.4083239    4.4083239   -5756.4186   -13718.004   -3712.8601    161.60866    1031.2041    7253.3871     2622.721    85.668365 
   22500    478.62112   -110.83709   0.43306645   -110.40403    2390.3848    4.3963533    4.3963533    4.3963533    2390.3848    2137.8617    837.79115    4195.5015    1046.8932   -1770.1468    -2820.625    84.972376 
   22600    293.29503    -110.6722    0.2653795   -110.40682    4015.0607    4.4025806    4.4025806    4.4025806    4015.0607    8940.7834   -11187.388    14291.787    1673.5129   -188.47334   -4249.0809     85.33397 
   22700    483.40913    -110.8425   0.43739874    -110.4051    286.77485    4.4048726    4.4048726    4.4048726    286.77485    -2613.729   -4389.0826    7863.1362    -1035.369     223.4959    3756.9508    85.467312 
   22800    523.80109    -110.8769   0.47394623   -110.40295    7360.6156     4.397327     4.397327     4.397327    7360.6156    8063.2643      320.845    13697.737   -1367.5206    3443.7261   -2840.7577    85.028844 
   22900    287.39561    -110.6674   0.26004159   -110.40736    2942.3338    4.4034327    4.4034327    4.4034327    2942.3338     4419.734   -12588.803     16996.07    1551.3717    1087.3227    -3951.985    85.383524 
   23000    396.78639   -110.76544   0.35902066   -110.40642    275.19612    4.4017072    4.4017072    4.4017072    275.19612    3604.7798   -5863.3905    3084.1991    2873.8882   -939.85357    2318.1835     85.28319 
   23100    487.82151   -110.84531   0.44139115   -110.40392    4001.2807    4.4004021    4.4004021    4.4004021    4001.2807   -3492.8806   -2209.1801    17705.903   -1405.4234     5729.062   -1423.8426    85.207355 
   23200    228.14072   -110.61394   0.20642652   -110.40751    4031.1933    4.4038087    4.4038087    4.4038087    4031.1933    10053.713    -9555.373     11595.24   -1071.3515   -2982.5095   -2979.5275    85.405399 
   23300    386.76729    -110.7561   0.34995517   -110.40615     2972.813    4.3988182    4.3988182    4.3988182     2972.813     9290.144   -6876.8459     6505.141    2556.4645    2092.2616    468.26412    85.115381 
   23400    496.92713   -110.85367   0.44963011   -110.40404   -191.22104    4.4043874    4.4043874    4.4043874   -191.22104   -6835.6422   -6132.4879    12394.467    -352.8833    1926.8226     877.1773    85.439076 
   23500    342.47822   -110.71735   0.30988149   -110.40746   -3441.3297    4.4014183    4.4014183    4.4014183   -3441.3297     4449.619   -9307.8656   -5465.7426    1430.2045    -4724.295   -4087.9666    85.266403 
   23600    388.27889   -110.75851    0.3513229   -110.40718    2039.3497    4.3992546    4.3992546    4.3992546    2039.3497     11991.87    -13945.29    8071.4688   -1547.1224    7005.0741    1988.1545    85.140716 
   23700    613.76511   -110.95889   0.55534757   -110.40355   -4612.2157    4.4059115    4.4059115    4.4059115   -4612.2157   -5873.5579   -7823.8287   -139.26031   -2583.3575   -5504.3341   -366.12078    85.527802 
   23800    314.39595   -110.69208   0.28447206   -110.40761    2825.8084    4.3977225    4.3977225    4.3977225    2825.8084     12157.06   -7646.0631    3966.4286     4237.229   -3488.1763   -4989.5606    85.051794 
   23900    383.36358   -110.75435   0.34687542   -110.40748   -7364.5067    4.4048588    4.4048588    4.4048588   -7364.5067    4734.3428   -22643.586   -4184.2763    1381.0636    4411.3247    6125.7398    85.466509 
   24000    475.49942   -110.83466   0.43024187   -110.40441    -2755.098    4.4023338    4.4023338    4.4023338    -2755.098   -9199.5581   -840.96108    1775.2251   -1642.1485   -5109.3929   -2117.7381    85.319619 
   24100    310.66002   -110.68768   0.28109171   -110.40659   -4702.9011    4.3989289    4.3989289    4.3989289   -4702.9011    3731.0667   -11939.659   -5900.1109    943.70088    595.35403   -2851.3545    85.121808 
   24200    301.50717   -110.67968   0.27281002   -110.40687   -6653.0371    4.4057152    4.4057152    4.4057152   -6653.0371     1358.125   -20039.796   -1277.4399     927.7571   -1584.3129    6921.9953    85.516369 
   24300    464.39398   -110.82447   0.42019343   -110.40428    3037.3908    4.4000937    4.4000937    4.4000937    3037.3908   -2860.9701      1950.58    10022.562    296.58028     221.4765   -3166.1045    85.189443 
   24400    435.36891   -110.79977   0.39393094   -110.40584   -4930.2055    4.3999054    4.3999054    4.3999054   -4930.2055    6382.9048   -13905.403   -7268.1184  -0.48569579    1086.1875    216.32438    85.178508 
   24500    343.44783   -110.71826   0.31075881    -110.4075   -8315.8647    4.4073275    4.4073275    4.4073275   -8315.8647   -1454.7885   -21482.759   -2010.0466    -2096.358   -1214.9275     4572.625     85.61029 
   24600    498.64762   -110.85549   0.45118684    -110.4043    5301.1975    4.3978264    4.3978264    4.3978264    5301.1975     -1816.03    2248.3842    15471.238   -818.92647    -746.7648   -2983.0396     85.05782 
   24700    558.29562   -110.90996   0.50515761    -110.4048   -3829.6453     4.401094     4.401094     4.401094   -3829.6453    7108.0308    -14054.55   -4542.4161    3324.7741   -498.04949    3162.6079    85.247557 
   24800    216.41875   -110.60452   0.19582023    -110.4087   -2978.1623    4.4084916    4.4084916    4.4084916   -2978.1623   -3190.4865    -17829.09     12085.09   -663.34949     604.6731    2195.3408    85.678144 
   24900     496.1732    -110.8536   0.44894793   -110.40466    4959.6364    4.3930629    4.3930629    4.3930629    4959.6364    899.49278    3246.2096    10733.207   -2953.2006   -4343.2009   -2014.6743    84.781727 
   25000    431.17378   -110.79563   0.39013509   -110.40549   -3246.8962     4.406426     4.406426     4.406426   -3246.8962   -1109.5681   -11653.118    3021.9974    86.926182    1535.4969    1850.5208    85.557766 
   25100    198.72711   -110.58762   0.17981247   -110.40781   -3806.3753    4.4046195    4.4046195    4.4046195   -3806.3753   -4689.1916    -12901.43    6171.4957   -979.50158     -187.056    2402.1183     85.45258 
   25200    397.93756   -110.76532   0.36006227   -110.40526    4008.2106    4.3959292    4.3959292    4.3959292    4008.2106   -4886.4423   -1190.0414    18101.116    -1173.396    -5320.609   -1006.7526    84.947787 
   25300    518.28921   -110.87194   0.46895897   -110.40298   -4058.3478    4.4076163    4.4076163    4.4076163   -4058.3478   -535.13492   -10029.384   -1610.5247   -2573.3599    3739.1407    690.30614    85.627121 
   25400    226.56279   -110.61199   0.20499877     -110.407   -1799.6641    4.4022775    4.4022775    4.4022775   -1799.6641    4017.6773   -10644.488    1227.8183   -2809.8321    -1668.681    3125.1318    85.316343 
   25500    469.80742   -110.83115   0.42509162   -110.40606   -846.83936    4.3970871    4.3970871    4.3970871   -846.83936   -2829.1942   -8446.8713    8735.5474   -55.449987    367.52398    202.56255    85.014932 
   25600    513.02066   -110.86823   0.46419187   -110.40403    623.66571    4.4078891    4.4078891    4.4078891    623.66571    9169.9748   -6631.0049   -667.97277   -175.39992   -498.94432    1724.6809    85.643023 
   25700    296.07244   -110.67569   0.26789256   -110.40779    1475.9432    4.3986282    4.3986282    4.3986282    1475.9432    9310.3624   -6992.9928    2110.4601   -3960.4268   -2906.9243    1536.0201     85.10435 
   25800    362.73773   -110.73593   0.32821272   -110.40772   -1322.2562    4.4027374    4.4027374    4.4027374   -1322.2562   -2967.9174   -12771.707    11772.855   -3472.9895    1763.2699    -2118.143    85.343084 
   25900    441.62331   -110.80279   0.39959005    -110.4032    4164.5974    4.4049028    4.4049028    4.4049028    4164.5974    15576.478    502.39367   -3585.0791    187.13396   -2685.0527    3093.9179    85.469069 
   26000    299.97933   -110.67779    0.2714276   -110.40636   -2246.0739     4.397536     4.397536     4.397536   -2246.0739    982.56477   -8297.0852    576.29881   -1875.6425     784.9467    2773.8016    85.040973 
   26100     288.3977   -110.66848    0.2609483   -110.40753   -4535.7193    4.4049081    4.4049081    4.4049081   -4535.7193    1438.1817   -14161.836   -883.50405   -2039.0955   -3010.9568   -2512.6502     85.46938 
   26200    490.70291   -110.84701    0.4439983   -110.40301    1912.3686    4.4043481    4.4043481    4.4043481    1912.3686    12687.792    1428.0534     -8378.74    369.65679   -1983.6231    637.90994    85.436788 
   26300    396.95945   -110.76456   0.35917725   -110.40538    2118.8198    4.3969599    4.3969599    4.3969599    2118.8198    449.75914   -5745.5503    11652.251   -1237.8296    5910.2182    567.09633    85.007553 
   26400    344.48422   -110.71889   0.31169656    -110.4072   -4736.1058    4.4073427    4.4073427    4.4073427   -4736.1058    5742.2537   -16549.801   -3400.7699    2653.7145   -4863.6184   -1899.8254    85.611174 
   26500    566.15666   -110.91526   0.51227044   -110.40299    1714.8968    4.4015845    4.4015845    4.4015845    1714.8968    8112.3087    566.45735   -3534.0756    1937.0864    3067.4999    -1144.079    85.276063 
   26600    487.79153   -110.84712   0.44136403   -110.40576   -325.59134    4.3973389    4.3973389    4.3973389   -325.59134    4196.0366   -8961.5605    3788.7499   -4305.8946    5243.6759   -2170.0662    85.029539 
   26700    250.98787   -110.63549    0.2270991   -110.40839   -2946.1446    4.4092383    4.4092383    4.4092383   -2946.1446    8247.7336   -15014.443   -2071.7245    4108.5162   -4108.5272   -3432.9482    85.721689 
   26800     538.4848    -110.8911   0.48723236   -110.40387   -192.43873    4.3978898    4.3978898    4.3978898   -192.43873    6203.3501    419.20526   -7199.8715    1219.7918    9688.0689    546.86745      85.0615 
   26900    349.44252   -110.72236   0.31618294   -110.40618    5423.4905    4.4005674    4.4005674    4.4005674    5423.4905    13333.998   -2400.7162      5337.19   -2359.4832    2134.4061    282.71983    85.216958 
   27000    223.86625   -110.60912   0.20255889   -110.40656   -5504.0236    4.4094284    4.4094284    4.4094284   -5504.0236    1416.1241   -13644.622   -4283.5725    2159.5521   -2939.8155   -4962.5048    85.732777 
   27100    472.13745   -110.82996   0.42719989   -110.40276    2188.5791    4.3941057    4.3941057    4.3941057    2188.5791    10496.255    4219.7849   -8150.3026   -1542.7752    10283.559   -62.044849    84.842119 
   27200    417.61546   -110.78273   0.37786725   -110.40486   -2117.2148    4.4058192    4.4058192    4.4058192   -2117.2148    5410.9075   -2450.1403   -9312.4116     899.2813    44.801715    1104.4568    85.522429 
   27300    334.79895   -110.71048   0.30293313   -110.40755   -7474.2567    4.4044276    4.4044276    4.4044276   -7474.2567   -8276.4478   -10417.716   -3728.6058     139.6745    1057.2912   -4240.9954    85.441412 
   27400    456.27443   -110.81869    0.4128467   -110.40584    3884.0034    4.3949139    4.3949139    4.3949139    3884.0034    5321.4033    7501.7534   -1171.1465   -2529.2869    9239.2313   -962.94406    84.888941 
   27500    541.71925   -110.89478   0.49015897   -110.40462   -6375.2493     4.409275     4.409275     4.409275   -6375.2493   -9450.2898   -807.39433   -8868.0636    983.71854   -3301.9672    297.10661    85.723828 
   27600    306.93505   -110.68458   0.27772129   -110.40686   -2741.8311    4.4006475    4.4006475    4.4006475   -2741.8311   -2966.2251   -9293.8859    4034.6177    4286.1779    3304.4372   -529.49485    85.221613 
   27700    370.22534   -110.74131   0.33498767   -110.40632     2689.595    4.3976564    4.3976564    4.3976564     2689.595     3138.789    10692.655   -5762.6585    -869.6685    7209.5049    2864.7095    85.047957 
   27800     444.3468     -110.806   0.40205432   -110.40395   -959.72804    4.4073492    4.4073492    4.4073492   -959.72804    6436.9336    1525.8318    -10841.95   -63.800429   -4104.9318   -488.48437    85.611557 
   27900    231.14759   -110.61576    0.2091472   -110.40662   -1261.6701    4.4008745    4.4008745    4.4008745   -1261.6701    12353.117   -5502.4472   -10635.681    5930.5314    2647.7939   -2125.5113    85.234801 
   28000    310.17192   -110.68766   0.28065007   -110.40701    3522.2255    4.3999006    4.3999006    4.3999006    3522.2255    7805.3288    10568.671   -7807.3235   -1886.2413    2815.8777    4400.4526    85.178228 
   28100    496.90195   -110.85356   0.44960732   -110.40395    3142.0429    4.4067517    4.4067517    4.4067517    3142.0429    15452.983   -2073.2022   -3953.6518    1727.0065   -3129.0063   -247.86089    85.576741 
   28200    386.66591   -110.75635   0.34986344   -110.40648     -345.892    4.4004297    4.4004297    4.4004297     -345.892    10103.245   -5812.7796   -5328.1419    3922.8643    5374.5454   -2087.4569    85.208959 
   28300    371.14264   -110.74374   0.33581766   -110.40792    1909.1336    4.4014292    4.4014292    4.4014292    1909.1336    4138.4691    4683.6149   -3094.6833   -3359.8936    4033.0946    2757.9136    85.267034 
   28400    589.72926   -110.93725   0.53359943   -110.40365   -1282.8926    4.4081006    4.4081006    4.4081006   -1282.8926    13185.261   -6401.6071   -10632.332    2676.0238   -1533.7429   -284.31587    85.655352 
   28500    424.72403   -110.78956   0.38429923   -110.40526    2435.4848    4.3967042    4.3967042    4.3967042    2435.4848    7605.5611    4691.8425   -4990.9492    -687.6147    3647.0691     1494.428    84.992725 
   28600    261.16355   -110.64378   0.23630626   -110.40747   -1658.1204     4.406467     4.406467     4.406467   -1658.1204    10627.758   -2191.9205   -13410.198   -5656.8448    4318.9155    1794.2228    85.560156 
   28700    490.21361   -110.84674   0.44355558   -110.40318    3083.1951    4.4033728    4.4033728    4.4033728    3083.1951    15016.031   -144.09086   -5622.3553    595.06344   -400.58351   -1432.6923    85.380042 
   28800    380.61981   -110.74869    0.3443928    -110.4043    5125.5265    4.3977492    4.3977492    4.3977492    5125.5265    16681.543    3908.5455   -5213.5088    -2073.255    1932.3893    1020.0608    85.053342 
   28900    197.28562   -110.58649   0.17850817   -110.40798   -1585.1436    4.4073449    4.4073449    4.4073449   -1585.1436    12426.574   -4759.0824   -12422.922   -3251.4993    4066.7063    1084.4995    85.611307 
   29000    564.87559   -110.91507   0.51111131   -110.40396   -242.64159    4.4007125    4.4007125    4.4007125   -242.64159    5520.2185    1100.6049   -7348.7481    -1106.502   -2574.7446   -616.58982    85.225387 
   29100     476.0666   -110.83571   0.43075506   -110.40496    4175.4591       4.3999       4.3999       4.3999    4175.4591    14611.955   -633.45497   -1452.1231   -1172.9287    3678.5237   -718.59722     85.17819 
   29200    297.99992   -110.67819   0.26963659   -110.40855   -5815.2007    4.4063766    4.4063766    4.4063766   -5815.2007   -3207.2262   -6396.8148    -7841.561    540.86267    3420.8741    552.98331    85.554893 
   29300    545.48261   -110.89858   0.49356413   -110.40502   -3065.0342    4.4004766    4.4004766    4.4004766   -3065.0342   -2596.6569    1894.6641   -8493.1099   -1624.9587   -10288.944    511.44672    85.211687 
   29400    439.79615   -110.80276    0.3979368   -110.40482    1647.2496    4.4020615    4.4020615    4.4020615    1647.2496    9947.4655   -1915.9913   -3089.7255    2661.8397    3015.8858    180.27309    85.303789 
   29500      273.091   -110.65447   0.24709847   -110.40737   -9048.1658    4.4044707    4.4044707    4.4044707   -9048.1658   -8091.9964   -4924.1311    -14128.37    -1603.678    4253.8487   -181.51495     85.44392 
   29600    375.52784    -110.7463   0.33978548   -110.40652   -3344.2596    4.4019599    4.4019599    4.4019599   -3344.2596     1386.658    3667.4986   -15086.935    -573.3751   -9993.8472   -102.36811     85.29788 
   29700    472.29425   -110.83148   0.42734177   -110.40414    3811.3846     4.400679     4.400679     4.400679    3811.3846     15818.86   -857.02096   -3527.6851    4490.7467   -32.729171    691.19424    85.223445 
   29800    292.72899   -110.67264   0.26486734   -110.40777   -5481.2802    4.4054408    4.4054408    4.4054408   -5481.2802   -3864.3096   -2322.6731   -10256.858   -4410.9569    910.19031   -305.73483     85.50039 
   29900    382.86439   -110.75354   0.34642374   -110.40711    228.48253    4.4010248    4.4010248    4.4010248    228.48253    10009.864   -961.92629   -8362.4899    2220.1062   -8321.2794   -343.79409    85.243532 
   30000    592.49053   -110.93967   0.53609789   -110.40358    3676.9452    4.4016686    4.4016686    4.4016686    3676.9452    11766.632    1078.8195   -1814.6162    763.98883   -901.07503   -655.45071     85.28095 
   30100    377.49524   -110.74974   0.34156563   -110.40817   -8941.9043     4.405978     4.405978     4.405978   -8941.9043   -5428.4916   -6024.4008   -15372.821   -5377.7999   -3723.0089    746.14324    85.531673 
   30200    268.95066   -110.65196   0.24335221   -110.40861    3512.0653    4.3976647    4.3976647    4.3976647    3512.0653    8198.6617    9303.4486   -6965.9143    3510.6598   -8774.5268    944.51248    85.048439 
   30300    625.93067   -110.96984   0.56635522   -110.40348   -5169.0215     4.405593     4.405593     4.405593   -5169.0215   -759.29015   -5043.2682   -9704.5063   -3879.5971    2784.5295   -2547.8147    85.509255 
   30400    275.34264   -110.65653    0.2491358    -110.4074    -1461.269    4.4023922    4.4023922    4.4023922    -1461.269   -1822.0355    2356.9879   -4918.7593   -2275.9341   -3427.0032    1029.2126    85.323014 
   30500    258.84352   -110.64169   0.23420706   -110.40748   -2585.0735    4.4005037    4.4005037    4.4005037   -2585.0735     -3684.97     1952.591   -6022.8414    2571.1478    -7865.525   -487.74098    85.213259 
   30600     617.0645   -110.96099   0.55833293   -110.40266   -4356.3127    4.4057255    4.4057255    4.4057255   -4356.3127   -2185.5667    -4785.513   -6097.8586   -2918.0269    4479.1157   -1641.9374    85.516972 
   30700    368.38934   -110.73941   0.33332641   -110.40608    298.89017    4.4010622    4.4010622    4.4010622    298.89017    3652.2127    2672.1237   -5427.6659    -84.68774   -2576.5315    518.25679    85.245709 
   30800    319.83241    -110.6973   0.28939108   -110.40791   -3800.7522    4.4016754    4.4016754    4.4016754   -3800.7522    -3458.231   -2658.2801   -5285.7455    1296.4169   -7922.0171   -3081.0696    85.281342 
   30900    618.40394   -110.96312   0.55954488   -110.40357   -2290.6247    4.4059088    4.4059088    4.4059088   -2290.6247    3401.3771   -7145.3539   -3127.8972    714.52758    3839.2955   -606.61327    85.527645 
   31000    396.36275   -110.76439   0.35863735   -110.40575    1193.9516    4.4005806    4.4005806    4.4005806    1193.9516    6599.1645   -1060.5685   -1956.7411    689.93726   -5346.7893    1763.6347    85.217727 
   31100    238.24136   -110.62337   0.21556579    -110.4078   -5234.0913    4.4024724    4.4024724    4.4024724   -5234.0913   -6685.5743   -792.62685   -8224.0727    1267.1962    -3799.346    -2795.537    85.327678 
   31200    511.69628   -110.86637   0.46299355   -110.40338   -4460.3723     4.405924     4.405924     4.405924   -4460.3723    2577.8202   -11786.893   -4172.0445    1365.3384    2737.0272   -244.14726    85.528532 
   31300    374.78999   -110.74345   0.33911786   -110.40433    794.90284    4.4003708    4.4003708    4.4003708    794.90284     5554.052    6625.7162   -9795.0597    -124.1431   -9503.4493    739.53424    85.205539 
   31400    261.41349   -110.64387   0.23653242   -110.40734    -6306.936    4.4030979    4.4030979    4.4030979    -6306.936   -10616.865   -6078.7087   -2225.2347    4137.3551   -777.16856   -1896.5152     85.36405 
   31500    498.65619   -110.85592    0.4511946   -110.40472   -780.98105     4.405061     4.405061     4.405061   -780.98105    1337.6545   -9518.6082    5838.0106   -342.83068    2061.8997    1807.1162    85.478279 
   31600    530.15545   -110.88364   0.47969579   -110.40394    -754.5066    4.4006496    4.4006496    4.4006496    -754.5066    849.43964    3308.0374   -6420.9968   -976.33621   -11688.911    -997.2492    85.221734 
   31700    293.93548   -110.67415     0.265959   -110.40819   -4021.1373     4.403374     4.403374     4.403374   -4021.1373   -11348.984   -6371.3993    5656.9717    5905.4616   -1864.3671   -1595.9044     85.38011 
   31800    480.57046   -110.84112   0.43483025   -110.40629   -2801.7505    4.4053637    4.4053637    4.4053637   -2801.7505    749.98358   -10386.503    1231.2673   -2034.9311    1432.3292    3357.9837    85.495903 
   31900    494.04663   -110.85132   0.44702377   -110.40429    3624.1568    4.3991199    4.3991199    4.3991199    3624.1568    1759.2064    10783.059   -1669.7951    711.83848   -3912.0772    101.98646    85.132895 
   32000     225.3175   -110.61211   0.20387201   -110.40824   -5099.8661    4.4060605    4.4060605    4.4060605   -5099.8661   -10158.404   -12120.995    6979.8012    4799.9505   -654.51572   -299.95456     85.53648 
   32100    330.24801   -110.70545   0.29881534   -110.40663    3934.6986     4.401995     4.401995     4.401995    3934.6986    6931.1731    2495.5723    2377.3503   -2308.0238    481.97959    3700.1011     85.29992 
   32200    513.84468   -110.86787   0.46493746   -110.40293    3788.1104    4.4000547    4.4000547    4.4000547    3788.1104    1056.6854    8353.7977     1953.848    2744.2604   -2296.8777   -506.04717    85.187179 
   32300    253.85762   -110.63729   0.22969571    -110.4076    -407.2473    4.4061784    4.4061784    4.4061784    -407.2473    1298.8395   -7856.3022    5335.7208    1937.2436    2453.1165    2373.6801    85.543343 
   32400    374.85705   -110.74591   0.33917854   -110.40673    5146.5391    4.4013314    4.4013314    4.4013314    5146.5391    7640.1328    5483.0482    2316.4361   -3825.3424    3459.0279    2085.0176    85.261352 
   32500    595.90477   -110.94242   0.53918716   -110.40323    6712.1319    4.3995749    4.3995749    4.3995749    6712.1319    6012.7934    4431.0307    9692.5716    2917.1653   -1858.8196   -1486.0399    85.159312 
   32600    267.03295   -110.64953   0.24161702   -110.40792    -1311.555    4.4083432    4.4083432    4.4083432    -1311.555    6249.9841   -6896.2813   -3288.3678    2730.1303    3165.7647    2717.8892     85.66949 
   32700    308.78708   -110.68602   0.27939704   -110.40662    5606.5021    4.3965525    4.3965525    4.3965525    5606.5021    3639.5769    6263.1965    6916.7329    -4234.084    5644.0734    1117.4575    84.983927 
   32800    514.24942   -110.86914   0.46530368   -110.40383   -771.81081    4.4041354    4.4041354    4.4041354   -771.81081    4568.9943   -3158.4582   -3725.9686   -944.37706   -563.32805    445.71448     85.42441 
   32900    257.96792   -110.64044   0.23341479   -110.40703   -5599.5191     4.405665     4.405665     4.405665   -5599.5191    1023.7807   -6982.1025   -10840.236    3741.5713    1886.0986    178.07061    85.513446 
   33000    275.31567   -110.65649    0.2491114   -110.40738    1532.5561    4.3959571    4.3959571    4.3959571    1532.5561   -6560.9556    5219.1647    5939.4592    -2685.069    3171.4854   -741.88937    84.949402 
   33100     577.4892   -110.92625   0.52252436   -110.40373   -5253.3647    4.4072789    4.4072789    4.4072789   -5253.3647    183.85956   -8688.1154   -7255.8384   -2245.6412    296.21966    1661.5874    85.607458 
   33200    387.79035   -110.75717   0.35088085   -110.40629   -5716.2143     4.402812     4.402812     4.402812   -5716.2143   -7217.2882   -6276.9407    -3654.414    3192.8647    4991.6995   -2744.2454    85.347423 
   33300    357.03408    -110.7298   0.32305194   -110.40675    -2289.826     4.396326     4.396326     4.396326    -2289.826   -11023.971    -4248.815    8403.3075   -2058.6727     3841.531    500.93519    84.970791 
   33400    547.71239   -110.89882   0.49558168   -110.40324   -9674.2979    4.4100963    4.4100963    4.4100963   -9674.2979   -5578.1335   -7815.7407    -15629.02    299.89703   -3917.3251   -824.39171    85.771739 
   33500    374.89694   -110.74494   0.33921463   -110.40573   -5749.9023    4.3981333    4.3981333    4.3981333   -5749.9023   -4591.2257   -8985.4123   -3673.0689     2969.798    3453.7157   -2483.3289    85.075627 
   33600    225.64913   -110.61245   0.20417208   -110.40828   -2426.9587    4.3997184    4.3997184    4.3997184   -2426.9587   -11550.225    5772.1166   -1502.7675   -5592.8893    6842.8181    709.99433    85.167646 
   33700    486.90533   -110.84445   0.44056217   -110.40389   -10944.517    4.4103812    4.4103812    4.4103812   -10944.517   -3529.6655   -11368.289   -17935.596    2355.9078   -5507.6724    -2656.471    85.788362 
   33800    368.88504   -110.73751   0.33377494   -110.40373    2789.7962    4.3941953    4.3941953    4.3941953    2789.7962    1800.6966     3100.429    3468.2631    1744.0497    2597.7508   -1847.8369    84.847305 
   33900    332.08838   -110.70705   0.30048055   -110.40657   -7493.2536    4.4049386    4.4049386    4.4049386   -7493.2536   -8639.0026   -3338.7904   -10501.968    -7791.118    4229.2849    10.147188    85.471158 
   34000    478.15567   -110.83664    0.4326453     -110.404   -3417.4759    4.4065831    4.4065831    4.4065831   -3417.4759    12006.051   -6788.4998   -15469.979    2366.3061   -5890.5638     -2887.69     85.56692 
   34100     555.1531   -110.90468   0.50231419   -110.40237    5059.2267    4.3923385    4.3923385    4.3923385    5059.2267     7169.505    3738.2237    4269.9515    341.57865    3462.9246   -1933.2078    84.739792 
   34200    270.11115   -110.65165   0.24440225   -110.40725   -2206.7308    4.4096116    4.4096116    4.4096116   -2206.7308    7747.2814    470.60937   -14838.083   -5624.8988   -1346.3436    514.54809    85.743459 
   34300      422.929   -110.78723   0.38267504   -110.40456    1012.3741    4.4018174    4.4018174    4.4018174    1012.3741    15155.513    -395.0289   -11723.362   -1367.0117   -6367.1216   -1980.6388    85.289601 
   34400    491.73572   -110.84743   0.44493282    -110.4025    9406.0391    4.3935339    4.3935339    4.3935339    9406.0391    14465.231    11096.662     2656.224   -2878.7109    4134.3459   -388.25156       84.809 
   34500    190.14572   -110.57924   0.17204784    -110.4072   -4514.0375    4.4124858    4.4124858    4.4124858   -4514.0375    13635.979   -6926.3552   -20251.736   -2684.2473   -2450.7943    1117.1563    85.911236 
   34600    423.15209   -110.78811    0.3828769   -110.40523    1563.1755     4.395014     4.395014     4.395014    1563.1755    6626.8502    8290.0897   -10227.413   -3184.4889   -3624.4895    -1920.255    84.894743 
   34700    532.06824   -110.88536   0.48142653   -110.40394    7487.5556    4.3999776    4.3999776    4.3999776    7487.5556    17958.969    11299.714   -6796.0168    469.50361    1700.4709   -145.59632    85.182699 
   34800    342.19944   -110.71592   0.30962925   -110.40629   -5611.6356    4.4105395    4.4105395    4.4105395   -5611.6356   -338.23463   -6617.1681   -9879.5042   -2210.7732   -5176.8118    22.508355    85.797602 
   34900    424.36769   -110.78886   0.38397681   -110.40488    3741.9007    4.3929045    4.3929045    4.3929045    3741.9007     31.34097    16450.616   -5256.2544     639.5174   -1312.0268   -195.90969     84.77256 
[...]
   91200    388.79241   -110.75674   0.35178754   -110.40495   -6481.1458    4.4050801    4.4050801    4.4050801   -6481.1458    5348.2769   -6584.6343    -18207.08   -1245.6566    4124.7092    7977.7741    85.479392 
   91300    406.34933   -110.77027   0.36767342    -110.4026    12404.555    4.3964719    4.3964719    4.3964719    12404.555    15670.134    14221.838     7321.694    246.04663   -4199.6641   -2468.5904    84.979252 
   91400    352.13393   -110.72366   0.31861818   -110.40504   -5930.6261    4.4045294    4.4045294    4.4045294   -5930.6261     5333.255   -9207.7656   -13917.368   -105.19741     6162.912    2432.5892    85.447339 
   91500    293.03597   -110.67021    0.2651451   -110.40506   -1664.9683    4.4020956    4.4020956    4.4020956   -1664.9683     8106.326    1722.6643   -14823.895   -2765.9898    5353.1682     5026.183    85.305772 
   91600    502.18741   -110.85634   0.45438973   -110.40195   -970.41977    4.3993589    4.3993589    4.3993589   -970.41977    407.84554   -102.53721   -3216.5676    2285.9232   -4714.9988   -3429.0127    85.146769 
   91700    289.16753   -110.66614   0.26164486    -110.4045    567.21527    4.4031367    4.4031367    4.4031367    567.21527    7448.1883    3297.0735    -9043.616   -2022.9171    5767.5161    5890.2922    85.366309 
   91800    459.12763   -110.81798   0.41542833   -110.40255   -2052.5711    4.4005405    4.4005405    4.4005405   -2052.5711    185.29192    750.86127   -7093.8665   -758.13064    4683.0782    586.08927    85.215396 
   91900    442.51798   -110.80288   0.40039956   -110.40248   -127.17013    4.4022005    4.4022005    4.4022005   -127.17013   -6971.2286    7791.5984   -1201.8802    4629.7803   -6737.0244    177.47285    85.311868 
   92000    347.96497   -110.71907   0.31484602   -110.40422    -466.2852    4.4015847    4.4015847    4.4015847    -466.2852     7753.432   -2721.1064   -6431.1812    -3761.731    4996.1137     4687.833    85.276071 
   92100    456.64373   -110.81528   0.41318084    -110.4021   -914.99763    4.3992699    4.3992699    4.3992699   -914.99763    1932.6578    403.12686   -5080.7775    1741.2934    3074.9735    723.34043    85.141603 
   92200    388.16126   -110.75437   0.35121646   -110.40315   -5143.9257    4.4034225    4.4034225    4.4034225   -5143.9257    3352.7941   -10488.847   -8295.7247    2961.7277   -6957.5395    1765.2542    85.382933 
   92300    333.27124   -110.70593   0.30155082   -110.40438    5359.3948     4.400006     4.400006     4.400006    5359.3948    14277.653    6610.0652   -4809.5342     -2970.36    5689.9231    1342.8986    85.184348 
   92400    509.28221   -110.86239   0.46080925   -110.40158    5850.0929    4.3985305    4.3985305    4.3985305    5850.0929    5709.5746    11797.709    42.995334    2543.9546     188.6342     4829.424    85.098682 
   92500     326.4726   -110.69992   0.29539927   -110.40452   -520.44905    4.4037819    4.4037819    4.4037819   -520.44905     9250.461   -5730.9468   -5080.8614    1138.6167   -7267.8108   -478.75596    85.403844 
   92600    427.21651   -110.79001   0.38655448   -110.40346    3002.0766    4.3999293    4.3999293    4.3999293    3002.0766    3969.4782    6368.5546   -1331.8031    2225.3422    3604.2979    3213.3611    85.179892 
   92700    533.63632   -110.88453   0.48284536   -110.40168    6254.8003    4.3984651    4.3984651    4.3984651    6254.8003    13386.582    4952.8814    424.93773    1572.4455   -3441.8406    4078.2202    85.094882 
   92800    273.63509   -110.65387   0.24759078   -110.40628    567.71003    4.4027105    4.4027105    4.4027105    567.71003    6399.3814   -5060.6865    364.43515    293.19812   -6390.7485   -1465.4096    85.341524 
   92900     481.2398   -110.83907   0.43543588   -110.40363    2339.8712    4.3997949    4.3997949    4.3997949    2339.8712    5403.9293    2804.7354   -1189.0511    2555.4047    3134.4542     6444.971    85.172089 
   93000    387.21031   -110.75356   0.35035602    -110.4032    12577.292    4.3999753    4.3999753    4.3999753    12577.292    18660.937    15755.889    3315.0491   -1178.8102   -4018.4938   -1682.9733    85.182565 
   93100    297.90257   -110.67542   0.26954851   -110.40587   -1717.2372    4.3999155    4.3999155    4.3999155   -1717.2372    63.018913   -6736.5704    1521.8397    1687.1312     -6516.76   -564.95559    85.179091 
   93200     369.1755   -110.73791   0.33403775   -110.40387    2764.0246     4.401841     4.401841     4.401841    2764.0246    7942.9355    4178.8003    -3829.662   -1308.7438     4056.032    4435.7043    85.290973 
   93300    515.21222   -110.86925   0.46617484   -110.40307   -1074.5081    4.4003103    4.4003103    4.4003103   -1074.5081    3281.6483   -3127.2986   -3377.8741    978.17724    -4187.952   -3528.5773    85.202022 
   93400    217.13371   -110.60364   0.19646714   -110.40717    5871.8027    4.3988201    4.3988201    4.3988201    5871.8027   -4929.6791    14748.247    7796.8402    5598.9971   -8492.5598    559.02673    85.115488 
   93500    582.74443   -110.92994   0.52727941   -110.40266   -747.60289    4.4023356    4.4023356    4.4023356   -747.60289   -668.46597   -1917.4211    343.07842   -3666.2955    3943.5165    509.33623    85.319721 
   93600    462.94381   -110.82261   0.41888128   -110.40373    887.39452    4.4015144    4.4015144    4.4015144    887.39452   -8560.6448    8502.1674    2720.6609    616.99241   -3842.5236    81.472404    85.271984 
   93700    287.71664   -110.66691   0.26033206   -110.40658    1331.3134    4.3982322    4.3982322    4.3982322    1331.3134   -8261.8234    4060.3111    8195.4525    3024.5467   -6671.8937   -343.04413    85.081368 
   93800    532.22804   -110.88348   0.48157111   -110.40191   -905.49766    4.4026346    4.4026346    4.4026346   -905.49766    2695.5447   -3343.0423   -2068.9953   -499.08156    2525.6412    976.13171    85.337107 
   93900    382.53827    -110.7502   0.34612867   -110.40407   -4957.2949      4.40122      4.40122      4.40122   -4957.2949   -6906.1682   -6418.2562   -1547.4602     1995.354   -5139.1342    505.66162    85.254877 
   94000    201.32687   -110.58898   0.18216478   -110.40682    3755.6182    4.3996929    4.3996929    4.3996929    3755.6182   -2222.0262    10984.121    2504.7597   -133.17292   -2719.6336    -1105.198    85.166165 
   94100    540.02346   -110.89003   0.48862458    -110.4014    3508.4828    4.4012947    4.4012947    4.4012947    3508.4828    5173.7297    4272.4268    1079.2919    2432.3737    2387.8423    5593.7639    85.259219 
   94200    323.53772   -110.69772   0.29274373   -110.40498    683.60771    4.3995389    4.3995389    4.3995389    683.60771   -2461.4349    1529.2589    2982.9991    897.35553   -5812.1357   -2614.4169    85.157224 
   94300    308.71894   -110.68634   0.27933539   -110.40701     -1657.28    4.4037904    4.4037904    4.4037904     -1657.28   -2484.6268   -2085.1918   -402.02139   -30.745487   -3319.7117      2634.14    85.404336 
   94400    590.20627    -110.9357   0.53403104   -110.40166    6418.4363    4.3986851    4.3986851    4.3986851    6418.4363    13905.697    3.4563415    5346.1561    130.57723    2817.7972    3987.1506    85.107655 
   94500    312.84295   -110.68845   0.28306687   -110.40538    4273.5937    4.3994122    4.3994122    4.3994122    4273.5937   -1913.2362    10991.024    3742.9936   -860.25788   -5035.8453   -3480.5803    85.149866 
   94600    407.33212   -110.77345   0.36856267   -110.40489   -4365.9698    4.4056487    4.4056487    4.4056487   -4365.9698    192.82786   -9932.8582   -3357.8791    3455.8011   -5689.4122    5546.8103    85.512497 
   94700    472.73556   -110.82925   0.42774107   -110.40151    13556.585    4.3961599    4.3961599    4.3961599    13556.585    16814.356    17317.149    6538.2491    -2622.898    4604.3986    -2027.375    84.961159 
   94800    356.37735   -110.72753   0.32245771   -110.40507    -2518.656    4.4013417    4.4013417    4.4013417    -2518.656   -601.26357   -2834.1225    -4120.582   -1572.7015   -2042.2588   -1703.9937     85.26195 
   94900     317.5736    -110.6919   0.28734727   -110.40455   -913.66686    4.4052631    4.4052631    4.4052631   -913.66686    9891.5563   -9791.7472   -2840.8097    3827.6121    -4535.853    1979.0851    85.490048 
   95000    544.15837   -110.89326   0.49236593    -110.4009    2970.4353    4.3975203    4.3975203    4.3975203    2970.4353    7858.3644   -510.18175    1563.1233   -2211.8575    4863.0811   -3823.2284     85.04006 
   95100    293.62386   -110.67035   0.26567704   -110.40467    3986.0915    4.4019475    4.4019475    4.4019475    3986.0915   -1197.8877    12771.292    384.87028   -668.39306   -4138.6778    1011.2599    85.297164 
   95200     463.2936   -110.82209   0.41919778    -110.4029   -1538.6567     4.404093     4.404093     4.404093   -1538.6567    1998.1308   -6833.1522    219.05141    3305.5906   -3473.8269   -3063.4424    85.421944 
   95300    516.44018   -110.86897   0.46728592   -110.40169    5371.6396    4.3963309    4.3963309    4.3963309    5371.6396    347.33737    12702.033     3065.548   -408.60233    6247.2962   -961.68896    84.971077 
   95400    316.43438   -110.69107   0.28631648   -110.40476    1207.6216    4.4050377    4.4050377    4.4050377    1207.6216    7629.8471    1299.9055   -5306.8879    1701.3674   -4472.7906   -284.37775    85.476926 
   95500    495.45346    -110.8508    0.4482967    -110.4025   -29.706695    4.3999551    4.3999551    4.3999551   -29.706695    5767.3424   -5902.8575    46.394952    1754.0303   -1044.8521   -3345.3487    85.181392 
   95600     382.8355   -110.74953   0.34639761   -110.40313    1267.7666    4.3999227    4.3999227    4.3999227    1267.7666    6214.3025    5231.7339   -7642.7367   -1136.9629    9298.7762    2314.1137    85.179509 
   95700     340.1373   -110.71188   0.30776338   -110.40412   -3289.9677    4.4054444    4.4054444    4.4054444   -3289.9677     3349.269    -5280.438    -7938.734    4869.7365   -3258.6454   -5291.5661    85.500599 
   95800    402.49721   -110.76608   0.36418793   -110.40189    9039.0753    4.3964905    4.3964905    4.3964905    9039.0753    7004.1305    14765.816    5347.2794    1167.5875    546.91729    1518.9361    84.980332 
   95900     397.3731   -110.76253   0.35955153   -110.40298   -3979.8729    4.4023509    4.4023509    4.4023509   -3979.8729   -116.34884    753.45282   -12576.723   -295.25698    9882.1491     1332.173    85.320614 
   96000    313.65401   -110.68774   0.28380074   -110.40394   -2221.8335    4.4048979    4.4048979    4.4048979   -2221.8335   -1617.8758   -2735.8291   -2311.7955    2363.2737   -6415.8372   -4461.3828    85.468788 
   96100    513.79545   -110.86647   0.46489292   -110.40158    1427.6473    4.3950485    4.3950485    4.3950485    1427.6473   -2620.7336     2649.488    4254.1874    1978.9578     2593.229    4112.9583    84.896739 
   96200    329.84205   -110.70279   0.29844802   -110.40434   -3126.2567    4.4040505    4.4040505    4.4040505   -3126.2567   -10740.203    13215.249   -11853.816    988.74288    12948.102    -2186.866    85.419471 
   96300    443.34639   -110.80411   0.40114913   -110.40296   -7812.1049    4.4039378    4.4039378    4.4039378   -7812.1049   -11501.821   -9646.9892   -2287.5047    -2512.454   -7524.9531    81.119072    85.412911 
   96400    392.26394   -110.75679   0.35492865   -110.40186    7864.4521    4.3948381    4.3948381    4.3948381    7864.4521    3811.6774    18417.947    1363.7321    4128.6311     5908.917     640.4775    84.884551 
   96500    392.72726   -110.75906   0.35534788   -110.40371   -9884.5194    4.4061091    4.4061091    4.4061091   -9884.5194   -13650.563    871.36531    -16874.36   -974.15114     11427.03   -3065.2056     85.53931 
   96600    352.91689   -110.72327   0.31932662   -110.40395   -1245.9177    4.3990451    4.3990451    4.3990451   -1245.9177    438.79774   -5858.4731    1681.9222      -790.88   -8318.1342   -715.51457    85.128549 
   96700    436.57416    -110.7985   0.39502147   -110.40348   -5579.0275    4.3994893    4.3994893    4.3994893   -5579.0275   -9865.9759    1051.2921   -7922.3986    3414.4085    8296.5768   -2685.8477    85.154342 
   96800    360.75049   -110.73066   0.32641462   -110.40424   -4427.7283    4.4049126    4.4049126    4.4049126   -4427.7283   -9800.0085    1978.8199   -5461.9963   -4888.9536    5906.3262   -166.77492    85.469641 
   96900    441.92678   -110.80178   0.39986464   -110.40192    2565.9296    4.3978384    4.3978384    4.3978384    2565.9296   -4326.6929    6358.6824    5665.7992    5617.0252   -6548.4501   -4656.3621    85.058518 
   97000    451.55648   -110.81165   0.40857779   -110.40308    -3536.984    4.4014886    4.4014886    4.4014886    -3536.984   -5506.3851    1773.3474   -6877.9144    336.98973    11864.052   -38.098803    85.270489 
   97100    362.20443   -110.73208   0.32773018   -110.40435    175.39046    4.4032861    4.4032861    4.4032861    175.39046    809.45285    4188.7455    -4472.027    -2404.458    4561.1328    10.687952    85.374997 
   97200    486.33122   -110.84245    0.4400427   -110.40241   -391.40968    4.3973341    4.3973341    4.3973341   -391.40968    2977.2411   -2194.1145   -1957.3556    6521.9351   -6473.2747   -5796.1008    85.029257 
   97300    301.34902    -110.6771   0.27266692   -110.40443   -3235.0049    4.4039286    4.4039286    4.4039286   -3235.0049    1675.4984    1808.1046   -13188.618    122.97528    12398.694    3808.8741    85.412377 
   97400    390.41667   -110.75622   0.35325721   -110.40296    -172.8737    4.4017623    4.4017623    4.4017623    -172.8737    6155.8535   -4833.5817   -1840.8928    3735.1755    4432.0593   -4940.3101    85.286394 
   97500    402.13783   -110.76596   0.36386276   -110.40209    7844.0611    4.3977217    4.3977217    4.3977217    7844.0611    10403.018    10563.811    2565.3552    703.17413   -6333.8531    -1571.108    85.051742 
   97600    344.96314   -110.71636    0.3121299   -110.40423   -3614.6686    4.4047967    4.4047967    4.4047967   -3614.6686     3517.079   -3656.4965   -10704.588    1159.7728    14103.817    3766.9842    85.462894 
   97700    423.23896   -110.78607    0.3829555   -110.40312    3558.6181    4.3996673    4.3996673    4.3996673    3558.6181    4036.4516    799.90415    5839.4987    2192.3961      4450.61   -5197.5542    85.164675 
   97800    506.89757   -110.86125   0.45865157    -110.4026   -943.36661    4.4010194    4.4010194    4.4010194   -943.36661    1119.0648    -2484.375   -1464.7896    -201.1954   -2511.5399    3076.7782    85.243218 
   97900    326.98466   -110.70088    0.2958626   -110.40502   -589.04812    4.4018408    4.4018408    4.4018408   -589.04812   -7252.8291    13213.633    -7727.948    5305.4797    14978.801   -336.95567    85.290957 
   98000    477.14766   -110.83439   0.43173323   -110.40265    414.66113    4.4023639    4.4023639    4.4023639    414.66113   -102.31697    524.23893    822.06142   -4777.0328    -476.3034   -1380.1454    85.321371 
   98100    407.97604   -110.77176   0.36914529   -110.40262     3221.667    4.4009458    4.4009458    4.4009458     3221.667    4519.1284    11975.725   -6829.8525    2867.3452    1338.9383    109.84779    85.238944 
   98200    288.26672   -110.66554   0.26082979   -110.40471   -2733.5184    4.4024509    4.4024509    4.4024509   -2733.5184    -7801.213    10152.026   -10551.368    2151.1629    14663.481   -2687.5899    85.326426 
   98300    441.64814   -110.80182   0.39961252   -110.40221    1143.0829    4.4019006    4.4019006    4.4019006    1143.0829    5356.0929   -1303.1468   -623.69755   -4861.2478    -4880.024   -345.19448    85.294437 
   98400    424.81771   -110.78751   0.38438399   -110.40313   -1979.4521    4.4012747    4.4012747    4.4012747   -1979.4521    963.27229   -365.96361    -6535.665     2128.277    4346.6314    -2728.141    85.258059 
   98500    275.46541   -110.65554   0.24924689   -110.40629    871.36696    4.4021432    4.4021432    4.4021432    871.36696   -5311.1381    10073.733   -2148.4938   -3574.7645    14205.613   -622.68523    85.308539 
   98600    496.91744   -110.85241   0.44962134   -110.40279    6166.9502    4.4015888    4.4015888    4.4015888    6166.9502    16228.149    1542.7539    729.94753    21.052129   -4763.4883   -3399.9767     85.27631 
   98700    367.68087   -110.73689   0.33268538    -110.4042    596.86495    4.4032163    4.4032163    4.4032163    596.86495    5647.1458     5489.981    -9346.532   -1659.9399    4967.3918   -683.01585    85.370939 
   98800    235.22142   -110.61825   0.21283328   -110.40542    1825.2167     4.401632     4.401632     4.401632    1825.2167    5462.2104    7622.6881   -7609.2483   -1199.1667    11227.754   -721.45826    85.278823 
   98900    466.70334   -110.82332   0.42228299   -110.40104    769.12758    4.4028615    4.4028615    4.4028615    769.12758    14431.667    -1710.252   -10414.032   -1526.0894   -3025.3327   -4273.8355    85.350306 
   99000    316.45854   -110.69072   0.28633834   -110.40438   -1804.4487    4.4005607    4.4005607    4.4005607   -1804.4487   -88.671201    7211.0136   -12535.689   -792.82233    8816.4277    958.25414    85.216567 
   99100    299.54704   -110.67678   0.27103646   -110.40575   -967.42504    4.4024285    4.4024285    4.4024285   -967.42504   -143.89724    965.47567   -3723.8535    5287.5892    8233.0949   -3226.9261    85.325126 
   99200    546.13403   -110.89505   0.49415355   -110.40089    1808.2362    4.4033683    4.4033683    4.4033683    1808.2362    7068.2162       1571.2   -3214.7076    -5630.913   -2038.9313   -622.58628    85.379781 
   99300    387.93784   -110.75507   0.35101431   -110.40406   -2197.4524    4.3991964    4.3991964    4.3991964   -2197.4524   -6525.6874    4065.4957   -4132.1654     3221.822     13706.49     574.1337    85.137338 
   99400    369.74072   -110.73929   0.33454917   -110.40474   -5252.2134    4.4046572    4.4046572    4.4046572   -5252.2134   -6431.5526   -5664.1349   -3660.9527    4076.4712    5227.6482   -1297.7276    85.454776 
   99500    561.99928   -110.90971   0.50850876    -110.4012   -1892.3619    4.4017366    4.4017366    4.4017366   -1892.3619    2689.7801   -518.02529   -7848.8405   -3327.9261   -1855.3014    635.07822      85.2849 
   99600    292.21699   -110.66883   0.26440407   -110.40442    2455.1564    4.3974602    4.3974602    4.3974602    2455.1564   -129.49934    17686.723   -10191.755    5065.9155    15110.784   -1272.5221    85.036575 
   99700    388.17394   -110.75499   0.35122794   -110.40377   -6048.3798    4.4075118    4.4075118    4.4075118   -6048.3798    7272.2693    -9432.394   -15985.015   -405.13458    3391.5332    1366.2205     85.62103 
   99800    445.15443   -110.80469   0.40278508    -110.4019    8230.0068    4.3972557    4.3972557    4.3972557    8230.0068    14258.585    13926.301   -3494.8656    2215.8712   -7.3254033   -3075.9662    85.024712 
   99900    360.92909   -110.73144   0.32657623   -110.40486    1540.3497    4.3995201    4.3995201    4.3995201    1540.3497    8561.8423    3970.7421   -7911.5352    2334.2878    12887.945    9.4467747    85.156128 
  100000    408.80176    -110.7739   0.36989242   -110.40401   -2429.5336    4.4074957    4.4074957    4.4074957   -2429.5336    10032.678   -10263.827   -7057.4515     525.2281    811.74933   -1338.0072    85.620095 
Loop time of 21.5796 on 1 procs for 100000 steps with 8 atoms

Pair  time (%) = 6.67228 (30.9194)
Kspce time (%) = 5.26319 (24.3897)
Neigh time (%) = 0 (0)
Comm  time (%) = 1.0454 (4.84439)
Outpt time (%) = 0.0193899 (0.0898529)
Other time (%) = 8.57932 (39.7567)

Nlocal:    8 ave 8 max 8 min
Histogram: 1 0 0 0 0 0 0 0 0 0
Nghost:    2189 ave 2189 max 2189 min
Histogram: 1 0 0 0 0 0 0 0 0 0
Neighs:    2056 ave 2056 max 2056 min
Histogram: 1 0 0 0 0 0 0 0 0 0

Total # of neighbors = 2056
Ave neighs/atom = 257
Neighbor list builds = 0
Dangerous builds = 0
seeds:6938931
