LAMMPS (11 Aug 2017)
# ---- initialize simulations
clear
units metal
dimension 3
boundary p p p
atom_style atomic
atom_modify map array
# ---- create atoms
read_data /home/sullberg/repos/pypospack/examples/Ni__eam__born_exp_rose/01_preconditioning_3.5NN/rank_46/Ni_dia.lmps_min_all/lammps.structure
  triclinic box = (0 0 0) to (4.8791 4.8791 4.8791) with tilt (0 0 0)
  1 by 1 by 1 MPI processor grid
  reading atoms ...
  8 atoms
# ---- define interatomic potential
include potential.mod
mass 1 58.6934

group Ni type 1
8 atoms in group Ni

pair_style eam/alloy
pair_coeff * * /home/sullberg/repos/pypospack/examples/Ni__eam__born_exp_rose/01_preconditioning_3.5NN/rank_46/Ni_dia.lmps_min_all/Ni.eam.alloy Ni

neighbor 1.0 bin
neigh_modify every 1 delay 0 check yes
# ---- define settings
compute eng all pe/atom
compute eatoms all reduce sum c_eng
# ---- run minimization
reset_timestep 0
fix 1 all box/relax aniso 0.0 vmax 0.001
thermo 10
thermo_style custom step pe xhi xlo yhi ylo zhi xy xz yz press pxx pyy pzz pxy pxz pyz c_eatoms
min_style cg
minimize 1e-25 1e-25 5000 10000
Neighbor list info ...
  update every 1 steps, delay 0 steps, check yes
  max neighbors/atom: 2000, page size: 100000
  master list distance cutoff = 11
  ghost atom cutoff = 11
  binsize = 5.5, bins = 1 1 1
  1 neighbor lists, perpetual/occasional/extra = 1 0 0
  (1) pair eam/alloy, perpetual
      attributes: half, newton on
      pair build: half/bin/newton/tri
      stencil: half/bin/3d/newton/tri
      bin: standard
Per MPI rank memory allocation (min/avg/max) = 4.276 | 4.276 | 4.276 Mbytes
Step PotEng Xhi Xlo Yhi Ylo Zhi Xy Xz Yz Press Pxx Pyy Pzz Pxy Pxz Pyz c_eatoms 
       0     -36.1352       4.8791            0       4.8791            0       4.8791            0            0            0   -164477.32   -164477.32   -164477.32   -164477.32    5.3233792    5.3233792    5.3233792     -36.1352 
      10    -36.46808    4.8547045    0.0243955    4.8547045    0.0243955    4.8547045            0            0            0   -144037.66   -144037.66   -144037.66   -144037.66    5.0065833    5.0065833    5.0065833    -36.46808 
      20   -36.747138     4.830309     0.048791     4.830309     0.048791     4.830309            0            0            0   -119666.43   -119666.43   -119666.43   -119666.43    4.6413237    4.6413237    4.6413237   -36.747138 
      30   -36.965697    4.8059135    0.0731865    4.8059135    0.0731865    4.8059135            0            0            0   -90869.241   -90869.241   -90869.241   -90869.241    4.2241194    4.2241194    4.2241194   -36.965697 
      40   -37.116482     4.781518     0.097582     4.781518     0.097582     4.781518            0            0            0   -57021.003   -57021.003   -57021.003   -57021.003    3.7507562    3.7507562    3.7507562   -37.116482 
      50   -37.191567    4.7571225    0.1219775    4.7571225    0.1219775    4.7571225            0            0            0   -17543.223   -17543.223   -17543.223   -17543.223    3.2246077    3.2246077    3.2246077   -37.191567 
      60   -37.202836    4.7421138   0.13698615    4.7421138   0.13698615    4.7421138            0            0            0    11715.612    11715.612    11715.612    11715.612    5682.7057    5682.7057    5682.7057   -37.202836 
      70   -37.226264     4.750437   0.12866301     4.750437   0.12866301     4.750437            0            0            0    1455.5902    1455.5902    1455.5902    1455.5902    12176.368    12176.368    12176.368   -37.226264 
      80   -37.263505     4.750437   0.12866301     4.750437   0.12866301     4.750437            0            0            0    2507.6504    2507.6504    2507.6504    2507.6504    14954.305    14954.305    14954.305   -37.263505 
      90    -37.30516    4.7553161   0.12378391    4.7553161   0.12378391    4.7553161            0            0            0   -3387.4436   -3387.4436   -3387.4436   -3387.4436    19127.617    19127.617    19127.617    -37.30516 
     100   -37.342983    4.7553161   0.12378391    4.7553161   0.12378391    4.7553161            0            0            0   -45.334362   -45.334365   -45.334361   -45.334361    22225.783    22225.783    22225.783   -37.342983 
     110    -37.39132    4.7606017   0.11849826     4.760602   0.11849797     4.760602            0            0            0    -2904.388   -2904.3948   -2904.3846   -2904.3847    25832.562    25832.562    25832.536    -37.39132 
     120   -37.623603    4.7702439   0.10885609    4.7702577   0.10884234    4.7702576            0            0            0    17055.101    17055.016    17055.143    17055.143    14645.537    14645.541    14644.393   -37.623603 
     130   -37.742255    4.7848805  0.094219461    4.7848963  0.094203701    4.7848962            0            0            0    5533.7404    5533.6457    5533.7881    5533.7875    14004.888    14004.893    14003.366   -37.742255 
     140   -38.073919    4.8043967  0.074703344    4.8044158   0.07468418    4.8044158            0            0            0    10939.658    10939.607    10939.683    10939.683    10676.573    10676.579    10674.593   -38.073919 
     150   -38.331549    4.8287913  0.050308706    4.8288113  0.050288683    4.8288113            0            0            0    2591.6483     2591.538    2591.7038    2591.7032    11356.859    11356.866    11354.622   -38.331549 
     160   -38.639732    4.8531854  0.025914593    4.8532068  0.025893183    4.8532068            0            0            0    3401.1699    3401.0132    3401.2486    3401.2479    12341.255    12341.262    12338.921   -38.639732 
     170   -38.919161    4.8775791 0.0015208879    4.8776023 0.0014976831    4.8776022            0            0            0     3936.826    3936.5833    3936.9479    3936.9468    13806.955    13806.963    13804.558   -38.919161 
     180   -39.178129    4.9019723 -0.022872318    4.9019978 -0.022897817    4.9019977            0            0            0    4281.2269    4280.8792    4281.4016       4281.4    15058.737    15058.744    15056.282   -39.178129 
     190   -39.422938     4.926365 -0.047264986    4.9263933 -0.047293317    4.9263932            0            0            0     4503.539     4503.144    4503.7374    4503.7355     15817.61    15817.618    15815.134   -39.422938 
     200   -39.656238    4.9507576 -0.071657616    4.9507888 -0.071688817    4.9507887            0            0            0    4685.3082    4684.8972    4685.5147    4685.5127    16072.584    16072.592    16070.124   -39.656238 
     210   -39.878398    4.9751501 -0.096050052    4.9751843 -0.096084317    4.9751842            0            0            0    4825.8154    4825.4341    4826.0069    4826.0051    15934.316    15934.324    15931.914   -39.878398 
     220   -40.088494    4.9995426   -0.1204426    4.9995798  -0.12047982    4.9995797            0            0            0    4929.8314    4929.4049    4930.0456    4930.0436    15530.994    15531.001    15528.596   -40.088494 
     230   -40.286375    5.0239353  -0.14483529    5.0239753  -0.14487532    5.0239752            0            0            0    5015.5923    5015.2016    5015.7885    5015.7866    14952.944    14952.951    14950.634   -40.286375 
     240   -40.472038    5.0483281  -0.16922815    5.0483708  -0.16927082    5.0483707            0            0            0    5065.0453    5064.7156    5065.2109    5065.2093    14275.156    14275.163     14272.97   -40.472038 
     250   -40.645724    5.0727212  -0.19362123    5.0727663  -0.19366632    5.0727662            0            0            0    5070.0198    5069.6676    5070.1966    5070.1951     13544.27    13544.276     13542.13   -40.645724 
     260    -40.80807    5.0971146  -0.21801455    5.0971618  -0.21806182    5.0971617            0            0            0     5052.635     5052.253     5052.827    5052.8251    12785.623     12785.63    12783.524    -40.80807 
     270    -40.95965    5.1215079  -0.24240791    5.1215573  -0.24245732    5.1215572            0            0            0    4983.5676    4983.2602     4983.722    4983.7206    12026.875    12026.881     12024.93    -40.95965 
     280    -41.10107    5.1459016  -0.26680159    5.1459528  -0.26685282    5.1459527            0            0            0    4911.5724    4911.2767    4911.7209    4911.7196    11272.522    11272.528    11270.668    -41.10107 
     290   -41.232901    5.1702956  -0.29119557    5.1703483  -0.29124832    5.1703482            0            0            0    4826.9822    4826.6672    4827.1404    4827.1389    10530.942    10530.947    10529.145   -41.232901 
     300   -41.355828    5.1946897  -0.31558971    5.1947438  -0.31564382    5.1947436            0            0            0    4723.4396    4723.2152    4723.5524    4723.5513    9811.7418    9811.7469    9810.1332   -41.355828 
     310   -41.470353    5.2190841  -0.33998406    5.2191393  -0.34003932    5.2191391            0            0            0    4599.0764    4598.8873    4599.1714    4599.1704    9122.1568    9122.1615    9120.6708   -41.470353 
     320   -41.577048    5.2434786  -0.36437861    5.2435348  -0.36443482    5.2435346            0            0            0    4460.4995    4460.3338    4460.5828     4460.582    8464.3906     8464.395    8463.0118   -41.577048 
     330   -41.676422    5.2678734  -0.38877336    5.2679303  -0.38883032    5.2679301            0            0            0    4313.7194    4313.5771     4313.791    4313.7903    7842.5139    7842.5179    7841.2408   -41.676422 
     340    -41.76898    5.2922683  -0.41316831    5.2923258  -0.41322582    5.2923256            0            0            0    4158.0625    4157.9478    4158.1202    4158.1196    7250.4233     7250.427    7249.2596    -41.76898 
     350    -41.85518    5.3166634  -0.43756345    5.3167213  -0.43762132    5.3167211            0            0            0    4001.2372    4001.1237    4001.2942    4001.2936    6698.0519    6698.0553    6696.9613    -41.85518 
     360   -41.935451    5.3410587  -0.46195873    5.3411168   -0.4620168    5.3411166            0            0            0    3840.4714     3840.398    3840.5083    3840.5079    6177.7091    6177.7121    6176.7398   -41.935451 
     370   -42.010206    5.3654542  -0.48635416    5.3655122  -0.48641224    5.3655121            0            0            0    3678.0909    3678.0367    3678.1181    3678.1177    5690.8854    5690.8882    5690.0076   -42.010206 
     380   -42.079845    5.3898496  -0.51074962    5.3899076  -0.51080758    5.3899074            0            0            0    3516.4021    3516.3677    3516.4194    3516.4192    5236.7495     5236.752    5235.9602   -42.079845 
     390   -42.144703    5.4142451  -0.53514512    5.4143029  -0.53520287    5.4143027            0            0            0    3352.5154    3352.5218    3352.5122    3352.5121    4815.7809     4815.783     4815.105   -42.144703 
     400   -42.205092    5.4386406  -0.55954062     5.438698  -0.55959801    5.4386978            0            0            0    3188.5125    3188.4997    3188.5189    3188.5188    4426.6501    4426.6521    4426.0036   -42.205092 
     410   -42.261342    5.4630361  -0.58393612     5.463093  -0.58399298    5.4630928            0            0            0    3031.4265    3031.4287    3031.4254    3031.4254    4064.4008    4064.4025    4063.8269   -42.261342 
     420   -42.313764    5.4874316  -0.60833162    5.4874879  -0.60838787    5.4874877            0            0            0    2877.5287    2877.5549    2877.5156    2877.5157    3726.3081    3726.3096    3725.8157   -42.313764 
     430     -42.3626    5.5118271  -0.63272712    5.5118827  -0.63278268    5.5118825            0            0            0    2726.5295    2726.5534    2726.5175    2726.5176    3417.6491    3417.6504     3417.199     -42.3626 
     440   -42.408095    5.5362226  -0.65712262    5.5362774  -0.65717738    5.5362772            0            0            0    2580.7254    2580.7497    2580.7132    2580.7133    3133.7994    3133.8007    3133.3922   -42.408095 
     450   -42.450524    5.5606181  -0.68151812    5.5606721  -0.68157206    5.5606719            0            0            0    2438.7831    2438.8158    2438.7667    2438.7668    2869.6475    2869.6485    2869.2905   -42.450524 
     460   -42.490094    5.5850136  -0.70591362    5.5850666   -0.7059666    5.5850664            0            0            0    2302.6081    2302.6332    2302.5954    2302.5955    2625.4324    2625.4333    2625.1007   -42.490094 
     470   -42.527052    5.6094091  -0.73030912    5.6094612  -0.73036115     5.609461            0            0            0    2173.9067     2173.944     2173.888    2173.8882    2401.9777    2401.9785    2401.6961   -42.527052 
     480   -42.561605    5.6338046  -0.75470462    5.6338556  -0.75475564    5.6338555            0            0            0    2050.0561    2050.0903    2050.0389    2050.0391    2196.8533     2196.854    2196.5977   -42.561605 
     490    -42.59404    5.6582001  -0.77910012    5.6582501  -0.77915014      5.65825            0            0            0    1932.9517    1932.9834    1932.9357    1932.9359    2007.0319    2007.0324    2006.8004    -42.59404 
     500   -42.624677    5.6825956  -0.80349562    5.6826446  -0.80354459    5.6826444            0            0            0    1825.0175    1825.0532    1824.9996    1824.9998    1830.4569    1830.4572    1830.2564   -42.624677 
     510   -42.653974    5.7069911  -0.82789112     5.707039  -0.82793903    5.7070389            0            0            0    1726.5238    1726.5566    1726.5074    1726.5076    1665.9937     1665.994    1665.8122   -42.653974 
     520   -42.682651    5.7313866  -0.85228662    5.7314335  -0.85233347    5.7314333            0            0            0    1642.5833    1642.6165    1642.5666    1642.5669    1509.6554    1509.6556    1509.4957   -42.682651 
     530   -42.711894    5.7557821  -0.87668212    5.7558279  -0.87672788    5.7558277            0            0            0    1579.4491    1579.4806    1579.4332    1579.4335    1356.6255    1356.6254    1356.4827   -42.711894 
     540    -42.74367    5.7801776  -0.90107762    5.7802223   -0.9011223    5.7802222            0            0            0    1548.7654    1548.7961    1548.7498    1548.7502    1199.3667    1199.3666    1199.2406    -42.74367 
     550   -42.780914    5.8045731  -0.92547312    5.8046166  -0.92551664    5.8046165            0            0            0    1568.8083    1568.8436    1568.7904    1568.7909    1026.5609    1026.5605    1026.4582   -42.780914 
     560   -42.827202    5.8289686  -0.94986862     5.829011    -0.949911    5.8290109            0            0            0    1656.2892    1656.3305    1656.2683    1656.2689    827.82431    827.82372    827.74586   -42.827202 
     570   -42.885315    5.8533641  -0.97426412    5.8534052  -0.97430522    5.8534051            0            0            0    1824.6767    1824.7264    1824.6515    1824.6523    594.40989    594.40905    594.35868   -42.885315 
     580   -42.955781    5.8777596  -0.99865962    5.8777994  -0.99869938    5.8777993            0            0            0    2065.3688    2065.4298    2065.3378    2065.3388    330.63015     330.6291    330.60959   -42.955781 
     590   -43.036767    5.9021551   -1.0230551    5.9021935   -1.0230935    5.9021934            0            0            0    2357.2938    2357.3652    2357.2575    2357.2587    47.197262    47.196034     47.20486   -43.036767 
     600   -43.125346    5.9265506   -1.0474506    5.9265876   -1.0474876    5.9265876            0            0            0    2674.5833    2674.6614    2674.5435    2674.5448   -241.09607   -241.09742   -241.06707   -43.125346 
     610   -43.218607    5.9509461   -1.0718461    5.9509818   -1.0718818    5.9509818            0            0            0    2996.6697    2996.7593    2996.6241    2996.6257     -521.981    -521.9826   -521.92494   -43.218607 
     620   -43.314267    5.9753416   -1.0962416     5.975376    -1.096276     5.975376            0            0            0    3301.9293    3302.0359    3301.8753    3301.8768   -789.19846   -789.19995    -789.1087   -43.314267 
     630   -43.410623    5.9997371   -1.1206371    5.9997703   -1.1206703    5.9997703            0            0            0    3586.4627    3586.5435    3586.4214    3586.4233   -1036.4416   -1036.4434   -1036.3824   -43.410623 
     640   -43.506475    6.0241326   -1.1450326    6.0241647   -1.1450647    6.0241647            0            0            0    3832.8965    3832.9888    3832.8496    3832.8512   -1252.6315    -1252.633   -1252.5487   -43.506475 
     650   -43.600997    6.0485281   -1.1694281    6.0485591   -1.1694591    6.0485591            0            0            0    4055.8562    4055.9465    4055.8102     4055.812   -1450.1115   -1450.1133   -1450.0262   -43.600997 
     660   -43.693653    6.0729236   -1.1938236    6.0729537   -1.1938537    6.0729537            0            0            0     4234.362    4234.4476    4234.3182      4234.32   -1619.0203    -1619.022   -1618.9373   -43.693653 
     670    -43.78409    6.0973191   -1.2182191    6.0973482   -1.2182482    6.0973482            0            0            0    4384.2598    4384.3453    4384.2161     4384.218    -1764.652   -1764.6537   -1764.5653    -43.78409 
     680    -43.87204    6.1217146   -1.2426146    6.1217429   -1.2426429    6.1217429            0            0            0      4500.68    4500.7564    4500.6408    4500.6427   -1885.7328   -1885.7345    -1885.656    -43.87204 
     690   -43.957387    6.1461101   -1.2670101    6.1461375   -1.2670375    6.1461376            0            0            0    4584.3401    4584.4129    4584.3028    4584.3045   -1983.6175    -1983.619   -1983.5431   -43.957387 
     700   -44.040068    6.1705056   -1.2914056    6.1705322   -1.2914322    6.1705323            0            0            0    4642.0815    4642.1565    4642.0432     4642.045   -2062.5432   -2062.5448   -2062.4632   -44.040068 
     710   -44.120053    6.1949011   -1.3158011     6.194927    -1.315827     6.194927            0            0            0    4674.3605    4674.4365    4674.3216    4674.3235   -2123.0728   -2123.0744   -2122.9892   -44.120053 
     720   -44.197345    6.2192966   -1.3401966    6.2193218   -1.3402218    6.2193218            0            0            0    4682.6512    4682.7238     4682.614    4682.6157   -2166.4354   -2166.4369   -2166.3547   -44.197345 
     730   -44.271988    6.2436921   -1.3645921    6.2437166   -1.3646166    6.2437166            0            0            0    4669.9969    4670.0642    4669.9624    4669.9642   -2194.5403   -2194.5419    -2194.466   -44.271988 
     740   -44.344033    6.2680876   -1.3889876    6.2681114   -1.3890114    6.2681115            0            0            0    4638.8562    4638.9238    4638.8215    4638.8233   -2209.0951   -2209.0966   -2209.0187   -44.344033 
     750   -44.413531    6.2924831   -1.4133831    6.2925062   -1.4134062    6.2925063            0            0            0    4592.2606    4592.3246    4592.2277    4592.2295   -2212.0423   -2212.0437     -2211.97   -44.413531 
     760   -44.480563    6.3168786   -1.4377786    6.3169011   -1.4378011    6.3169012            0            0            0    4529.9543    4530.0167    4529.9223     4529.924   -2203.6249   -2203.6262   -2203.5538   -44.480563 
     770   -44.545184    6.3412741   -1.4621741    6.3412959   -1.4621959     6.341296            0            0            0    4455.3887    4455.4502    4455.3571    4455.3587   -2185.9979   -2185.9992   -2185.9271   -44.545184 
     780   -44.607475    6.3656696   -1.4865696    6.3656908   -1.4865908    6.3656909            0            0            0    4372.0831    4372.1423    4372.0527    4372.0543    -2161.227   -2161.2283   -2161.1588   -44.607475 
     790   -44.667514    6.3900651   -1.5109651    6.3900857   -1.5109857    6.3900858            0            0            0    4282.6683    4282.7255    4282.6389    4282.6405   -2130.9283   -2130.9296   -2130.8622   -44.667514 
     800   -44.725375    6.4144606   -1.5353606    6.4144805   -1.5353805    6.4144807            0            0            0    4186.9056    4186.9628    4186.8762    4186.8778    -2095.269   -2095.2702    -2095.202   -44.725375 
     810   -44.781128    6.4388561   -1.5597561    6.4388754   -1.5597754    6.4388756            0            0            0    4079.3548    4079.4116    4079.3256    4079.3271   -2051.7878   -2051.7889   -2051.7208   -44.781128 
     820   -44.834833    6.4632516   -1.5841516    6.4632703   -1.5841703    6.4632705            0            0            0    3971.9125     3971.966     3971.885    3971.8865   -2006.6463   -2006.6474   -2006.5836   -44.834833 
     830   -44.886586    6.4876471   -1.6085471    6.4876652   -1.6085652    6.4876654            0            0            0    3862.6328     3862.686    3862.6055     3862.607   -1958.9582   -1958.9593   -1958.8953   -44.886586 
     840   -44.936418    6.5120426   -1.6329426    6.5120601   -1.6329601    6.5120603            0            0            0    3747.5945    3747.6454    3747.5684    3747.5697   -1907.1725   -1907.1735   -1907.1124   -44.936418 
     850   -44.984437    6.5364381   -1.6573381     6.536455    -1.657355    6.5364551            0            0            0    3634.9957    3635.0465    3634.9697     3634.971   -1855.3496   -1855.3506   -1855.2892   -44.984437 
     860   -45.030673    6.5608336   -1.6817336    6.5608499   -1.6817499      6.56085            0            0            0    3517.9833    3518.0329    3517.9578    3517.9591   -1800.6151   -1800.6161   -1800.5559   -45.030673 
     870     -45.0752    6.5852291   -1.7061291    6.5852447   -1.7061447    6.5852449            0            0            0    3403.1828    3403.2312     3403.158    3403.1593   -1746.3502   -1746.3511   -1746.2924     -45.0752 
     880   -45.118083    6.6096246   -1.7305246    6.6096396   -1.7305396    6.6096398            0            0            0    3286.9168    3286.9642    3286.8925    3286.8938   -1690.6739   -1690.6747   -1690.6172   -45.118083 
     890   -45.159384    6.6340201   -1.7549201    6.6340345   -1.7549345    6.6340347            0            0            0    3172.9305    3172.9771    3172.9065    3172.9077   -1635.5548   -1635.5556   -1635.4989   -45.159384 
     900   -45.199128    6.6584156   -1.7793156    6.6584294   -1.7793294    6.6584296            0            0            0    3060.8619     3060.907    3060.8388      3060.84   -1580.6358   -1580.6366   -1580.5818   -45.199128 
     910   -45.237412    6.6828111   -1.8037111    6.6828243   -1.8037243    6.6828245            0            0            0    2946.9361    2946.9804    2946.9134    2946.9145   -1523.7579   -1523.7587   -1523.7047   -45.237412 
     920   -45.274263    6.7072066   -1.8281066    6.7072191   -1.8281191    6.7072193            0            0            0    2840.0003    2840.0436    2839.9782    2839.9792   -1470.0378   -1470.0386   -1469.9858   -45.274263 
     930   -45.309714    6.7316021   -1.8525021     6.731614    -1.852514    6.7316142            0            0            0    2732.9385    2732.9806     2732.917     2732.918   -1416.0738   -1416.0745   -1416.0232   -45.309714 
     940   -45.343832    6.7559976   -1.8768976    6.7560089   -1.8769089    6.7560091            0            0            0    2627.8739    2627.9149    2627.8529    2627.8539   -1363.1288   -1363.1295   -1363.0795   -45.343832 
     950   -45.376669    6.7803931   -1.9012931    6.7804037   -1.9013037     6.780404            0            0            0    2525.1656    2525.2055    2525.1451    2525.1461   -1311.3164   -1311.3171   -1311.2684   -45.376669 
     960    -45.40827    6.8047886   -1.9256886    6.8047986   -1.9256986    6.8047988            0            0            0    2425.1064    2425.1453    2425.0865    2425.0874   -1260.6797   -1260.6803   -1260.6329    -45.40827 
     970   -45.438677    6.8291841   -1.9500841    6.8291934   -1.9500934    6.8291937            0            0            0    2327.8362    2327.8741    2327.8169    2327.8178   -1211.3034    -1211.304   -1211.2579   -45.438677 
     980   -45.467934    6.8535796   -1.9744796    6.8535883   -1.9744883    6.8535885            0            0            0     2233.324    2233.3608    2233.3052    2233.3061   -1163.0624    -1163.063   -1163.0182   -45.467934 
     990   -45.496075    6.8779751   -1.9988751    6.8779831   -1.9988831    6.8779834            0            0            0     2142.649    2142.6848    2142.6307    2142.6315   -1116.3778   -1116.3784   -1116.3349   -45.496075 
    1000   -45.523129    6.9023706   -2.0232706    6.9023779   -2.0232779    6.9023782            0            0            0    2054.7244    2054.7591    2054.7066    2054.7074   -1070.9958   -1070.9963   -1070.9542   -45.523129 
    1010   -45.549149    6.9267661   -2.0476661    6.9267728   -2.0476728    6.9267731            0            0            0    1968.0396    1968.0733    1968.0224    1968.0232   -1026.1562   -1026.1567   -1026.1159   -45.549149 
    1020   -45.574186    6.9511616   -2.0720616    6.9511676   -2.0720676    6.9511679            0            0            0    1884.0317    1884.0643     1884.015    1884.0157   -982.59656     -982.597   -982.55748   -45.574186 
    1030   -45.598262    6.9755571   -2.0964571    6.9755624   -2.0964624    6.9755628            0            0            0     1805.012    1805.0437    1804.9958    1804.9965   -941.71342   -941.71385   -941.67556   -45.598262 
    1040   -45.621392    6.9999526   -2.1208526    6.9999573   -2.1208573    6.9999576            0            0            0    1728.9302    1728.9609    1728.9145    1728.9152   -902.36117   -902.36158   -902.32455   -45.621392 
    1050   -45.643617    7.0243481   -2.1452481    7.0243521   -2.1452521    7.0243524            0            0            0    1654.2481    1654.2777    1654.2329    1654.2335   -863.66631    -863.6667   -863.63093   -45.643617 
    1060   -45.664987    7.0487436   -2.1696436    7.0487469   -2.1696469    7.0487472            0            0            0    1581.7308    1581.7595    1581.7161    1581.7168    -825.9949   -825.99527   -825.96073   -45.664987 
    1070   -45.685535    7.0731391   -2.1940391    7.0731417   -2.1940417    7.0731421            0            0            0    1511.8639    1511.8917    1511.8498    1511.8504   -789.64441   -789.64475   -789.61142   -45.685535 
    1080   -45.705287    7.0975346   -2.2184346    7.0975365   -2.2184365    7.0975369            0            0            0    1445.6042     1445.631    1445.5905    1445.5911   -755.13252   -755.13285   -755.10073   -45.705287 
    1090   -45.724261    7.1219301   -2.2428301    7.1219313   -2.2428313    7.1219317            0            0            0    1382.1322    1382.1581     1382.119    1382.1196   -722.05905   -722.05936    -722.0284   -45.724261 
    1100   -45.742485    7.1463256   -2.2672256    7.1463261   -2.2672261    7.1463265            0            0            0    1320.9887    1321.0137    1320.9759    1320.9764   -690.20701   -690.20731   -690.17747   -45.742485 
    1110    -45.75999    7.1707211   -2.2916211    7.1707209   -2.2916209    7.1707213            0            0            0    1261.9274    1261.9516    1261.9151    1261.9156   -659.41307   -659.41335    -659.3846    -45.75999 
    1120   -45.776805    7.1951166   -2.3160166    7.1951157   -2.3160157    7.1951161            0            0            0    1205.1838    1205.2071    1205.1719    1205.1724   -629.79827   -629.79854   -629.77087   -45.776805 
    1130   -45.792956    7.2195121   -2.3404121    7.2195105   -2.3404105    7.2195109            0            0            0     1150.749    1150.7715    1150.7376     1150.738    -601.3728   -601.37305   -601.34644   -45.792956 
    1140   -45.808467    7.2439076   -2.3648076    7.2439053   -2.3648053    7.2439057            0            0            0    1098.5493    1098.5709    1098.5383    1098.5387    -574.1007   -574.10094   -574.07536   -45.808467 
    1150   -45.823362    7.2683031   -2.3892031    7.2683001   -2.3892001    7.2683005            0            0            0    1048.5637    1048.5846    1048.5531    1048.5535   -547.98062   -547.98086   -547.95628   -45.823362 
    1160   -45.837662    7.2926986   -2.4135986    7.2926949   -2.4135949    7.2926953            0            0            0    1000.6266    1000.6467    1000.6164    1000.6168   -522.90547   -522.90569   -522.88208   -45.837662 
    1170   -45.851392    7.3170941   -2.4379941    7.3170896   -2.4379896    7.3170901            0            0            0    954.69755    954.71688     954.6877    954.68808   -498.85887   -498.85908   -498.83642   -45.851392 
    1180   -45.864572    7.3414896   -2.4623896    7.3414844   -2.4623844    7.3414848            0            0            0    910.71284    910.73143    910.70336    910.70372   -475.82882   -475.82901   -475.80727   -45.864572 
    1190   -45.877222    7.3658851   -2.4867851    7.3658792   -2.4867792    7.3658796            0            0            0    868.60413    868.62201    868.59502    868.59537     -453.781   -453.78118   -453.76032   -45.877222 
    1200   -45.889363    7.3902806   -2.5111806     7.390274    -2.511174    7.3902744            0            0            0    828.30392     828.3211    828.29516    828.29549   -432.68029   -432.68046   -432.66047   -45.889363 
    1210   -45.901014    7.4146761   -2.5355761    7.4146687   -2.5355687    7.4146692            0            0            0    789.75738    789.77388    789.74897    789.74928    -412.4978   -412.49796   -412.47881   -45.901014 
    1220   -45.912193    7.4390716   -2.5599716    7.4390635   -2.5599635     7.439064            0            0            0    752.93051    752.94637    752.92243    752.92273    -393.2181   -393.21826   -393.19991   -45.912193 
    1230   -45.922918    7.4634671   -2.5843671    7.4634583   -2.5843583    7.4634587            0            0            0    717.71703    717.73225    717.70927    717.70956   -374.77565   -374.77579   -374.75823   -45.922918 
    1240   -45.933206    7.4878626   -2.6087626     7.487853    -2.608753    7.4878535            0            0            0    684.04081    684.05543    684.03337    684.03364   -357.13956    -357.1397   -357.12289   -45.933206 
    1250   -45.943074    7.5122581   -2.6331581    7.5122478   -2.6331478    7.5122483            0            0            0    651.84583    651.85985    651.83868    651.83894   -340.27933   -340.27946   -340.26338   -45.943074 
    1260   -45.952539    7.5366536   -2.6575536    7.5366425   -2.6575425     7.536643            0            0            0    621.06949    621.08294    621.06264    621.06289   -324.17288     -324.173   -324.15762   -45.952539 
    1270   -45.961615    7.5610491   -2.6819491    7.5610373   -2.6819373    7.5610378            0            0            0    591.66315    591.67605    591.65658    591.65682   -308.78391   -308.78402   -308.76932   -45.961615 
    1280   -45.970319    7.5854446   -2.7063446     7.585432    -2.706332    7.5854325            0            0            0    563.57503     563.5874    563.56873    563.56896   -294.08393   -294.08404   -294.06999   -45.970319 
    1290   -45.978665    7.6098401   -2.7307401    7.6098268   -2.7307268    7.6098273            0            0            0    536.74281    536.75467    536.73677    536.73699   -280.04165   -280.04175   -280.02832   -45.978665 
    1300   -45.986666    7.6342356   -2.7551356    7.6342215   -2.7551215    7.6342221            0            0            0    511.11774     511.1291    511.11196    511.11216   -266.62978   -266.62987   -266.61705   -45.986666 
    1310   -45.994337    7.6586311   -2.7795311    7.6586163   -2.7795163    7.6586168            0            0            0    486.65839    486.66927    486.65286    486.65305   -253.82951    -253.8296   -253.81736   -45.994337 
    1320    -46.00169    7.6830266   -2.8039266     7.683011    -2.803911    7.6830116            0            0            0    463.31613    463.32654    463.31083    463.31102   -241.61539   -241.61547   -241.60379    -46.00169 
    1330   -46.008737    7.7074221   -2.8283221    7.7074058   -2.8283058    7.7074063            0            0            0    441.04768    441.05765    441.04261    441.04279   -229.96377   -229.96386   -229.95271   -46.008737 
    1340   -46.015492    7.7318176   -2.8527176    7.7318005   -2.8527005    7.7318011            0            0            0     419.8037    419.81324    419.79885    419.79902   -218.84972   -218.84979   -218.83916   -46.015492 
    1350   -46.021964    7.7562131   -2.8771131    7.7561953   -2.8770953    7.7561958            0            0            0    399.54235    399.55147    399.53771    399.53787   -208.24787   -208.24794    -208.2378   -46.021964 
    1360   -46.028167    7.7806086   -2.9015086      7.78059     -2.90149    7.7805906            0            0            0    380.22191    380.23063    380.21747    380.21763   -198.13544    -198.1355   -198.12584   -46.028167 
    1370   -46.034109    7.8050041   -2.9259041    7.8049847   -2.9258847    7.8049853            0            0            0    361.79843    361.80677    361.79419    361.79434   -188.49469   -188.49475   -188.48554   -46.034109 
    1380   -46.039802    7.8293996   -2.9502996    7.8293795   -2.9502795    7.8293801            0            0            0    344.23418    344.24215    344.23013    344.23027   -179.30497   -179.30503   -179.29626   -46.039802 
    1390   -46.045255    7.8537951   -2.9746951    7.8537742   -2.9746742    7.8537748            0            0            0    327.49252    327.50014    327.48865    327.48878   -170.54736   -170.54742   -170.53906   -46.045255 
    1400   -46.050479    7.8781906   -2.9990906     7.878169    -2.999069    7.8781695            0            0            0    311.53556    311.54283    311.53186    311.53198   -162.20228   -162.20233   -162.19437   -46.050479 
    1410   -46.055481    7.9025861   -3.0234861    7.9025637   -3.0234637    7.9025643            0            0            0    296.32835     296.3353    296.32481    296.32493   -154.25063   -154.25069   -154.24311   -46.055481 
    1420   -46.060272    7.9269816   -3.0478816    7.9269584   -3.0478584     7.926959            0            0            0    281.84122    281.84786    281.83785    281.83796   -146.67334   -146.67339   -146.66619   -46.060272 
    1430    -46.06486    7.9513771   -3.0722771    7.9513532   -3.0722532    7.9513538            0            0            0    268.04526     268.0516    268.04204    268.04214   -139.45929   -139.45934   -139.45248    -46.06486 
    1440   -46.069253    7.9757726   -3.0966726    7.9757479   -3.0966479    7.9757485            0            0            0    254.90072    254.90676    254.89764    254.89774   -132.58827   -132.58831   -132.58179   -46.069253 
    1450   -46.073458    8.0001681   -3.1210681    8.0001426   -3.1210426    8.0001433            0            0            0     242.3785    242.38427    242.37556    242.37566   -126.04479   -126.04483   -126.03862   -46.073458 
    1460   -46.077484    8.0245636   -3.1454636    8.0245374   -3.1454374     8.024538            0            0            0    230.45073    230.45624    230.44793    230.44802   -119.81403   -119.81407   -119.80817   -46.077484 
    1470   -46.081337    8.0489591   -3.1698591    8.0489321   -3.1698321    8.0489328            0            0            0    219.09064    219.09589    219.08797    219.08806    -113.8818   -113.88184   -113.87623   -46.081337 
    1480   -46.085026    8.0733546   -3.1942546    8.0733268   -3.1942268    8.0733275            0            0            0    208.27254    208.27755       208.27    208.27008   -108.23447    -108.2345   -108.22918   -46.085026 
    1490   -46.088556    8.0977501   -3.2186501    8.0977216   -3.2186216    8.0977222            0            0            0    197.97181    197.97658    197.96938    197.96946   -102.85899   -102.85902   -102.85396   -46.088556 
    1500   -46.091934    8.1221456   -3.2430456    8.1221163   -3.2430163     8.122117            0            0            0    188.16482    188.16937     188.1625    188.16258   -97.742838   -97.742868   -97.738059   -46.091934 
    1510   -46.095167    8.1465411   -3.2674411    8.1465111   -3.2674111    8.1465117            0            0            0    178.83068    178.83502    178.82848    178.82855   -92.874627   -92.874655   -92.870087   -46.095167 
    1520   -46.098259    8.1709366   -3.2918366    8.1709058   -3.2918058    8.1709065            0            0            0     169.9466    169.95074     169.9445    169.94457   -88.242531   -88.242558    -88.23822   -46.098259 
    1530   -46.101219    8.1953321   -3.3162321    8.1953005   -3.3162005    8.1953012            0            0            0    161.49105    161.49499    161.48905    161.48911   -83.835297   -83.835322   -83.831203   -46.101219 
    1540   -46.104049    8.2197276   -3.3406276    8.2196953   -3.3405953     8.219696            0            0            0    153.44418    153.44793    153.44227    153.44234   -79.642432   -79.642455   -79.638546   -46.104049 
    1550   -46.106757    8.2441231   -3.3650231      8.24409     -3.36499    8.2440907            0            0            0    145.79056    145.79413    145.78874     145.7888   -75.650469   -75.650492   -75.646782   -46.106757 
    1560   -46.109347    8.2685186   -3.3894186    8.2684847   -3.3893847    8.2684854            0            0            0    138.51167    138.51507    138.50994       138.51   -71.851953   -71.851974   -71.848456   -46.109347 
    1570   -46.111825    8.2929141   -3.4138141    8.2928795   -3.4137795    8.2928802            0            0            0    131.58662    131.58986    131.58497    131.58502   -68.239451   -68.239471   -68.236133   -46.111825 
    1580   -46.114194    8.3173096   -3.4382096    8.3172742   -3.4381742    8.3172749            0            0            0    125.00072    125.00381    124.99916    124.99921    -64.80499   -64.805009   -64.801843   -46.114194 
    1590    -46.11646    8.3417051   -3.4626051     8.341669    -3.462569    8.3416697            0            0            0    118.73618    118.73911    118.73469    118.73473   -61.539406   -61.539424   -61.536422    -46.11646 
    1600   -46.118626    8.3661006   -3.4870006    8.3660637   -3.4869637    8.3660644            0            0            0    112.77758    112.78037    112.77616     112.7762   -58.434558   -58.434574   -58.431728   -46.118626 
    1610   -46.120698    8.3904961   -3.5113961    8.3904584   -3.5113584    8.3904592            0            0            0    107.11048    107.11314    107.10913    107.10917   -55.482784   -55.482799   -55.480101   -46.120698 
    1620   -46.122678    8.4148916   -3.5357916    8.4148532   -3.5357532    8.4148539            0            0            0     101.7211    101.72363    101.71982    101.71986   -52.676768   -52.676783   -52.674226   -46.122678 
    1630   -46.124571    8.4392871   -3.5601871    8.4392479   -3.5601479    8.4392487            0            0            0    96.596267    96.598669    96.595046    96.595085   -50.009531   -50.009545   -50.007121   -46.124571 
    1640   -46.126381    8.4636826   -3.5845826    8.4636427   -3.5845427    8.4636434            0            0            0    91.723402    91.725686    91.722241    91.722278   -47.474409   -47.474422   -47.472126   -46.126381 
    1650   -46.128111    8.4880781   -3.6089781    8.4880374   -3.6089374    8.4880382            0            0            0      87.0905    87.092671    87.089397    87.089431   -45.065048    -45.06506   -45.062884   -46.128111 
    1660   -46.129764    8.5124736   -3.6333736    8.5124322   -3.6333322    8.5124329            0            0            0      82.6861    82.688164    82.685051    82.685084   -42.775383   -42.775394   -42.773334   -46.129764 
    1670   -46.131345    8.5368691   -3.6577691    8.5368269   -3.6577269    8.5368277            0            0            0    78.499272    78.501234    78.498276    78.498307   -40.599633   -40.599644   -40.597692   -46.131345 
    1680   -46.132855    8.5612646   -3.6821646    8.5612217   -3.6821217    8.5612224            0            0            0    74.520275    74.522139    74.519328    74.519359   -38.532375   -38.532386   -38.530538   -46.132855 
    1690   -46.134298    8.5856601   -3.7065601    8.5856164   -3.7065164    8.5856172            0            0            0    70.885855    70.887578    70.884935    70.885053   -36.587635   -36.587734   -36.586009   -46.134298 
    1700   -46.135679    8.6100556   -3.7309556    8.6100112   -3.7309112    8.6100119            0            0            0    73.525272    73.526391    73.524374     73.52505   -35.532675   -35.533328   -35.532065   -46.135679 
    1710   -46.136995    8.6344511   -3.7553511    8.6344059   -3.7553059    8.6344067            0            0            0    73.220975    73.222199    73.220343    73.220381   -34.162219    -34.16224    -34.16104   -46.136995 
    1720   -46.138254    8.6588466   -3.7797466    8.6588007   -3.7797007    8.6588015            0            0            0     67.90887    67.910103    67.908242    67.908265   -32.211121   -32.211128   -32.209928   -46.138254 
    1730   -46.139453    8.6832421   -3.8041421    8.6831954   -3.8040954    8.6831963            0            0            0    55.995058    55.996602    55.994275    55.994298   -29.402238   -29.402246   -29.400712   -46.139453 
    1740   -46.140594    8.7076376   -3.8285376    8.7075902   -3.8284902     8.707591            0            0            0    46.686284    46.687936    46.685447     46.68547   -27.127419   -27.127427   -27.125825   -46.140594 
    1750   -46.141697    8.7320331   -3.8529331     8.731985    -3.852885    8.7319858            0            0            0    50.020944    50.022298    50.020256    50.020277   -26.481501   -26.481507   -26.480202   -46.141697 
    1760   -46.142739    8.7564286   -3.8773286    8.7563797   -3.8772797    8.7563806            0            0            0    42.119914    42.121397    42.119162    42.119183   -24.412495   -24.412502    -24.41107   -46.142739 
    1770   -46.143744    8.7808241   -3.9017241    8.7807745   -3.9016745    8.7807753            0            0            0    44.350485     44.35171    44.349863    44.349881   -23.765619   -23.765625   -23.764464   -46.143744 
    1780     -46.1447    8.8052196   -3.9261196    8.8051692   -3.9260692    8.8051701            0            0            0    42.834147    42.835299    42.833561    42.833579   -22.619856   -22.619861   -22.618762     -46.1447 
    1790   -46.145598    8.8296151   -3.9505151     8.829564    -3.950464    8.8295649            0            0            0     29.69286    29.694311    29.692126    29.692144   -20.256737   -20.256744   -20.255387   -46.145598 
    1800   -46.146259     8.847889    -3.968789    8.8478373   -3.9687373    8.8478382            0            0            0    57.983845    57.984283     57.98362    57.983632   -22.474923   -22.474924   -22.474455   -46.146259 
    1810   -46.146916    8.8670143   -3.9879143    8.8669621   -3.9878621     8.866963            0            0            0    26.423051    26.424421    26.422357    26.422377   -19.161951    -19.16196   -19.160729   -46.146916 
    1820    -46.14754    8.8855312   -4.0064312    8.8854784   -4.0063784    8.8854793            0            0            0    54.476374    54.476749    54.476184    54.476188   -19.347624   -19.347619   -19.347102    -46.14754 
    1830   -46.148166    8.9055419   -4.0264419    8.9054885   -4.0263885    8.9054894            0            0            0    18.315689    18.317133    18.314953    18.314981   -19.237225   -19.237244   -19.236133   -46.148166 
    1840   -46.148721    8.9229419   -4.0438419     8.922888    -4.043788    8.9228889            0            0            0     22.11161    22.112852    22.110978    22.111001   -17.278829   -17.278841   -17.277771   -46.148721 
    1850   -46.149307    8.9421336   -4.0630336    8.9420792   -4.0629792    8.9420801            0            0            0    45.543163    45.543604    45.542943    45.542942   -16.790154   -16.790145   -16.789587   -46.149307 
    1860   -46.149889    8.9626383   -4.0835383    8.9625833   -4.0834833    8.9625842            0            0            0       19.955    19.956085    19.954438    19.954479   -17.894546   -17.894579   -17.893843   -46.149889 
    1870   -46.150392    8.9805679   -4.1014679    8.9805123   -4.1014123    8.9805132            0            0            0    36.708634    36.709235    36.708344    36.708325   -7.9600134   -7.9599869   -7.9587424   -46.150392 
    1880   -46.150891    8.9991612   -4.1200612    8.9991051   -4.1200051     8.999106            0            0            0    25.405643    25.406554     25.40518    25.405195   -22.326338   -22.326345   -22.326087   -46.150891 
    1890   -46.151329    9.0157282   -4.1366282    9.0156716   -4.1365716    9.0156725            0            0            0     25.45927     25.46011    25.458844    25.458855   -19.621832   -19.621836   -19.621467   -46.151329 
    1900    -46.15176    9.0327955   -4.1536955    9.0327384   -4.1536384    9.0327393            0            0            0    29.324366    29.324904    29.324092    29.324103   -8.1674995   -8.1675025   -8.1665613    -46.15176 
    1910   -46.152203    9.0510776   -4.1719776      9.05102     -4.17192    9.0510209            0            0            0     23.30732    23.308118    23.306916    23.306925   -18.884395   -18.884398   -18.884093   -46.152203 
    1920   -46.152617    9.0686611   -4.1895611    9.0686029   -4.1895029    9.0686038            0            0            0    27.482064    27.482539    27.481822    27.481832   -6.5202602   -6.5202632    -6.519338   -46.152617 
    1930   -46.153014    9.0864255   -4.2073255    9.0863668   -4.2072668    9.0863677            0            0            0    20.462084    20.462883     20.46168    20.461689   -19.772856   -19.772858   -19.772703   -46.153014 
    1940   -46.153429    9.1052486   -4.2261486    9.1051893   -4.2260893    9.1051902            0            0            0    26.750441    26.750812    26.750251     26.75026   -4.2545998   -4.2546025    -4.253674   -46.153429 
    1950   -46.153776    9.1212581   -4.2421581    9.1211984   -4.2420984    9.1211993            0            0            0    23.945441    23.945891    23.945212    23.945221   -6.2835923   -6.2835949   -6.2827887   -46.153776 
    1960   -46.154168    9.1405187   -4.2614187    9.1404584   -4.2613584    9.1404594            0            0            0    18.859182     18.85985    18.858844    18.858852    -16.15951   -16.159512   -16.159307   -46.154168 
    1970   -46.154554    9.1599714   -4.2808714    9.1599106   -4.2808106    9.1599115            0            0            0     22.81552    22.815898    22.815326    22.815334   -5.4114569   -5.4114592   -5.4107231   -46.154554 
    1980   -46.154874    9.1772593   -4.2981593    9.1771979   -4.2980979    9.1771989            0            0            0    16.312605    16.313282    16.312263     16.31227    -17.74194   -17.741942   -17.741919   -46.154874 
    1990   -46.155243    9.1971864   -4.3180864    9.1971245   -4.3180245    9.1971254            0            0            0    22.599789    22.600059     22.59965    22.599657   -2.3519859   -2.3519881   -2.3511783   -46.155243 
    2000    -46.15556    9.2146039   -4.3355039    9.2145415   -4.3354415    9.2145424            0            0            0     19.46046    19.460827    19.460273     19.46028   -4.6822329    -4.682235   -4.6815505    -46.15556 
    2010   -46.155896    9.2343847   -4.3552847    9.2343217   -4.3552217    9.2343227            0            0            0    15.627146    15.627679    15.626876    15.626883   -14.011934   -14.011935    -14.01185   -46.155896 
    2020   -46.156233    9.2547592   -4.3756592    9.2546956   -4.3755956    9.2546965            0            0            0    18.918781    18.919073    18.918632    18.918639   -3.8404524   -3.8404542   -3.8398322   -46.156233 
    2030    -46.15651    9.2726588   -4.3935588    9.2725947   -4.3934947    9.2725956            0            0            0    13.990411    13.990927    13.990151    13.990156   -14.744518   -14.744519   -14.744561    -46.15651 
    2040   -46.156827    9.2935693   -4.4144693    9.2935046   -4.4144046    9.2935056            0            0            0    18.989122    18.989316    18.989022    18.989029  -0.86346133    -0.863463  -0.86275237   -46.156827 
    2050   -46.157133    9.3145703   -4.4354703     9.314505    -4.435405     9.314506            0            0            0     10.92579    10.926342    10.925512    10.925517   -14.246295   -14.246296   -14.246325   -46.157133 
    2060   -46.157392    9.3323449   -4.4532449    9.3322791   -4.4531791    9.3322801            0            0            0    13.758183    13.758573    13.757985     13.75799    -12.21987   -12.219871   -12.219906   -46.157392 
    2070   -46.157679    9.3533503   -4.4742503    9.3532839   -4.4741839    9.3532849            0            0            0    15.416184    15.416419    15.416064    15.416069   -2.6541963   -2.6541977   -2.6536631   -46.157679 
    2080   -46.157938    9.3730817   -4.4939817    9.3730147   -4.4939147    9.3730157            0            0            0    12.264226    12.264581    12.264046    12.264051    -9.428787    -9.428788   -9.4286932   -46.157938 
    2090   -46.158184    9.3934659   -4.5143659    9.3933983   -4.5142983    9.3933993            0            0            0    15.143376    15.143538    15.143293    15.143298   0.33145678   0.33145543   0.33210766   -46.158184 
    2100   -46.158442    9.4149916   -4.5358916    9.4149235   -4.5358235    9.4149245            0            0            0    8.0536748      8.05414    8.0534401    8.0534442   -11.987918   -11.987919    -11.98797   -46.158442 
    2110   -46.158664     9.433559    -4.554459    9.4334904   -4.5543904    9.4334914            0            0            0    11.293381    11.293686    11.293226     11.29323   -10.450813   -10.450813   -10.450899   -46.158664 
    2120   -46.158902     9.454769    -4.575669    9.4546998   -4.5755998    9.4547008            0            0            0    11.889947    11.890154    11.889841    11.889846   -1.7490743   -1.7490754   -1.7486053   -46.158902 
    2130   -46.159132      9.47646     -4.59736    9.4763902   -4.5972902    9.4763912            0            0            0    7.9650319    7.9653879     7.964852    7.9648557   -8.8921645   -8.8921654   -8.8921367   -46.159132 
    2140   -46.159314    9.4941456   -4.6150456    9.4940753   -4.6149753    9.4940763            0            0            0    12.738132    12.738268    12.738062    12.738066   -1.6837406   -1.6837414   -1.6833538   -46.159314 
    2150   -46.159507    9.5142372   -4.6351372    9.5141663   -4.6350663    9.5141673            0            0            0    7.3804533    7.3807897    7.3802836    7.3802867   -10.223015   -10.223016   -10.223137   -46.159507 
    2160   -46.159702    9.5338635   -4.6547635    9.5337921   -4.6546921    9.5337931            0            0            0    8.4500313    8.4502756    8.4499074    8.4499108   -5.7618477   -5.7618484   -5.7617279   -46.159702 
    2170   -46.159902    9.5558549   -4.6767549    9.5557829   -4.6766829    9.5557839            0            0            0     10.14798    10.148145    10.147897      10.1479   -4.0932457   -4.0932464   -4.0930719   -46.159902 
    2180   -46.160058      9.57434     -4.69524    9.5742674   -4.6951674    9.5742685            0            0            0    2.9927134    2.9930965    2.9925202    2.9925237   -6.6977127   -6.6977137   -6.6975937   -46.160058 
    2190   -46.160217     9.593656    -4.714556    9.5935829   -4.7144829     9.593584            0            0            0    2.3281796    2.3285969    2.3279694    2.3279726   -7.7023115   -7.7023124   -7.7022362   -46.160217 
    2200   -46.160383    9.6134876   -4.7343876     9.613414    -4.734314    9.6134151            0            0            0    9.5381355    9.5384667    9.5379671    9.5379729  -0.12607188  -0.12607524  -0.12535593   -46.160383 
    2210   -46.160514    9.6299006   -4.7508006    9.6298265   -4.7507265    9.6298276            0            0            0    8.4218813    8.4219252    8.4218587    8.4218602   -1.4326081   -1.4326074   -1.4324476   -46.160514 
    2220   -46.160646    9.6479683   -4.7688683    9.6478938   -4.7687938    9.6478948            0            0            0    5.1121897    5.1115412    5.1125198    5.1125082    1.5069992    1.5070131    1.5062893   -46.160646 
    2230   -46.160779    9.6656384   -4.7865384    9.6655634   -4.7864634    9.6655644            0            0            0    6.9588364     6.958675    6.9589185    6.9589156  -0.58418617  -0.58418112  -0.58429966   -46.160779 
    2240   -46.160894    9.6818279   -4.8027279    9.6817524   -4.8026524    9.6817535            0            0            0    6.5308969    6.5310286      6.53083    6.5308322    -1.096149   -1.0961492   -1.0958804   -46.160894 
    2250   -46.161003     9.698122    -4.819022    9.6980461   -4.8189461    9.6980472            0            0            0    7.1485026    7.1486131    7.1484461    7.1484485 0.0017914851 0.0017910801 0.0021290561   -46.161003 
    2260   -46.161109    9.7141909   -4.8350909    9.7141146   -4.8350146    9.7141156            0            0            0    7.4656323    7.4657208    7.4655869    7.4655892   0.22726704   0.22726665   0.22759655   -46.161109 
    2270   -46.161205    9.7291658   -4.8500658    9.7290891   -4.8499891    9.7290902            0            0            0    5.8986552    5.8987818    5.8985911    5.8985926   -6.4597329   -6.4597329    -6.459909   -46.161205 
    2280   -46.161308    9.7460078   -4.8669078    9.7459306   -4.8668306    9.7459317            0            0            0    5.1366561    5.1368167    5.1365764    5.1365752   -6.5187948   -6.5187922   -6.5189419   -46.161308 
    2290   -46.161441    9.7681977   -4.8890977    9.7681199   -4.8890199     9.768121            0            0            0    6.2284571     6.228517    6.2284269    6.2284273   0.49497882   0.49498026   0.49525714   -46.161441 
    2300   -46.161537    9.7842098   -4.9051098    9.7841315   -4.9050315    9.7841326            0            0            0    5.1229182    5.1230446    5.1228541    5.1228558    -2.977652   -2.9776522   -2.9775741   -46.161537 
    2310   -46.161637    9.8027655   -4.9236655    9.8026868   -4.9235868    9.8026879            0            0            0    2.6057253    2.6058855    2.6056433    2.6056471  0.066536242  0.066534149  0.066843356   -46.161637 
    2320   -46.161734    9.8206156   -4.9415156    9.8205364   -4.9414364    9.8205375            0            0            0     4.150326    4.1504496    4.1502633     4.150265  -0.78047254  -0.78047268  -0.78024975   -46.161734 
    2330   -46.161804    9.8357163   -4.9566163    9.8356366   -4.9565366    9.8356377            0            0            0    5.6062419    5.6063472    5.6061888    5.6061896   -7.5966542    -7.596654   -7.5969625   -46.161804 
    2340    -46.16189    9.8511733   -4.9720733    9.8510933   -4.9719933    9.8510944            0            0            0    3.8649642    3.8650905    3.8649002    3.8649018   -2.6662959   -2.6662961   -2.6662272    -46.16189 
    2350   -46.161969     9.868714    -4.989614    9.8686335   -4.9895335    9.8686346            0            0            0   -1.4552783   -1.4550038   -1.4554166   -1.4554145     -2.70104   -2.7010406   -2.7008757   -46.161969 
    2360   -46.162042     9.883119    -5.004019    9.8830381   -5.0039381    9.8830392            0            0            0    4.3853459    4.3854685     4.385284    4.3852853   -3.1329164   -3.1329165   -3.1328782   -46.162042 
    2370   -46.162125    9.9014846   -5.0223846    9.9014032   -5.0223032    9.9014043            0            0            0    2.0315301    2.0316811    2.0314539    2.0314553   -1.9506896   -1.9506897   -1.9505702   -46.162125 
    2380   -46.162203    9.9199648   -5.0408648    9.9198829   -5.0407829     9.919884            0            0            0    6.6145601    6.6161556    6.6137509    6.6137738    0.2341849   0.23416331   0.23671611   -46.162203 
    2390   -46.162279    9.9373471   -5.0582471    9.9372648   -5.0581648    9.9372659            0            0            0    3.2598558    3.2612805    3.2591339     3.259153   -2.2098475   -2.2098653   -2.2078357   -46.162279 
    2400   -46.162359     9.957118    -5.078018    9.9570348   -5.0779348     9.957036            0            0            0    2.9696486    2.9615029    2.9737778    2.9736652   -3.4711237   -3.4710111   -3.4833831   -46.162359 
    2410    -46.16241    9.9702591   -5.0911591    9.9701766   -5.0910766    9.9701777            0            0            0    3.0100103    3.0343085    2.9976836    2.9980388  0.010456498   0.01010553  0.046482533    -46.16241 
    2420   -46.162485    9.9898002   -5.1107002    9.9897164   -5.1106164    9.9897175            0            0            0    2.8080647    2.8069751    2.8086197    2.8085992  -0.94504568  -0.94502422  -0.94666472   -46.162485 
    2430   -46.162541    10.004907   -5.1258072    10.004823   -5.1257231    10.004824            0            0            0    3.1191454    3.1199279    3.1187472    3.1187612   -2.0170043   -2.0170172   -2.0159337   -46.162541 
    2440   -46.162615    10.026238   -5.1471379    10.026153    -5.147053    10.026154            0            0            0    3.2307927     3.227843    3.2322945    3.2322405  -0.41231208  -0.41225756  -0.41663009   -46.162615 
    2450   -46.162677    10.044381   -5.1652805    10.044295   -5.1651953    10.044296            0            0            0    3.0650338    3.0634671    3.0658315    3.0658029  0.016382781  0.016412196  0.014137515   -46.162677 
    2460   -46.162721    10.059525    -5.180425    10.059439   -5.1803394    10.059441            0            0            0    2.6076755     2.610417    2.6062802    2.6063292   -5.2551407   -5.2551887   -5.2514392   -46.162721 
    2470    -46.16279    10.080848   -5.2017478    10.080761   -5.2016612    10.080762            0            0            0    3.2190451    3.2062114    3.2255798    3.2253442    1.6975932    1.6978279    1.6788294    -46.16279 
    2480   -46.162854    10.100633   -5.2215328    10.100546    -5.221446    10.100547            0            0            0    2.1338459    2.1334105    2.1340682     2.134059   -1.4947784   -1.4947685   -1.4954898   -46.162854 
    2490   -46.162899    10.116454   -5.2373545    10.116368   -5.2372676    10.116369            0            0            0    1.9516116    1.9621181    1.9462576     1.946459   -3.1605588   -3.1607579    -3.145237   -46.162899 
    2500   -46.162952    10.135127    -5.256027    10.135039   -5.2559394    10.135041            0            0            0    2.8738178     2.873833    2.8738103    2.8738101   -2.3359935   -2.3359927    -2.336089   -46.162952 
    2510   -46.162991    10.149687   -5.2705873    10.149599   -5.2704993      10.1496            0            0            0    1.4662406      1.46646    1.4661292    1.4661327   -2.9297282   -2.9297312   -2.9295988   -46.162991 
    2520   -46.163025    10.162118   -5.2830179     10.16203   -5.2829297    10.162031            0            0            0    2.0840361    2.0863075    2.0828728    2.0829281   -2.4496579   -2.4497121   -2.4464519   -46.163025 
    2530   -46.163068    10.178644   -5.2995439    10.178555   -5.2994551    10.178556            0            0            0    1.7158818    1.7153943    1.7161321    1.7161191  -0.80465191  -0.80463825  -0.80539492   -46.163068 
    2540   -46.163109    10.195449   -5.3163493     10.19536   -5.3162601    10.195361            0            0            0    2.6847396    2.6850352    2.6845886    2.6845949  -0.55940488  -0.55941055  -0.55895306   -46.163109 
    2550   -46.163157    10.217481   -5.3383807    10.217391   -5.3382907    10.217392            0            0            0  -0.67784238  -0.68189615   -0.6757709  -0.67586009   -3.2940128   -3.2939238   -3.3002664   -46.163157 
    2560   -46.163188       10.229   -5.3498998     10.22891   -5.3498096    10.228911            0            0            0    1.4377744    1.4372131    1.4380614    1.4380487  -0.93407892  -0.93406569  -0.93494816   -46.163188 
    2570   -46.163228    10.246748   -5.3676477    10.246657   -5.3675573    10.246658            0            0            0    1.2248829    1.2306231     1.221953    1.2220725 -0.012894631 -0.013012399 -0.0043915185   -46.163228 
    2580   -46.163256    10.260797   -5.3816971    10.260707    -5.381607    10.260708            0            0            0   -1.3014874   -1.2784847   -1.3132175   -1.3127601   0.56401936   0.56356674   0.59801621   -46.163256 
    2590   -46.163296    10.278481   -5.3993812     10.27839   -5.3992902    10.278391            0            0            0    1.7023267    1.7146771    1.6960232    1.6962797   -1.0392593   -1.0395131   -1.0210639   -46.163296 
    2600   -46.163323    10.292505   -5.4134047    10.292414   -5.4133138    10.292415            0            0            0    1.7307595    1.7563252    1.7177704    1.7181829   0.36013686   0.35972855   0.39801612   -46.163323 
    2610   -46.163352    10.306796   -5.4276963    10.306702   -5.4276024    10.306704            0            0            0    1.7140123    1.6567584    1.7431288    1.7421496   -0.9682598  -0.96728861   -1.0529524   -46.163352 
    2620    -46.16338    10.321457   -5.4423565     10.32137     -5.44227    10.321371            0            0            0    1.3397721    1.5334349    1.2406048    1.2452767   -1.8210323   -1.8256635   -1.5354751    -46.16338 
    2630   -46.163406    10.335457   -5.4563568    10.335364   -5.4562637    10.335365            0            0            0    1.9360671    1.9322436    1.9384401    1.9375175  -0.17985926  -0.17894418  -0.18506004   -46.163406 
    2640   -46.163432     10.34994   -5.4708401    10.349847   -5.4707468    10.349848            0            0            0    1.0236169    1.0238449    1.0234813    1.0235244  -0.23165802  -0.23170028  -0.23133602   -46.163432 
    2650   -46.163461    10.368455   -5.4893552    10.368361   -5.4892611    10.368362            0            0            0    5.4702084    5.4609705    5.4758973    5.4737574   -2.0110398   -2.0089183   -2.0237567   -46.163461 
    2660   -46.163484    10.380624   -5.5015235    10.380529   -5.5014291     10.38053            0            0            0    1.4663886    1.4588306    1.4710887    1.4692464   -2.1196286   -2.1178021   -2.1300864   -46.163484 
    2670   -46.163506    10.394643   -5.5155428    10.394549   -5.5154491     10.39455            0            0            0    3.5894504    3.6129719     3.574852    3.5805273 -0.0034899749 -0.009115753  0.028748605   -46.163506 
    2680   -46.163529    10.408581   -5.5294805    10.408484   -5.5293845    10.408486            0            0            0  -0.13108612  -0.16445612  -0.11031806  -0.11848419   -1.4557985   -1.4477031    -1.501484   -46.163529 
    2690   -46.163553    10.424068   -5.5449678    10.423972   -5.5448722    10.423973            0            0            0   0.93656965   0.92466616   0.94406527   0.94097751   0.81568471    0.8187461   0.79959913   -46.163553 
    2700   -46.163571    10.435788   -5.5566876    10.435692   -5.5565919    10.435693            0            0            0   0.65690108   0.65043334    0.6609759     0.659294  -0.39714164    -0.395474  -0.40594099   -46.163571 
    2710   -46.163591    10.450125   -5.5710254    10.450028   -5.5709284     10.45003            0            0            0   0.47716055   0.44538536   0.49660408   0.48949221   -1.7757828   -1.7687328   -1.8196304   -46.163591 
    2720   -46.163613    10.466932   -5.5878324    10.466837   -5.5877369    10.466838            0            0            0    3.7339101    3.7569904    3.7193897    3.7253504   0.51519776   0.50928936   0.54667892   -46.163613 
    2730   -46.163631    10.478279    -5.599179    10.478182   -5.5990823    10.478184            0            0            0   0.91846871   0.91671191   0.91961779   0.91907642  -0.39269814  -0.39216116  -0.39505243   -46.163631 
    2740   -46.163649    10.492397   -5.6132966    10.492299   -5.6131987      10.4923            0            0            0    1.0028384   0.97783218     1.019322    1.0113609   -1.9334531   -1.9255616   -1.9668153   -46.163649 
    2750   -46.163673    10.510112   -5.6310124    10.510015   -5.6309148    10.510016            0            0            0    1.4820604    1.4786173    1.4843568    1.4832071    -0.382635  -0.38149515  -0.38718292   -46.163673 
    2760   -46.163688    10.522402   -5.6433021    10.522292   -5.6431922    10.522296            0            0            0  -0.30822675  -0.63484059 -0.094009819  -0.19582985  -0.37814714   -0.2772224   -0.8133257   -46.163688 
    2770   -46.163711    10.541638   -5.6625378    10.541533   -5.6624332    10.541539            0            0            0    2.9102804    2.7744479    3.0692538    2.8871396    -1.102679  -0.92216709   -1.2143974   -46.163711 
    2780   -46.163728    10.555848   -5.6767477    10.555731   -5.6766309    10.555752            0            0            0  -0.24249377  -0.49554991   0.33400158  -0.56593297  -0.68983612   0.20215741  -0.62009842   -46.163728 
    2790    -46.16374    10.566831   -5.6877309     10.56676     -5.68766    10.566729            0            0            0   0.74156191    1.0773019  -0.14597903    1.2933628  -0.08429786    -1.510925  -0.29849705    -46.16374 
    2800   -46.163757    10.581584   -5.7024839    10.581484   -5.7023837    10.581485            0            0            0   0.99678841   0.96219785    1.0101964     1.017971  -0.35346074  -0.36116627  -0.40874755   -46.163757 
    2810   -46.163769    10.592312   -5.7132121    10.592209   -5.7131086    10.592209            0            0            0   0.98739972   0.85806549    1.0382572    1.0658765 -0.033207969 -0.060582595  -0.23916349   -46.163769 
    2820   -46.163782    10.604905   -5.7258053    10.604816   -5.7257156    10.604818            0            0            0  0.050692497   0.36070833   -0.0838945  -0.12473634  -0.32061089  -0.28013097    0.1605112   -46.163782 
    2830   -46.163794    10.616847   -5.7377467    10.616746   -5.7376458    10.616747            0            0            0   0.43532099   0.41071008   0.44337137   0.45188153  -0.30139772  -0.30983211  -0.34221807   -46.163794 
    2840   -46.163803     10.62612   -5.7470195    10.626049   -5.7469492     10.62605            0            0            0   0.90425373    1.7666029   0.45234302   0.49381527   -1.4270219   -1.4681257   -0.1656198   -46.163803 
    2850   -46.163821    10.644167   -5.7650672    10.644045   -5.7649449    10.644046            0            0            0   0.39903826  -0.24071502   0.71190025   0.72592954   0.48410084   0.47019672  -0.47390191   -46.163821 
    2860   -46.163832    10.656372   -5.7772716     10.65629   -5.7771899    10.656291            0            0            0  -0.50186168  0.026505741  -0.77006676  -0.76202403  -0.81601256  -0.82398349 -0.034577318   -46.163832 
    2870   -46.163846    10.671316   -5.7922161    10.671225   -5.7921247    10.671226            0            0            0    0.2209209   0.47759766  0.089460769  0.095704262  -0.93734036  -0.94352803  -0.55891886   -46.163846 
    2880   -46.163854    10.680521   -5.8014207    10.680422    -5.801322    10.680423            0            0            0  -0.15582383  -0.11121629  -0.18136196  -0.17489323   0.29823184   0.29182113   0.36136069   -46.163854 
    2890   -46.163862    10.689582   -5.8104821    10.689482   -5.8103824    10.689484            0            0            0   0.63523669   0.66333533   0.62817553   0.61419921  -0.95720406  -0.94335242  -0.90856634   -46.163862 
    2900   -46.163875    10.704489   -5.8253895    10.704389   -5.8252894    10.704391            0            0            0   0.25555342   0.28360299   0.24867945   0.23437782   -0.4507649    -0.436591  -0.40200833   -46.163875 
    2910   -46.163888    10.721383   -5.8422833    10.721279   -5.8421786    10.721278            0            0            0   0.98383404   0.86734809     1.014494      1.06966     1.193062    1.1383899      0.99267   -46.163888 
    2920   -46.163898     10.73253   -5.8534304    10.732429   -5.8533289     10.73243            0            0            0   0.56231791   0.56674495    0.5608102   0.55939859  -0.42483295  -0.42343382  -0.41757323   -46.163898 
    2930   -46.163907    10.745587   -5.8664868    10.745485   -5.8663851    10.745486            0            0            0    1.1845029    1.1889514    1.1827803     1.181777   0.50637477    0.5073693   0.51354787   -46.163907 
    2940   -46.163921    10.762675   -5.8835753    10.762572   -5.8834722    10.762573            0            0            0   0.30783894   0.28213612   0.31709689    0.3242838  -0.77497145  -0.78209357   -0.8167933   -46.163921 
    2950    -46.16393    10.775789   -5.8966886    10.775687   -5.8965867    10.775688            0            0            0   0.90894054   0.93492681    0.9001597   0.89173509   0.27977232    0.2881213   0.32261581    -46.16393 
    2960   -46.163939    10.787539   -5.9084386    10.787436   -5.9083356    10.787437            0            0            0   0.54666648    0.5460572   0.54690092    0.5470413  -0.19190931  -0.19204827  -0.19288799   -46.163939 
    2970   -46.163947    10.799454   -5.9203542    10.799351    -5.920251    10.799352            0            0            0   0.59872461    0.5990861   0.59858399   0.59850373  -0.23754845  -0.23746876  -0.23697726   -46.163947 
    2980    -46.16396    10.818744   -5.9396437     10.81864     -5.93954    10.818641            0            0            0  0.024829777  0.024712651  0.024870319  0.024906361   0.14810958   0.14807406   0.14792982    -46.16396 
    2990   -46.163967    10.829238   -5.9501378    10.829134   -5.9500338    10.829135            0            0            0   0.45636325   0.45656993   0.45628498   0.45623485  -0.69335581  -0.69330603  -0.69306747   -46.163967 
    3000   -46.163975    10.842812   -5.9637123    10.842708    -5.963608    10.842709            0            0            0   0.49909555   0.49910658    0.4990902   0.49908986  -0.17377917  -0.17377869  -0.17376571   -46.163975 
    3010   -46.163981    10.851422   -5.9723216    10.851317   -5.9722171    10.851318            0            0            0   0.60596646   0.60599165   0.60595549   0.60595224  -0.45895704  -0.45895371  -0.45894082   -46.163981 
    3020   -46.163988    10.863717   -5.9846166    10.863612   -5.9845117    10.863613            0            0            0    1.0074912    1.0074778    1.0074976     1.007498   -1.0610321   -1.0610324   -1.0611131   -46.163988 
    3030   -46.163996    10.877045   -5.9979446    10.876939   -5.9978394    10.876941            0            0            0  -0.16546841  -0.16543358  -0.16548578  -0.16548586  -0.44096833   -0.4409681  -0.44095318   -46.163996 
    3040   -46.164005    10.893666   -6.0145665    10.893561   -6.0144609    10.893562            0            0            0    1.0733004    1.0732854     1.073308    1.0733079  -0.41682798  -0.41682776  -0.41686083   -46.164005 
    3050   -46.164013    10.907584   -6.0284836    10.907478   -6.0283777    10.907479            0            0            0   0.39203365   0.39204331   0.39202877   0.39202888   -0.1158039  -0.11580388  -0.11579049   -46.164013 
    3060   -46.164019    10.920101   -6.0410008    10.919995   -6.0408946    10.919996            0            0            0   0.53880215   0.53880837   0.53879907   0.53879901  -0.88496644  -0.88496632    -0.885014   -46.164019 
    3070   -46.164025     10.93029     -6.05119    10.930184   -6.0510835    10.930185            0            0            0  -0.15344845  -0.15342169    -0.153462  -0.15346165   0.43126682   0.43126665   0.43133667   -46.164025 
    3080   -46.164031    10.942539   -6.0634393    10.942433   -6.0633326    10.942434            0            0            0   0.70310188   0.70309945   0.70310311   0.70310307  -0.21970482  -0.21970469  -0.21971125   -46.164031 
    3090   -46.164039    10.958725   -6.0796249    10.958618   -6.0795178    10.958619            0            0            0  -0.67988057  -0.67982279  -0.67990957  -0.67990935  0.014526032  0.014525998  0.014599999   -46.164039 
    3100   -46.164045    10.971361   -6.0922609    10.971253   -6.0921534    10.971255            0            0            0   0.31761377   0.31759434   0.31762341   0.31762356  -0.28491501  -0.28491507  -0.28495931   -46.164045 
    3110   -46.164049    10.979579   -6.1004787    10.979471    -6.100371    10.979472            0            0            0   0.26732851    0.2674529   0.26726647   0.26726615  0.099519667  0.099520109  0.099717727   -46.164049 
    3120   -46.164053    10.989048   -6.1099481     10.98894   -6.1098402    10.988941            0            0            0   0.40708071   0.40701208   0.40711489   0.40711517  -0.22125173  -0.22125192  -0.22136266   -46.164053 
    3130   -46.164058    10.999324   -6.1202237    10.999216   -6.1201156    10.999217            0            0            0  0.022897853   0.02340082  0.022647131  0.022645607  0.043781564    0.0437832  0.044533865   -46.164058 
    3140   -46.164063    11.010923   -6.1318227    11.010814   -6.1317142    11.010815            0            0            0   0.19423187   0.19429996   0.19419789   0.19419777  -0.13339949  -0.13339927  -0.13330445   -46.164063 
    3150   -46.164068    11.022864   -6.1437644    11.022756   -6.1436556    11.022757            0            0            0  -0.36604183  -0.36782369  -0.36515407  -0.36514772  0.090207062   0.09020092  0.087555816   -46.164068 
    3160   -46.164071    11.030578   -6.1514784    11.030469   -6.1513694    11.030471            0            0            0   0.23732713   0.23523916   0.23836752    0.2383747   0.31259399   0.31258699   0.30951595   -46.164071 
    3170   -46.164076    11.041903   -6.1628034    11.041794    -6.162694    11.041795            0            0            0    1.0515233    1.0449328    1.0548076    1.0548297  -0.29087039  -0.29089222  -0.30067787   -46.164076 
    3180   -46.164081    11.055234   -6.1761343    11.055126   -6.1760261    11.055127            0            0            0  -0.61093595  -0.57666462   -0.6280182  -0.62812503  -0.60987272  -0.60976677  -0.55894577   -46.164081 
    3190   -46.164084    11.063466   -6.1843655    11.063354   -6.1842537    11.063355            0            0            0   0.50305595   0.44600797   0.53148835   0.53167153   0.47537919   0.47519783   0.39055307   -46.164084 
    3200   -46.164087    11.071263   -6.1921631    11.071153   -6.1920533    11.071155            0            0            0   0.27370208   0.27642083   0.27234625   0.27233916  -0.21948065  -0.21947355  -0.21544803   -46.164087 
    3210   -46.164093     11.08588   -6.2067803     11.08577   -6.2066698    11.085771            0            0            0   0.20534439   0.20050233   0.20775895    0.2077719   0.17616172   0.17614899     0.168977   -46.164093 
    3220   -46.164097    11.099507    -6.220407    11.099394   -6.2202941    11.099395            0            0            0  -0.82658636  -0.88484401  -0.79753645  -0.79737861   0.89752312   0.89736697   0.81092188   -46.164097 
    3230   -46.164103    11.114106   -6.2350059    11.113995   -6.2348951    11.113996            0            0            0   0.33088753   0.33477961   0.32894685   0.32893612  -0.14636305  -0.14635235  -0.14057849   -46.164103 
    3240   -46.164106    11.123846   -6.2447463    11.123735    -6.244635    11.123736            0            0            0   0.25724399   0.25319691   0.25926268   0.25927238  -0.10249353  -0.10250308   -0.1085153   -46.164106 
    3250   -46.164109    11.133407   -6.2543069    11.133299    -6.254199      11.1333            0            0            0  -0.46043342   -0.3686696  -0.50618312  -0.50644753  -0.35989879  -0.35963676  -0.22343888   -46.164109 
    3260   -46.164113    11.146057   -6.2669572    11.145945   -6.2668449    11.145946            0            0            0   0.24082052   0.22454547   0.24893432   0.24898178 -0.057696279 -0.057743231 -0.081904718   -46.164113 
    3270   -46.164115    11.152375   -6.2732746    11.152259   -6.2731588     11.15226            0            0            0   0.31175399   0.20777605   0.36363236   0.36385355  -0.22886539  -0.22908444  -0.38349989   -46.164115 
    3280   -46.164119    11.163577   -6.2844772    11.163476    -6.284376    11.163477            0            0            0   0.36738709   0.65166311   0.22583096   0.22466721 -0.052561692  -0.05140881   0.37045561   -46.164119 
    3290   -46.164123    11.176745   -6.2976449    11.176626   -6.2975257    11.176627            0            0            0   0.35018229   0.17370091   0.43807836   0.43876759  -0.25870805  -0.25939077  -0.52131202   -46.164123 
    3300   -46.164128    11.194345   -6.3152447    11.194239   -6.3151392     11.19424            0            0            0 -0.050419668   0.14068897  -0.14565188  -0.14629609 0.0096352008  0.010273425    0.2939356   -46.164128 
    3310   -46.164131      11.2055      -6.3264    11.205384   -6.3262838    11.205385            0            0            0     0.152384  0.076364211   0.19116624   0.18962155   0.37916616    0.3806965    0.2670012   -46.164131 
    3320   -46.164134    11.217984   -6.3388835    11.217872   -6.3387722    11.217873            0            0            0   0.23607579   0.29115666   0.20810873   0.20896197   0.28869872   0.28785354   0.37014939   -46.164134 
    3330   -46.164137    11.227421   -6.3483207    11.227307   -6.3482071    11.227308            0            0            0   0.16915395   0.17255799   0.16742767    0.1674762 -0.069511845 -0.069559866  -0.06447973   -46.164137 
    3340    -46.16414    11.238092   -6.3589918    11.237978   -6.3588779    11.237979            0            0            0  0.031709532  0.034261931  0.030420024   0.03044664   0.19038611   0.19035982   0.19418075    -46.16414 
    3350   -46.164142    11.247589    -6.368489    11.247475    -6.368375    11.247476            0            0            0   -0.1123694  -0.10870532  -0.11422073  -0.11418215  -0.16176783  -0.16180599  -0.15635675   -46.164142 
    3360   -46.164146    11.261663   -6.3825626    11.261548   -6.3824482    11.261549            0            0            0   0.13527988   0.13988551   0.13295233    0.1330018  -0.55907531   -0.5591243  -0.55229624   -46.164146 
    3370   -46.164148    11.270213   -6.3911131    11.270099   -6.3909989      11.2701            0            0            0 -0.0093292075 0.0068195282 -0.017491962 -0.017315189   0.23988847   0.23971344   0.26381395   -46.164148 
    3380   -46.164151    11.284528   -6.4054279    11.284411   -6.4053111    11.284412            0            0            0   0.90977546   0.86935031   0.93021059   0.92976546  -0.81062471  -0.81018384  -0.87051457   -46.164151 
[...]
    4280   -46.164229    12.039354   -7.1602542    12.039219   -7.1601194    12.039221            0            0            0   0.12098223   0.12097799    0.1209842    0.1209845  -0.12773045  -0.12773076  -0.12774446   -46.164229 
    4290   -46.164229    12.050136   -7.1710357    12.050001   -7.1709006    12.050002            0            0            0  0.013371034  0.013371412  0.013370839  0.013370852 -0.0098436745 -0.009843683 -0.0098436254   -46.164229 
    4300   -46.164229    12.055793   -7.1766929    12.055658   -7.1765577    12.055659            0            0            0  0.023193682  0.023194335   0.02319346   0.02319325 -0.068707595  -0.06870739 -0.068711271   -46.164229 
    4310   -46.164229    12.060718   -7.1816178    12.060582   -7.1814825    12.060584            0            0            0  0.010988217  0.010988819  0.010987938  0.010987894 0.0022421968 0.0022422459 0.0022434722   -46.164229 
    4320   -46.164229    12.066076   -7.1869759     12.06594   -7.1868404    12.065942            0            0            0  0.017994277  0.017994494  0.017994171  0.017994166 -0.0090358926 -0.0090358844 -0.0090359384   -46.164229 
    4330    -46.16423    12.073623   -7.1945232    12.073487   -7.1943875    12.073489            0            0            0 -0.015828074  -0.01582757 -0.015828487 -0.015828167 0.00046676377 0.00046645522 0.00046714247    -46.16423 
    4340    -46.16423    12.076439   -7.1973392    12.076303   -7.1972035    12.076305            0            0            0  0.037537501  0.037536266  0.037537988  0.037538249 -0.017803448 -0.017803707 -0.017806119    -46.16423 
    4350    -46.16423    12.082285   -7.2031852    12.082149   -7.2030493    12.082151            0            0            0  0.008916089 0.0089175228  0.008915549 0.0089151951  0.010580293  0.010580649  0.010583545    -46.16423 
    4360    -46.16423    12.093065   -7.2139647    12.092929   -7.2138286     12.09293            0            0            0 -0.027283103 -0.027303741 -0.027276976 -0.027268592  -0.13816172  -0.13817001  -0.13820727    -46.16423 
    4370    -46.16423    12.099718   -7.2206184    12.099582   -7.2204821    12.099583            0            0            0  0.012755779  0.012756088  0.012755628  0.012755621 -0.006274303 -0.0062742934 -0.0062740928    -46.16423 
    4380    -46.16423    12.106158   -7.2270585    12.106022    -7.226922    12.106023            0            0            0 0.0034702773  0.003470332 0.0034701458 0.0034703541 -0.0074499871 -0.007450189 -0.0074504995    -46.16423 
    4390    -46.16423    12.111613   -7.2325129    12.111476   -7.2323762    12.111478            0            0            0 0.0056271722 0.0056275566 0.0056269577 0.0056270022  0.014146671  0.014146633  0.014148379    -46.16423 
    4400   -46.164231    12.117715   -7.2386149    12.117578   -7.2384781    12.117579            0            0            0 -0.086035249 -0.086026566 -0.086038665 -0.086040515  0.052117488   0.05211934  0.052133805   -46.164231 
    4410   -46.164231    12.126843   -7.2477432    12.126706   -7.2476062    12.126707            0            0            0  -0.10689491  -0.10690251  -0.10689342  -0.10688881 -0.012259307 -0.012263854   -0.0122755   -46.164231 
    4420   -46.164231    12.140697   -7.2615971     12.14056   -7.2614597    12.140561            0            0            0     0.173788   0.17376029   0.17379764   0.17380607  -0.11173495  -0.11174333   -0.1117858   -46.164231 
    4430   -46.164231    12.144999    -7.265899    12.144861   -7.2657614    12.144863            0            0            0  0.014196352  0.014195001  0.014196751  0.014197303 -0.015318103 -0.015318648 -0.015321287   -46.164231 
    4440   -46.164231    12.152304   -7.2732043    12.152167   -7.2730665    12.152168            0            0            0 0.0083189916 0.0083192701 0.0083188467 0.0083188582 -0.0051660455 -0.0051660541 -0.0051658812   -46.164231 
    4450   -46.164231    12.158897   -7.2797972    12.158759   -7.2796592    12.158761            0            0            0 0.0081367876 0.0081363904 0.0081368554  0.008137117 0.0076280336 0.0076277786 0.0076280239   -46.164231 
    4460   -46.164231    12.165236   -7.2861362    12.165098    -7.285998    12.165099            0            0            0 -0.065058599 -0.065057783 -0.065059396 -0.065058617  0.026338257  0.026337502  0.026340014   -46.164231 
    4470   -46.164231    12.171996   -7.2928957    12.171857   -7.2927574    12.171859            0            0            0 0.0089554523 0.0089554136 0.0089554215 0.0089555219 -0.0055230857 -0.0055231827 -0.0055234536   -46.164231 
    4480   -46.164232    12.186372   -7.3072721    12.186233   -7.3071333    12.186235            0            0            0 -0.015250056 -0.015246766  -0.01525129 -0.015252112  0.051451317  0.051452141  0.051460213   -46.164232 
    4490   -46.164232    12.194419   -7.3153185     12.19428   -7.3151795    12.194281            0            0            0 0.0083022517 0.0083024858  0.008302139 0.0083021303 -0.0020818647 -0.0020818538 -0.0020815285   -46.164232 
    4500   -46.164232    12.208474   -7.3293739    12.208334   -7.3292344    12.208336            0            0            0 0.0072973443  0.007297556 0.0072972378 0.0072972392 -0.0036088387 -0.0036088382 -0.0036086716   -46.164232 
    4510   -46.164232    12.211388   -7.3322884    12.211249   -7.3321488     12.21125            0            0            0 0.0082091513 0.0082093736 0.0082090518 0.0082090284 0.00099044975 0.00099047516 0.00099100258   -46.164232 
    4520   -46.164232    12.217187   -7.3380868    12.217047   -7.3379471    12.217048            0            0            0  0.024041167  0.024048785  0.024039276  0.024035441  0.042587727  0.042591525  0.042604497   -46.164232 
    4530   -46.164232     12.22002   -7.3409203     12.21988   -7.3407804    12.219882            0            0            0 0.0051093611 0.0051100383 0.0051091193 0.0051089258 -0.0061452771 -0.0061450837 -0.006144547   -46.164232 
    4540   -46.164232    12.226939   -7.3478389    12.226799   -7.3476989      12.2268            0            0            0 -0.054805591 -0.054805588 -0.054806155  -0.05480503  0.037660441  0.037659342  0.037661836   -46.164232 
    4550   -46.164232    12.239235    -7.360135    12.239094   -7.3599945    12.239096            0            0            0  -0.12910195  -0.12909789   -0.1291042  -0.12910375 0.0034508659 0.0034504382 0.0034548926   -46.164232 
    4560   -46.164232    12.245175    -7.366075    12.245034   -7.3659342    12.245036            0            0            0  0.020142755  0.020128727  0.020146655  0.020152883   0.01674163  0.016735469  0.016719301   -46.164232 
    4570   -46.164232    12.249499   -7.3703993    12.249358   -7.3702584     12.24936            0            0            0  0.020664924  0.020652188  0.020668502  0.020674081 -0.042602032 -0.042607555 -0.042626537   -46.164232 
    4580   -46.164233    12.263748   -7.3846484    12.263607    -7.384507    12.263608            0            0            0   0.14010672   0.14013283   0.14010057   0.14008675 -0.025864523 -0.025850863 -0.025818655   -46.164233 
    4590   -46.164233    12.277007   -7.3979067    12.276865   -7.3977648    12.276866            0            0            0  0.012644453  0.012659214   0.01264042  0.012633726 -0.014324719 -0.014318097 -0.014300367   -46.164233 
    4600   -46.164233    12.282051   -7.4029512    12.281909    -7.402809     12.28191            0            0            0  0.019825742  0.019858721  0.019816792  0.019801713 -0.018382629 -0.018367714 -0.018327287   -46.164233 
    4610   -46.164233    12.293935   -7.4148351    12.293793    -7.414693    12.293794            0            0            0 -0.0058064717 -0.0057855529 -0.0058123101 -0.0058215521 -0.013582416 -0.013573272 -0.013547902   -46.164233 
    4620   -46.164233    12.297268   -7.4181681    12.297126    -7.418026    12.297127            0            0            0  0.011092291  0.011077452  0.011096415  0.011103006 -0.022950087 -0.022956609 -0.022976901   -46.164233 
    4630   -46.164233    12.303467   -7.4243667    12.303325   -7.4242246    12.303326            0            0            0  0.013345078  0.013354938  0.013342438  0.013337858  0.018089678   0.01809421  0.018108133   -46.164233 
    4640   -46.164233    12.310756   -7.4316562    12.310614   -7.4315141    12.310615            0            0            0 0.0077495567  0.007754473 0.0077482297 0.0077459674  0.014663157  0.014665398  0.014672788   -46.164233 
    4650   -46.164233    12.317066   -7.4379662    12.316924   -7.4378242    12.316925            0            0            0 0.0037250133 0.0037247344 0.0037250813 0.0037252243 -0.0032712013 -0.0032713418 -0.0032718689   -46.164233 
    4660   -46.164233    12.325929   -7.4468285    12.325786   -7.4466865    12.325788            0            0            0 -0.023044753 -0.023069978 -0.023038067 -0.023026216  0.085920461  0.085908751  0.085883215   -46.164233 
    4670   -46.164233    12.332142   -7.4530418       12.332   -7.4528997    12.332001            0            0            0 0.0099751995 0.0099875068 0.0099718799 0.0099662118 0.0029895173 0.0029951248 0.0030109645   -46.164233 
    4680   -46.164233    12.339741   -7.4606407    12.339599   -7.4604987      12.3396            0            0            0 -0.0093325953 -0.0091370262 -0.0093861799 -0.0094745799  0.052361911  0.052449362  0.052699572   -46.164233 
    4690   -46.164233    12.351213   -7.4721132    12.351071   -7.4719712    12.351073            0            0            0 -0.0033309667 -0.0033148298 -0.0033354417 -0.0033426287 -0.0017568154 -0.0017497045 -0.0017294996   -46.164233 
    4700   -46.164233    12.358043   -7.4789429    12.357901   -7.4788009    12.357902            0            0            0 0.0032349279 0.0030786243 0.0032776432 0.0033485163 -0.0014690483  -0.00153915 -0.0017360649   -46.164233 
    4710   -46.164233    12.370421   -7.4913214     12.37028   -7.4911796    12.370281            0            0            0 -0.0020490085 0.0014957202 -0.0028730682 -0.0047696775  -0.01007931 -0.0082033734 -0.0038829292   -46.164233 
    4720   -46.164233    12.383633   -7.5045333    12.383491   -7.5043913    12.383493            0            0            0 0.0075224346 0.0054387924 0.0080934549 0.0090350566 -0.00019981962 -0.0011311273 -0.0037566922   -46.164233 
    4730   -46.164234    12.386857   -7.5077572    12.386715    -7.507615    12.386716            0            0            0  0.011454445 0.0054732626  0.013045096  0.015844978 0.0024511674 -0.00031808472 -0.0078068047   -46.164234 
    4740   -46.164234    12.397688   -7.5185878    12.397547   -7.5184472    12.397549            0            0            0  0.010033736  0.041388413 0.0014603048  -0.01274751 -0.030239401 -0.016187395  0.023301231   -46.164234 
    4750   -46.164234    12.404559   -7.5254589    12.404417    -7.525317    12.404418            0            0            0 -0.0056001836 -0.0051885566 -0.0059583031 -0.0056536913 0.0045702495 0.0042689856 0.0050305172   -46.164234 
    4760   -46.164234    12.412361    -7.533261    12.412219   -7.5331188     12.41222            0            0            0 -0.0055144654 -0.010040931 -0.0022617114 -0.0042407535 -0.047261189 -0.045303922 -0.053001088   -46.164234 
    4770   -46.164234     12.42215   -7.5430496    12.422008   -7.5429077    12.422009            0            0            0 0.0021997204 0.0022005703  0.002199115  0.002199476 -0.0011813678 -0.0011817241 -0.0011803371   -46.164234 
    4780   -46.164234    12.425156   -7.5460557    12.425014   -7.5459137    12.425015            0            0            0 0.0015152435 0.0011978581 0.0017440543  0.001603818 -0.0016893403 -0.0015506504 -0.0020909161   -46.164234 
    4790   -46.164234     12.42819   -7.5490896    12.428048   -7.5489476    12.428049            0            0            0 -0.0028671935 -0.0045506638 -0.0016577291 -0.0023931875 -0.00092954995 -0.00020220927 -0.0030632912   -46.164234 
    4800   -46.164234    12.432653   -7.5535527    12.432511   -7.5534113    12.432512            0            0            0 -0.0060964431 0.0039132422 -0.013204774 -0.0089977977 -0.0016403682 -0.0058008535  0.011127602   -46.164234 
    4810   -46.164234    12.435828   -7.5567278    12.435686   -7.5565859    12.435687            0            0            0 0.0020967206 0.0020260487 0.0021414483 0.0021226648 0.0014773113  0.001495888 0.0013819099   -46.164234 
    4820   -46.164234    12.439825   -7.5607253    12.439683   -7.5605833    12.439685            0            0            0 0.0032000454 0.0031796122 0.0032131515 0.0032073724 -0.0010169575 -0.0010112419 -0.0010444334   -46.164234 
    4830   -46.164234    12.449538    -7.570438    12.449396   -7.5702961    12.449397            0            0            0 -0.0056494048 -0.006019247 -0.0054122673 -0.0055166999 0.0046210541 0.0047243307 0.0041243416   -46.164234 
    4840   -46.164234    12.453155   -7.5740545    12.453013   -7.5739126    12.453014            0            0            0 0.0086522764 0.0085663474  0.008707338 0.0086831439  0.013641074  0.013665001  0.013526735   -46.164234 
    4850   -46.164234    12.458559   -7.5794588    12.458417   -7.5793168    12.458418            0            0            0 0.0017795506  0.001772476 0.0017840891 0.0017820866 -0.003169297 -0.0031673164 -0.0031790076   -46.164234 
    4860   -46.164234    12.461811    -7.582711    12.461669   -7.5825691     12.46167            0            0            0 -0.0010973418 -0.00097581784 -0.0011752792 -0.0011409282 -0.000114483 -0.00014845087 4.8764707e-05   -46.164234 
    4870   -46.164234    12.466963   -7.5878629    12.466821    -7.587721    12.466822            0            0            0 0.0026723893 0.0026104036 0.0027128566 0.0026939076 0.00067484045 0.00069357895 0.00059236174   -46.164234 
    4880   -46.164234    12.475237   -7.5961371    12.475095   -7.5959952    12.475096            0            0            0 0.0022686292 0.0020739148 0.0023958024 0.0023361703 -0.0011913148 -0.0011323474 -0.0014506938   -46.164234 
    4890   -46.164234    12.478379    -7.599279    12.478237    -7.599137    12.478238            0            0            0 5.7397803e-05 -0.0016897595 0.0012052365 0.00065671644 0.00012644517 0.00066884375 -0.0021938049   -46.164234 
    4900   -46.164234    12.483184   -7.6040841    12.483042    -7.603942    12.483043            0            0            0 0.0011901597 -0.00046758899 0.0022709757 0.0017670923 0.0013079209 0.0018061751 -0.00090165129   -46.164234 
    4910   -46.164234    12.488464   -7.6093643    12.488322   -7.6092224    12.488324            0            0            0 0.0023199695 0.0024512255 0.0022352436 0.0022734393 -0.0014361672 -0.0014739354 -0.0012604402   -46.164234 
    4920   -46.164234    12.495669   -7.6165685    12.495528   -7.6164275    12.495529            0            0            0 -0.049039187 -0.032593332 -0.059703877 -0.054820353 -0.016845853 -0.021674653 0.0051298687   -46.164234 
    4930   -46.164234    12.498208   -7.6191082    12.498066   -7.6189661    12.498067            0            0            0 0.0072467059 0.0045930944 0.0089606068 0.0081864165 0.0017001978 0.0024657093 -0.0018525636   -46.164234 
    4940   -46.164234    12.508792   -7.6296921     12.50865   -7.6295502    12.508651            0            0            0  0.001057896 0.0011366415 0.0010079118 0.0010291347 -0.00069654974 -0.00071753371 -0.00059028583   -46.164234 
    4950   -46.164234    12.510748   -7.6316476    12.510606   -7.6315056    12.510607            0            0            0 -0.043216693 -0.044227839 -0.042582003 -0.042840237 -0.0011702625 -0.00091492333 -0.0025430416   -46.164234 
    4960   -46.164234    12.514582   -7.6354824    12.514441   -7.6353405    12.514442            0            0            0 -0.0058244201 -0.004376784 -0.0067436359 -0.0063528405 0.0015258566 0.0011394593 0.0034796855   -46.164234 
    4970   -46.164234    12.520333   -7.6412326    12.520191   -7.6410906    12.520192            0            0            0 0.00092014743 -0.00027940231 0.0016800775 0.0013597671 -0.0036121595 -0.0032954571 -0.0052331052   -46.164234 
    4980   -46.164234    12.527433   -7.6483329    12.527291   -7.6481914    12.527293            0            0            0  0.018476559  0.028024173  0.012407618  0.014997888 0.00081438597 -0.001746664  0.013693962   -46.164234 
    4990   -46.164234    12.533434    -7.654334    12.533292   -7.6541919    12.533293            0            0            0 0.0017105996 0.0014468604 0.0018814692 0.0018034693 0.00011764833 0.00019476745 -0.00023489124   -46.164234 
    5000   -46.164234    12.537909   -7.6588093    12.537767   -7.6586671    12.537768            0            0            0 -0.0036268107 -0.0069710024 -0.0014534913 -0.0024559385 0.0073176815 0.0083087954 0.0028542049   -46.164234 
Loop time of 0.398837 on 1 procs for 5000 steps with 8 atoms

30.5% CPU use with 1 MPI tasks x no OpenMP threads

Minimization stats:
  Stopping criterion = max iterations
  Energy initial, next-to-last, final = 
        -36.1351998397     -46.1642340553     -46.1642340554
  Force two-norm initial, final = 20.6526 0.000140922
  Force max component initial, final = 11.9238 6.5044e-05
  Final line search alpha, max atom move = 0.742329 4.8284e-05
  Iterations, force evaluations = 5000 6928

MPI task timing breakdown:
Section |  min time  |  avg time  |  max time  |%varavg| %total
---------------------------------------------------------------
Pair    | 0.26094    | 0.26094    | 0.26094    |   0.0 | 65.42
Neigh   | 0.0010939  | 0.0010939  | 0.0010939  |   0.0 |  0.27
Comm    | 0.0081897  | 0.0081897  | 0.0081897  |   0.0 |  2.05
Output  | 0.031567   | 0.031567   | 0.031567   |   0.0 |  7.91
Modify  | 0          | 0          | 0          |   0.0 |  0.00
Other   |            | 0.09705    |            |       | 24.33

Nlocal:    8 ave 8 max 8 min
Histogram: 1 0 0 0 0 0 0 0 0 0
Nghost:    56 ave 56 max 56 min
Histogram: 1 0 0 0 0 0 0 0 0 0
Neighs:    16 ave 16 max 16 min
Histogram: 1 0 0 0 0 0 0 0 0 0

Total # of neighbors = 16
Ave neighs/atom = 2
Neighbor list builds = 49
Dangerous builds = 0
# ---- define output variables ----
variable natoms equal "count(all)"
variable tot_energy equal "c_eatoms"
variable a11 equal "xhi-xlo"
variable a22 equal "yhi-ylo"
variable a33 equal "zhi-zlo"
variable tilt_xy equal "xy"
variable tilt_xz equal "xz"
variable tilt_yz equal "yz"
variable tot_press equal "press"
variable press_xx equal "pxx"
variable press_yy equal "pyy"
variable press_zz equal "pzz"
variable press_xy equal "pxy"
variable press_xz equal "pxz"
variable press_yz equal "pyz"

# ---- output ----
print "pypospack:output_section:begin"
pypospack:output_section:begin
print "tot_energy = ${tot_energy}"
tot_energy = -46.1642340553775
print "num_atoms = ${natoms}"
num_atoms = 8
print "a11 = ${a11}"
a11 = 20.1967186216812
print "a22 = ${a22}"
a22 = 20.196434197469
print "a33 = ${a33}"
a33 = 20.1964368815444
print "a12 = ${tilt_xy}"
a12 = 0
print "a13 = ${tilt_xz}"
a13 = 0
print "a23 = ${tilt_yz}"
a23 = 0
print "tot_press = ${tot_press}"
tot_press = -0.00362681074691281
print "pxx = ${press_xx}"
pxx = -0.00697100240891337
print "pyy = ${press_yy}"
pyy = -0.00145349134473955
print "pzz = ${press_zz}"
pzz = -0.00245593848708551
print "pxy = ${press_xy}"
pxy = 0.00731768153842313
print "pxz = ${press_xz}"
pxz = 0.00830879540411259
print "pyz = ${press_yz}"
pyz = 0.00285420490715965
print "pypospack:output_section:done"
pypospack:output_section:done
print "pypospack:lammps_sim:done"
pypospack:lammps_sim:done
Total wall time: 0:00:00
