# ['Ni']

107 atoms
1 atom types

    0.0000     9.7350 xlo xhi
    0.0000     9.7350 ylo yhi
    0.0000     9.7350 zlo zhi

    0.0000    -0.0000    -0.0000 xy xz yz

Atoms

1 1     1.6225     1.6225     0.0000
2 1     1.6225     0.0000     1.6225
3 1     0.0000     1.6225     1.6225
4 1     0.0000     0.0000     3.2450
5 1     1.6225     1.6225     3.2450
6 1     1.6225     0.0000     4.8675
7 1     0.0000     1.6225     4.8675
8 1     0.0000     0.0000     6.4900
9 1     1.6225     1.6225     6.4900
10 1     1.6225     0.0000     8.1125
11 1     0.0000     1.6225     8.1125
12 1     0.0000     3.2450     0.0000
13 1     1.6225     4.8675     0.0000
14 1     1.6225     3.2450     1.6225
15 1     0.0000     4.8675     1.6225
16 1     0.0000     3.2450     3.2450
17 1     1.6225     4.8675     3.2450
18 1     1.6225     3.2450     4.8675
19 1     0.0000     4.8675     4.8675
20 1     0.0000     3.2450     6.4900
21 1     1.6225     4.8675     6.4900
22 1     1.6225     3.2450     8.1125
23 1     0.0000     4.8675     8.1125
24 1     0.0000     6.4900     0.0000
25 1     1.6225     8.1125     0.0000
26 1     1.6225     6.4900     1.6225
27 1     0.0000     8.1125     1.6225
28 1     0.0000     6.4900     3.2450
29 1     1.6225     8.1125     3.2450
30 1     1.6225     6.4900     4.8675
31 1     0.0000     8.1125     4.8675
32 1     0.0000     6.4900     6.4900
33 1     1.6225     8.1125     6.4900
34 1     1.6225     6.4900     8.1125
35 1     0.0000     8.1125     8.1125
36 1     3.2450     0.0000     0.0000
37 1     4.8675     1.6225     0.0000
38 1     4.8675     0.0000     1.6225
39 1     3.2450     1.6225     1.6225
40 1     3.2450     0.0000     3.2450
41 1     4.8675     1.6225     3.2450
42 1     4.8675     0.0000     4.8675
43 1     3.2450     1.6225     4.8675
44 1     3.2450     0.0000     6.4900
45 1     4.8675     1.6225     6.4900
46 1     4.8675     0.0000     8.1125
47 1     3.2450     1.6225     8.1125
48 1     3.2450     3.2450     0.0000
49 1     4.8675     4.8675     0.0000
50 1     4.8675     3.2450     1.6225
51 1     3.2450     4.8675     1.6225
52 1     3.2450     3.2450     3.2450
53 1     4.8675     4.8675     3.2450
54 1     4.8675     3.2450     4.8675
55 1     3.2450     4.8675     4.8675
56 1     3.2450     3.2450     6.4900
57 1     4.8675     4.8675     6.4900
58 1     4.8675     3.2450     8.1125
59 1     3.2450     4.8675     8.1125
60 1     3.2450     6.4900     0.0000
61 1     4.8675     8.1125     0.0000
62 1     4.8675     6.4900     1.6225
63 1     3.2450     8.1125     1.6225
64 1     3.2450     6.4900     3.2450
65 1     4.8675     8.1125     3.2450
66 1     4.8675     6.4900     4.8675
67 1     3.2450     8.1125     4.8675
68 1     3.2450     6.4900     6.4900
69 1     4.8675     8.1125     6.4900
70 1     4.8675     6.4900     8.1125
71 1     3.2450     8.1125     8.1125
72 1     6.4900     0.0000     0.0000
73 1     8.1125     1.6225     0.0000
74 1     8.1125     0.0000     1.6225
75 1     6.4900     1.6225     1.6225
76 1     6.4900     0.0000     3.2450
77 1     8.1125     1.6225     3.2450
78 1     8.1125     0.0000     4.8675
79 1     6.4900     1.6225     4.8675
80 1     6.4900     0.0000     6.4900
81 1     8.1125     1.6225     6.4900
82 1     8.1125     0.0000     8.1125
83 1     6.4900     1.6225     8.1125
84 1     6.4900     3.2450     0.0000
85 1     8.1125     4.8675     0.0000
86 1     8.1125     3.2450     1.6225
87 1     6.4900     4.8675     1.6225
88 1     6.4900     3.2450     3.2450
89 1     8.1125     4.8675     3.2450
90 1     8.1125     3.2450     4.8675
91 1     6.4900     4.8675     4.8675
92 1     6.4900     3.2450     6.4900
93 1     8.1125     4.8675     6.4900
94 1     8.1125     3.2450     8.1125
95 1     6.4900     4.8675     8.1125
96 1     6.4900     6.4900     0.0000
97 1     8.1125     8.1125     0.0000
98 1     8.1125     6.4900     1.6225
99 1     6.4900     8.1125     1.6225
100 1     6.4900     6.4900     3.2450
101 1     8.1125     8.1125     3.2450
102 1     8.1125     6.4900     4.8675
103 1     6.4900     8.1125     4.8675
104 1     6.4900     6.4900     6.4900
105 1     8.1125     8.1125     6.4900
106 1     8.1125     6.4900     8.1125
107 1     6.4900     8.1125     8.1125
