# ['Ni']

107 atoms
1 atom types

    0.0000    10.5681 xlo xhi
    0.0000    10.5681 ylo yhi
    0.0000    10.5681 zlo zhi

    0.0000    -0.0000    -0.0000 xy xz yz

Atoms

1 1     1.7613     1.7613     0.0000
2 1     1.7613     0.0000     1.7613
3 1     0.0000     1.7613     1.7613
4 1     0.0000     0.0000     3.5227
5 1     1.7613     1.7613     3.5227
6 1     1.7613     0.0000     5.2840
7 1     0.0000     1.7613     5.2840
8 1     0.0000     0.0000     7.0454
9 1     1.7613     1.7613     7.0454
10 1     1.7613     0.0000     8.8067
11 1     0.0000     1.7613     8.8067
12 1     0.0000     3.5227     0.0000
13 1     1.7613     5.2840     0.0000
14 1     1.7613     3.5227     1.7613
15 1     0.0000     5.2840     1.7613
16 1     0.0000     3.5227     3.5227
17 1     1.7613     5.2840     3.5227
18 1     1.7613     3.5227     5.2840
19 1     0.0000     5.2840     5.2840
20 1     0.0000     3.5227     7.0454
21 1     1.7613     5.2840     7.0454
22 1     1.7613     3.5227     8.8067
23 1     0.0000     5.2840     8.8067
24 1     0.0000     7.0454     0.0000
25 1     1.7613     8.8067     0.0000
26 1     1.7613     7.0454     1.7613
27 1     0.0000     8.8067     1.7613
28 1     0.0000     7.0454     3.5227
29 1     1.7613     8.8067     3.5227
30 1     1.7613     7.0454     5.2840
31 1     0.0000     8.8067     5.2840
32 1     0.0000     7.0454     7.0454
33 1     1.7613     8.8067     7.0454
34 1     1.7613     7.0454     8.8067
35 1     0.0000     8.8067     8.8067
36 1     3.5227     0.0000     0.0000
37 1     5.2840     1.7613     0.0000
38 1     5.2840     0.0000     1.7613
39 1     3.5227     1.7613     1.7613
40 1     3.5227     0.0000     3.5227
41 1     5.2840     1.7613     3.5227
42 1     5.2840     0.0000     5.2840
43 1     3.5227     1.7613     5.2840
44 1     3.5227     0.0000     7.0454
45 1     5.2840     1.7613     7.0454
46 1     5.2840     0.0000     8.8067
47 1     3.5227     1.7613     8.8067
48 1     3.5227     3.5227     0.0000
49 1     5.2840     5.2840     0.0000
50 1     5.2840     3.5227     1.7613
51 1     3.5227     5.2840     1.7613
52 1     3.5227     3.5227     3.5227
53 1     5.2840     5.2840     3.5227
54 1     5.2840     3.5227     5.2840
55 1     3.5227     5.2840     5.2840
56 1     3.5227     3.5227     7.0454
57 1     5.2840     5.2840     7.0454
58 1     5.2840     3.5227     8.8067
59 1     3.5227     5.2840     8.8067
60 1     3.5227     7.0454     0.0000
61 1     5.2840     8.8067     0.0000
62 1     5.2840     7.0454     1.7613
63 1     3.5227     8.8067     1.7613
64 1     3.5227     7.0454     3.5227
65 1     5.2840     8.8067     3.5227
66 1     5.2840     7.0454     5.2840
67 1     3.5227     8.8067     5.2840
68 1     3.5227     7.0454     7.0454
69 1     5.2840     8.8067     7.0454
70 1     5.2840     7.0454     8.8067
71 1     3.5227     8.8067     8.8067
72 1     7.0454     0.0000     0.0000
73 1     8.8067     1.7613     0.0000
74 1     8.8067     0.0000     1.7613
75 1     7.0454     1.7613     1.7613
76 1     7.0454     0.0000     3.5227
77 1     8.8067     1.7613     3.5227
78 1     8.8067     0.0000     5.2840
79 1     7.0454     1.7613     5.2840
80 1     7.0454     0.0000     7.0454
81 1     8.8067     1.7613     7.0454
82 1     8.8067     0.0000     8.8067
83 1     7.0454     1.7613     8.8067
84 1     7.0454     3.5227     0.0000
85 1     8.8067     5.2840     0.0000
86 1     8.8067     3.5227     1.7613
87 1     7.0454     5.2840     1.7613
88 1     7.0454     3.5227     3.5227
89 1     8.8067     5.2840     3.5227
90 1     8.8067     3.5227     5.2840
91 1     7.0454     5.2840     5.2840
92 1     7.0454     3.5227     7.0454
93 1     8.8067     5.2840     7.0454
94 1     8.8067     3.5227     8.8067
95 1     7.0454     5.2840     8.8067
96 1     7.0454     7.0454     0.0000
97 1     8.8067     8.8067     0.0000
98 1     8.8067     7.0454     1.7613
99 1     7.0454     8.8067     1.7613
100 1     7.0454     7.0454     3.5227
101 1     8.8067     8.8067     3.5227
102 1     8.8067     7.0454     5.2840
103 1     7.0454     8.8067     5.2840
104 1     7.0454     7.0454     7.0454
105 1     8.8067     8.8067     7.0454
106 1     8.8067     7.0454     8.8067
107 1     7.0454     8.8067     8.8067
