# ['Al']

18 atoms
1 atom types

    0.0000     2.6742 xlo xhi
    0.0000     4.6318 ylo yhi
    0.0000    39.2959 zlo zhi

    0.0000     0.0000    -0.0004 xy xz yz

Atoms

1 1     0.0000     0.0000     0.0000
2 1     1.3371     0.7720     2.1831
3 1     0.0000     1.5439     4.3662
4 1     1.3371     2.3159     0.0000
5 1     0.0000     3.0879     2.1831
6 1     1.3371     3.8599     4.3662
7 1     0.0000     0.0000     6.5493
8 1     1.3371     0.7720     8.7324
9 1     0.0000     1.5439    10.9155
10 1     1.3371     2.3159     6.5493
11 1     0.0000     3.0879     8.7324
12 1     1.3371     3.8599    10.9155
13 1     0.0000     0.0000    13.0986
14 1     1.3371     0.7720    15.2817
15 1     0.0000     1.5439    17.4648
16 1     1.3371     2.3159    13.0986
17 1     0.0000     3.0879    15.2817
18 1     1.3371     3.8599    17.4648
