# ['Ni']

107 atoms
1 atom types

    0.0000     9.7375 xlo xhi
    0.0000     9.7375 ylo yhi
    0.0000     9.7375 zlo zhi

    0.0000    -0.0000    -0.0000 xy xz yz

Atoms

1 1     1.6229     1.6229     0.0000
2 1     1.6229     0.0000     1.6229
3 1     0.0000     1.6229     1.6229
4 1     0.0000     0.0000     3.2458
5 1     1.6229     1.6229     3.2458
6 1     1.6229     0.0000     4.8688
7 1     0.0000     1.6229     4.8688
8 1     0.0000     0.0000     6.4917
9 1     1.6229     1.6229     6.4917
10 1     1.6229     0.0000     8.1146
11 1     0.0000     1.6229     8.1146
12 1     0.0000     3.2458     0.0000
13 1     1.6229     4.8688     0.0000
14 1     1.6229     3.2458     1.6229
15 1     0.0000     4.8688     1.6229
16 1     0.0000     3.2458     3.2458
17 1     1.6229     4.8688     3.2458
18 1     1.6229     3.2458     4.8688
19 1     0.0000     4.8688     4.8688
20 1     0.0000     3.2458     6.4917
21 1     1.6229     4.8688     6.4917
22 1     1.6229     3.2458     8.1146
23 1     0.0000     4.8688     8.1146
24 1     0.0000     6.4917     0.0000
25 1     1.6229     8.1146     0.0000
26 1     1.6229     6.4917     1.6229
27 1     0.0000     8.1146     1.6229
28 1     0.0000     6.4917     3.2458
29 1     1.6229     8.1146     3.2458
30 1     1.6229     6.4917     4.8688
31 1     0.0000     8.1146     4.8688
32 1     0.0000     6.4917     6.4917
33 1     1.6229     8.1146     6.4917
34 1     1.6229     6.4917     8.1146
35 1     0.0000     8.1146     8.1146
36 1     3.2458     0.0000     0.0000
37 1     4.8688     1.6229     0.0000
38 1     4.8688     0.0000     1.6229
39 1     3.2458     1.6229     1.6229
40 1     3.2458     0.0000     3.2458
41 1     4.8688     1.6229     3.2458
42 1     4.8688     0.0000     4.8688
43 1     3.2458     1.6229     4.8688
44 1     3.2458     0.0000     6.4917
45 1     4.8688     1.6229     6.4917
46 1     4.8688     0.0000     8.1146
47 1     3.2458     1.6229     8.1146
48 1     3.2458     3.2458     0.0000
49 1     4.8688     4.8688     0.0000
50 1     4.8688     3.2458     1.6229
51 1     3.2458     4.8688     1.6229
52 1     3.2458     3.2458     3.2458
53 1     4.8688     4.8688     3.2458
54 1     4.8688     3.2458     4.8688
55 1     3.2458     4.8688     4.8688
56 1     3.2458     3.2458     6.4917
57 1     4.8688     4.8688     6.4917
58 1     4.8688     3.2458     8.1146
59 1     3.2458     4.8688     8.1146
60 1     3.2458     6.4917     0.0000
61 1     4.8688     8.1146     0.0000
62 1     4.8688     6.4917     1.6229
63 1     3.2458     8.1146     1.6229
64 1     3.2458     6.4917     3.2458
65 1     4.8688     8.1146     3.2458
66 1     4.8688     6.4917     4.8688
67 1     3.2458     8.1146     4.8688
68 1     3.2458     6.4917     6.4917
69 1     4.8688     8.1146     6.4917
70 1     4.8688     6.4917     8.1146
71 1     3.2458     8.1146     8.1146
72 1     6.4917     0.0000     0.0000
73 1     8.1146     1.6229     0.0000
74 1     8.1146     0.0000     1.6229
75 1     6.4917     1.6229     1.6229
76 1     6.4917     0.0000     3.2458
77 1     8.1146     1.6229     3.2458
78 1     8.1146     0.0000     4.8688
79 1     6.4917     1.6229     4.8688
80 1     6.4917     0.0000     6.4917
81 1     8.1146     1.6229     6.4917
82 1     8.1146     0.0000     8.1146
83 1     6.4917     1.6229     8.1146
84 1     6.4917     3.2458     0.0000
85 1     8.1146     4.8688     0.0000
86 1     8.1146     3.2458     1.6229
87 1     6.4917     4.8688     1.6229
88 1     6.4917     3.2458     3.2458
89 1     8.1146     4.8688     3.2458
90 1     8.1146     3.2458     4.8688
91 1     6.4917     4.8688     4.8688
92 1     6.4917     3.2458     6.4917
93 1     8.1146     4.8688     6.4917
94 1     8.1146     3.2458     8.1146
95 1     6.4917     4.8688     8.1146
96 1     6.4917     6.4917     0.0000
97 1     8.1146     8.1146     0.0000
98 1     8.1146     6.4917     1.6229
99 1     6.4917     8.1146     1.6229
100 1     6.4917     6.4917     3.2458
101 1     8.1146     8.1146     3.2458
102 1     8.1146     6.4917     4.8688
103 1     6.4917     8.1146     4.8688
104 1     6.4917     6.4917     6.4917
105 1     8.1146     8.1146     6.4917
106 1     8.1146     6.4917     8.1146
107 1     6.4917     8.1146     8.1146
