# ['Ni']

28 atoms
1 atom types

    0.0000     2.4874 xlo xhi
    0.0000     4.3082 ylo yhi
    0.0000    28.4329 zlo zhi

    0.0000     0.0000     0.0000 xy xz yz

Atoms

1 1     0.0000     0.0000     0.0000
2 1     1.2437     2.1541     0.0000
3 1     1.2437     0.7180     2.0309
4 1     0.0000     2.8722     2.0309
5 1     0.0000     1.4361     4.0618
6 1     1.2437     3.5902     4.0618
7 1     0.0000     0.0000     6.0928
8 1     1.2437     2.1541     6.0928
9 1     1.2437     0.7180     8.1237
10 1     0.0000     2.8722     8.1237
11 1     0.0000     1.4361    10.1546
12 1     1.2437     3.5902    10.1546
13 1     0.0000     0.0000    12.1855
14 1     1.2437     2.1541    12.1855
15 1     0.0000     1.4361    14.2164
16 1     1.2437     3.5902    14.2164
17 1     0.0000     0.0000    16.2474
18 1     1.2437     2.1541    16.2474
19 1     1.2437     0.7180    18.2783
20 1     0.0000     2.8722    18.2783
21 1     0.0000     1.4361    20.3092
22 1     1.2437     3.5902    20.3092
23 1     0.0000     0.0000    22.3401
24 1     1.2437     2.1541    22.3401
25 1     1.2437     0.7180    24.3710
26 1     0.0000     2.8722    24.3710
27 1     0.0000     1.4361    26.4019
28 1     1.2437     3.5902    26.4019
