# ['Ni']

10 atoms
1 atom types

    0.0000     3.5265 xlo xhi
    0.0000     2.5244 ylo yhi
    0.0000    25.2440 zlo zhi

    0.0000     0.0000     0.0000 xy xz yz

Atoms

1 1     0.0000     0.0000     0.0000
2 1     1.7632     1.2622     1.2622
3 1     0.0000     0.0000     2.5244
4 1     1.7632     1.2622     3.7866
5 1     0.0000     0.0000     5.0488
6 1     1.7632     1.2622     6.3110
7 1     0.0000     0.0000     7.5732
8 1     1.7632     1.2622     8.8354
9 1     0.0000     0.0000    10.0976
10 1     1.7632     1.2622    11.3598
