LAMMPS (11 Aug 2017)
Reading data file ...
  triclinic box = (0 0 0) to (10.3595 10.3595 10.3595) with tilt (0 -0 -0)
  1 by 1 by 1 MPI processor grid
  reading atoms ...
  107 atoms
107 atoms in group Ni
Neighbor list info ...
  update every 1 steps, delay 0 steps, check yes
  max neighbors/atom: 2000, page size: 100000
  master list distance cutoff = 5.64464
  ghost atom cutoff = 5.64464
  binsize = 2.82232, bins = 4 4 4
  1 neighbor lists, perpetual/occasional/extra = 1 0 0
  (1) pair eam/alloy, perpetual
      attributes: half, newton on
      pair build: half/bin/newton/tri
      stencil: half/bin/3d/newton/tri
      bin: standard
Setting up cg style minimization ...
  Unit style    : metal
  Current step  : 0
Per MPI rank memory allocation (min/avg/max) = 4.229 | 4.229 | 4.229 Mbytes
Step PotEng Lx Ly Lz Xy Xz Yz Press Pxx Pyy Pzz Pxy Pxz Pyz c_eatoms 
       0   -386.84385      10.3595      10.3595      10.3595            0           -0           -0   -2687.6025   -2687.6025   -2687.6025   -2687.6025 1.2140139e-08 1.2152588e-08 1.2145169e-08   -386.84385 
       1   -386.86475      10.3595      10.3595      10.3595            0           -0           -0   -3311.7286   -3311.7286   -3311.7286   -3311.7286 -4.8313291e-06 -4.8313065e-06  -4.8313e-06   -386.86475 
       2   -386.86934      10.3595      10.3595      10.3595            0           -0           -0    -3429.261    -3429.261    -3429.261    -3429.261 -4.4226357e-05 -4.4226363e-05 -4.4226384e-05   -386.86934 
       3   -386.87036      10.3595      10.3595      10.3595            0           -0           -0   -3537.9315   -3537.9315   -3537.9315   -3537.9315 -1.3027296e-05 -1.3027303e-05 -1.3027302e-05   -386.87036 
       4   -386.87043      10.3595      10.3595      10.3595            0           -0           -0   -3535.8509   -3535.8509   -3535.8509   -3535.8509 -1.9199431e-05 -1.919941e-05 -1.9199431e-05   -386.87043 
       5   -386.87045      10.3595      10.3595      10.3595            0           -0           -0   -3534.3318   -3534.3318   -3534.3318   -3534.3318 -5.6116935e-06 -5.6116963e-06 -5.6117034e-06   -386.87045 
       6   -386.87045      10.3595      10.3595      10.3595            0           -0           -0   -3535.1198   -3535.1198   -3535.1198   -3535.1198 -4.5296325e-06 -4.5296535e-06 -4.5296424e-06   -386.87045 
       7   -386.87045      10.3595      10.3595      10.3595            0           -0           -0    -3536.859    -3536.859    -3536.859    -3536.859 -2.9986354e-06 -2.9986163e-06 -2.9985942e-06   -386.87045 
       8   -386.87045      10.3595      10.3595      10.3595            0           -0           -0   -3537.1774   -3537.1774   -3537.1774   -3537.1774 -1.5092381e-06 -1.5092562e-06 -1.5092454e-06   -386.87045 
       9   -386.87045      10.3595      10.3595      10.3595            0           -0           -0   -3537.1285   -3537.1285   -3537.1285   -3537.1285 -7.9209363e-07 -7.9207007e-07 -7.9207982e-07   -386.87045 
      10   -386.87045      10.3595      10.3595      10.3595            0           -0           -0   -3537.1222   -3537.1222   -3537.1222   -3537.1222 -7.1869078e-07 -7.1871182e-07 -7.1871145e-07   -386.87045 
      11   -386.87045      10.3595      10.3595      10.3595            0           -0           -0   -3537.1367   -3537.1367   -3537.1367   -3537.1367 -3.7383367e-07 -3.7386426e-07 -3.738809e-07   -386.87045 
      12   -386.87045      10.3595      10.3595      10.3595            0           -0           -0   -3537.1384   -3537.1384   -3537.1384   -3537.1384 -3.1458576e-07 -3.1460036e-07 -3.1461053e-07   -386.87045 
      13   -386.87045      10.3595      10.3595      10.3595            0           -0           -0   -3537.1392   -3537.1392   -3537.1392   -3537.1392 -1.9348408e-07 -1.9349764e-07 -1.9349768e-07   -386.87045 
      14   -386.87045      10.3595      10.3595      10.3595            0           -0           -0   -3537.1392   -3537.1392   -3537.1392   -3537.1392 -1.4869172e-07 -1.486829e-07 -1.4868585e-07   -386.87045 
      15   -386.87045      10.3595      10.3595      10.3595            0           -0           -0   -3537.1393   -3537.1393   -3537.1393   -3537.1393 -9.6212254e-08 -9.6203964e-08 -9.6209584e-08   -386.87045 
      16   -386.87045      10.3595      10.3595      10.3595            0           -0           -0   -3537.1394   -3537.1394   -3537.1394   -3537.1394 -4.07246e-08 -4.0715741e-08 -4.0700091e-08   -386.87045 
      17   -386.87045      10.3595      10.3595      10.3595            0           -0           -0   -3537.1393   -3537.1393   -3537.1393   -3537.1393 7.5882943e-09 7.5937941e-09 7.595224e-09   -386.87045 
      18   -386.87045      10.3595      10.3595      10.3595            0           -0           -0   -3537.1393   -3537.1393   -3537.1393   -3537.1393 9.853692e-09 9.851642e-09 9.8658915e-09   -386.87045 
      19   -386.87045      10.3595      10.3595      10.3595            0           -0           -0   -3537.1393   -3537.1393   -3537.1393   -3537.1393 1.1154305e-08 1.1153425e-08 1.1146515e-08   -386.87045 
      20   -386.87045      10.3595      10.3595      10.3595            0           -0           -0   -3537.1393   -3537.1393   -3537.1393   -3537.1393 5.4579717e-09 5.4424722e-09 5.4638115e-09   -386.87045 
      21   -386.87045      10.3595      10.3595      10.3595            0           -0           -0   -3537.1393   -3537.1393   -3537.1393   -3537.1393 3.5107224e-09 3.467534e-09 3.4899432e-09   -386.87045 
      22   -386.87045      10.3595      10.3595      10.3595            0           -0           -0   -3537.1393   -3537.1393   -3537.1393   -3537.1393 1.9474392e-09 1.952959e-09 1.9462693e-09   -386.87045 
      23   -386.87045      10.3595      10.3595      10.3595            0           -0           -0   -3537.1393   -3537.1393   -3537.1393   -3537.1393 1.1083297e-09 1.1174894e-09 1.1246791e-09   -386.87045 
      24   -386.87045      10.3595      10.3595      10.3595            0           -0           -0   -3537.1393   -3537.1393   -3537.1393   -3537.1393 8.8989767e-10 9.026372e-10 8.8841772e-10   -386.87045 
      25   -386.87045      10.3595      10.3595      10.3595            0           -0           -0   -3537.1393   -3537.1393   -3537.1393   -3537.1393 4.3444421e-10  4.12805e-10 4.4001401e-10   -386.87045 
      26   -386.87045      10.3595      10.3595      10.3595            0           -0           -0   -3537.1393   -3537.1393   -3537.1393   -3537.1393 2.0793244e-10 2.1238228e-10 2.1391223e-10   -386.87045 
Loop time of 0.038466 on 1 procs for 26 steps with 107 atoms

32.4% CPU use with 1 MPI tasks x no OpenMP threads

Minimization stats:
  Stopping criterion = energy tolerance
  Energy initial, next-to-last, final = 
        -386.843846581     -386.870452377     -386.870452377
  Force two-norm initial, final = 0.579269 1.1378e-10
  Force max component initial, final = 0.11231 2.12688e-11
  Final line search alpha, max atom move = 1 2.12688e-11
  Iterations, force evaluations = 26 52

MPI task timing breakdown:
Section |  min time  |  avg time  |  max time  |%varavg| %total
---------------------------------------------------------------
Pair    | 0.037601   | 0.037601   | 0.037601   |   0.0 | 97.75
Neigh   | 0          | 0          | 0          |   0.0 |  0.00
Comm    | 0.00026941 | 0.00026941 | 0.00026941 |   0.0 |  0.70
Output  | 0.00039053 | 0.00039053 | 0.00039053 |   0.0 |  1.02
Modify  | 0          | 0          | 0          |   0.0 |  0.00
Other   |            | 0.0002055  |            |       |  0.53

Nlocal:    107 ave 107 max 107 min
Histogram: 1 0 0 0 0 0 0 0 0 0
Nghost:    983 ave 983 max 983 min
Histogram: 1 0 0 0 0 0 0 0 0 0
Neighs:    4134 ave 4134 max 4134 min
Histogram: 1 0 0 0 0 0 0 0 0 0

Total # of neighbors = 4134
Ave neighs/atom = 38.6355
Neighbor list builds = 0
Dangerous builds = 0
pypospack:output_section:begin
tot_energy = -386.870452377385
num_atoms = 107
a11 = 10.3595
a22 = 10.3595
a33 = 10.3595
a12 = 0
a13 = -0
a23 = -0
tot_press = -3537.13930305935
pxx = -3537.13930305935
pyy = -3537.13930305935
pzz = -3537.13930305935
pxy = 2.07932444838584e-10
pxz = 2.12382283155078e-10
pyz = 2.13912227565019e-10
pypospack:output_section:done
pypospack:lammps_sim:done
Total wall time: 0:00:00
