# ['Ni']

107 atoms
1 atom types

    0.0000    10.3595 xlo xhi
    0.0000    10.3595 ylo yhi
    0.0000    10.3595 zlo zhi

    0.0000    -0.0000    -0.0000 xy xz yz

Atoms

1 1     1.7266     1.7266     0.0000
2 1     1.7266     0.0000     1.7266
3 1     0.0000     1.7266     1.7266
4 1     0.0000     0.0000     3.4532
5 1     1.7266     1.7266     3.4532
6 1     1.7266     0.0000     5.1797
7 1     0.0000     1.7266     5.1797
8 1     0.0000     0.0000     6.9063
9 1     1.7266     1.7266     6.9063
10 1     1.7266     0.0000     8.6329
11 1     0.0000     1.7266     8.6329
12 1     0.0000     3.4532     0.0000
13 1     1.7266     5.1797     0.0000
14 1     1.7266     3.4532     1.7266
15 1     0.0000     5.1797     1.7266
16 1     0.0000     3.4532     3.4532
17 1     1.7266     5.1797     3.4532
18 1     1.7266     3.4532     5.1797
19 1     0.0000     5.1797     5.1797
20 1     0.0000     3.4532     6.9063
21 1     1.7266     5.1797     6.9063
22 1     1.7266     3.4532     8.6329
23 1     0.0000     5.1797     8.6329
24 1     0.0000     6.9063     0.0000
25 1     1.7266     8.6329     0.0000
26 1     1.7266     6.9063     1.7266
27 1     0.0000     8.6329     1.7266
28 1     0.0000     6.9063     3.4532
29 1     1.7266     8.6329     3.4532
30 1     1.7266     6.9063     5.1797
31 1     0.0000     8.6329     5.1797
32 1     0.0000     6.9063     6.9063
33 1     1.7266     8.6329     6.9063
34 1     1.7266     6.9063     8.6329
35 1     0.0000     8.6329     8.6329
36 1     3.4532     0.0000     0.0000
37 1     5.1797     1.7266     0.0000
38 1     5.1797     0.0000     1.7266
39 1     3.4532     1.7266     1.7266
40 1     3.4532     0.0000     3.4532
41 1     5.1797     1.7266     3.4532
42 1     5.1797     0.0000     5.1797
43 1     3.4532     1.7266     5.1797
44 1     3.4532     0.0000     6.9063
45 1     5.1797     1.7266     6.9063
46 1     5.1797     0.0000     8.6329
47 1     3.4532     1.7266     8.6329
48 1     3.4532     3.4532     0.0000
49 1     5.1797     5.1797     0.0000
50 1     5.1797     3.4532     1.7266
51 1     3.4532     5.1797     1.7266
52 1     3.4532     3.4532     3.4532
53 1     5.1797     5.1797     3.4532
54 1     5.1797     3.4532     5.1797
55 1     3.4532     5.1797     5.1797
56 1     3.4532     3.4532     6.9063
57 1     5.1797     5.1797     6.9063
58 1     5.1797     3.4532     8.6329
59 1     3.4532     5.1797     8.6329
60 1     3.4532     6.9063     0.0000
61 1     5.1797     8.6329     0.0000
62 1     5.1797     6.9063     1.7266
63 1     3.4532     8.6329     1.7266
64 1     3.4532     6.9063     3.4532
65 1     5.1797     8.6329     3.4532
66 1     5.1797     6.9063     5.1797
67 1     3.4532     8.6329     5.1797
68 1     3.4532     6.9063     6.9063
69 1     5.1797     8.6329     6.9063
70 1     5.1797     6.9063     8.6329
71 1     3.4532     8.6329     8.6329
72 1     6.9063     0.0000     0.0000
73 1     8.6329     1.7266     0.0000
74 1     8.6329     0.0000     1.7266
75 1     6.9063     1.7266     1.7266
76 1     6.9063     0.0000     3.4532
77 1     8.6329     1.7266     3.4532
78 1     8.6329     0.0000     5.1797
79 1     6.9063     1.7266     5.1797
80 1     6.9063     0.0000     6.9063
81 1     8.6329     1.7266     6.9063
82 1     8.6329     0.0000     8.6329
83 1     6.9063     1.7266     8.6329
84 1     6.9063     3.4532     0.0000
85 1     8.6329     5.1797     0.0000
86 1     8.6329     3.4532     1.7266
87 1     6.9063     5.1797     1.7266
88 1     6.9063     3.4532     3.4532
89 1     8.6329     5.1797     3.4532
90 1     8.6329     3.4532     5.1797
91 1     6.9063     5.1797     5.1797
92 1     6.9063     3.4532     6.9063
93 1     8.6329     5.1797     6.9063
94 1     8.6329     3.4532     8.6329
95 1     6.9063     5.1797     8.6329
96 1     6.9063     6.9063     0.0000
97 1     8.6329     8.6329     0.0000
98 1     8.6329     6.9063     1.7266
99 1     6.9063     8.6329     1.7266
100 1     6.9063     6.9063     3.4532
101 1     8.6329     8.6329     3.4532
102 1     8.6329     6.9063     5.1797
103 1     6.9063     8.6329     5.1797
104 1     6.9063     6.9063     6.9063
105 1     8.6329     8.6329     6.9063
106 1     8.6329     6.9063     8.6329
107 1     6.9063     8.6329     8.6329
