LAMMPS (16 Mar 2018)
Reading data file ...
  triclinic box = (0 0 0) to (4.2565 4.2565 4.2565) with tilt (0 0 0)
  1 by 1 by 1 MPI processor grid
  reading atoms ...
  8 atoms
4 atoms in group Mg
4 atoms in group O
Setting atom values ...
  4 settings made for charge
Setting atom values ...
  4 settings made for charge
PPPM initialization ...
  using 12-bit tables for long-range coulomb (../kspace.cpp:321)
  G vector (1/distance) = 0.352805
  grid = 8 8 8
  stencil order = 5
  estimated absolute RMS force accuracy = 3.94046e-05
  estimated relative force accuracy = 2.7365e-06
  using double precision FFTs
  3d grid and FFT values/proc = 3375 512
Neighbor list info ...
  update every 1 steps, delay 0 steps, check yes
  max neighbors/atom: 2000, page size: 100000
  master list distance cutoff = 11
  ghost atom cutoff = 11
  binsize = 5.5, bins = 1 1 1
  1 neighbor lists, perpetual/occasional/extra = 1 0 0
  (1) pair buck/coul/long, perpetual
      attributes: half, newton on
      pair build: half/bin/newton/tri
      stencil: half/bin/3d/newton/tri
      bin: standard
Setting up cg style minimization ...
  Unit style    : metal
  Current step  : 0
WARNING: Energy due to 3 extra global DOFs will be included in minimizer energies
Per MPI rank memory allocation (min/avg/max) = 4.909 | 4.909 | 4.909 Mbytes
Step PotEng Xhi Xlo Yhi Ylo Zhi Xy Xz Yz Press Pxx Pyy Pzz Pxy Pxz Pyz c_eatoms 
       0   -111.57055       4.2565            0       4.2565            0       4.2565            0            0            0    13948.027    13948.027    13948.027    13948.027 8.5279903e-11 -2.4723086e-10 -6.0403686e-11   -111.57055 
       6   -111.57305    4.2602431 -0.0037431428    4.2602431 -0.0037431428    4.2602431            0            0            0    5495.7379    5495.7379    5495.7379    5495.7379 5.829988e-11 1.1126476e-10 -1.5776043e-10   -111.57305 
Loop time of 0.0248489 on 1 procs for 6 steps with 8 atoms

100.0% CPU use with 1 MPI tasks x no OpenMP threads

Minimization stats:
  Stopping criterion = linesearch alpha is zero
  Energy initial, next-to-last, final = 
        -111.570552238     -111.573045094     -111.573045094
  Force two-norm initial, final = 1.16284 0.459794
  Force max component initial, final = 0.671368 0.26546
  Final line search alpha, max atom move = 5.74805e-08 1.52588e-08
  Iterations, force evaluations = 6 44

MPI task timing breakdown:
Section |  min time  |  avg time  |  max time  |%varavg| %total
---------------------------------------------------------------
Pair    | 0.0069551  | 0.0069551  | 0.0069551  |   0.0 | 27.99
Kspace  | 0.0059643  | 0.0059643  | 0.0059643  |   0.0 | 24.00
Neigh   | 0          | 0          | 0          |   0.0 |  0.00
Comm    | 0.00049615 | 0.00049615 | 0.00049615 |   0.0 |  2.00
Output  | 0          | 0          | 0          |   0.0 |  0.00
Modify  | 0          | 0          | 0          |   0.0 |  0.00
Other   |            | 0.01143    |            |       | 46.01

Nlocal:    8 ave 8 max 8 min
Histogram: 1 0 0 0 0 0 0 0 0 0
Nghost:    2189 ave 2189 max 2189 min
Histogram: 1 0 0 0 0 0 0 0 0 0
Neighs:    2344 ave 2344 max 2344 min
Histogram: 1 0 0 0 0 0 0 0 0 0

Total # of neighbors = 2344
Ave neighs/atom = 293
Neighbor list builds = 0
Dangerous builds = 0
pypospack:output_section:begin
tot_energy = -111.573045093901
num_atoms = 8
a11 = 4.26398628564453
a22 = 4.26398628564453
a33 = 4.26398628564453
a12 = 0
a13 = 0
a23 = 0
tot_press = 5495.73792781816
pxx = 5495.73792781824
pyy = 5495.737927818
pzz = 5495.73792781824
pxy = 5.82998804233256e-11
pxz = 1.11264764993999e-10
pyz = -1.57760426474272e-10
pypospack:output_section:done
pypospack:lammps_sim:done
Total wall time: 0:00:00
