# ['Al']

10 atoms
1 atom types

    0.0000     3.8057 xlo xhi
    0.0000     2.7243 ylo yhi
    0.0000    27.2428 zlo zhi

    0.0000     0.0000     0.0000 xy xz yz

Atoms

1 1     0.0000     0.0000     0.0000
2 1     1.9029     1.3621     1.3621
3 1     0.0000     0.0000     2.7243
4 1     1.9029     1.3621     4.0864
5 1     0.0000     0.0000     5.4486
6 1     1.9029     1.3621     6.8107
7 1     0.0000     0.0000     8.1728
8 1     1.9029     1.3621     9.5350
9 1     0.0000     0.0000    10.8971
10 1     1.9029     1.3621    12.2593
