# ['Ni']

20 atoms
1 atom types

    0.0000     3.5159 xlo xhi
    0.0000     3.5159 ylo yhi
    0.0000    35.1587 zlo zhi

    0.0000    -0.0000     0.0000 xy xz yz

Atoms

1 1     0.0000     0.0000     0.0000
2 1     1.7579     1.7579     0.0000
3 1     1.7579     0.0000     1.7579
4 1     0.0000     1.7579     1.7579
5 1     0.0000     0.0000     3.5159
6 1     1.7579     1.7579     3.5159
7 1     1.7579     0.0000     5.2738
8 1     0.0000     1.7579     5.2738
9 1     0.0000     0.0000     7.0317
10 1     1.7579     1.7579     7.0317
11 1     1.7579     0.0000     8.7897
12 1     0.0000     1.7579     8.7897
13 1     0.0000     0.0000    10.5476
14 1     1.7579     1.7579    10.5476
15 1     1.7579     0.0000    12.3056
16 1     0.0000     1.7579    12.3056
17 1     0.0000     0.0000    14.0635
18 1     1.7579     1.7579    14.0635
19 1     1.7579     0.0000    15.8214
20 1     0.0000     1.7579    15.8214
