LAMMPS (11 Aug 2017)
Reading data file ...
  triclinic box = (0 0 0) to (2.49 4.3128 28.463) with tilt (0 0 0)
  1 by 1 by 1 MPI processor grid
  reading atoms ...
  28 atoms
28 atoms in group Ni
Neighbor list info ...
  update every 1 steps, delay 0 steps, check yes
  max neighbors/atom: 2000, page size: 100000
  master list distance cutoff = 11
  ghost atom cutoff = 11
  binsize = 5.5, bins = 1 1 6
  1 neighbor lists, perpetual/occasional/extra = 1 0 0
  (1) pair eam/alloy, perpetual
      attributes: half, newton on
      pair build: half/bin/newton/tri
      stencil: half/bin/3d/newton/tri
      bin: standard
Setting up cg style minimization ...
  Unit style    : metal
  Current step  : 0
WARNING: Energy due to 3 extra global DOFs will be included in minimizer energies
Per MPI rank memory allocation (min/avg/max) = 4.356 | 4.356 | 4.356 Mbytes
Step PotEng Lx Ly Lz Xy Xz Yz Press Pxx Pyy Pzz Pxy Pxz Pyz c_eatoms 
       0   -124.74978         2.49       4.3128       28.463            0            0            0   0.40554751   -1.0577102  -0.88950789    3.1638607 5.2884654e-12 8.4729467e-13 -0.037517947   -124.74978 
      36   -124.74978    2.4899758    4.3127646    28.463516            0            0            0 0.0041437155 0.0047166807 0.0047865291 0.0029279367 -1.5837063e-12 6.2646374e-13 -2.2220003e-05   -124.74978 
Loop time of 0.033654 on 1 procs for 36 steps with 28 atoms

100.0% CPU use with 1 MPI tasks x no OpenMP threads

Minimization stats:
  Stopping criterion = energy tolerance
  Energy initial, next-to-last, final = 
        -124.749783024     -124.749783082     -124.749783082
  Force two-norm initial, final = 0.000790561 1.40681e-06
  Force max component initial, final = 0.000603596 9.13174e-07
  Final line search alpha, max atom move = 1 9.13174e-07
  Iterations, force evaluations = 36 72

MPI task timing breakdown:
Section |  min time  |  avg time  |  max time  |%varavg| %total
---------------------------------------------------------------
Pair    | 0.029824   | 0.029824   | 0.029824   |   0.0 | 88.62
Neigh   | 0          | 0          | 0          |   0.0 |  0.00
Comm    | 0.0010126  | 0.0010126  | 0.0010126  |   0.0 |  3.01
Output  | 0          | 0          | 0          |   0.0 |  0.00
Modify  | 0          | 0          | 0          |   0.0 |  0.00
Other   |            | 0.002817   |            |       |  8.37

Nlocal:    28 ave 28 max 28 min
Histogram: 1 0 0 0 0 0 0 0 0 0
Nghost:    2894 ave 2894 max 2894 min
Histogram: 1 0 0 0 0 0 0 0 0 0
Neighs:    7320 ave 7320 max 7320 min
Histogram: 1 0 0 0 0 0 0 0 0 0

Total # of neighbors = 7320
Ave neighs/atom = 261.429
Neighbor list builds = 0
Dangerous builds = 0
Setting up cg style minimization ...
  Unit style    : metal
  Current step  : 36
Per MPI rank memory allocation (min/avg/max) = 4.481 | 4.481 | 4.481 Mbytes
Step PotEng Lx Ly Lz Xy Xz Yz Press Pxx Pyy Pzz Pxy Pxz Pyz c_eatoms 
      36   -124.74978    2.4899758    4.3127646    28.463516            0            0            0 0.0041437158  0.004716681 0.0047865294 0.0029279371 -4.5630201e-13 -3.6848229e-13 -2.2220011e-05   -124.74978 
      44   -124.74978    2.4899758    4.3127646    28.463516            0            0            0 0.0041435862 0.0047163941 0.0047862425 0.0029281218 2.558392e-13 -2.970313e-13 -2.2220015e-05   -124.74978 
Loop time of 0.00704384 on 1 procs for 8 steps with 28 atoms

100.0% CPU use with 1 MPI tasks x no OpenMP threads

Minimization stats:
  Stopping criterion = energy tolerance
  Energy initial, next-to-last, final = 
        -124.749783082     -124.749783082     -124.749783082
  Force two-norm initial, final = 1.53297e-07 1.03776e-14
  Force max component initial, final = 5.26491e-08 5.25968e-15
  Final line search alpha, max atom move = 1 5.25968e-15
  Iterations, force evaluations = 8 16

MPI task timing breakdown:
Section |  min time  |  avg time  |  max time  |%varavg| %total
---------------------------------------------------------------
Pair    | 0.0067353  | 0.0067353  | 0.0067353  |   0.0 | 95.62
Neigh   | 0          | 0          | 0          |   0.0 |  0.00
Comm    | 0.00023437 | 0.00023437 | 0.00023437 |   0.0 |  3.33
Output  | 0          | 0          | 0          |   0.0 |  0.00
Modify  | 6.4373e-06 | 6.4373e-06 | 6.4373e-06 |   0.0 |  0.09
Other   |            | 6.771e-05  |            |       |  0.96

Nlocal:    28 ave 28 max 28 min
Histogram: 1 0 0 0 0 0 0 0 0 0
Nghost:    2894 ave 2894 max 2894 min
Histogram: 1 0 0 0 0 0 0 0 0 0
Neighs:    7320 ave 7320 max 7320 min
Histogram: 1 0 0 0 0 0 0 0 0 0

Total # of neighbors = 7320
Ave neighs/atom = 261.429
Neighbor list builds = 0
Dangerous builds = 0
pypospack:output_section:begin
tot_energy = -124.749783081589
num_atoms = 28
a11 = 2.4899757927424
a22 = 4.31276457878696
a33 = 28.4635164096474
a12 = 0
a13 = 0
a23 = 0
tot_press = 0.00414358615417697
pxx = 0.00471639413005558
pyy = 0.00478624249163601
pzz = 0.00292812184083933
pxy = 2.5583920498783e-13
pxz = -2.97031301617228e-13
pyz = -2.22200148152948e-05
pypospack:output_section:done
pypospack:lammps_sim:done
Total wall time: 0:00:00
