# ['Ni']

256 atoms
1 atom types

    0.0000    14.0321 xlo xhi
    0.0000    14.0321 ylo yhi
    0.0000    14.0321 zlo zhi

    0.0000     0.0000     0.0000 xy xz yz

Atoms

1 1     0.0000     0.0000     0.0000
2 1     1.7540     0.0000     1.7540
3 1     1.7540     1.7540     0.0000
4 1     0.0000     1.7540     1.7540
5 1     0.0000     0.0000     3.5080
6 1     1.7540     0.0000     5.2621
7 1     1.7540     1.7540     3.5080
8 1     0.0000     1.7540     5.2621
9 1     0.0000     0.0000     7.0161
10 1     1.7540     0.0000     8.7701
11 1     1.7540     1.7540     7.0161
12 1     0.0000     1.7540     8.7701
13 1     0.0000     0.0000    10.5241
14 1     1.7540     0.0000    12.2781
15 1     1.7540     1.7540    10.5241
16 1     0.0000     1.7540    12.2781
17 1     0.0000     3.5080     0.0000
18 1     1.7540     3.5080     1.7540
19 1     1.7540     5.2621     0.0000
20 1     0.0000     5.2621     1.7540
21 1     0.0000     3.5080     3.5080
22 1     1.7540     3.5080     5.2621
23 1     1.7540     5.2621     3.5080
24 1     0.0000     5.2621     5.2621
25 1     0.0000     3.5080     7.0161
26 1     1.7540     3.5080     8.7701
27 1     1.7540     5.2621     7.0161
28 1     0.0000     5.2621     8.7701
29 1     0.0000     3.5080    10.5241
30 1     1.7540     3.5080    12.2781
31 1     1.7540     5.2621    10.5241
32 1     0.0000     5.2621    12.2781
33 1     0.0000     7.0161     0.0000
34 1     1.7540     7.0161     1.7540
35 1     1.7540     8.7701     0.0000
36 1     0.0000     8.7701     1.7540
37 1     0.0000     7.0161     3.5080
38 1     1.7540     7.0161     5.2621
39 1     1.7540     8.7701     3.5080
40 1     0.0000     8.7701     5.2621
41 1     0.0000     7.0161     7.0161
42 1     1.7540     7.0161     8.7701
43 1     1.7540     8.7701     7.0161
44 1     0.0000     8.7701     8.7701
45 1     0.0000     7.0161    10.5241
46 1     1.7540     7.0161    12.2781
47 1     1.7540     8.7701    10.5241
48 1     0.0000     8.7701    12.2781
49 1     0.0000    10.5241     0.0000
50 1     1.7540    10.5241     1.7540
51 1     1.7540    12.2781     0.0000
52 1     0.0000    12.2781     1.7540
53 1     0.0000    10.5241     3.5080
54 1     1.7540    10.5241     5.2621
55 1     1.7540    12.2781     3.5080
56 1     0.0000    12.2781     5.2621
57 1     0.0000    10.5241     7.0161
58 1     1.7540    10.5241     8.7701
59 1     1.7540    12.2781     7.0161
60 1     0.0000    12.2781     8.7701
61 1     0.0000    10.5241    10.5241
62 1     1.7540    10.5241    12.2781
63 1     1.7540    12.2781    10.5241
64 1     0.0000    12.2781    12.2781
65 1     3.5080     0.0000     0.0000
66 1     5.2621     0.0000     1.7540
67 1     5.2621     1.7540     0.0000
68 1     3.5080     1.7540     1.7540
69 1     3.5080     0.0000     3.5080
70 1     5.2621     0.0000     5.2621
71 1     5.2621     1.7540     3.5080
72 1     3.5080     1.7540     5.2621
73 1     3.5080     0.0000     7.0161
74 1     5.2621     0.0000     8.7701
75 1     5.2621     1.7540     7.0161
76 1     3.5080     1.7540     8.7701
77 1     3.5080     0.0000    10.5241
78 1     5.2621     0.0000    12.2781
79 1     5.2621     1.7540    10.5241
80 1     3.5080     1.7540    12.2781
81 1     3.5080     3.5080     0.0000
82 1     5.2621     3.5080     1.7540
83 1     5.2621     5.2621     0.0000
84 1     3.5080     5.2621     1.7540
85 1     3.5080     3.5080     3.5080
86 1     5.2621     3.5080     5.2621
87 1     5.2621     5.2621     3.5080
88 1     3.5080     5.2621     5.2621
89 1     3.5080     3.5080     7.0161
90 1     5.2621     3.5080     8.7701
91 1     5.2621     5.2621     7.0161
92 1     3.5080     5.2621     8.7701
93 1     3.5080     3.5080    10.5241
94 1     5.2621     3.5080    12.2781
95 1     5.2621     5.2621    10.5241
96 1     3.5080     5.2621    12.2781
97 1     3.5080     7.0161     0.0000
98 1     5.2621     7.0161     1.7540
99 1     5.2621     8.7701     0.0000
100 1     3.5080     8.7701     1.7540
101 1     3.5080     7.0161     3.5080
102 1     5.2621     7.0161     5.2621
103 1     5.2621     8.7701     3.5080
104 1     3.5080     8.7701     5.2621
105 1     3.5080     7.0161     7.0161
106 1     5.2621     7.0161     8.7701
107 1     5.2621     8.7701     7.0161
108 1     3.5080     8.7701     8.7701
109 1     3.5080     7.0161    10.5241
110 1     5.2621     7.0161    12.2781
111 1     5.2621     8.7701    10.5241
112 1     3.5080     8.7701    12.2781
113 1     3.5080    10.5241     0.0000
114 1     5.2621    10.5241     1.7540
115 1     5.2621    12.2781     0.0000
116 1     3.5080    12.2781     1.7540
117 1     3.5080    10.5241     3.5080
118 1     5.2621    10.5241     5.2621
119 1     5.2621    12.2781     3.5080
120 1     3.5080    12.2781     5.2621
121 1     3.5080    10.5241     7.0161
122 1     5.2621    10.5241     8.7701
123 1     5.2621    12.2781     7.0161
124 1     3.5080    12.2781     8.7701
125 1     3.5080    10.5241    10.5241
126 1     5.2621    10.5241    12.2781
127 1     5.2621    12.2781    10.5241
128 1     3.5080    12.2781    12.2781
129 1     7.0161     0.0000     0.0000
130 1     8.7701     0.0000     1.7540
131 1     8.7701     1.7540     0.0000
132 1     7.0161     1.7540     1.7540
133 1     7.0161     0.0000     3.5080
134 1     8.7701     0.0000     5.2621
135 1     8.7701     1.7540     3.5080
136 1     7.0161     1.7540     5.2621
137 1     7.0161     0.0000     7.0161
138 1     8.7701     0.0000     8.7701
139 1     8.7701     1.7540     7.0161
140 1     7.0161     1.7540     8.7701
141 1     7.0161     0.0000    10.5241
142 1     8.7701     0.0000    12.2781
143 1     8.7701     1.7540    10.5241
144 1     7.0161     1.7540    12.2781
145 1     7.0161     3.5080     0.0000
146 1     8.7701     3.5080     1.7540
147 1     8.7701     5.2621     0.0000
148 1     7.0161     5.2621     1.7540
149 1     7.0161     3.5080     3.5080
150 1     8.7701     3.5080     5.2621
151 1     8.7701     5.2621     3.5080
152 1     7.0161     5.2621     5.2621
153 1     7.0161     3.5080     7.0161
154 1     8.7701     3.5080     8.7701
155 1     8.7701     5.2621     7.0161
156 1     7.0161     5.2621     8.7701
157 1     7.0161     3.5080    10.5241
158 1     8.7701     3.5080    12.2781
159 1     8.7701     5.2621    10.5241
160 1     7.0161     5.2621    12.2781
161 1     7.0161     7.0161     0.0000
162 1     8.7701     7.0161     1.7540
163 1     8.7701     8.7701     0.0000
164 1     7.0161     8.7701     1.7540
165 1     7.0161     7.0161     3.5080
166 1     8.7701     7.0161     5.2621
167 1     8.7701     8.7701     3.5080
168 1     7.0161     8.7701     5.2621
169 1     7.0161     7.0161     7.0161
170 1     8.7701     7.0161     8.7701
171 1     8.7701     8.7701     7.0161
172 1     7.0161     8.7701     8.7701
173 1     7.0161     7.0161    10.5241
174 1     8.7701     7.0161    12.2781
175 1     8.7701     8.7701    10.5241
176 1     7.0161     8.7701    12.2781
177 1     7.0161    10.5241     0.0000
178 1     8.7701    10.5241     1.7540
179 1     8.7701    12.2781     0.0000
180 1     7.0161    12.2781     1.7540
181 1     7.0161    10.5241     3.5080
182 1     8.7701    10.5241     5.2621
183 1     8.7701    12.2781     3.5080
184 1     7.0161    12.2781     5.2621
185 1     7.0161    10.5241     7.0161
186 1     8.7701    10.5241     8.7701
187 1     8.7701    12.2781     7.0161
188 1     7.0161    12.2781     8.7701
189 1     7.0161    10.5241    10.5241
190 1     8.7701    10.5241    12.2781
191 1     8.7701    12.2781    10.5241
192 1     7.0161    12.2781    12.2781
193 1    10.5241     0.0000     0.0000
194 1    12.2781     0.0000     1.7540
195 1    12.2781     1.7540     0.0000
196 1    10.5241     1.7540     1.7540
197 1    10.5241     0.0000     3.5080
198 1    12.2781     0.0000     5.2621
199 1    12.2781     1.7540     3.5080
200 1    10.5241     1.7540     5.2621
201 1    10.5241     0.0000     7.0161
202 1    12.2781     0.0000     8.7701
203 1    12.2781     1.7540     7.0161
204 1    10.5241     1.7540     8.7701
205 1    10.5241     0.0000    10.5241
206 1    12.2781     0.0000    12.2781
207 1    12.2781     1.7540    10.5241
208 1    10.5241     1.7540    12.2781
209 1    10.5241     3.5080     0.0000
210 1    12.2781     3.5080     1.7540
211 1    12.2781     5.2621     0.0000
212 1    10.5241     5.2621     1.7540
213 1    10.5241     3.5080     3.5080
214 1    12.2781     3.5080     5.2621
215 1    12.2781     5.2621     3.5080
216 1    10.5241     5.2621     5.2621
217 1    10.5241     3.5080     7.0161
218 1    12.2781     3.5080     8.7701
219 1    12.2781     5.2621     7.0161
220 1    10.5241     5.2621     8.7701
221 1    10.5241     3.5080    10.5241
222 1    12.2781     3.5080    12.2781
223 1    12.2781     5.2621    10.5241
224 1    10.5241     5.2621    12.2781
225 1    10.5241     7.0161     0.0000
226 1    12.2781     7.0161     1.7540
227 1    12.2781     8.7701     0.0000
228 1    10.5241     8.7701     1.7540
229 1    10.5241     7.0161     3.5080
230 1    12.2781     7.0161     5.2621
231 1    12.2781     8.7701     3.5080
232 1    10.5241     8.7701     5.2621
233 1    10.5241     7.0161     7.0161
234 1    12.2781     7.0161     8.7701
235 1    12.2781     8.7701     7.0161
236 1    10.5241     8.7701     8.7701
237 1    10.5241     7.0161    10.5241
238 1    12.2781     7.0161    12.2781
239 1    12.2781     8.7701    10.5241
240 1    10.5241     8.7701    12.2781
241 1    10.5241    10.5241     0.0000
242 1    12.2781    10.5241     1.7540
243 1    12.2781    12.2781     0.0000
244 1    10.5241    12.2781     1.7540
245 1    10.5241    10.5241     3.5080
246 1    12.2781    10.5241     5.2621
247 1    12.2781    12.2781     3.5080
248 1    10.5241    12.2781     5.2621
249 1    10.5241    10.5241     7.0161
250 1    12.2781    10.5241     8.7701
251 1    12.2781    12.2781     7.0161
252 1    10.5241    12.2781     8.7701
253 1    10.5241    10.5241    10.5241
254 1    12.2781    10.5241    12.2781
255 1    12.2781    12.2781    10.5241
256 1    10.5241    12.2781    12.2781
