# ['Mg', 'O']

216 atoms
2 atom types

    0.0000    12.3636 xlo xhi
    0.0000    12.3636 ylo yhi
    0.0000    12.3636 zlo zhi

    0.0000     0.0000     0.0000 xy xz yz

Atoms

1 1     1.0000     2.0606     2.0606     0.0000
2 1     1.0000     2.0606     0.0000     2.0606
3 1     1.0000     0.0000     0.0000     0.0000
4 1     1.0000     0.0000     2.0606     2.0606
5 1     1.0000     2.0606     2.0606     4.1212
6 1     1.0000     2.0606     0.0000     6.1818
7 1     1.0000     0.0000     0.0000     4.1212
8 1     1.0000     0.0000     2.0606     6.1818
9 1     1.0000     2.0606     2.0606     8.2424
10 1     1.0000     2.0606     0.0000    10.3030
11 1     1.0000     0.0000     0.0000     8.2424
12 1     1.0000     0.0000     2.0606    10.3030
13 1     1.0000     2.0606     6.1818     0.0000
14 1     1.0000     2.0606     4.1212     2.0606
15 1     1.0000     0.0000     4.1212     0.0000
16 1     1.0000     0.0000     6.1818     2.0606
17 1     1.0000     2.0606     6.1818     4.1212
18 1     1.0000     2.0606     4.1212     6.1818
19 1     1.0000     0.0000     4.1212     4.1212
20 1     1.0000     0.0000     6.1818     6.1818
21 1     1.0000     2.0606     6.1818     8.2424
22 1     1.0000     2.0606     4.1212    10.3030
23 1     1.0000     0.0000     4.1212     8.2424
24 1     1.0000     0.0000     6.1818    10.3030
25 1     1.0000     2.0606    10.3030     0.0000
26 1     1.0000     2.0606     8.2424     2.0606
27 1     1.0000     0.0000     8.2424     0.0000
28 1     1.0000     0.0000    10.3030     2.0606
29 1     1.0000     2.0606    10.3030     4.1212
30 1     1.0000     2.0606     8.2424     6.1818
31 1     1.0000     0.0000     8.2424     4.1212
32 1     1.0000     0.0000    10.3030     6.1818
33 1     1.0000     2.0606    10.3030     8.2424
34 1     1.0000     2.0606     8.2424    10.3030
35 1     1.0000     0.0000     8.2424     8.2424
36 1     1.0000     0.0000    10.3030    10.3030
37 1     1.0000     6.1818     2.0606     0.0000
38 1     1.0000     6.1818     0.0000     2.0606
39 1     1.0000     4.1212     0.0000     0.0000
40 1     1.0000     4.1212     2.0606     2.0606
41 1     1.0000     6.1818     2.0606     4.1212
42 1     1.0000     6.1818     0.0000     6.1818
43 1     1.0000     4.1212     0.0000     4.1212
44 1     1.0000     4.1212     2.0606     6.1818
45 1     1.0000     6.1818     2.0606     8.2424
46 1     1.0000     6.1818     0.0000    10.3030
47 1     1.0000     4.1212     0.0000     8.2424
48 1     1.0000     4.1212     2.0606    10.3030
49 1     1.0000     6.1818     6.1818     0.0000
50 1     1.0000     6.1818     4.1212     2.0606
51 1     1.0000     4.1212     4.1212     0.0000
52 1     1.0000     4.1212     6.1818     2.0606
53 1     1.0000     6.1818     6.1818     4.1212
54 1     1.0000     6.1818     4.1212     6.1818
55 1     1.0000     4.1212     4.1212     4.1212
56 1     1.0000     4.1212     6.1818     6.1818
57 1     1.0000     6.1818     6.1818     8.2424
58 1     1.0000     6.1818     4.1212    10.3030
59 1     1.0000     4.1212     4.1212     8.2424
60 1     1.0000     4.1212     6.1818    10.3030
61 1     1.0000     6.1818    10.3030     0.0000
62 1     1.0000     6.1818     8.2424     2.0606
63 1     1.0000     4.1212     8.2424     0.0000
64 1     1.0000     4.1212    10.3030     2.0606
65 1     1.0000     6.1818    10.3030     4.1212
66 1     1.0000     6.1818     8.2424     6.1818
67 1     1.0000     4.1212     8.2424     4.1212
68 1     1.0000     4.1212    10.3030     6.1818
69 1     1.0000     6.1818    10.3030     8.2424
70 1     1.0000     6.1818     8.2424    10.3030
71 1     1.0000     4.1212     8.2424     8.2424
72 1     1.0000     4.1212    10.3030    10.3030
73 1     1.0000    10.3030     2.0606     0.0000
74 1     1.0000    10.3030     0.0000     2.0606
75 1     1.0000     8.2424     0.0000     0.0000
76 1     1.0000     8.2424     2.0606     2.0606
77 1     1.0000    10.3030     2.0606     4.1212
78 1     1.0000    10.3030     0.0000     6.1818
79 1     1.0000     8.2424     0.0000     4.1212
80 1     1.0000     8.2424     2.0606     6.1818
81 1     1.0000    10.3030     2.0606     8.2424
82 1     1.0000    10.3030     0.0000    10.3030
83 1     1.0000     8.2424     0.0000     8.2424
84 1     1.0000     8.2424     2.0606    10.3030
85 1     1.0000    10.3030     6.1818     0.0000
86 1     1.0000    10.3030     4.1212     2.0606
87 1     1.0000     8.2424     4.1212     0.0000
88 1     1.0000     8.2424     6.1818     2.0606
89 1     1.0000    10.3030     6.1818     4.1212
90 1     1.0000    10.3030     4.1212     6.1818
91 1     1.0000     8.2424     4.1212     4.1212
92 1     1.0000     8.2424     6.1818     6.1818
93 1     1.0000    10.3030     6.1818     8.2424
94 1     1.0000    10.3030     4.1212    10.3030
95 1     1.0000     8.2424     4.1212     8.2424
96 1     1.0000     8.2424     6.1818    10.3030
97 1     1.0000    10.3030    10.3030     0.0000
98 1     1.0000    10.3030     8.2424     2.0606
99 1     1.0000     8.2424     8.2424     0.0000
100 1     1.0000     8.2424    10.3030     2.0606
101 1     1.0000    10.3030    10.3030     4.1212
102 1     1.0000    10.3030     8.2424     6.1818
103 1     1.0000     8.2424     8.2424     4.1212
104 1     1.0000     8.2424    10.3030     6.1818
105 1     1.0000    10.3030    10.3030     8.2424
106 1     1.0000    10.3030     8.2424    10.3030
107 1     1.0000     8.2424     8.2424     8.2424
108 1     1.0000     8.2424    10.3030    10.3030
109 2     1.0000     0.0000     2.0606     0.0000
110 2     1.0000     2.0606     0.0000     0.0000
111 2     1.0000     2.0606     2.0606     2.0606
112 2     1.0000     0.0000     0.0000     2.0606
113 2     1.0000     0.0000     2.0606     4.1212
114 2     1.0000     2.0606     0.0000     4.1212
115 2     1.0000     2.0606     2.0606     6.1818
116 2     1.0000     0.0000     0.0000     6.1818
117 2     1.0000     0.0000     2.0606     8.2424
118 2     1.0000     2.0606     0.0000     8.2424
119 2     1.0000     2.0606     2.0606    10.3030
120 2     1.0000     0.0000     0.0000    10.3030
121 2     1.0000     0.0000     6.1818     0.0000
122 2     1.0000     2.0606     4.1212     0.0000
123 2     1.0000     2.0606     6.1818     2.0606
124 2     1.0000     0.0000     4.1212     2.0606
125 2     1.0000     0.0000     6.1818     4.1212
126 2     1.0000     2.0606     4.1212     4.1212
127 2     1.0000     2.0606     6.1818     6.1818
128 2     1.0000     0.0000     4.1212     6.1818
129 2     1.0000     0.0000     6.1818     8.2424
130 2     1.0000     2.0606     4.1212     8.2424
131 2     1.0000     2.0606     6.1818    10.3030
132 2     1.0000     0.0000     4.1212    10.3030
133 2     1.0000     0.0000    10.3030     0.0000
134 2     1.0000     2.0606     8.2424     0.0000
135 2     1.0000     2.0606    10.3030     2.0606
136 2     1.0000     0.0000     8.2424     2.0606
137 2     1.0000     0.0000    10.3030     4.1212
138 2     1.0000     2.0606     8.2424     4.1212
139 2     1.0000     2.0606    10.3030     6.1818
140 2     1.0000     0.0000     8.2424     6.1818
141 2     1.0000     0.0000    10.3030     8.2424
142 2     1.0000     2.0606     8.2424     8.2424
143 2     1.0000     2.0606    10.3030    10.3030
144 2     1.0000     0.0000     8.2424    10.3030
145 2     1.0000     4.1212     2.0606     0.0000
146 2     1.0000     6.1818     0.0000     0.0000
147 2     1.0000     6.1818     2.0606     2.0606
148 2     1.0000     4.1212     0.0000     2.0606
149 2     1.0000     4.1212     2.0606     4.1212
150 2     1.0000     6.1818     0.0000     4.1212
151 2     1.0000     6.1818     2.0606     6.1818
152 2     1.0000     4.1212     0.0000     6.1818
153 2     1.0000     4.1212     2.0606     8.2424
154 2     1.0000     6.1818     0.0000     8.2424
155 2     1.0000     6.1818     2.0606    10.3030
156 2     1.0000     4.1212     0.0000    10.3030
157 2     1.0000     4.1212     6.1818     0.0000
158 2     1.0000     6.1818     4.1212     0.0000
159 2     1.0000     6.1818     6.1818     2.0606
160 2     1.0000     4.1212     4.1212     2.0606
161 2     1.0000     4.1212     6.1818     4.1212
162 2     1.0000     6.1818     4.1212     4.1212
163 2     1.0000     4.1212     4.1212     6.1818
164 2     1.0000     4.1212     6.1818     8.2424
165 2     1.0000     6.1818     4.1212     8.2424
166 2     1.0000     6.1818     6.1818    10.3030
167 2     1.0000     4.1212     4.1212    10.3030
168 2     1.0000     4.1212    10.3030     0.0000
169 2     1.0000     6.1818     8.2424     0.0000
170 2     1.0000     6.1818    10.3030     2.0606
171 2     1.0000     4.1212     8.2424     2.0606
172 2     1.0000     4.1212    10.3030     4.1212
173 2     1.0000     6.1818     8.2424     4.1212
174 2     1.0000     6.1818    10.3030     6.1818
175 2     1.0000     4.1212     8.2424     6.1818
176 2     1.0000     4.1212    10.3030     8.2424
177 2     1.0000     6.1818     8.2424     8.2424
178 2     1.0000     6.1818    10.3030    10.3030
179 2     1.0000     4.1212     8.2424    10.3030
180 2     1.0000     8.2424     2.0606     0.0000
181 2     1.0000    10.3030     0.0000     0.0000
182 2     1.0000    10.3030     2.0606     2.0606
183 2     1.0000     8.2424     0.0000     2.0606
184 2     1.0000     8.2424     2.0606     4.1212
185 2     1.0000    10.3030     0.0000     4.1212
186 2     1.0000    10.3030     2.0606     6.1818
187 2     1.0000     8.2424     0.0000     6.1818
188 2     1.0000     8.2424     2.0606     8.2424
189 2     1.0000    10.3030     0.0000     8.2424
190 2     1.0000    10.3030     2.0606    10.3030
191 2     1.0000     8.2424     0.0000    10.3030
192 2     1.0000     8.2424     6.1818     0.0000
193 2     1.0000    10.3030     4.1212     0.0000
194 2     1.0000    10.3030     6.1818     2.0606
195 2     1.0000     8.2424     4.1212     2.0606
196 2     1.0000     8.2424     6.1818     4.1212
197 2     1.0000    10.3030     4.1212     4.1212
198 2     1.0000    10.3030     6.1818     6.1818
199 2     1.0000     8.2424     4.1212     6.1818
200 2     1.0000     8.2424     6.1818     8.2424
201 2     1.0000    10.3030     4.1212     8.2424
202 2     1.0000    10.3030     6.1818    10.3030
203 2     1.0000     8.2424     4.1212    10.3030
204 2     1.0000     8.2424    10.3030     0.0000
205 2     1.0000    10.3030     8.2424     0.0000
206 2     1.0000    10.3030    10.3030     2.0606
207 2     1.0000     8.2424     8.2424     2.0606
208 2     1.0000     8.2424    10.3030     4.1212
209 2     1.0000    10.3030     8.2424     4.1212
210 2     1.0000    10.3030    10.3030     6.1818
211 2     1.0000     8.2424     8.2424     6.1818
212 2     1.0000     8.2424    10.3030     8.2424
213 2     1.0000    10.3030     8.2424     8.2424
214 2     1.0000    10.3030    10.3030    10.3030
215 2     1.0000     8.2424     8.2424    10.3030
216 2     1.0000     9.2727     9.2727     9.2727
