LAMMPS (11 Aug 2017)
Reading data file ...
  triclinic box = (0 0 0) to (4.8791 4.8791 4.8791) with tilt (0 0 0)
  1 by 1 by 1 MPI processor grid
  reading atoms ...
  8 atoms
8 atoms in group Ni
Neighbor list info ...
  update every 1 steps, delay 0 steps, check yes
  max neighbors/atom: 2000, page size: 100000
  master list distance cutoff = 11
  ghost atom cutoff = 11
  binsize = 5.5, bins = 1 1 1
  1 neighbor lists, perpetual/occasional/extra = 1 0 0
  (1) pair eam/alloy, perpetual
      attributes: half, newton on
      pair build: half/bin/newton/tri
      stencil: half/bin/3d/newton/tri
      bin: standard
Setting up cg style minimization ...
  Unit style    : metal
  Current step  : 0
WARNING: Energy due to 3 extra global DOFs will be included in minimizer energies
Per MPI rank memory allocation (min/avg/max) = 4.276 | 4.276 | 4.276 Mbytes
Step PotEng Xhi Xlo Yhi Ylo Zhi Xy Xz Yz Press Pxx Pyy Pzz Pxy Pxz Pyz c_eatoms 
       0   -28.005269       4.8791            0       4.8791            0       4.8791            0            0            0   -18815.738   -18815.738   -18815.738   -18815.738   -14.838728   -14.838728   -14.838728   -28.005269 
      10   -28.020172    4.8615744   0.01752564    4.8615744   0.01752564    4.8615744            0            0            0  -0.40963053  -0.40963053  -0.40963053  -0.40963053    4.3954569    4.3954569    4.3954569   -28.020172 
      15   -28.020172     4.861574  0.017526001     4.861574  0.017526001     4.861574            0            0            0 3.1898094e-06 3.1887549e-06 3.3848496e-06 2.9958238e-06 8.9188674e-06 8.9195905e-06 8.9193651e-06   -28.020172 
Loop time of 0.00309205 on 1 procs for 15 steps with 8 atoms

95.9% CPU use with 1 MPI tasks x no OpenMP threads

Minimization stats:
  Stopping criterion = linesearch alpha is zero
  Energy initial, next-to-last, final = 
        -28.0052691784     -28.0201717817     -28.0201717817
  Force two-norm initial, final = 2.3626 4.71123e-08
  Force max component initial, final = 1.36405 1.81501e-08
  Final line search alpha, max atom move = 0.5 9.07504e-09
  Iterations, force evaluations = 15 23

MPI task timing breakdown:
Section |  min time  |  avg time  |  max time  |%varavg| %total
---------------------------------------------------------------
Pair    | 0.0023677  | 0.0023677  | 0.0023677  |   0.0 | 76.57
Neigh   | 0          | 0          | 0          |   0.0 |  0.00
Comm    | 0.00017595 | 0.00017595 | 0.00017595 |   0.0 |  5.69
Output  | 1.502e-05  | 1.502e-05  | 1.502e-05  |   0.0 |  0.49
Modify  | 0          | 0          | 0          |   0.0 |  0.00
Other   |            | 0.0005333  |            |       | 17.25

Nlocal:    8 ave 8 max 8 min
Histogram: 1 0 0 0 0 0 0 0 0 0
Nghost:    1522 ave 1522 max 1522 min
Histogram: 1 0 0 0 0 0 0 0 0 0
Neighs:    1520 ave 1520 max 1520 min
Histogram: 1 0 0 0 0 0 0 0 0 0

Total # of neighbors = 1520
Ave neighs/atom = 190
Neighbor list builds = 0
Dangerous builds = 0
pypospack:output_section:begin
tot_energy = -28.0201717817099
num_atoms = 8
a11 = 4.84404799852426
a22 = 4.84404799852587
a33 = 4.84404799852269
a12 = 0
a13 = 0
a23 = 0
tot_press = 3.18980941898221e-06
pxx = 3.18875488914818e-06
pyy = 3.38484956077836e-06
pzz = 2.99582380702008e-06
pxy = 8.91886737866792e-06
pxz = 8.91959050252662e-06
pyz = 8.9193650634003e-06
pypospack:output_section:done
pypospack:lammps_sim:done
Total wall time: 0:00:00
