    2    2    1    1
  0.9639684E+01  0.3009788E-09  0.3009788E-09  0.3009788E-09  0.5000000E-15
  1.000000000000000E-004
  CAR 
 automatically generated by pyflamestk   
      8     10     16
 
  0.1250000E+00  0.1250000E+00  0.1250000E+00  0.3125000E-01
    1      -13.729417   1.000000
    2        2.450502   1.000000
    3        3.311339   1.000000
    4        3.311340   1.000000
    5        8.656306   0.000000
    6       17.316298   0.000000
    7       19.319677   0.000000
    8       19.319680   0.000000
    9       23.536443   0.000000
   10       23.536444   0.000000
   11       24.871590   0.000000
   12       27.269458   0.000000
   13       28.708999   0.000000
   14       28.709000   0.000000
   15       38.975002   0.000000
   16       40.908384   0.000000
 
  0.3750000E+00  0.1250000E+00  0.1250000E+00  0.9375000E-01
    1      -13.091074   1.000000
    2        0.255009   1.000000
    3        2.439128   1.000000
    4        3.010387   1.000000
    5       11.093328   0.000000
    6       15.259233   0.000000
    7       18.628515   0.000000
    8       20.295175   0.000000
    9       22.122134   0.000000
   10       24.343938   0.000000
   11       26.420730   0.000000
   12       31.086033   0.000000
   13       32.386925   0.000000
   14       33.209734   0.000000
   15       35.574645   0.000000
   16       38.880436   0.000000
 
 -0.3750000E+00  0.1250000E+00  0.1250000E+00  0.9375000E-01
    1      -12.665771   1.000000
    2       -0.850633   1.000000
    3        2.297523   1.000000
    4        2.670018   1.000000
    5       11.703487   0.000000
    6       15.475332   0.000000
    7       17.918409   0.000000
    8       19.731117   0.000000
    9       23.710325   0.000000
   10       25.980522   0.000000
   11       26.030391   0.000000
   12       32.279782   0.000000
   13       32.924852   0.000000
   14       33.256081   0.000000
   15       35.828807   0.000000
   16       37.515818   0.000000
 
 -0.1250000E+00  0.1250000E+00  0.1250000E+00  0.9375000E-01
    1      -13.373548   1.000000
    2        1.151661   1.000000
    3        2.925778   1.000000
    4        2.941398   1.000000
    5       10.263561   0.000000
    6       15.503940   0.000000
    7       19.426672   0.000000
    8       19.920625   0.000000
    9       21.081079   0.000000
   10       24.919708   0.000000
   11       26.880420   0.000000
   12       29.971947   0.000000
   13       30.269450   0.000000
   14       31.021630   0.000000
   15       37.207404   0.000000
   16       39.009130   0.000000
 
  0.3750000E+00  0.3750000E+00  0.1250000E+00  0.9375000E-01
    1      -12.860964   1.000000
    2        0.073018   1.000000
    3        2.237687   1.000000
    4        2.465562   1.000000
    5       12.203182   0.000000
    6       13.913235   0.000000
    7       17.175374   0.000000
    8       20.806710   0.000000
    9       21.258049   0.000000
   10       27.098091   0.000000
   11       30.154946   0.000000
   12       30.414828   0.000000
   13       32.337045   0.000000
   14       34.831333   0.000000
   15       36.481075   0.000000
   16       37.881921   0.000000
 
 -0.3750000E+00  0.3750000E+00  0.1250000E+00  0.1875000E+00
    1      -12.459832   1.000000
    2       -0.030381   1.000000
    3        0.973506   1.000000
    4        2.063954   1.000000
    5       13.766909   0.000000
    6       14.793698   0.000000
    7       15.590079   0.000000
    8       19.546896   0.000000
    9       23.009722   0.000000
   10       26.453554   0.000000
   11       29.982226   0.000000
   12       31.450854   0.000000
   13       32.676958   0.000000
   14       36.344823   0.000000
   15       38.889415   0.000000
   16       41.098854   0.000000
 
 -0.1250000E+00  0.3750000E+00  0.1250000E+00  0.1875000E+00
    1      -12.709516   1.000000
    2       -0.233965   1.000000
    3        1.708964   1.000000
    4        2.567828   1.000000
    5       12.577669   0.000000
    6       14.816428   0.000000
    7       16.945617   0.000000
    8       20.133605   0.000000
    9       22.706617   0.000000
   10       25.366808   0.000000
   11       28.870932   0.000000
   12       31.676344   0.000000
   13       32.256252   0.000000
   14       34.895866   0.000000
   15       35.539889   0.000000
   16       41.012627   0.000000
 
 -0.3750000E+00 -0.3750000E+00  0.1250000E+00  0.9375000E-01
    1      -12.495016   1.000000
    2       -0.394848   1.000000
    3        1.717723   1.000000
    4        2.166189   1.000000
    5       12.852352   0.000000
    6       13.489482   0.000000
    7       16.046414   0.000000
    8       21.502894   0.000000
    9       21.522075   0.000000
   10       28.899649   0.000000
   11       29.407629   0.000000
   12       31.967235   0.000000
   13       32.668024   0.000000
   14       37.800947   0.000000
   15       38.172920   0.000000
   16       41.098838   0.000000
 
  0.3750000E+00  0.3750000E+00  0.3750000E+00  0.3125000E-01
    1      -12.896667   1.000000
    2       -0.599727   1.000000
    3        2.861469   1.000000
    4        2.861469   1.000000
    5       10.897359   0.000000
    6       15.459271   0.000000
    7       19.529057   0.000000
    8       19.529059   0.000000
    9       24.078238   0.000000
   10       24.463858   0.000000
   11       24.463861   0.000000
   12       31.892031   0.000000
   13       33.263677   0.000000
   14       33.263680   0.000000
   15       36.845857   0.000000
   16       36.845861   0.000000
 
 -0.3750000E+00  0.3750000E+00  0.3750000E+00  0.9375000E-01
    1      -12.541272   1.000000
    2       -0.259802   1.000000
    3        1.085669   1.000000
    4        2.540145   1.000000
    5       13.073387   0.000000
    6       15.286694   0.000000
    7       16.144745   0.000000
    8       20.447793   0.000000
    9       22.495395   0.000000
   10       25.555300   0.000000
   11       29.088053   0.000000
   12       31.653860   0.000000
   13       32.100455   0.000000
   14       35.385741   0.000000
   15       37.238570   0.000000
   16       40.119807   0.000000
