# ['Ni']

10 atoms
1 atom types

    0.0000     3.5855 xlo xhi
    0.0000     2.5666 ylo yhi
    0.0000    25.6663 zlo zhi

    0.0000     0.0000     0.0000 xy xz yz

Atoms

1 1     0.0000     0.0000     0.0000
2 1     1.7927     1.2833     1.2833
3 1     0.0000     0.0000     2.5666
4 1     1.7927     1.2833     3.8499
5 1     0.0000     0.0000     5.1333
6 1     1.7927     1.2833     6.4166
7 1     0.0000     0.0000     7.6999
8 1     1.7927     1.2833     8.9832
9 1     0.0000     0.0000    10.2665
10 1     1.7927     1.2833    11.5498
