LAMMPS (11 Aug 2017)
include init.mod
# ---- init.mod file
variable up equal 1.0e-6
units metal
dimension 3
boundary p p p
atom_style atomic
atom_modify map array
variable cfac equal 1.0e-4
variable cunits string GPa
# ---- define minimization parameters
variable etol equal 0.0
variable ftol equal 1.0e-10
variable maxiter equal 100
variable maxeval equal 1000
variable dmax equal 1.0e-2
# --- read data structure
read_data lammps.structure
  triclinic box = (0 0 0) to (4.05 4.05 4.05) with tilt (0 -0 0)
  1 by 1 by 1 MPI processor grid
  reading atoms ...
  4 atoms
include potential.mod
mass 1 26.982

group Al type 1
4 atoms in group Al

pair_style eam/alloy
pair_coeff * * /home/sullberg/repos/pypospack/examples/Al__eam__born_exp_fs/pareto_optimization_3.5NN/rank_3/Al_fcc.lmps_elastic/Al.eam.alloy Al

neighbor 1.0 bin
neigh_modify every 1 delay 0 check yes
thermo	1
thermo_style custom step temp pe press pxx pyy pzz pxy pxz pyz lx ly lz vol
thermo_modify norm no
# ---- Compute initial state
fix 3 all box/relax aniso 0.0
minimize ${etol} ${ftol} ${maxiter} ${maxeval}
minimize 0 ${ftol} ${maxiter} ${maxeval}
minimize 0 1e-10 ${maxiter} ${maxeval}
minimize 0 1e-10 100 ${maxeval}
minimize 0 1e-10 100 1000
Neighbor list info ...
  update every 1 steps, delay 0 steps, check yes
  max neighbors/atom: 2000, page size: 100000
  master list distance cutoff = 6.34397
  ghost atom cutoff = 6.34397
  binsize = 3.17199, bins = 2 2 2
  1 neighbor lists, perpetual/occasional/extra = 1 0 0
  (1) pair eam/alloy, perpetual
      attributes: half, newton on
      pair build: half/bin/newton/tri
      stencil: half/bin/3d/newton/tri
      bin: standard
Per MPI rank memory allocation (min/avg/max) = 4.086 | 4.086 | 4.086 Mbytes
Step Temp PotEng Press Pxx Pyy Pzz Pxy Pxz Pyz Lx Ly Lz Volume 
       0            0   -5.9003282   -35746.629   -35746.629   -35746.629   -35746.629 4.1838446e-14 -1.0459611e-12 -1.129638e-12         4.05         4.05         4.05    66.430125 
       1            0   -5.9007722   -35652.868   -35652.868   -35652.868   -35652.868 -1.3978234e-11 -1.088126e-11 -9.751283e-12     4.049595     4.049595     4.049595    66.410198 
       2            0    -5.901215   -35558.916   -35558.916   -35558.916   -35558.916 9.0006652e-12 1.2433477e-11 7.8284855e-12      4.04919      4.04919      4.04919    66.390275 
       3            0   -5.9016565   -35464.772   -35464.772   -35464.772   -35464.772 -1.6750449e-13 5.5276482e-12 5.6114005e-12     4.048785     4.048785     4.048785    66.370356 
       4            0   -5.9020967   -35370.436   -35370.436   -35370.436   -35370.436 -7.7912967e-12 -8.7966254e-12 -7.2467437e-12      4.04838      4.04838      4.04838    66.350441 
       5            0   -5.9025357   -35275.908   -35275.908   -35275.908   -35275.908 2.4302734e-12 1.1732355e-12 3.1006937e-12     4.047975     4.047975     4.047975     66.33053 
       6            0   -5.9029734   -35181.187   -35181.187   -35181.187   -35181.187 -1.3831569e-12 -1.2993292e-12 -2.3052615e-12      4.04757      4.04757      4.04757    66.310623 
       7            0   -5.9034099   -35086.274   -35086.274   -35086.274   -35086.274 1.1529768e-11 9.2238145e-12 1.408728e-11     4.047165     4.047165     4.047165    66.290719 
       8            0   -5.9038451   -34991.167   -34991.167   -34991.167   -34991.167 -1.7614388e-12 2.3905241e-12 1.8872559e-12      4.04676      4.04676      4.04676     66.27082 
       9            0    -5.904279   -34895.867   -34895.867   -34895.867   -34895.867 -1.5815758e-11 -1.5689903e-11 -1.6822597e-11     4.046355     4.046355     4.046355    66.250925 
      10            0   -5.9047116   -34800.373   -34800.373   -34800.373   -34800.373 6.126775e-12 8.9803415e-12 6.6303456e-12      4.04595      4.04595      4.04595    66.231034 
      11            0    -5.905143   -34704.685   -34704.685   -34704.685   -34704.685 4.6174499e-13 -3.9877976e-12 -4.1976817e-12     4.045545     4.045545     4.045545    66.211147 
      12            0   -5.9055731   -34608.803   -34608.803   -34608.803   -34608.803 -8.8177796e-12 -8.5238536e-12 -5.2066889e-12      4.04514      4.04514      4.04514    66.191263 
      13            0   -5.9060019   -34512.727   -34512.727   -34512.727   -34512.727 -1.2600612e-13 -4.5362204e-12 -3.9061898e-12     4.044735     4.044735     4.044735    66.171384 
      14            0   -5.9064295   -34416.455   -34416.455   -34416.455   -34416.455 -7.9827855e-13 3.3611728e-13 -1.5545424e-12      4.04433      4.04433      4.04433    66.151509 
      15            0   -5.9068557   -34319.989   -34319.989   -34319.989   -34319.989 9.5401937e-12 1.3953059e-11 1.3826977e-11     4.043925     4.043925     4.043925    66.131638 
      16            0   -5.9072807   -34223.327   -34223.327   -34223.327   -34223.327 -5.0447898e-13 3.6154327e-12 4.8766301e-12      4.04352      4.04352      4.04352     66.11177 
      17            0   -5.9077044   -34126.469   -34126.469   -34126.469   -34126.469 -1.3162448e-11 -8.8310354e-12 -6.6443028e-12     4.043115     4.043115     4.043115    66.091907 
      18            0   -5.9081268   -34029.415   -34029.415   -34029.415   -34029.415 8.0344511e-12 3.2390196e-12 3.5755411e-12      4.04271      4.04271      4.04271    66.072048 
      19            0   -5.9085479   -33932.165   -33932.165   -33932.165   -33932.165 -5.4701184e-13 4.1236277e-12 3.2820711e-12     4.042305     4.042305     4.042305    66.052192 
      20            0   -5.9089677   -33834.718   -33834.718   -33834.718   -33834.718 -5.9347582e-12 -3.2830578e-12 -2.693791e-12       4.0419       4.0419       4.0419    66.032341 
      21            0   -5.9093863   -33737.075   -33737.075   -33737.075   -33737.075 1.4104552e-11 1.5199233e-11 1.4525583e-11     4.041495     4.041495     4.041495    66.012493 
      22            0   -5.9098035   -33639.234   -33639.234   -33639.234   -33639.234            0 -1.263474e-12 8.4231598e-13      4.04109      4.04109      4.04109     65.99265 
      23            0   -5.9102194   -33541.196   -33541.196   -33541.196   -33541.196 -8.3414359e-12 -7.7937659e-12 -8.2993074e-12     4.040685     4.040685     4.040685    65.972811 
      24            0   -5.9106341    -33442.96    -33442.96    -33442.96    -33442.96 1.7699276e-12 -2.9077383e-12 -3.455573e-12      4.04028      4.04028      4.04028    65.952975 
      25            0   -5.9110474   -33344.526   -33344.526   -33344.526   -33344.526 3.3723048e-13 2.444921e-12 5.0584572e-13     4.039875     4.039875     4.039875    65.933144 
      26            0   -5.9114595   -33245.893   -33245.893   -33245.893   -33245.893 7.3369693e-12 6.0298081e-12 5.0599788e-13      4.03947      4.03947      4.03947    65.913316 
      27            0   -5.9118702   -33147.062   -33147.062   -33147.062   -33147.062 1.4762711e-12 4.6397093e-13 4.6397093e-13     4.039065     4.039065     4.039065    65.893493 
      28            0   -5.9122796   -33048.032   -33048.032   -33048.032   -33048.032 -7.4257684e-12 -7.3835766e-12 -6.9616579e-12      4.03866      4.03866      4.03866    65.873673 
      29            0   -5.9126878   -32948.803   -32948.803   -32948.803   -32948.803 6.6683208e-12 9.2850036e-12 9.242799e-12     4.038255     4.038255     4.038255    65.853857 
      30            0   -5.9130946   -32849.374   -32849.374   -32849.374   -32849.374 -1.6886905e-13 -2.0686459e-12 -2.6174703e-12      4.03785      4.03785      4.03785    65.834046 
      31            0   -5.9135001   -32749.746   -32749.746   -32749.746   -32749.746 -1.376697e-11 -1.7652127e-11 -1.7609897e-11     4.037445     4.037445     4.037445    65.814238 
      32            0   -5.9139043   -32649.917   -32649.917   -32649.917   -32649.917 8.4485359e-14 -7.1812555e-13 -1.0983097e-12      4.03704      4.03704      4.03704    65.794434 
      33            0   -5.9143071   -32549.887   -32549.887   -32549.887   -32549.887 -1.2254065e-12 4.2255395e-14 -5.0706474e-12     4.036635     4.036635     4.036635    65.774635 
      34            0   -5.9147087   -32449.657   -32449.657   -32449.657   -32449.657 1.2300022e-11 1.0820638e-11 1.2511362e-11      4.03623      4.03623      4.03623    65.754839 
      35            0   -5.9151089   -32349.226   -32349.226   -32349.226   -32349.226 2.1140421e-13  7.52599e-12 5.9615988e-12     4.035825     4.035825     4.035825    65.735047 
      36            0   -5.9155078   -32248.594   -32248.594   -32248.594   -32248.594 -1.9539631e-11 -2.1992659e-11 -2.2965411e-11      4.03542      4.03542      4.03542    65.715259 
      37            0   -5.9159054    -32147.76    -32147.76    -32147.76    -32147.76 9.5189199e-12 1.2480362e-11  1.34111e-11     4.035015     4.035015     4.035015    65.695476 
      38            0   -5.9163017   -32046.724   -32046.724   -32046.724   -32046.724 1.650443e-12 2.0313145e-12 1.608124e-12      4.03461      4.03461      4.03461    65.675696 
      39            0   -5.9166966   -31945.486   -31945.486   -31945.486   -31945.486 -1.0201964e-11 -1.1514249e-11 -1.1556581e-11     4.034205     4.034205     4.034205     65.65592 
      40            0   -5.9170902   -31844.045   -31844.045   -31844.045   -31844.045 1.6514375e-11 1.1094272e-11 1.1475373e-11       4.0338       4.0338       4.0338    65.636148 
      41            0   -5.9174825   -31742.401   -31742.401   -31742.401   -31742.401 -3.2191554e-12 -3.30387e-12 -4.6593038e-12     4.033395     4.033395     4.033395     65.61638 
      42            0   -5.9178734   -31640.554   -31640.554   -31640.554   -31640.554 -1.6651437e-11 -1.5676926e-11 -1.4109233e-11      4.03299      4.03299      4.03299    65.596616 
      43            0    -5.918263   -31538.504   -31538.504   -31538.504   -31538.504 -4.2382837e-14 2.1191418e-13 1.1443366e-12     4.032585     4.032585     4.032585    65.576856 
      44            0   -5.9186513    -31436.25    -31436.25    -31436.25    -31436.25 -1.3142639e-12            0 -3.5612312e-12      4.03218      4.03218      4.03218      65.5571 
      45            0   -5.9190382   -31333.792   -31333.792   -31333.792   -31333.792 1.1662306e-11  1.36555e-11 1.2043982e-11     4.031775     4.031775     4.031775    65.537348 
      46            0   -5.9194238    -31231.13    -31231.13    -31231.13    -31231.13 6.3631754e-13 -1.2726351e-13 -5.8117002e-12      4.03137      4.03137      4.03137      65.5176 
      47            0    -5.919808   -31128.262   -31128.262   -31128.262   -31128.262 -1.3536432e-11 -1.3578866e-11 -1.1032829e-11     4.030965     4.030965     4.030965    65.497856 
      48            0   -5.9201909    -31025.19    -31025.19    -31025.19    -31025.19  8.48935e-12 2.6316985e-12 2.546805e-12      4.03056      4.03056      4.03056    65.478116 
      49            0   -5.9205725   -30921.913   -30921.913   -30921.913   -30921.913 9.765696e-13 2.2078965e-12 2.1229774e-12     4.030155     4.030155     4.030155    65.458379 
      50            0   -5.9209526    -30818.43    -30818.43    -30818.43    -30818.43 -1.2996539e-11 -1.4483072e-11 -1.6734106e-11      4.02975      4.02975      4.02975    65.438647 
      51            0   -5.9213315   -30714.741   -30714.741   -30714.741   -30714.741 4.6733675e-13 2.5915947e-12 9.7715866e-13     4.029345     4.029345     4.029345    65.418919 
      52            0    -5.921709   -30610.846   -30610.846   -30610.846   -30610.846 -4.2497973e-14 3.7823196e-12 2.8473642e-12      4.02894      4.02894      4.02894    65.399195 
      53            0   -5.9220851   -30506.745   -30506.745   -30506.745   -30506.745 1.3475921e-11 1.2455662e-11 1.2923281e-11     4.028535     4.028535     4.028535    65.379474 
      54            0   -5.9224599   -30402.436   -30402.436   -30402.436   -30402.436 -2.9766531e-13 -4.7626449e-12 -3.2317948e-12      4.02813      4.02813      4.02813    65.359758 
      55            0   -5.9228333   -30297.921   -30297.921   -30297.921   -30297.921 -8.5072888e-14 -6.5931488e-12 -5.1469097e-12     4.027725     4.027725     4.027725    65.340045 
      56            0   -5.9232053   -30193.198   -30193.198   -30193.198   -30193.198 1.591343e-11 1.2892431e-11 1.4509304e-11      4.02732      4.02732      4.02732    65.320337 
      57            0    -5.923576   -30088.267   -30088.267   -30088.267   -30088.267 1.7876089e-12 -4.6818329e-12 -2.7665376e-12     4.026915     4.026915     4.026915    65.300633 
      58            0   -5.9239454   -29983.129   -29983.129   -29983.129   -29983.129 -1.4560637e-11 -1.5241836e-11 -1.3794288e-11      4.02651      4.02651      4.02651    65.280932 
      59            0   -5.9243133   -29877.782   -29877.782   -29877.782   -29877.782 2.6830321e-12 1.3202222e-12 1.8312759e-12     4.026105     4.026105     4.026105    65.261235 
      60            0   -5.9246799   -29772.226   -29772.226   -29772.226   -29772.226 -9.7981532e-13 7.1569119e-12 6.9439086e-12       4.0257       4.0257       4.0257    65.241543 
      61            0   -5.9250451   -29666.461   -29666.461   -29666.461   -29666.461 -6.0085072e-12 -9.3323622e-12 -6.9886183e-12     4.025295     4.025295     4.025295    65.221854 
      62            0   -5.9254089   -29560.487   -29560.487   -29560.487   -29560.487 -1.1509126e-12 -3.6658696e-12 -3.708496e-12      4.02489      4.02489      4.02489     65.20217 
      63            0   -5.9257714   -29454.304   -29454.304   -29454.304   -29454.304 1.7055705e-13 1.0659815e-12 2.9847483e-12     4.024485     4.024485     4.024485    65.182489 
      64            0   -5.9261325    -29347.91    -29347.91    -29347.91    -29347.91 8.0186017e-12 9.3834701e-12 9.5540787e-12      4.02408      4.02408      4.02408    65.162812 
      65            0   -5.9264922   -29241.307   -29241.307   -29241.307   -29241.307 -6.3997526e-13 5.9731025e-13 -5.9731025e-13     4.023675     4.023675     4.023675    65.143139 
      66            0   -5.9268505   -29134.492   -29134.492   -29134.492   -29134.492 -1.0456086e-11 -8.3648691e-12 -9.5171725e-12      4.02327      4.02327      4.02327    65.123471 
      67            0   -5.9272074   -29027.467   -29027.467   -29027.467   -29027.467 7.0866719e-12 3.8421715e-12 4.781369e-12     4.022865     4.022865     4.022865    65.103806 
      68            0    -5.927563   -28920.231   -28920.231   -28920.231   -28920.231            0 2.6476288e-12 3.8006285e-12      4.02246      4.02246      4.02246    65.084145 
      69            0   -5.9279172   -28812.783   -28812.783   -28812.783   -28812.783 -7.7744198e-12 -8.9277678e-12 -1.1191747e-11     4.022055     4.022055     4.022055    65.064488 
      70            0   -5.9282699   -28705.124   -28705.124   -28705.124   -28705.124 1.5425349e-11 1.7476365e-11 1.7348176e-11      4.02165      4.02165      4.02165    65.044835 
      71            0   -5.9286213   -28597.252   -28597.252   -28597.252   -28597.252 3.8468169e-13 2.5645446e-12 1.8806661e-12     4.021245     4.021245     4.021245    65.025186 
      72            0   -5.9289713   -28489.168   -28489.168   -28489.168   -28489.168 -1.6161514e-11 -1.6503556e-11 -1.3553439e-11      4.02084      4.02084      4.02084    65.005541 
      73            0   -5.9293199   -28380.871   -28380.871   -28380.871   -28380.871 -1.4968887e-12 -1.6251935e-12 -2.0101077e-12     4.020435     4.020435     4.020435      64.9859 
      74            0   -5.9296671   -28272.362   -28272.362   -28272.362   -28272.362 -1.1123106e-12 -1.7968094e-12 2.1390589e-13      4.02003      4.02003      4.02003    64.966262 
      75            0   -5.9300128   -28163.638   -28163.638   -28163.638   -28163.638 6.9326458e-12 4.1510287e-12 6.4191165e-12     4.019625     4.019625     4.019625    64.946629 
      76            0   -5.9303572   -28054.702   -28054.702   -28054.702   -28054.702 1.2842114e-13 -1.4126326e-12 -1.9263171e-12      4.01922      4.01922      4.01922       64.927 
      77            0   -5.9307002   -27945.551   -27945.551   -27945.551   -27945.551 -9.206298e-12 -8.7352781e-12 -1.1047558e-11     4.018815     4.018815     4.018815    64.907375 
      78            0   -5.9310418   -27836.186   -27836.186   -27836.186   -27836.186 8.6950866e-12 1.5848187e-12 3.1696375e-12      4.01841      4.01841      4.01841    64.887753 
      79            0   -5.9313819   -27726.606   -27726.606   -27726.606   -27726.606 -2.2279864e-12 -3.5562091e-12 -1.8423734e-12     4.018005     4.018005     4.018005    64.868136 
      80            0   -5.9317207   -27616.811   -27616.811   -27616.811   -27616.811 -6.643122e-12 -3.6001435e-12 -6.4288277e-12       4.0176       4.0176       4.0176    64.848523 
      81            0    -5.932058   -27506.801   -27506.801   -27506.801   -27506.801 -4.7158997e-13 2.8295398e-12 3.4297452e-12     4.017195     4.017195     4.017195    64.828913 
      82            0   -5.9323939   -27396.575   -27396.575   -27396.575   -27396.575 -1.4151979e-12 -3.5165523e-12 -1.5009675e-12      4.01679      4.01679      4.01679    64.809308 
      83            0   -5.9327284   -27286.134   -27286.134   -27286.134   -27286.134 8.2792675e-12 1.0638644e-11 1.0552849e-11     4.016385     4.016385     4.016385    64.789706 
      84            0   -5.9330615   -27175.476   -27175.476   -27175.476   -27175.476 1.0727685e-12 2.8750195e-12 2.3600906e-12      4.01598      4.01598      4.01598    64.770108 
      85            0   -5.9333932   -27064.601   -27064.601   -27064.601   -27064.601 -7.8121177e-12 -5.8376264e-12 -1.1718176e-11     4.015575     4.015575     4.015575    64.750515 
      86            0   -5.9337234    -26953.51    -26953.51    -26953.51    -26953.51 1.1292356e-11 6.8269375e-12 7.5568616e-12      4.01517      4.01517      4.01517    64.730925 
      87            0   -5.9340522   -26842.202   -26842.202   -26842.202   -26842.202 2.5769825e-13 -2.4481334e-12 -2.662882e-12     4.014765     4.014765     4.014765    64.711339 
      88            0   -5.9343796   -26730.676   -26730.676   -26730.676   -26730.676 -1.3576216e-11 -1.7099158e-11 -1.7099158e-11      4.01436      4.01436      4.01436    64.691757 
      89            0   -5.9347056   -26618.932   -26618.932   -26618.932   -26618.932 9.0249002e-12 9.067876e-12 7.9934831e-12     4.013955     4.013955     4.013955     64.67218 
      90            0   -5.9350301    -26506.97    -26506.97    -26506.97    -26506.97 -9.4575198e-13 1.2896618e-12 5.5885345e-13      4.01355      4.01355      4.01355    64.652606 
      91            0   -5.9353532   -26394.789   -26394.789   -26394.789   -26394.789 -1.0707434e-11 -5.9772423e-12 -6.8802789e-12     4.013145     4.013145     4.013145    64.633036 
      92            0   -5.9356748    -26282.39    -26282.39    -26282.39    -26282.39 -4.3014765e-14 3.3551516e-12 3.8713288e-12      4.01274      4.01274      4.01274     64.61347 
      93            0   -5.9359951   -26169.771   -26169.771   -26169.771   -26169.771 6.4541687e-13 3.2270844e-12 2.3665285e-12     4.012335     4.012335     4.012335    64.593908 
      94            0   -5.9363138   -26056.934   -26056.934   -26056.934   -26056.934 8.6512055e-12 7.1878175e-12 7.9625524e-12      4.01193      4.01193      4.01193     64.57435 
      95            0   -5.9366312   -25943.876   -25943.876   -25943.876   -25943.876 1.549939e-12 2.152693e-13 -9.902388e-13     4.011525     4.011525     4.011525    64.554795 
      96            0    -5.936947   -25830.598   -25830.598   -25830.598   -25830.598 -1.3566075e-11 -1.6839159e-11 -1.8174233e-11      4.01112      4.01112      4.01112    64.535245 
      97            0   -5.9372615     -25717.1     -25717.1     -25717.1     -25717.1 1.8696699e-11 1.6499621e-11 1.9084419e-11     4.010715     4.010715     4.010715    64.515699 
      98            0   -5.9375745   -25603.381   -25603.381   -25603.381   -25603.381 6.0330207e-13 -6.8948808e-13 -4.2231145e-12      4.01031      4.01031      4.01031    64.496157 
      99            0    -5.937886    -25489.44    -25489.44    -25489.44    -25489.44 -9.1815915e-12 -1.3104243e-11 -1.3104243e-11     4.009905     4.009905     4.009905    64.476618 
     100            0   -5.9381961   -25375.279   -25375.279   -25375.279   -25375.279 -3.0183389e-13 -9.4862079e-13 2.1128372e-12       4.0095       4.0095       4.0095    64.457084 
Loop time of 0.00231504 on 1 procs for 100 steps with 4 atoms

98.4% CPU use with 1 MPI tasks x no OpenMP threads

Minimization stats:
  Stopping criterion = max iterations
  Energy initial, next-to-last, final = 
        -5.90032822945     -5.93788599824     -5.93819608072
  Force two-norm initial, final = 2.56715 1.78606
  Force max component initial, final = 1.48214 1.03118
  Final line search alpha, max atom move = 9.65221e-05 9.9532e-05
  Iterations, force evaluations = 100 100

MPI task timing breakdown:
Section |  min time  |  avg time  |  max time  |%varavg| %total
---------------------------------------------------------------
Pair    | 0.00084043 | 0.00084043 | 0.00084043 |   0.0 | 36.30
Neigh   | 0          | 0          | 0          |   0.0 |  0.00
Comm    | 0.00017571 | 0.00017571 | 0.00017571 |   0.0 |  7.59
Output  | 0.00072098 | 0.00072098 | 0.00072098 |   0.0 | 31.14
Modify  | 0          | 0          | 0          |   0.0 |  0.00
Other   |            | 0.0005779  |            |       | 24.96

Nlocal:    4 ave 4 max 4 min
Histogram: 1 0 0 0 0 0 0 0 0 0
Nghost:    360 ave 360 max 360 min
Histogram: 1 0 0 0 0 0 0 0 0 0
Neighs:    108 ave 108 max 108 min
Histogram: 1 0 0 0 0 0 0 0 0 0

Total # of neighbors = 108
Ave neighs/atom = 27
Neighbor list builds = 0
Dangerous builds = 0

variable tmp equal pxx
variable pxx0 equal ${tmp}
variable pxx0 equal -25375.2786574371
variable tmp equal pyy
variable pyy0 equal ${tmp}
variable pyy0 equal -25375.2786574371
variable tmp equal pzz
variable pzz0 equal ${tmp}
variable pzz0 equal -25375.2786574371
variable tmp equal pyz
variable pyz0 equal ${tmp}
variable pyz0 equal 2.11283722475804e-12
variable tmp equal pxz
variable pxz0 equal ${tmp}
variable pxz0 equal -9.48620794789326e-13
variable tmp equal pxy
variable pxy0 equal ${tmp}
variable pxy0 equal -3.01833889251149e-13

variable tmp equal lx
variable lx0 equal ${tmp}
variable lx0 equal 4.00949999999997
variable tmp equal ly
variable ly0 equal ${tmp}
variable ly0 equal 4.00949999999997
variable tmp equal lz
variable lz0 equal ${tmp}
variable lz0 equal 4.00949999999997

 # ---- define the derivatives w.r.t. strain components
variable d1 equal -(v_pxx1-${pxx0})/(v_delta/v_len0)*${cfac}
variable d1 equal -(v_pxx1--25375.2786574371)/(v_delta/v_len0)*${cfac}
variable d1 equal -(v_pxx1--25375.2786574371)/(v_delta/v_len0)*0.0001
variable d2 equal -(v_pyy1-${pyy0})/(v_delta/v_len0)*${cfac}
variable d2 equal -(v_pyy1--25375.2786574371)/(v_delta/v_len0)*${cfac}
variable d2 equal -(v_pyy1--25375.2786574371)/(v_delta/v_len0)*0.0001
variable d3 equal -(v_pzz1-${pzz0})/(v_delta/v_len0)*${cfac}
variable d3 equal -(v_pzz1--25375.2786574371)/(v_delta/v_len0)*${cfac}
variable d3 equal -(v_pzz1--25375.2786574371)/(v_delta/v_len0)*0.0001
variable d4 equal -(v_pyz1-${pyz0})/(v_delta/v_len0)*${cfac}
variable d4 equal -(v_pyz1-2.11283722475804e-12)/(v_delta/v_len0)*${cfac}
variable d4 equal -(v_pyz1-2.11283722475804e-12)/(v_delta/v_len0)*0.0001
variable d5 equal -(v_pxz1-${pxz0})/(v_delta/v_len0)*${cfac}
variable d5 equal -(v_pxz1--9.48620794789326e-13)/(v_delta/v_len0)*${cfac}
variable d5 equal -(v_pxz1--9.48620794789326e-13)/(v_delta/v_len0)*0.0001
variable d6 equal -(v_pxy1-${pxy0})/(v_delta/v_len0)*${cfac}
variable d6 equal -(v_pxy1--3.01833889251149e-13)/(v_delta/v_len0)*${cfac}
variable d6 equal -(v_pxy1--3.01833889251149e-13)/(v_delta/v_len0)*0.0001

# ---- write restart files
unfix 3
write_restart restart.equil
# ---- uxx Perturbation
variable dir equal 1
include displace.mod
# NOTE: This script should not need to be
# modified. See in.elastic for more info.
# Find which reference length to use

if "${dir} == 1" then    "variable len0 equal ${lx0}"
variable len0 equal ${lx0}
variable len0 equal 4.00949999999997
if "${dir} == 2" then    "variable len0 equal ${ly0}"
if "${dir} == 3" then    "variable len0 equal ${lz0}"
if "${dir} == 4" then    "variable len0 equal ${lz0}"
if "${dir} == 5" then    "variable len0 equal ${lz0}"
if "${dir} == 6" then    "variable len0 equal ${ly0}"

# Reset box and simulation parameters

clear
read_restart restart.equil remap
  triclinic box = (0.02025 0.02025 0.02025) to (4.02975 4.02975 4.02975) with tilt (0 -0 0)
  1 by 1 by 1 MPI processor grid
  4 atoms
include potential.mod
mass 1 26.982

group Al type 1
4 atoms in group Al

pair_style eam/alloy
pair_coeff * * /home/sullberg/repos/pypospack/examples/Al__eam__born_exp_fs/pareto_optimization_3.5NN/rank_3/Al_fcc.lmps_elastic/Al.eam.alloy Al

neighbor 1.0 bin
neigh_modify every 1 delay 0 check yes
thermo	1
thermo_style custom step temp pe press pxx pyy pzz pxy pxz pyz lx ly lz vol
thermo_modify norm no

# Negative deformation

variable delta equal -${up}*${len0}
variable delta equal -1e-06*${len0}
variable delta equal -1e-06*4.00949999999997
if "${dir} == 1" then    "change_box all x delta 0 ${delta} remap units box"
change_box all x delta 0 ${delta} remap units box
change_box all x delta 0 -4.00949999999997e-06 remap units box
  triclinic box = (0.02025 0.02025 0.02025) to (4.02975 4.02975 4.02975) with tilt (0 -0 0)
if "${dir} == 2" then    "change_box all y delta 0 ${delta} remap units box"
if "${dir} == 3" then    "change_box all z delta 0 ${delta} remap units box"
if "${dir} == 4" then    "change_box all yz delta ${delta} remap units box"
if "${dir} == 5" then    "change_box all xz delta ${delta} remap units box"
if "${dir} == 6" then    "change_box all xy delta ${delta} remap units box"

# Relax atoms positions

minimize ${etol} ${ftol} ${maxiter} ${maxeval}
minimize 0 ${ftol} ${maxiter} ${maxeval}
minimize 0 1e-10 ${maxiter} ${maxeval}
minimize 0 1e-10 100 ${maxeval}
minimize 0 1e-10 100 1000
Neighbor list info ...
  update every 1 steps, delay 0 steps, check yes
  max neighbors/atom: 2000, page size: 100000
  master list distance cutoff = 6.34397
  ghost atom cutoff = 6.34397
  binsize = 3.17199, bins = 2 2 2
  1 neighbor lists, perpetual/occasional/extra = 1 0 0
  (1) pair eam/alloy, perpetual
      attributes: half, newton on
      pair build: half/bin/newton/tri
      stencil: half/bin/3d/newton/tri
      bin: standard
Per MPI rank memory allocation (min/avg/max) = 4.086 | 4.086 | 4.086 Mbytes
Step Temp PotEng Press Pxx Pyy Pzz Pxy Pxz Pyz Lx Ly Lz Volume 
     100            0   -5.9381971   -25374.902   -25374.812   -25374.946   -25374.946 -1.1210984e-12 -1.1210984e-12 2.544031e-12     4.009496       4.0095       4.0095    64.457019 
     101            0   -5.9381971   -25374.902   -25374.812   -25374.946   -25374.946 -1.1642176e-12 -9.0550257e-13 2.6302694e-12     4.009496       4.0095       4.0095    64.457019 
Loop time of 0.001091 on 1 procs for 1 steps with 4 atoms

5.6% CPU use with 1 MPI tasks x no OpenMP threads

Minimization stats:
  Stopping criterion = quadratic factors are zero
  Energy initial, next-to-last, final = 
        -5.93819710158     -5.93819710158     -5.93819710158
  Force two-norm initial, final = 2.50185e-17 2.50185e-17
  Force max component initial, final = 2.08167e-17 2.08167e-17
  Final line search alpha, max atom move = 1 2.08167e-17
  Iterations, force evaluations = 1 2

MPI task timing breakdown:
Section |  min time  |  avg time  |  max time  |%varavg| %total
---------------------------------------------------------------
Pair    | 2.9087e-05 | 2.9087e-05 | 2.9087e-05 |   0.0 |  2.67
Neigh   | 0          | 0          | 0          |   0.0 |  0.00
Comm    | 6.6757e-06 | 6.6757e-06 | 6.6757e-06 |   0.0 |  0.61
Output  | 0          | 0          | 0          |   0.0 |  0.00
Modify  | 0          | 0          | 0          |   0.0 |  0.00
Other   |            | 0.001055   |            |       | 96.72

Nlocal:    4 ave 4 max 4 min
Histogram: 1 0 0 0 0 0 0 0 0 0
Nghost:    360 ave 360 max 360 min
Histogram: 1 0 0 0 0 0 0 0 0 0
Neighs:    156 ave 156 max 156 min
Histogram: 1 0 0 0 0 0 0 0 0 0

Total # of neighbors = 156
Ave neighs/atom = 39
Neighbor list builds = 0
Dangerous builds = 0

# Obtain new stress tensor

variable tmp equal pxx
variable pxx1 equal ${tmp}
variable pxx1 equal -25374.8122794749
variable tmp equal pyy
variable pyy1 equal ${tmp}
variable pyy1 equal -25374.9461956703
variable tmp equal pzz
variable pzz1 equal ${tmp}
variable pzz1 equal -25374.9461956703
variable tmp equal pxy
variable pxy1 equal ${tmp}
variable pxy1 equal -1.16421759418631e-12
variable tmp equal pxz
variable pxz1 equal ${tmp}
variable pxz1 equal -9.05502573256021e-13
variable tmp equal pyz
variable pyz1 equal ${tmp}
variable pyz1 equal 2.63026937945797e-12

# Compute elastic constant from pressure tensor

variable C1neg equal ${d1}
variable C1neg equal 46.6377962198749
variable C2neg equal ${d2}
variable C2neg equal 33.2461766796769
variable C3neg equal ${d3}
variable C3neg equal 33.2461766796769
variable C4neg equal ${d4}
variable C4neg equal 5.1743215469993e-11
variable C5neg equal ${d5}
variable C5neg equal 4.3118221533305e-12
variable C6neg equal ${d6}
variable C6neg equal -8.62383704935161e-11

# Reset box and simulation parameters

clear
read_restart restart.equil remap
  triclinic box = (0.02025 0.02025 0.02025) to (4.02975 4.02975 4.02975) with tilt (0 -0 0)
  1 by 1 by 1 MPI processor grid
  4 atoms
include potential.mod
mass 1 26.982

group Al type 1
4 atoms in group Al

pair_style eam/alloy
pair_coeff * * /home/sullberg/repos/pypospack/examples/Al__eam__born_exp_fs/pareto_optimization_3.5NN/rank_3/Al_fcc.lmps_elastic/Al.eam.alloy Al

neighbor 1.0 bin
neigh_modify every 1 delay 0 check yes
thermo	1
thermo_style custom step temp pe press pxx pyy pzz pxy pxz pyz lx ly lz vol
thermo_modify norm no

# Positive deformation

variable delta equal ${up}*${len0}
variable delta equal 1e-06*${len0}
variable delta equal 1e-06*4.00949999999997
if "${dir} == 1" then    "change_box all x delta 0 ${delta} remap units box"
change_box all x delta 0 ${delta} remap units box
change_box all x delta 0 4.00949999999997e-06 remap units box
  triclinic box = (0.02025 0.02025 0.02025) to (4.02975 4.02975 4.02975) with tilt (0 -0 0)
if "${dir} == 2" then    "change_box all y delta 0 ${delta} remap units box"
if "${dir} == 3" then    "change_box all z delta 0 ${delta} remap units box"
if "${dir} == 4" then    "change_box all yz delta ${delta} remap units box"
if "${dir} == 5" then    "change_box all xz delta ${delta} remap units box"
if "${dir} == 6" then    "change_box all xy delta ${delta} remap units box"

# Relax atoms positions

minimize ${etol} ${ftol} ${maxiter} ${maxeval}
minimize 0 ${ftol} ${maxiter} ${maxeval}
minimize 0 1e-10 ${maxiter} ${maxeval}
minimize 0 1e-10 100 ${maxeval}
minimize 0 1e-10 100 1000
Neighbor list info ...
  update every 1 steps, delay 0 steps, check yes
  max neighbors/atom: 2000, page size: 100000
  master list distance cutoff = 6.34397
  ghost atom cutoff = 6.34397
  binsize = 3.17199, bins = 2 2 2
  1 neighbor lists, perpetual/occasional/extra = 1 0 0
  (1) pair eam/alloy, perpetual
      attributes: half, newton on
      pair build: half/bin/newton/tri
      stencil: half/bin/3d/newton/tri
      bin: standard
Per MPI rank memory allocation (min/avg/max) = 4.086 | 4.086 | 4.086 Mbytes
Step Temp PotEng Press Pxx Pyy Pzz Pxy Pxz Pyz Lx Ly Lz Volume 
     100            0   -5.9381951   -25375.656   -25375.745   -25375.611   -25375.611 -6.4678626e-13 -1.7247634e-12 -1.6385252e-12     4.009504       4.0095       4.0095    64.457148 
     101            0   -5.9381951   -25375.656   -25375.745   -25375.611   -25375.611 -3.0183359e-13 -3.4495267e-13 -1.3798107e-12     4.009504       4.0095       4.0095    64.457148 
Loop time of 0.000203133 on 1 procs for 1 steps with 4 atoms

41.4% CPU use with 1 MPI tasks x no OpenMP threads

Minimization stats:
  Stopping criterion = quadratic factors are zero
  Energy initial, next-to-last, final = 
        -5.93819505984     -5.93819505984     -5.93819505984
  Force two-norm initial, final = 2.20112e-17 2.20112e-17
  Force max component initial, final = 1.04083e-17 1.04083e-17
  Final line search alpha, max atom move = 1 1.04083e-17
  Iterations, force evaluations = 1 2

MPI task timing breakdown:
Section |  min time  |  avg time  |  max time  |%varavg| %total
---------------------------------------------------------------
Pair    | 0.00017595 | 0.00017595 | 0.00017595 |   0.0 | 86.62
Neigh   | 0          | 0          | 0          |   0.0 |  0.00
Comm    | 7.1526e-06 | 7.1526e-06 | 7.1526e-06 |   0.0 |  3.52
Output  | 0          | 0          | 0          |   0.0 |  0.00
Modify  | 0          | 0          | 0          |   0.0 |  0.00
Other   |            | 2.003e-05  |            |       |  9.86

Nlocal:    4 ave 4 max 4 min
Histogram: 1 0 0 0 0 0 0 0 0 0
Nghost:    360 ave 360 max 360 min
Histogram: 1 0 0 0 0 0 0 0 0 0
Neighs:    156 ave 156 max 156 min
Histogram: 1 0 0 0 0 0 0 0 0 0

Total # of neighbors = 156
Ave neighs/atom = 39
Neighbor list builds = 0
Dangerous builds = 0

# Obtain new stress tensor

variable tmp equal pe
variable e1 equal ${tmp}
variable e1 equal -5.93819505983864
variable tmp equal press
variable p1 equal ${tmp}
variable p1 equal -25375.6557549539
variable tmp equal pxx
variable pxx1 equal ${tmp}
variable pxx1 equal -25375.7450322929
variable tmp equal pyy
variable pyy1 equal ${tmp}
variable pyy1 equal -25375.6111162844
variable tmp equal pzz
variable pzz1 equal ${tmp}
variable pzz1 equal -25375.6111162844
variable tmp equal pxy
variable pxy1 equal ${tmp}
variable pxy1 equal -3.01833587417562e-13
variable tmp equal pxz
variable pxz1 equal ${tmp}
variable pxz1 equal -3.44952671334356e-13
variable tmp equal pyz
variable pyz1 equal ${tmp}
variable pyz1 equal -1.37981068533743e-12

# Compute elastic constant from pressure tensor

variable C1pos equal ${d1}
variable C1pos equal 46.6374855801405
variable C2pos equal ${d2}
variable C2pos equal 33.2458847300586
variable C3pos equal ${d3}
variable C3pos equal 33.2458847300586
variable C4pos equal ${d4}
variable C4pos equal 3.49264791009547e-10
variable C5pos equal ${d5}
variable C5pos equal -6.0366812345497e-11
variable C6pos equal ${d6}
variable C6pos equal -3.01833587011368e-17

# Combine positive and negative

variable C1${dir} equal 0.5*(${C1neg}+${C1pos})
variable C11 equal 0.5*(${C1neg}+${C1pos})
variable C11 equal 0.5*(46.6377962198749+${C1pos})
variable C11 equal 0.5*(46.6377962198749+46.6374855801405)
variable C2${dir} equal 0.5*(${C2neg}+${C2pos})
variable C21 equal 0.5*(${C2neg}+${C2pos})
variable C21 equal 0.5*(33.2461766796769+${C2pos})
variable C21 equal 0.5*(33.2461766796769+33.2458847300586)
variable C3${dir} equal 0.5*(${C3neg}+${C3pos})
variable C31 equal 0.5*(${C3neg}+${C3pos})
variable C31 equal 0.5*(33.2461766796769+${C3pos})
variable C31 equal 0.5*(33.2461766796769+33.2458847300586)
variable C4${dir} equal 0.5*(${C4neg}+${C4pos})
variable C41 equal 0.5*(${C4neg}+${C4pos})
variable C41 equal 0.5*(5.1743215469993e-11+${C4pos})
variable C41 equal 0.5*(5.1743215469993e-11+3.49264791009547e-10)
variable C5${dir} equal 0.5*(${C5neg}+${C5pos})
variable C51 equal 0.5*(${C5neg}+${C5pos})
variable C51 equal 0.5*(4.3118221533305e-12+${C5pos})
variable C51 equal 0.5*(4.3118221533305e-12+-6.0366812345497e-11)
variable C6${dir} equal 0.5*(${C6neg}+${C6pos})
variable C61 equal 0.5*(${C6neg}+${C6pos})
variable C61 equal 0.5*(-8.62383704935161e-11+${C6pos})
variable C61 equal 0.5*(-8.62383704935161e-11+-3.01833587011368e-17)

# Delete dir to make sure it is not reused

variable dir delete
# ---- uyy Perturbation
variable dir equal 2
include displace.mod
# NOTE: This script should not need to be
# modified. See in.elastic for more info.
# Find which reference length to use

if "${dir} == 1" then    "variable len0 equal ${lx0}"
if "${dir} == 2" then    "variable len0 equal ${ly0}"
variable len0 equal ${ly0}
variable len0 equal 4.00949999999997
if "${dir} == 3" then    "variable len0 equal ${lz0}"
if "${dir} == 4" then    "variable len0 equal ${lz0}"
if "${dir} == 5" then    "variable len0 equal ${lz0}"
if "${dir} == 6" then    "variable len0 equal ${ly0}"

# Reset box and simulation parameters

clear
read_restart restart.equil remap
  triclinic box = (0.02025 0.02025 0.02025) to (4.02975 4.02975 4.02975) with tilt (0 -0 0)
  1 by 1 by 1 MPI processor grid
  4 atoms
include potential.mod
mass 1 26.982

group Al type 1
4 atoms in group Al

pair_style eam/alloy
pair_coeff * * /home/sullberg/repos/pypospack/examples/Al__eam__born_exp_fs/pareto_optimization_3.5NN/rank_3/Al_fcc.lmps_elastic/Al.eam.alloy Al

neighbor 1.0 bin
neigh_modify every 1 delay 0 check yes
thermo	1
thermo_style custom step temp pe press pxx pyy pzz pxy pxz pyz lx ly lz vol
thermo_modify norm no

# Negative deformation

variable delta equal -${up}*${len0}
variable delta equal -1e-06*${len0}
variable delta equal -1e-06*4.00949999999997
if "${dir} == 1" then    "change_box all x delta 0 ${delta} remap units box"
if "${dir} == 2" then    "change_box all y delta 0 ${delta} remap units box"
change_box all y delta 0 ${delta} remap units box
change_box all y delta 0 -4.00949999999997e-06 remap units box
  triclinic box = (0.02025 0.02025 0.02025) to (4.02975 4.02975 4.02975) with tilt (0 -0 0)
if "${dir} == 3" then    "change_box all z delta 0 ${delta} remap units box"
if "${dir} == 4" then    "change_box all yz delta ${delta} remap units box"
if "${dir} == 5" then    "change_box all xz delta ${delta} remap units box"
if "${dir} == 6" then    "change_box all xy delta ${delta} remap units box"

# Relax atoms positions

minimize ${etol} ${ftol} ${maxiter} ${maxeval}
minimize 0 ${ftol} ${maxiter} ${maxeval}
minimize 0 1e-10 ${maxiter} ${maxeval}
minimize 0 1e-10 100 ${maxeval}
minimize 0 1e-10 100 1000
Neighbor list info ...
  update every 1 steps, delay 0 steps, check yes
  max neighbors/atom: 2000, page size: 100000
  master list distance cutoff = 6.34397
  ghost atom cutoff = 6.34397
  binsize = 3.17199, bins = 2 2 2
  1 neighbor lists, perpetual/occasional/extra = 1 0 0
  (1) pair eam/alloy, perpetual
      attributes: half, newton on
      pair build: half/bin/newton/tri
      stencil: half/bin/3d/newton/tri
      bin: standard
Per MPI rank memory allocation (min/avg/max) = 4.086 | 4.086 | 4.086 Mbytes
Step Temp PotEng Press Pxx Pyy Pzz Pxy Pxz Pyz Lx Ly Lz Volume 
     100            0   -5.9381971   -25374.902   -25374.946   -25374.812   -25374.946 -4.7431087e-13 4.0100828e-12 1.5522901e-12       4.0095     4.009496       4.0095    64.457019 
     101            0   -5.9381971   -25374.902   -25374.946   -25374.812   -25374.946 -5.1743004e-13 4.1825595e-12 1.7247668e-12       4.0095     4.009496       4.0095    64.457019 
Loop time of 0.002074 on 1 procs for 1 steps with 4 atoms

3.2% CPU use with 1 MPI tasks x no OpenMP threads

Minimization stats:
  Stopping criterion = quadratic factors are zero
  Energy initial, next-to-last, final = 
        -5.93819710158     -5.93819710158     -5.93819710158
  Force two-norm initial, final = 3.27824e-17 3.27824e-17
  Force max component initial, final = 2.0383e-17 2.0383e-17
  Final line search alpha, max atom move = 1 2.0383e-17
  Iterations, force evaluations = 1 2

MPI task timing breakdown:
Section |  min time  |  avg time  |  max time  |%varavg| %total
---------------------------------------------------------------
Pair    | 0.0020502  | 0.0020502  | 0.0020502  |   0.0 | 98.85
Neigh   | 0          | 0          | 0          |   0.0 |  0.00
Comm    | 5.0068e-06 | 5.0068e-06 | 5.0068e-06 |   0.0 |  0.24
Output  | 0          | 0          | 0          |   0.0 |  0.00
Modify  | 0          | 0          | 0          |   0.0 |  0.00
Other   |            | 1.884e-05  |            |       |  0.91

Nlocal:    4 ave 4 max 4 min
Histogram: 1 0 0 0 0 0 0 0 0 0
Nghost:    360 ave 360 max 360 min
Histogram: 1 0 0 0 0 0 0 0 0 0
Neighs:    156 ave 156 max 156 min
Histogram: 1 0 0 0 0 0 0 0 0 0

Total # of neighbors = 156
Ave neighs/atom = 39
Neighbor list builds = 0
Dangerous builds = 0

# Obtain new stress tensor

variable tmp equal pxx
variable pxx1 equal ${tmp}
variable pxx1 equal -25374.9461956703
variable tmp equal pyy
variable pyy1 equal ${tmp}
variable pyy1 equal -25374.8122794749
variable tmp equal pzz
variable pzz1 equal ${tmp}
variable pzz1 equal -25374.9461956703
variable tmp equal pxy
variable pxy1 equal ${tmp}
variable pxy1 equal -5.17430041860583e-13
variable tmp equal pxz
variable pxz1 equal ${tmp}
variable pxz1 equal 4.18255950503971e-12
variable tmp equal pyz
variable pyz1 equal ${tmp}
variable pyz1 equal 1.72476680620194e-12

# Compute elastic constant from pressure tensor

variable C1neg equal ${d1}
variable C1neg equal 33.2461766796769
variable C2neg equal ${d2}
variable C2neg equal 46.6377962198749
variable C3neg equal ${d3}
variable C3neg equal 33.2461766796769
variable C4neg equal ${d4}
variable C4neg equal -3.880704185561e-11
variable C5neg equal ${d5}
variable C5neg equal 5.13118029982904e-10
variable C6neg equal ${d6}
variable C6neg equal -2.15596152609434e-11

# Reset box and simulation parameters

clear
read_restart restart.equil remap
  triclinic box = (0.02025 0.02025 0.02025) to (4.02975 4.02975 4.02975) with tilt (0 -0 0)
  1 by 1 by 1 MPI processor grid
  4 atoms
include potential.mod
mass 1 26.982

group Al type 1
4 atoms in group Al

pair_style eam/alloy
pair_coeff * * /home/sullberg/repos/pypospack/examples/Al__eam__born_exp_fs/pareto_optimization_3.5NN/rank_3/Al_fcc.lmps_elastic/Al.eam.alloy Al

neighbor 1.0 bin
neigh_modify every 1 delay 0 check yes
thermo	1
thermo_style custom step temp pe press pxx pyy pzz pxy pxz pyz lx ly lz vol
thermo_modify norm no

# Positive deformation

variable delta equal ${up}*${len0}
variable delta equal 1e-06*${len0}
variable delta equal 1e-06*4.00949999999997
if "${dir} == 1" then    "change_box all x delta 0 ${delta} remap units box"
if "${dir} == 2" then    "change_box all y delta 0 ${delta} remap units box"
change_box all y delta 0 ${delta} remap units box
change_box all y delta 0 4.00949999999997e-06 remap units box
  triclinic box = (0.02025 0.02025 0.02025) to (4.02975 4.02975 4.02975) with tilt (0 -0 0)
if "${dir} == 3" then    "change_box all z delta 0 ${delta} remap units box"
if "${dir} == 4" then    "change_box all yz delta ${delta} remap units box"
if "${dir} == 5" then    "change_box all xz delta ${delta} remap units box"
if "${dir} == 6" then    "change_box all xy delta ${delta} remap units box"

# Relax atoms positions

minimize ${etol} ${ftol} ${maxiter} ${maxeval}
minimize 0 ${ftol} ${maxiter} ${maxeval}
minimize 0 1e-10 ${maxiter} ${maxeval}
minimize 0 1e-10 100 ${maxeval}
minimize 0 1e-10 100 1000
Neighbor list info ...
  update every 1 steps, delay 0 steps, check yes
  max neighbors/atom: 2000, page size: 100000
  master list distance cutoff = 6.34397
  ghost atom cutoff = 6.34397
  binsize = 3.17199, bins = 2 2 2
  1 neighbor lists, perpetual/occasional/extra = 1 0 0
  (1) pair eam/alloy, perpetual
      attributes: half, newton on
      pair build: half/bin/newton/tri
      stencil: half/bin/3d/newton/tri
      bin: standard
Per MPI rank memory allocation (min/avg/max) = 4.086 | 4.086 | 4.086 Mbytes
Step Temp PotEng Press Pxx Pyy Pzz Pxy Pxz Pyz Lx Ly Lz Volume 
     100            0   -5.9381951   -25375.656   -25375.611   -25375.745   -25375.611 -1.2935725e-12 1.6816443e-12 -4.3119084e-13       4.0095     4.009504       4.0095    64.457148 
     101            0   -5.9381951   -25375.656   -25375.611   -25375.745   -25375.611 -9.4861985e-13 1.7247634e-12 1.034858e-12       4.0095     4.009504       4.0095    64.457148 
Loop time of 4.60148e-05 on 1 procs for 1 steps with 4 atoms

102.1% CPU use with 1 MPI tasks x no OpenMP threads

Minimization stats:
  Stopping criterion = quadratic factors are zero
  Energy initial, next-to-last, final = 
        -5.93819505984     -5.93819505984     -5.93819505984
  Force two-norm initial, final = 2.11394e-17 2.11394e-17
  Force max component initial, final = 1.21431e-17 1.21431e-17
  Final line search alpha, max atom move = 1 1.21431e-17
  Iterations, force evaluations = 1 2

MPI task timing breakdown:
Section |  min time  |  avg time  |  max time  |%varavg| %total
---------------------------------------------------------------
Pair    | 2.8133e-05 | 2.8133e-05 | 2.8133e-05 |   0.0 | 61.14
Neigh   | 0          | 0          | 0          |   0.0 |  0.00
Comm    | 5.722e-06  | 5.722e-06  | 5.722e-06  |   0.0 | 12.44
Output  | 0          | 0          | 0          |   0.0 |  0.00
Modify  | 0          | 0          | 0          |   0.0 |  0.00
Other   |            | 1.216e-05  |            |       | 26.42

Nlocal:    4 ave 4 max 4 min
Histogram: 1 0 0 0 0 0 0 0 0 0
Nghost:    360 ave 360 max 360 min
Histogram: 1 0 0 0 0 0 0 0 0 0
Neighs:    156 ave 156 max 156 min
Histogram: 1 0 0 0 0 0 0 0 0 0

Total # of neighbors = 156
Ave neighs/atom = 39
Neighbor list builds = 0
Dangerous builds = 0

# Obtain new stress tensor

variable tmp equal pe
variable e1 equal ${tmp}
variable e1 equal -5.93819505983864
variable tmp equal press
variable p1 equal ${tmp}
variable p1 equal -25375.6557549539
variable tmp equal pxx
variable pxx1 equal ${tmp}
variable pxx1 equal -25375.6111162844
variable tmp equal pyy
variable pyy1 equal ${tmp}
variable pyy1 equal -25375.7450322929
variable tmp equal pzz
variable pzz1 equal ${tmp}
variable pzz1 equal -25375.6111162844
variable tmp equal pxy
variable pxy1 equal ${tmp}
variable pxy1 equal -9.4861984616948e-13
variable tmp equal pxz
variable pxz1 equal ${tmp}
variable pxz1 equal 1.72476335667178e-12
variable tmp equal pyz
variable pyz1 equal ${tmp}
variable pyz1 equal 1.03485801400307e-12

# Compute elastic constant from pressure tensor

variable C1pos equal ${d1}
variable C1pos equal 33.2458847300586
variable C2pos equal ${d2}
variable C2pos equal 46.6374855801405
variable C3pos equal ${d3}
variable C3pos equal 33.2458847300586
variable C4pos equal ${d4}
variable C4pos equal 1.07797921075497e-10
variable C5pos equal ${d5}
variable C5pos equal -2.67338415146111e-10
variable C6pos equal ${d6}
variable C6pos equal 6.46785956918331e-11

# Combine positive and negative

variable C1${dir} equal 0.5*(${C1neg}+${C1pos})
variable C12 equal 0.5*(${C1neg}+${C1pos})
variable C12 equal 0.5*(33.2461766796769+${C1pos})
variable C12 equal 0.5*(33.2461766796769+33.2458847300586)
variable C2${dir} equal 0.5*(${C2neg}+${C2pos})
variable C22 equal 0.5*(${C2neg}+${C2pos})
variable C22 equal 0.5*(46.6377962198749+${C2pos})
variable C22 equal 0.5*(46.6377962198749+46.6374855801405)
variable C3${dir} equal 0.5*(${C3neg}+${C3pos})
variable C32 equal 0.5*(${C3neg}+${C3pos})
variable C32 equal 0.5*(33.2461766796769+${C3pos})
variable C32 equal 0.5*(33.2461766796769+33.2458847300586)
variable C4${dir} equal 0.5*(${C4neg}+${C4pos})
variable C42 equal 0.5*(${C4neg}+${C4pos})
variable C42 equal 0.5*(-3.880704185561e-11+${C4pos})
variable C42 equal 0.5*(-3.880704185561e-11+1.07797921075497e-10)
variable C5${dir} equal 0.5*(${C5neg}+${C5pos})
variable C52 equal 0.5*(${C5neg}+${C5pos})
variable C52 equal 0.5*(5.13118029982904e-10+${C5pos})
variable C52 equal 0.5*(5.13118029982904e-10+-2.67338415146111e-10)
variable C6${dir} equal 0.5*(${C6neg}+${C6pos})
variable C62 equal 0.5*(${C6neg}+${C6pos})
variable C62 equal 0.5*(-2.15596152609434e-11+${C6pos})
variable C62 equal 0.5*(-2.15596152609434e-11+6.46785956918331e-11)

# Delete dir to make sure it is not reused

variable dir delete
# ---- uzz Perturbation
variable dir equal 3
include displace.mod
# NOTE: This script should not need to be
# modified. See in.elastic for more info.
# Find which reference length to use

if "${dir} == 1" then    "variable len0 equal ${lx0}"
if "${dir} == 2" then    "variable len0 equal ${ly0}"
if "${dir} == 3" then    "variable len0 equal ${lz0}"
variable len0 equal ${lz0}
variable len0 equal 4.00949999999997
if "${dir} == 4" then    "variable len0 equal ${lz0}"
if "${dir} == 5" then    "variable len0 equal ${lz0}"
if "${dir} == 6" then    "variable len0 equal ${ly0}"

# Reset box and simulation parameters

clear
read_restart restart.equil remap
  triclinic box = (0.02025 0.02025 0.02025) to (4.02975 4.02975 4.02975) with tilt (0 -0 0)
  1 by 1 by 1 MPI processor grid
  4 atoms
include potential.mod
mass 1 26.982

group Al type 1
4 atoms in group Al

pair_style eam/alloy
pair_coeff * * /home/sullberg/repos/pypospack/examples/Al__eam__born_exp_fs/pareto_optimization_3.5NN/rank_3/Al_fcc.lmps_elastic/Al.eam.alloy Al

neighbor 1.0 bin
neigh_modify every 1 delay 0 check yes
thermo	1
thermo_style custom step temp pe press pxx pyy pzz pxy pxz pyz lx ly lz vol
thermo_modify norm no

# Negative deformation

variable delta equal -${up}*${len0}
variable delta equal -1e-06*${len0}
variable delta equal -1e-06*4.00949999999997
if "${dir} == 1" then    "change_box all x delta 0 ${delta} remap units box"
if "${dir} == 2" then    "change_box all y delta 0 ${delta} remap units box"
if "${dir} == 3" then    "change_box all z delta 0 ${delta} remap units box"
change_box all z delta 0 ${delta} remap units box
change_box all z delta 0 -4.00949999999997e-06 remap units box
  triclinic box = (0.02025 0.02025 0.02025) to (4.02975 4.02975 4.02975) with tilt (0 -0 0)
if "${dir} == 4" then    "change_box all yz delta ${delta} remap units box"
if "${dir} == 5" then    "change_box all xz delta ${delta} remap units box"
if "${dir} == 6" then    "change_box all xy delta ${delta} remap units box"

# Relax atoms positions

minimize ${etol} ${ftol} ${maxiter} ${maxeval}
minimize 0 ${ftol} ${maxiter} ${maxeval}
minimize 0 1e-10 ${maxiter} ${maxeval}
minimize 0 1e-10 100 ${maxeval}
minimize 0 1e-10 100 1000
Neighbor list info ...
  update every 1 steps, delay 0 steps, check yes
  max neighbors/atom: 2000, page size: 100000
  master list distance cutoff = 6.34397
  ghost atom cutoff = 6.34397
  binsize = 3.17199, bins = 2 2 2
  1 neighbor lists, perpetual/occasional/extra = 1 0 0
  (1) pair eam/alloy, perpetual
      attributes: half, newton on
      pair build: half/bin/newton/tri
      stencil: half/bin/3d/newton/tri
      bin: standard
Per MPI rank memory allocation (min/avg/max) = 4.086 | 4.086 | 4.086 Mbytes
Step Temp PotEng Press Pxx Pyy Pzz Pxy Pxz Pyz Lx Ly Lz Volume 
     100            0   -5.9381971   -25374.902   -25374.946   -25374.946   -25374.812 8.623834e-14 3.535772e-12 1.7247668e-13       4.0095       4.0095     4.009496    64.457019 
     101            0   -5.9381971   -25374.902   -25374.946   -25374.946   -25374.812 2.5871502e-13 3.5788911e-12 4.311917e-13       4.0095       4.0095     4.009496    64.457019 
Loop time of 5.79357e-05 on 1 procs for 1 steps with 4 atoms

100.1% CPU use with 1 MPI tasks x no OpenMP threads

Minimization stats:
  Stopping criterion = quadratic factors are zero
  Energy initial, next-to-last, final = 
        -5.93819710158     -5.93819710158     -5.93819710158
  Force two-norm initial, final = 2.65928e-17 2.65928e-17
  Force max component initial, final = 1.38778e-17 1.38778e-17
  Final line search alpha, max atom move = 1 1.38778e-17
  Iterations, force evaluations = 1 2

MPI task timing breakdown:
Section |  min time  |  avg time  |  max time  |%varavg| %total
---------------------------------------------------------------
Pair    | 2.9087e-05 | 2.9087e-05 | 2.9087e-05 |   0.0 | 50.21
Neigh   | 0          | 0          | 0          |   0.0 |  0.00
Comm    | 6.9141e-06 | 6.9141e-06 | 6.9141e-06 |   0.0 | 11.93
Output  | 0          | 0          | 0          |   0.0 |  0.00
Modify  | 0          | 0          | 0          |   0.0 |  0.00
Other   |            | 2.193e-05  |            |       | 37.86

Nlocal:    4 ave 4 max 4 min
Histogram: 1 0 0 0 0 0 0 0 0 0
Nghost:    360 ave 360 max 360 min
Histogram: 1 0 0 0 0 0 0 0 0 0
Neighs:    156 ave 156 max 156 min
Histogram: 1 0 0 0 0 0 0 0 0 0

Total # of neighbors = 156
Ave neighs/atom = 39
Neighbor list builds = 0
Dangerous builds = 0

# Obtain new stress tensor

variable tmp equal pxx
variable pxx1 equal ${tmp}
variable pxx1 equal -25374.9461956703
variable tmp equal pyy
variable pyy1 equal ${tmp}
variable pyy1 equal -25374.9461956703
variable tmp equal pzz
variable pzz1 equal ${tmp}
variable pzz1 equal -25374.8122794749
variable tmp equal pxy
variable pxy1 equal ${tmp}
variable pxy1 equal 2.58715020930292e-13
variable tmp equal pxz
variable pxz1 equal ${tmp}
variable pxz1 equal 3.57889112286903e-12
variable tmp equal pyz
variable pyz1 equal ${tmp}
variable pyz1 equal 4.31191701550486e-13

# Compute elastic constant from pressure tensor

variable C1neg equal ${d1}
variable C1neg equal 33.2461766796769
variable C2neg equal ${d2}
variable C2neg equal 33.2461766796769
variable C3neg equal ${d3}
variable C3neg equal 46.6377962198749
variable C4neg equal ${d4}
variable C4neg equal -1.68164552320755e-10
variable C5neg equal ${d5}
variable C5neg equal 4.52751191765836e-10
variable C6neg equal ${d6}
variable C6neg equal 5.60548910181441e-11

# Reset box and simulation parameters

clear
read_restart restart.equil remap
  triclinic box = (0.02025 0.02025 0.02025) to (4.02975 4.02975 4.02975) with tilt (0 -0 0)
  1 by 1 by 1 MPI processor grid
  4 atoms
include potential.mod
mass 1 26.982

group Al type 1
4 atoms in group Al

pair_style eam/alloy
pair_coeff * * /home/sullberg/repos/pypospack/examples/Al__eam__born_exp_fs/pareto_optimization_3.5NN/rank_3/Al_fcc.lmps_elastic/Al.eam.alloy Al

neighbor 1.0 bin
neigh_modify every 1 delay 0 check yes
thermo	1
thermo_style custom step temp pe press pxx pyy pzz pxy pxz pyz lx ly lz vol
thermo_modify norm no

# Positive deformation

variable delta equal ${up}*${len0}
variable delta equal 1e-06*${len0}
variable delta equal 1e-06*4.00949999999997
if "${dir} == 1" then    "change_box all x delta 0 ${delta} remap units box"
if "${dir} == 2" then    "change_box all y delta 0 ${delta} remap units box"
if "${dir} == 3" then    "change_box all z delta 0 ${delta} remap units box"
change_box all z delta 0 ${delta} remap units box
change_box all z delta 0 4.00949999999997e-06 remap units box
  triclinic box = (0.02025 0.02025 0.02025) to (4.02975 4.02975 4.02975) with tilt (0 -0 0)
if "${dir} == 4" then    "change_box all yz delta ${delta} remap units box"
if "${dir} == 5" then    "change_box all xz delta ${delta} remap units box"
if "${dir} == 6" then    "change_box all xy delta ${delta} remap units box"

# Relax atoms positions

minimize ${etol} ${ftol} ${maxiter} ${maxeval}
minimize 0 ${ftol} ${maxiter} ${maxeval}
minimize 0 1e-10 ${maxiter} ${maxeval}
minimize 0 1e-10 100 ${maxeval}
minimize 0 1e-10 100 1000
Neighbor list info ...
  update every 1 steps, delay 0 steps, check yes
  max neighbors/atom: 2000, page size: 100000
  master list distance cutoff = 6.34397
  ghost atom cutoff = 6.34397
  binsize = 3.17199, bins = 2 2 2
  1 neighbor lists, perpetual/occasional/extra = 1 0 0
  (1) pair eam/alloy, perpetual
      attributes: half, newton on
      pair build: half/bin/newton/tri
      stencil: half/bin/3d/newton/tri
      bin: standard
Per MPI rank memory allocation (min/avg/max) = 4.086 | 4.086 | 4.086 Mbytes
Step Temp PotEng Press Pxx Pyy Pzz Pxy Pxz Pyz Lx Ly Lz Volume 
     100            0   -5.9381951   -25375.656   -25375.611   -25375.611   -25375.745 -6.4678626e-13 -1.6385252e-12 -1.9403588e-12       4.0095       4.0095     4.009504    64.457148 
     101            0   -5.9381951   -25375.656   -25375.611   -25375.611   -25375.745 -6.8990534e-13 -1.6385252e-12 -1.9403588e-12       4.0095       4.0095     4.009504    64.457148 
Loop time of 4.60148e-05 on 1 procs for 1 steps with 4 atoms

102.1% CPU use with 1 MPI tasks x no OpenMP threads

Minimization stats:
  Stopping criterion = quadratic factors are zero
  Energy initial, next-to-last, final = 
        -5.93819505984     -5.93819505984     -5.93819505984
  Force two-norm initial, final = 4.34893e-17 4.34893e-17
  Force max component initial, final = 2.77556e-17 2.77556e-17
  Final line search alpha, max atom move = 1 2.77556e-17
  Iterations, force evaluations = 1 2

MPI task timing breakdown:
Section |  min time  |  avg time  |  max time  |%varavg| %total
---------------------------------------------------------------
Pair    | 2.6941e-05 | 2.6941e-05 | 2.6941e-05 |   0.0 | 58.55
Neigh   | 0          | 0          | 0          |   0.0 |  0.00
Comm    | 5.9605e-06 | 5.9605e-06 | 5.9605e-06 |   0.0 | 12.95
Output  | 0          | 0          | 0          |   0.0 |  0.00
Modify  | 0          | 0          | 0          |   0.0 |  0.00
Other   |            | 1.311e-05  |            |       | 28.50

Nlocal:    4 ave 4 max 4 min
Histogram: 1 0 0 0 0 0 0 0 0 0
Nghost:    360 ave 360 max 360 min
Histogram: 1 0 0 0 0 0 0 0 0 0
Neighs:    156 ave 156 max 156 min
Histogram: 1 0 0 0 0 0 0 0 0 0

Total # of neighbors = 156
Ave neighs/atom = 39
Neighbor list builds = 0
Dangerous builds = 0

# Obtain new stress tensor

variable tmp equal pe
variable e1 equal ${tmp}
variable e1 equal -5.93819505983864
variable tmp equal press
variable p1 equal ${tmp}
variable p1 equal -25375.6557549539
variable tmp equal pxx
variable pxx1 equal ${tmp}
variable pxx1 equal -25375.6111162844
variable tmp equal pyy
variable pyy1 equal ${tmp}
variable pyy1 equal -25375.6111162844
variable tmp equal pzz
variable pzz1 equal ${tmp}
variable pzz1 equal -25375.7450322929
variable tmp equal pxy
variable pxy1 equal ${tmp}
variable pxy1 equal -6.89905342668713e-13
variable tmp equal pxz
variable pxz1 equal ${tmp}
variable pxz1 equal -1.63852518883819e-12
variable tmp equal pyz
variable pyz1 equal ${tmp}
variable pyz1 equal -1.94035877625575e-12

# Compute elastic constant from pressure tensor

variable C1pos equal ${d1}
variable C1pos equal 33.2458847300586
variable C2pos equal ${d2}
variable C2pos equal 33.2458847300586
variable C3pos equal ${d3}
variable C3pos equal 46.6374855801405
variable C4pos equal ${d4}
variable C4pos equal 4.05319600101379e-10
variable C5pos equal ${d5}
variable C5pos equal 6.89904394048864e-11
variable C6pos equal ${d6}
variable C6pos equal 3.88071453417564e-11

# Combine positive and negative

variable C1${dir} equal 0.5*(${C1neg}+${C1pos})
variable C13 equal 0.5*(${C1neg}+${C1pos})
variable C13 equal 0.5*(33.2461766796769+${C1pos})
variable C13 equal 0.5*(33.2461766796769+33.2458847300586)
variable C2${dir} equal 0.5*(${C2neg}+${C2pos})
variable C23 equal 0.5*(${C2neg}+${C2pos})
variable C23 equal 0.5*(33.2461766796769+${C2pos})
variable C23 equal 0.5*(33.2461766796769+33.2458847300586)
variable C3${dir} equal 0.5*(${C3neg}+${C3pos})
variable C33 equal 0.5*(${C3neg}+${C3pos})
variable C33 equal 0.5*(46.6377962198749+${C3pos})
variable C33 equal 0.5*(46.6377962198749+46.6374855801405)
variable C4${dir} equal 0.5*(${C4neg}+${C4pos})
variable C43 equal 0.5*(${C4neg}+${C4pos})
variable C43 equal 0.5*(-1.68164552320755e-10+${C4pos})
variable C43 equal 0.5*(-1.68164552320755e-10+4.05319600101379e-10)
variable C5${dir} equal 0.5*(${C5neg}+${C5pos})
variable C53 equal 0.5*(${C5neg}+${C5pos})
variable C53 equal 0.5*(4.52751191765836e-10+${C5pos})
variable C53 equal 0.5*(4.52751191765836e-10+6.89904394048864e-11)
variable C6${dir} equal 0.5*(${C6neg}+${C6pos})
variable C63 equal 0.5*(${C6neg}+${C6pos})
variable C63 equal 0.5*(5.60548910181441e-11+${C6pos})
variable C63 equal 0.5*(5.60548910181441e-11+3.88071453417564e-11)

# Delete dir to make sure it is not reused

variable dir delete
# ---- uyz Perturbation
variable dir equal 4
include displace.mod
# NOTE: This script should not need to be
# modified. See in.elastic for more info.
# Find which reference length to use

if "${dir} == 1" then    "variable len0 equal ${lx0}"
if "${dir} == 2" then    "variable len0 equal ${ly0}"
if "${dir} == 3" then    "variable len0 equal ${lz0}"
if "${dir} == 4" then    "variable len0 equal ${lz0}"
variable len0 equal ${lz0}
variable len0 equal 4.00949999999997
if "${dir} == 5" then    "variable len0 equal ${lz0}"
if "${dir} == 6" then    "variable len0 equal ${ly0}"

# Reset box and simulation parameters

clear
read_restart restart.equil remap
  triclinic box = (0.02025 0.02025 0.02025) to (4.02975 4.02975 4.02975) with tilt (0 -0 0)
  1 by 1 by 1 MPI processor grid
  4 atoms
include potential.mod
mass 1 26.982

group Al type 1
4 atoms in group Al

pair_style eam/alloy
pair_coeff * * /home/sullberg/repos/pypospack/examples/Al__eam__born_exp_fs/pareto_optimization_3.5NN/rank_3/Al_fcc.lmps_elastic/Al.eam.alloy Al

neighbor 1.0 bin
neigh_modify every 1 delay 0 check yes
thermo	1
thermo_style custom step temp pe press pxx pyy pzz pxy pxz pyz lx ly lz vol
thermo_modify norm no

# Negative deformation

variable delta equal -${up}*${len0}
variable delta equal -1e-06*${len0}
variable delta equal -1e-06*4.00949999999997
if "${dir} == 1" then    "change_box all x delta 0 ${delta} remap units box"
if "${dir} == 2" then    "change_box all y delta 0 ${delta} remap units box"
if "${dir} == 3" then    "change_box all z delta 0 ${delta} remap units box"
if "${dir} == 4" then    "change_box all yz delta ${delta} remap units box"
change_box all yz delta ${delta} remap units box
change_box all yz delta -4.00949999999997e-06 remap units box
  triclinic box = (0.02025 0.02025 0.02025) to (4.02975 4.02975 4.02975) with tilt (0 -0 -4.0095e-06)
if "${dir} == 5" then    "change_box all xz delta ${delta} remap units box"
if "${dir} == 6" then    "change_box all xy delta ${delta} remap units box"

# Relax atoms positions

minimize ${etol} ${ftol} ${maxiter} ${maxeval}
minimize 0 ${ftol} ${maxiter} ${maxeval}
minimize 0 1e-10 ${maxiter} ${maxeval}
minimize 0 1e-10 100 ${maxeval}
minimize 0 1e-10 100 1000
Neighbor list info ...
  update every 1 steps, delay 0 steps, check yes
  max neighbors/atom: 2000, page size: 100000
  master list distance cutoff = 6.34397
  ghost atom cutoff = 6.34397
  binsize = 3.17199, bins = 2 2 2
  1 neighbor lists, perpetual/occasional/extra = 1 0 0
  (1) pair eam/alloy, perpetual
      attributes: half, newton on
      pair build: half/bin/newton/tri
      stencil: half/bin/3d/newton/tri
      bin: standard
Per MPI rank memory allocation (min/avg/max) = 4.086 | 4.086 | 4.086 Mbytes
Step Temp PotEng Press Pxx Pyy Pzz Pxy Pxz Pyz Lx Ly Lz Volume 
     100            0   -5.9381961   -25375.279   -25375.279   -25375.279   -25375.279 -1.4660503e-12 5.1742952e-13   0.20037945       4.0095       4.0095       4.0095    64.457084 
     101            0   -5.9381961   -25375.279   -25375.279   -25375.279   -25375.279            0 3.0183389e-13   0.20037945       4.0095       4.0095       4.0095    64.457084 
Loop time of 4.48227e-05 on 1 procs for 1 steps with 4 atoms

102.6% CPU use with 1 MPI tasks x no OpenMP threads

Minimization stats:
  Stopping criterion = quadratic factors are zero
  Energy initial, next-to-last, final = 
        -5.93819608072     -5.93819608072     -5.93819608072
  Force two-norm initial, final = 4.36469e-17 6.88672e-16
  Force max component initial, final = 2.81893e-17 3.56919e-16
  Final line search alpha, max atom move = 1 3.56919e-16
  Iterations, force evaluations = 1 2

MPI task timing breakdown:
Section |  min time  |  avg time  |  max time  |%varavg| %total
---------------------------------------------------------------
Pair    | 2.8133e-05 | 2.8133e-05 | 2.8133e-05 |   0.0 | 62.77
Neigh   | 0          | 0          | 0          |   0.0 |  0.00
Comm    | 4.7684e-06 | 4.7684e-06 | 4.7684e-06 |   0.0 | 10.64
Output  | 0          | 0          | 0          |   0.0 |  0.00
Modify  | 0          | 0          | 0          |   0.0 |  0.00
Other   |            | 1.192e-05  |            |       | 26.60

Nlocal:    4 ave 4 max 4 min
Histogram: 1 0 0 0 0 0 0 0 0 0
Nghost:    360 ave 360 max 360 min
Histogram: 1 0 0 0 0 0 0 0 0 0
Neighs:    156 ave 156 max 156 min
Histogram: 1 0 0 0 0 0 0 0 0 0

Total # of neighbors = 156
Ave neighs/atom = 39
Neighbor list builds = 0
Dangerous builds = 0

# Obtain new stress tensor

variable tmp equal pxx
variable pxx1 equal ${tmp}
variable pxx1 equal -25375.2786575086
variable tmp equal pyy
variable pyy1 equal ${tmp}
variable pyy1 equal -25375.2786569059
variable tmp equal pzz
variable pzz1 equal ${tmp}
variable pzz1 equal -25375.2786565721
variable tmp equal pxy
variable pxy1 equal ${tmp}
variable pxy1 equal 0
variable tmp equal pxz
variable pxz1 equal ${tmp}
variable pxz1 equal 3.01833889251149e-13
variable tmp equal pyz
variable pyz1 equal ${tmp}
variable pyz1 equal 0.200379453877332

# Compute elastic constant from pressure tensor

variable C1neg equal ${d1}
variable C1neg equal -7.15008354745805e-06
variable C2neg equal ${d2}
variable C2neg equal 5.31199475517496e-05
variable C3neg equal ${d3}
variable C3neg equal 8.64998582983389e-05
variable C4neg equal ${d4}
variable C4neg equal 20.0379453875219
variable C5neg equal ${d5}
variable C5neg equal 1.25045468404048e-10
variable C6neg equal ${d6}
variable C6neg equal 3.01833889251149e-11

# Reset box and simulation parameters

clear
read_restart restart.equil remap
  triclinic box = (0.02025 0.02025 0.02025) to (4.02975 4.02975 4.02975) with tilt (0 -0 0)
  1 by 1 by 1 MPI processor grid
  4 atoms
include potential.mod
mass 1 26.982

group Al type 1
4 atoms in group Al

pair_style eam/alloy
pair_coeff * * /home/sullberg/repos/pypospack/examples/Al__eam__born_exp_fs/pareto_optimization_3.5NN/rank_3/Al_fcc.lmps_elastic/Al.eam.alloy Al

neighbor 1.0 bin
neigh_modify every 1 delay 0 check yes
thermo	1
thermo_style custom step temp pe press pxx pyy pzz pxy pxz pyz lx ly lz vol
thermo_modify norm no

# Positive deformation

variable delta equal ${up}*${len0}
variable delta equal 1e-06*${len0}
variable delta equal 1e-06*4.00949999999997
if "${dir} == 1" then    "change_box all x delta 0 ${delta} remap units box"
if "${dir} == 2" then    "change_box all y delta 0 ${delta} remap units box"
if "${dir} == 3" then    "change_box all z delta 0 ${delta} remap units box"
if "${dir} == 4" then    "change_box all yz delta ${delta} remap units box"
change_box all yz delta ${delta} remap units box
change_box all yz delta 4.00949999999997e-06 remap units box
  triclinic box = (0.02025 0.02025 0.02025) to (4.02975 4.02975 4.02975) with tilt (0 -0 4.0095e-06)
if "${dir} == 5" then    "change_box all xz delta ${delta} remap units box"
if "${dir} == 6" then    "change_box all xy delta ${delta} remap units box"

# Relax atoms positions

minimize ${etol} ${ftol} ${maxiter} ${maxeval}
minimize 0 ${ftol} ${maxiter} ${maxeval}
minimize 0 1e-10 ${maxiter} ${maxeval}
minimize 0 1e-10 100 ${maxeval}
minimize 0 1e-10 100 1000
Neighbor list info ...
  update every 1 steps, delay 0 steps, check yes
  max neighbors/atom: 2000, page size: 100000
  master list distance cutoff = 6.34397
  ghost atom cutoff = 6.34397
  binsize = 3.17199, bins = 2 2 2
  1 neighbor lists, perpetual/occasional/extra = 1 0 0
  (1) pair eam/alloy, perpetual
      attributes: half, newton on
      pair build: half/bin/newton/tri
      stencil: half/bin/3d/newton/tri
      bin: standard
Per MPI rank memory allocation (min/avg/max) = 4.086 | 4.086 | 4.086 Mbytes
Step Temp PotEng Press Pxx Pyy Pzz Pxy Pxz Pyz Lx Ly Lz Volume 
     100            0   -5.9381961   -25375.279   -25375.279   -25375.279   -25375.279 5.1742952e-13 -2.6733859e-12  -0.20037945       4.0095       4.0095       4.0095    64.457084 
     101            0   -5.9381961   -25375.279   -25375.279   -25375.279   -25375.279 3.4495302e-13 -1.9834798e-12  -0.20037945       4.0095       4.0095       4.0095    64.457084 
Loop time of 5.38826e-05 on 1 procs for 1 steps with 4 atoms

100.2% CPU use with 1 MPI tasks x no OpenMP threads

Minimization stats:
  Stopping criterion = quadratic factors are zero
  Energy initial, next-to-last, final = 
        -5.93819608072     -5.93819608072     -5.93819608072
  Force two-norm initial, final = 3.81626e-15 3.9876e-15
  Force max component initial, final = 3.09301e-15 3.22659e-15
  Final line search alpha, max atom move = 1 3.22659e-15
  Iterations, force evaluations = 1 2

MPI task timing breakdown:
Section |  min time  |  avg time  |  max time  |%varavg| %total
---------------------------------------------------------------
Pair    | 2.8133e-05 | 2.8133e-05 | 2.8133e-05 |   0.0 | 52.21
Neigh   | 0          | 0          | 0          |   0.0 |  0.00
Comm    | 5.9605e-06 | 5.9605e-06 | 5.9605e-06 |   0.0 | 11.06
Output  | 0          | 0          | 0          |   0.0 |  0.00
Modify  | 0          | 0          | 0          |   0.0 |  0.00
Other   |            | 1.979e-05  |            |       | 36.73

Nlocal:    4 ave 4 max 4 min
Histogram: 1 0 0 0 0 0 0 0 0 0
Nghost:    360 ave 360 max 360 min
Histogram: 1 0 0 0 0 0 0 0 0 0
Neighs:    156 ave 156 max 156 min
Histogram: 1 0 0 0 0 0 0 0 0 0

Total # of neighbors = 156
Ave neighs/atom = 39
Neighbor list builds = 0
Dangerous builds = 0

# Obtain new stress tensor

variable tmp equal pe
variable e1 equal ${tmp}
variable e1 equal -5.93819608071558
variable tmp equal press
variable p1 equal ${tmp}
variable p1 equal -25375.2786569955
variable tmp equal pxx
variable pxx1 equal ${tmp}
variable pxx1 equal -25375.2786575086
variable tmp equal pyy
variable pyy1 equal ${tmp}
variable pyy1 equal -25375.2786569059
variable tmp equal pzz
variable pzz1 equal ${tmp}
variable pzz1 equal -25375.2786565721
variable tmp equal pxy
variable pxy1 equal ${tmp}
variable pxy1 equal 3.44953016287028e-13
variable tmp equal pxz
variable pxz1 equal ${tmp}
variable pxz1 equal -1.98347984365041e-12
variable tmp equal pyz
variable pyz1 equal ${tmp}
variable pyz1 equal -0.200379453874099

# Compute elastic constant from pressure tensor

variable C1pos equal ${d1}
variable C1pos equal 7.15008354745805e-06
variable C2pos equal ${d2}
variable C2pos equal -5.31199475517496e-05
variable C3pos equal ${d3}
variable C3pos equal -8.64998582983389e-05
variable C4pos equal ${d4}
variable C4pos equal 20.0379453876212
variable C5pos equal ${d5}
variable C5pos equal 1.03485904886108e-10
variable C6pos equal ${d6}
variable C6pos equal -6.46786905538177e-11

# Combine positive and negative

variable C1${dir} equal 0.5*(${C1neg}+${C1pos})
variable C14 equal 0.5*(${C1neg}+${C1pos})
variable C14 equal 0.5*(-7.15008354745805e-06+${C1pos})
variable C14 equal 0.5*(-7.15008354745805e-06+7.15008354745805e-06)
variable C2${dir} equal 0.5*(${C2neg}+${C2pos})
variable C24 equal 0.5*(${C2neg}+${C2pos})
variable C24 equal 0.5*(5.31199475517496e-05+${C2pos})
variable C24 equal 0.5*(5.31199475517496e-05+-5.31199475517496e-05)
variable C3${dir} equal 0.5*(${C3neg}+${C3pos})
variable C34 equal 0.5*(${C3neg}+${C3pos})
variable C34 equal 0.5*(8.64998582983389e-05+${C3pos})
variable C34 equal 0.5*(8.64998582983389e-05+-8.64998582983389e-05)
variable C4${dir} equal 0.5*(${C4neg}+${C4pos})
variable C44 equal 0.5*(${C4neg}+${C4pos})
variable C44 equal 0.5*(20.0379453875219+${C4pos})
variable C44 equal 0.5*(20.0379453875219+20.0379453876212)
variable C5${dir} equal 0.5*(${C5neg}+${C5pos})
variable C54 equal 0.5*(${C5neg}+${C5pos})
variable C54 equal 0.5*(1.25045468404048e-10+${C5pos})
variable C54 equal 0.5*(1.25045468404048e-10+1.03485904886108e-10)
variable C6${dir} equal 0.5*(${C6neg}+${C6pos})
variable C64 equal 0.5*(${C6neg}+${C6pos})
variable C64 equal 0.5*(3.01833889251149e-11+${C6pos})
variable C64 equal 0.5*(3.01833889251149e-11+-6.46786905538177e-11)

# Delete dir to make sure it is not reused

variable dir delete
# ---- uxz Perturbation
variable dir equal 5
include displace.mod
# NOTE: This script should not need to be
# modified. See in.elastic for more info.
# Find which reference length to use

if "${dir} == 1" then    "variable len0 equal ${lx0}"
if "${dir} == 2" then    "variable len0 equal ${ly0}"
if "${dir} == 3" then    "variable len0 equal ${lz0}"
if "${dir} == 4" then    "variable len0 equal ${lz0}"
if "${dir} == 5" then    "variable len0 equal ${lz0}"
variable len0 equal ${lz0}
variable len0 equal 4.00949999999997
if "${dir} == 6" then    "variable len0 equal ${ly0}"

# Reset box and simulation parameters

clear
read_restart restart.equil remap
  triclinic box = (0.02025 0.02025 0.02025) to (4.02975 4.02975 4.02975) with tilt (0 -0 0)
  1 by 1 by 1 MPI processor grid
  4 atoms
include potential.mod
mass 1 26.982

group Al type 1
4 atoms in group Al

pair_style eam/alloy
pair_coeff * * /home/sullberg/repos/pypospack/examples/Al__eam__born_exp_fs/pareto_optimization_3.5NN/rank_3/Al_fcc.lmps_elastic/Al.eam.alloy Al

neighbor 1.0 bin
neigh_modify every 1 delay 0 check yes
thermo	1
thermo_style custom step temp pe press pxx pyy pzz pxy pxz pyz lx ly lz vol
thermo_modify norm no

# Negative deformation

variable delta equal -${up}*${len0}
variable delta equal -1e-06*${len0}
variable delta equal -1e-06*4.00949999999997
if "${dir} == 1" then    "change_box all x delta 0 ${delta} remap units box"
if "${dir} == 2" then    "change_box all y delta 0 ${delta} remap units box"
if "${dir} == 3" then    "change_box all z delta 0 ${delta} remap units box"
if "${dir} == 4" then    "change_box all yz delta ${delta} remap units box"
if "${dir} == 5" then    "change_box all xz delta ${delta} remap units box"
change_box all xz delta ${delta} remap units box
change_box all xz delta -4.00949999999997e-06 remap units box
  triclinic box = (0.02025 0.02025 0.02025) to (4.02975 4.02975 4.02975) with tilt (0 -4.0095e-06 0)
if "${dir} == 6" then    "change_box all xy delta ${delta} remap units box"

# Relax atoms positions

minimize ${etol} ${ftol} ${maxiter} ${maxeval}
minimize 0 ${ftol} ${maxiter} ${maxeval}
minimize 0 1e-10 ${maxiter} ${maxeval}
minimize 0 1e-10 100 ${maxeval}
minimize 0 1e-10 100 1000
Neighbor list info ...
  update every 1 steps, delay 0 steps, check yes
  max neighbors/atom: 2000, page size: 100000
  master list distance cutoff = 6.34397
  ghost atom cutoff = 6.34397
  binsize = 3.17199, bins = 2 2 2
  1 neighbor lists, perpetual/occasional/extra = 1 0 0
  (1) pair eam/alloy, perpetual
      attributes: half, newton on
      pair build: half/bin/newton/tri
      stencil: half/bin/3d/newton/tri
      bin: standard
Per MPI rank memory allocation (min/avg/max) = 4.086 | 4.086 | 4.086 Mbytes
Step Temp PotEng Press Pxx Pyy Pzz Pxy Pxz Pyz Lx Ly Lz Volume 
     100            0   -5.9381961   -25375.279   -25375.279   -25375.279   -25375.279 -1.0779782e-11   0.20037945 -1.7678842e-12       4.0095       4.0095       4.0095    64.457084 
     101            0   -5.9381961   -25375.279   -25375.279   -25375.279   -25375.279 1.0779782e-12   0.20037945 7.7614429e-13       4.0095       4.0095       4.0095    64.457084 
Loop time of 4.48227e-05 on 1 procs for 1 steps with 4 atoms

102.6% CPU use with 1 MPI tasks x no OpenMP threads

Minimization stats:
  Stopping criterion = quadratic factors are zero
  Energy initial, next-to-last, final = 
        -5.93819608072     -5.93819608072     -5.93819608072
  Force two-norm initial, final = 3.97347e-16 5.78838e-16
  Force max component initial, final = 2.01228e-16 3.1225e-16
  Final line search alpha, max atom move = 1 3.1225e-16
  Iterations, force evaluations = 1 2

MPI task timing breakdown:
Section |  min time  |  avg time  |  max time  |%varavg| %total
---------------------------------------------------------------
Pair    | 2.8133e-05 | 2.8133e-05 | 2.8133e-05 |   0.0 | 62.77
Neigh   | 0          | 0          | 0          |   0.0 |  0.00
Comm    | 5.9605e-06 | 5.9605e-06 | 5.9605e-06 |   0.0 | 13.30
Output  | 0          | 0          | 0          |   0.0 |  0.00
Modify  | 0          | 0          | 0          |   0.0 |  0.00
Other   |            | 1.073e-05  |            |       | 23.94

Nlocal:    4 ave 4 max 4 min
Histogram: 1 0 0 0 0 0 0 0 0 0
Nghost:    360 ave 360 max 360 min
Histogram: 1 0 0 0 0 0 0 0 0 0
Neighs:    156 ave 156 max 156 min
Histogram: 1 0 0 0 0 0 0 0 0 0

Total # of neighbors = 156
Ave neighs/atom = 39
Neighbor list builds = 0
Dangerous builds = 0

# Obtain new stress tensor

variable tmp equal pxx
variable pxx1 equal ${tmp}
variable pxx1 equal -25375.2786569059
variable tmp equal pyy
variable pyy1 equal ${tmp}
variable pyy1 equal -25375.2786575086
variable tmp equal pzz
variable pzz1 equal ${tmp}
variable pzz1 equal -25375.2786565721
variable tmp equal pxy
variable pxy1 equal ${tmp}
variable pxy1 equal 1.07797817589696e-12
variable tmp equal pxz
variable pxz1 equal ${tmp}
variable pxz1 equal 0.20037945387578
variable tmp equal pyz
variable pyz1 equal ${tmp}
variable pyz1 equal 7.76144286645812e-13

# Compute elastic constant from pressure tensor

variable C1neg equal ${d1}
variable C1neg equal 5.31199475517496e-05
variable C2neg equal ${d2}
variable C2neg equal -7.15008354745805e-06
variable C3neg equal ${d3}
variable C3neg equal 8.64998582983389e-05
variable C4neg equal ${d4}
variable C4neg equal -1.33669293811223e-10
variable C5neg equal ${d5}
variable C5neg equal 20.0379453876729
variable C6neg equal ${d6}
variable C6neg equal 1.37981206514811e-10

# Reset box and simulation parameters

clear
read_restart restart.equil remap
  triclinic box = (0.02025 0.02025 0.02025) to (4.02975 4.02975 4.02975) with tilt (0 -0 0)
  1 by 1 by 1 MPI processor grid
  4 atoms
include potential.mod
mass 1 26.982

group Al type 1
4 atoms in group Al

pair_style eam/alloy
pair_coeff * * /home/sullberg/repos/pypospack/examples/Al__eam__born_exp_fs/pareto_optimization_3.5NN/rank_3/Al_fcc.lmps_elastic/Al.eam.alloy Al

neighbor 1.0 bin
neigh_modify every 1 delay 0 check yes
thermo	1
thermo_style custom step temp pe press pxx pyy pzz pxy pxz pyz lx ly lz vol
thermo_modify norm no

# Positive deformation

variable delta equal ${up}*${len0}
variable delta equal 1e-06*${len0}
variable delta equal 1e-06*4.00949999999997
if "${dir} == 1" then    "change_box all x delta 0 ${delta} remap units box"
if "${dir} == 2" then    "change_box all y delta 0 ${delta} remap units box"
if "${dir} == 3" then    "change_box all z delta 0 ${delta} remap units box"
if "${dir} == 4" then    "change_box all yz delta ${delta} remap units box"
if "${dir} == 5" then    "change_box all xz delta ${delta} remap units box"
change_box all xz delta ${delta} remap units box
change_box all xz delta 4.00949999999997e-06 remap units box
  triclinic box = (0.02025 0.02025 0.02025) to (4.02975 4.02975 4.02975) with tilt (0 4.0095e-06 0)
if "${dir} == 6" then    "change_box all xy delta ${delta} remap units box"

# Relax atoms positions

minimize ${etol} ${ftol} ${maxiter} ${maxeval}
minimize 0 ${ftol} ${maxiter} ${maxeval}
minimize 0 1e-10 ${maxiter} ${maxeval}
minimize 0 1e-10 100 ${maxeval}
minimize 0 1e-10 100 1000
Neighbor list info ...
  update every 1 steps, delay 0 steps, check yes
  max neighbors/atom: 2000, page size: 100000
  master list distance cutoff = 6.34397
  ghost atom cutoff = 6.34397
  binsize = 3.17199, bins = 2 2 2
  1 neighbor lists, perpetual/occasional/extra = 1 0 0
  (1) pair eam/alloy, perpetual
      attributes: half, newton on
      pair build: half/bin/newton/tri
      stencil: half/bin/3d/newton/tri
      bin: standard
Per MPI rank memory allocation (min/avg/max) = 4.086 | 4.086 | 4.086 Mbytes
Step Temp PotEng Press Pxx Pyy Pzz Pxy Pxz Pyz Lx Ly Lz Volume 
     100            0   -5.9381961   -25375.279   -25375.279   -25375.279   -25375.279 -1.0219233e-11  -0.20037945 -3.4495302e-13       4.0095       4.0095       4.0095    64.457084 
     101            0   -5.9381961   -25375.279   -25375.279   -25375.279   -25375.279 5.1311761e-12  -0.20037945 -1.8541225e-12       4.0095       4.0095       4.0095    64.457084 
Loop time of 4.60148e-05 on 1 procs for 1 steps with 4 atoms

100.0% CPU use with 1 MPI tasks x no OpenMP threads

Minimization stats:
  Stopping criterion = quadratic factors are zero
  Energy initial, next-to-last, final = 
        -5.93819608072     -5.93819608072     -5.93819608072
  Force two-norm initial, final = 3.57026e-15 4.14418e-15
  Force max component initial, final = 2.89352e-15 3.35149e-15
  Final line search alpha, max atom move = 1 3.35149e-15
  Iterations, force evaluations = 1 2

MPI task timing breakdown:
Section |  min time  |  avg time  |  max time  |%varavg| %total
---------------------------------------------------------------
Pair    | 2.7895e-05 | 2.7895e-05 | 2.7895e-05 |   0.0 | 60.62
Neigh   | 0          | 0          | 0          |   0.0 |  0.00
Comm    | 5.2452e-06 | 5.2452e-06 | 5.2452e-06 |   0.0 | 11.40
Output  | 0          | 0          | 0          |   0.0 |  0.00
Modify  | 0          | 0          | 0          |   0.0 |  0.00
Other   |            | 1.287e-05  |            |       | 27.98

Nlocal:    4 ave 4 max 4 min
Histogram: 1 0 0 0 0 0 0 0 0 0
Nghost:    360 ave 360 max 360 min
Histogram: 1 0 0 0 0 0 0 0 0 0
Neighs:    156 ave 156 max 156 min
Histogram: 1 0 0 0 0 0 0 0 0 0

Total # of neighbors = 156
Ave neighs/atom = 39
Neighbor list builds = 0
Dangerous builds = 0

# Obtain new stress tensor

variable tmp equal pe
variable e1 equal ${tmp}
variable e1 equal -5.93819608071558
variable tmp equal press
variable p1 equal ${tmp}
variable p1 equal -25375.2786569955
variable tmp equal pxx
variable pxx1 equal ${tmp}
variable pxx1 equal -25375.2786569059
variable tmp equal pyy
variable pyy1 equal ${tmp}
variable pyy1 equal -25375.2786575086
variable tmp equal pzz
variable pzz1 equal ${tmp}
variable pzz1 equal -25375.2786565721
variable tmp equal pxy
variable pxy1 equal ${tmp}
variable pxy1 equal 5.13117611726954e-12
variable tmp equal pxz
variable pxz1 equal ${tmp}
variable pxz1 equal -0.200379453872417
variable tmp equal pyz
variable pyz1 equal ${tmp}
variable pyz1 equal -1.85412246254277e-12

# Compute elastic constant from pressure tensor

variable C1pos equal ${d1}
variable C1pos equal -5.31199475517496e-05
variable C2pos equal ${d2}
variable C2pos equal 7.15008354745805e-06
variable C3pos equal ${d3}
variable C3pos equal -8.64998582983389e-05
variable C4pos equal ${d4}
variable C4pos equal 3.96695968730081e-10
variable C5pos equal ${d5}
variable C5pos equal 20.0379453871468
variable C6pos equal ${d6}
variable C6pos equal -5.43301000652069e-10

# Combine positive and negative

variable C1${dir} equal 0.5*(${C1neg}+${C1pos})
variable C15 equal 0.5*(${C1neg}+${C1pos})
variable C15 equal 0.5*(5.31199475517496e-05+${C1pos})
variable C15 equal 0.5*(5.31199475517496e-05+-5.31199475517496e-05)
variable C2${dir} equal 0.5*(${C2neg}+${C2pos})
variable C25 equal 0.5*(${C2neg}+${C2pos})
variable C25 equal 0.5*(-7.15008354745805e-06+${C2pos})
variable C25 equal 0.5*(-7.15008354745805e-06+7.15008354745805e-06)
variable C3${dir} equal 0.5*(${C3neg}+${C3pos})
variable C35 equal 0.5*(${C3neg}+${C3pos})
variable C35 equal 0.5*(8.64998582983389e-05+${C3pos})
variable C35 equal 0.5*(8.64998582983389e-05+-8.64998582983389e-05)
variable C4${dir} equal 0.5*(${C4neg}+${C4pos})
variable C45 equal 0.5*(${C4neg}+${C4pos})
variable C45 equal 0.5*(-1.33669293811223e-10+${C4pos})
variable C45 equal 0.5*(-1.33669293811223e-10+3.96695968730081e-10)
variable C5${dir} equal 0.5*(${C5neg}+${C5pos})
variable C55 equal 0.5*(${C5neg}+${C5pos})
variable C55 equal 0.5*(20.0379453876729+${C5pos})
variable C55 equal 0.5*(20.0379453876729+20.0379453871468)
variable C6${dir} equal 0.5*(${C6neg}+${C6pos})
variable C65 equal 0.5*(${C6neg}+${C6pos})
variable C65 equal 0.5*(1.37981206514811e-10+${C6pos})
variable C65 equal 0.5*(1.37981206514811e-10+-5.43301000652069e-10)

# Delete dir to make sure it is not reused

variable dir delete
# ---- uxy Perturbation
variable dir equal 6
include displace.mod
# NOTE: This script should not need to be
# modified. See in.elastic for more info.
# Find which reference length to use

if "${dir} == 1" then    "variable len0 equal ${lx0}"
if "${dir} == 2" then    "variable len0 equal ${ly0}"
if "${dir} == 3" then    "variable len0 equal ${lz0}"
if "${dir} == 4" then    "variable len0 equal ${lz0}"
if "${dir} == 5" then    "variable len0 equal ${lz0}"
if "${dir} == 6" then    "variable len0 equal ${ly0}"
variable len0 equal ${ly0}
variable len0 equal 4.00949999999997

# Reset box and simulation parameters

clear
read_restart restart.equil remap
  triclinic box = (0.02025 0.02025 0.02025) to (4.02975 4.02975 4.02975) with tilt (0 -0 0)
  1 by 1 by 1 MPI processor grid
  4 atoms
include potential.mod
mass 1 26.982

group Al type 1
4 atoms in group Al

pair_style eam/alloy
pair_coeff * * /home/sullberg/repos/pypospack/examples/Al__eam__born_exp_fs/pareto_optimization_3.5NN/rank_3/Al_fcc.lmps_elastic/Al.eam.alloy Al

neighbor 1.0 bin
neigh_modify every 1 delay 0 check yes
thermo	1
thermo_style custom step temp pe press pxx pyy pzz pxy pxz pyz lx ly lz vol
thermo_modify norm no

# Negative deformation

variable delta equal -${up}*${len0}
variable delta equal -1e-06*${len0}
variable delta equal -1e-06*4.00949999999997
if "${dir} == 1" then    "change_box all x delta 0 ${delta} remap units box"
if "${dir} == 2" then    "change_box all y delta 0 ${delta} remap units box"
if "${dir} == 3" then    "change_box all z delta 0 ${delta} remap units box"
if "${dir} == 4" then    "change_box all yz delta ${delta} remap units box"
if "${dir} == 5" then    "change_box all xz delta ${delta} remap units box"
if "${dir} == 6" then    "change_box all xy delta ${delta} remap units box"
change_box all xy delta ${delta} remap units box
change_box all xy delta -4.00949999999997e-06 remap units box
  triclinic box = (0.02025 0.02025 0.02025) to (4.02975 4.02975 4.02975) with tilt (-4.0095e-06 -0 0)

# Relax atoms positions

minimize ${etol} ${ftol} ${maxiter} ${maxeval}
minimize 0 ${ftol} ${maxiter} ${maxeval}
minimize 0 1e-10 ${maxiter} ${maxeval}
minimize 0 1e-10 100 ${maxeval}
minimize 0 1e-10 100 1000
Neighbor list info ...
  update every 1 steps, delay 0 steps, check yes
  max neighbors/atom: 2000, page size: 100000
  master list distance cutoff = 6.34397
  ghost atom cutoff = 6.34397
  binsize = 3.17199, bins = 2 2 2
  1 neighbor lists, perpetual/occasional/extra = 1 0 0
  (1) pair eam/alloy, perpetual
      attributes: half, newton on
      pair build: half/bin/newton/tri
      stencil: half/bin/3d/newton/tri
      bin: standard
Per MPI rank memory allocation (min/avg/max) = 4.086 | 4.086 | 4.086 Mbytes
Step Temp PotEng Press Pxx Pyy Pzz Pxy Pxz Pyz Lx Ly Lz Volume 
     100            0   -5.9381961   -25375.279   -25375.279   -25375.279   -25375.279   0.20037945 -9.6586845e-12 6.8990603e-13       4.0095       4.0095       4.0095    64.457084 
     101            0   -5.9381961   -25375.279   -25375.279   -25375.279   -25375.279   0.20037945 -2.1559564e-13 1.7247651e-13       4.0095       4.0095       4.0095    64.457084 
Loop time of 6.10352e-05 on 1 procs for 1 steps with 4 atoms

101.6% CPU use with 1 MPI tasks x no OpenMP threads

Minimization stats:
  Stopping criterion = quadratic factors are zero
  Energy initial, next-to-last, final = 
        -5.93819608072     -5.93819608072     -5.93819608072
  Force two-norm initial, final = 3.85741e-16 7.09232e-16
  Force max component initial, final = 2.01228e-16 3.66027e-16
  Final line search alpha, max atom move = 1 3.66027e-16
  Iterations, force evaluations = 1 2

MPI task timing breakdown:
Section |  min time  |  avg time  |  max time  |%varavg| %total
---------------------------------------------------------------
Pair    | 2.8849e-05 | 2.8849e-05 | 2.8849e-05 |   0.0 | 47.27
Neigh   | 0          | 0          | 0          |   0.0 |  0.00
Comm    | 5.9605e-06 | 5.9605e-06 | 5.9605e-06 |   0.0 |  9.77
Output  | 0          | 0          | 0          |   0.0 |  0.00
Modify  | 0          | 0          | 0          |   0.0 |  0.00
Other   |            | 2.623e-05  |            |       | 42.97

Nlocal:    4 ave 4 max 4 min
Histogram: 1 0 0 0 0 0 0 0 0 0
Nghost:    360 ave 360 max 360 min
Histogram: 1 0 0 0 0 0 0 0 0 0
Neighs:    156 ave 156 max 156 min
Histogram: 1 0 0 0 0 0 0 0 0 0

Total # of neighbors = 156
Ave neighs/atom = 39
Neighbor list builds = 0
Dangerous builds = 0

# Obtain new stress tensor

variable tmp equal pxx
variable pxx1 equal ${tmp}
variable pxx1 equal -25375.2786569059
variable tmp equal pyy
variable pyy1 equal ${tmp}
variable pyy1 equal -25375.2786565721
variable tmp equal pzz
variable pzz1 equal ${tmp}
variable pzz1 equal -25375.2786575086
variable tmp equal pxy
variable pxy1 equal ${tmp}
variable pxy1 equal 0.200379453877376
variable tmp equal pxz
variable pxz1 equal ${tmp}
variable pxz1 equal -2.15595635179392e-13
variable tmp equal pyz
variable pyz1 equal ${tmp}
variable pyz1 equal 1.72476508143514e-13

# Compute elastic constant from pressure tensor

variable C1neg equal ${d1}
variable C1neg equal 5.31199475517496e-05
variable C2neg equal ${d2}
variable C2neg equal 8.64998582983389e-05
variable C3neg equal ${d3}
variable C3neg equal -7.15008354745805e-06
variable C4neg equal ${d4}
variable C4neg equal -1.94036071661453e-10
variable C5neg equal ${d5}
variable C5neg equal 7.33025159609934e-11
variable C6neg equal ${d6}
variable C6neg equal 20.0379453877678

# Reset box and simulation parameters

clear
read_restart restart.equil remap
  triclinic box = (0.02025 0.02025 0.02025) to (4.02975 4.02975 4.02975) with tilt (0 -0 0)
  1 by 1 by 1 MPI processor grid
  4 atoms
include potential.mod
mass 1 26.982

group Al type 1
4 atoms in group Al

pair_style eam/alloy
pair_coeff * * /home/sullberg/repos/pypospack/examples/Al__eam__born_exp_fs/pareto_optimization_3.5NN/rank_3/Al_fcc.lmps_elastic/Al.eam.alloy Al

neighbor 1.0 bin
neigh_modify every 1 delay 0 check yes
thermo	1
thermo_style custom step temp pe press pxx pyy pzz pxy pxz pyz lx ly lz vol
thermo_modify norm no

# Positive deformation

variable delta equal ${up}*${len0}
variable delta equal 1e-06*${len0}
variable delta equal 1e-06*4.00949999999997
if "${dir} == 1" then    "change_box all x delta 0 ${delta} remap units box"
if "${dir} == 2" then    "change_box all y delta 0 ${delta} remap units box"
if "${dir} == 3" then    "change_box all z delta 0 ${delta} remap units box"
if "${dir} == 4" then    "change_box all yz delta ${delta} remap units box"
if "${dir} == 5" then    "change_box all xz delta ${delta} remap units box"
if "${dir} == 6" then    "change_box all xy delta ${delta} remap units box"
change_box all xy delta ${delta} remap units box
change_box all xy delta 4.00949999999997e-06 remap units box
  triclinic box = (0.02025 0.02025 0.02025) to (4.02975 4.02975 4.02975) with tilt (4.0095e-06 -0 0)

# Relax atoms positions

minimize ${etol} ${ftol} ${maxiter} ${maxeval}
minimize 0 ${ftol} ${maxiter} ${maxeval}
minimize 0 1e-10 ${maxiter} ${maxeval}
minimize 0 1e-10 100 ${maxeval}
minimize 0 1e-10 100 1000
Neighbor list info ...
  update every 1 steps, delay 0 steps, check yes
  max neighbors/atom: 2000, page size: 100000
  master list distance cutoff = 6.34397
  ghost atom cutoff = 6.34397
  binsize = 3.17199, bins = 2 2 2
  1 neighbor lists, perpetual/occasional/extra = 1 0 0
  (1) pair eam/alloy, perpetual
      attributes: half, newton on
      pair build: half/bin/newton/tri
      stencil: half/bin/3d/newton/tri
      bin: standard
Per MPI rank memory allocation (min/avg/max) = 4.086 | 4.086 | 4.086 Mbytes
Step Temp PotEng Press Pxx Pyy Pzz Pxy Pxz Pyz Lx Ly Lz Volume 
     100            0   -5.9381961   -25375.279   -25375.279   -25375.279   -25375.279  -0.20037945 -8.9256593e-12 -3.7513641e-12       4.0095       4.0095       4.0095    64.457084 
     101            0   -5.9381961   -25375.279   -25375.279   -25375.279   -25375.279  -0.20037945 6.0366778e-12 -3.406411e-12       4.0095       4.0095       4.0095    64.457084 
Loop time of 4.48227e-05 on 1 procs for 1 steps with 4 atoms

102.6% CPU use with 1 MPI tasks x no OpenMP threads

Minimization stats:
  Stopping criterion = quadratic factors are zero
  Energy initial, next-to-last, final = 
        -5.93819608072     -5.93819608072     -5.93819608072
  Force two-norm initial, final = 3.56485e-15 4.16725e-15
  Force max component initial, final = 2.87964e-15 3.36536e-15
  Final line search alpha, max atom move = 1 3.36536e-15
  Iterations, force evaluations = 1 2

MPI task timing breakdown:
Section |  min time  |  avg time  |  max time  |%varavg| %total
---------------------------------------------------------------
Pair    | 2.7657e-05 | 2.7657e-05 | 2.7657e-05 |   0.0 | 61.70
Neigh   | 0          | 0          | 0          |   0.0 |  0.00
Comm    | 5.4836e-06 | 5.4836e-06 | 5.4836e-06 |   0.0 | 12.23
Output  | 0          | 0          | 0          |   0.0 |  0.00
Modify  | 0          | 0          | 0          |   0.0 |  0.00
Other   |            | 1.168e-05  |            |       | 26.06

Nlocal:    4 ave 4 max 4 min
Histogram: 1 0 0 0 0 0 0 0 0 0
Nghost:    360 ave 360 max 360 min
Histogram: 1 0 0 0 0 0 0 0 0 0
Neighs:    156 ave 156 max 156 min
Histogram: 1 0 0 0 0 0 0 0 0 0

Total # of neighbors = 156
Ave neighs/atom = 39
Neighbor list builds = 0
Dangerous builds = 0

# Obtain new stress tensor

variable tmp equal pe
variable e1 equal ${tmp}
variable e1 equal -5.93819608071558
variable tmp equal press
variable p1 equal ${tmp}
variable p1 equal -25375.2786569955
variable tmp equal pxx
variable pxx1 equal ${tmp}
variable pxx1 equal -25375.2786569059
variable tmp equal pyy
variable pyy1 equal ${tmp}
variable pyy1 equal -25375.2786565721
variable tmp equal pzz
variable pzz1 equal ${tmp}
variable pzz1 equal -25375.2786575086
variable tmp equal pxy
variable pxy1 equal ${tmp}
variable pxy1 equal -0.200379453873926
variable tmp equal pxz
variable pxz1 equal ${tmp}
variable pxz1 equal 6.03667778502298e-12
variable tmp equal pyz
variable pyz1 equal ${tmp}
variable pyz1 equal -3.4064110358344e-12

# Compute elastic constant from pressure tensor

variable C1pos equal ${d1}
variable C1pos equal -5.31199475517496e-05
variable C2pos equal ${d2}
variable C2pos equal -8.64998582983389e-05
variable C3pos equal ${d3}
variable C3pos equal 7.15008354745805e-06
variable C4pos equal ${d4}
variable C4pos equal 5.51924826059244e-10
variable C5pos equal ${d5}
variable C5pos equal -6.98529857981231e-10
variable C6pos equal ${d6}
variable C6pos equal 20.0379453873624

# Combine positive and negative

variable C1${dir} equal 0.5*(${C1neg}+${C1pos})
variable C16 equal 0.5*(${C1neg}+${C1pos})
variable C16 equal 0.5*(5.31199475517496e-05+${C1pos})
variable C16 equal 0.5*(5.31199475517496e-05+-5.31199475517496e-05)
variable C2${dir} equal 0.5*(${C2neg}+${C2pos})
variable C26 equal 0.5*(${C2neg}+${C2pos})
variable C26 equal 0.5*(8.64998582983389e-05+${C2pos})
variable C26 equal 0.5*(8.64998582983389e-05+-8.64998582983389e-05)
variable C3${dir} equal 0.5*(${C3neg}+${C3pos})
variable C36 equal 0.5*(${C3neg}+${C3pos})
variable C36 equal 0.5*(-7.15008354745805e-06+${C3pos})
variable C36 equal 0.5*(-7.15008354745805e-06+7.15008354745805e-06)
variable C4${dir} equal 0.5*(${C4neg}+${C4pos})
variable C46 equal 0.5*(${C4neg}+${C4pos})
variable C46 equal 0.5*(-1.94036071661453e-10+${C4pos})
variable C46 equal 0.5*(-1.94036071661453e-10+5.51924826059244e-10)
variable C5${dir} equal 0.5*(${C5neg}+${C5pos})
variable C56 equal 0.5*(${C5neg}+${C5pos})
variable C56 equal 0.5*(7.33025159609934e-11+${C5pos})
variable C56 equal 0.5*(7.33025159609934e-11+-6.98529857981231e-10)
variable C6${dir} equal 0.5*(${C6neg}+${C6pos})
variable C66 equal 0.5*(${C6neg}+${C6pos})
variable C66 equal 0.5*(20.0379453877678+${C6pos})
variable C66 equal 0.5*(20.0379453877678+20.0379453873624)

# Delete dir to make sure it is not reused

variable dir delete

# ---- Output final values
variable C11all equal ${C11}
variable C11all equal 46.6376409000077
variable C22all equal ${C22}
variable C22all equal 46.6376409000077
variable C33all equal ${C33}
variable C33all equal 46.6376409000077
variable C12all equal 0.5*(${C12}+${C21})
variable C12all equal 0.5*(33.2460307048677+${C21})
variable C12all equal 0.5*(33.2460307048677+33.2460307048677)
variable C13all equal 0.5*(${C13}+${C31})
variable C13all equal 0.5*(33.2460307048677+${C31})
variable C13all equal 0.5*(33.2460307048677+33.2460307048677)
variable C23all equal 0.5*(${C23}+${C32})
variable C23all equal 0.5*(33.2460307048677+${C32})
variable C23all equal 0.5*(33.2460307048677+33.2460307048677)
variable C44all equal ${C44}
variable C44all equal 20.0379453875716
variable C55all equal ${C55}
variable C55all equal 20.0379453874098
variable C66all equal ${C66}
variable C66all equal 20.0379453875651
variable C14all equal 0.5*(${C14}+${C41})
variable C14all equal 0.5*(0+${C41})
variable C14all equal 0.5*(0+2.0050400323977e-10)
variable C15all equal 0.5*(${C15}+${C51})
variable C15all equal 0.5*(0+${C51})
variable C15all equal 0.5*(0+-2.80274950960832e-11)
variable C16all equal 0.5*(${C16}+${C61})
variable C16all equal 0.5*(0+${C61})
variable C16all equal 0.5*(0+-4.31192003384374e-11)
variable C24all equal 0.5*(${C24}+${C42})
variable C24all equal 0.5*(0+${C42})
variable C24all equal 0.5*(0+3.44954396099435e-11)
variable C25all equal 0.5*(${C25}+${C52})
variable C25all equal 0.5*(0+${C52})
variable C25all equal 0.5*(0+1.22889807418397e-10)
variable C26all equal 0.5*(${C26}+${C62})
variable C26all equal 0.5*(0+${C62})
variable C26all equal 0.5*(0+2.15594902154448e-11)
variable C34all equal 0.5*(${C34}+${C43})
variable C34all equal 0.5*(0+${C43})
variable C34all equal 0.5*(0+1.18577523890312e-10)
variable C35all equal 0.5*(${C35}+${C53})
variable C35all equal 0.5*(0+${C53})
variable C35all equal 0.5*(0+2.60870815585361e-10)
variable C36all equal 0.5*(${C36}+${C63})
variable C36all equal 0.5*(0+${C63})
variable C36all equal 0.5*(0+4.74310181799503e-11)
variable C45all equal 0.5*(${C45}+${C54})
variable C45all equal 0.5*(1.31513337459429e-10+${C54})
variable C45all equal 0.5*(1.31513337459429e-10+1.14265686645078e-10)
variable C46all equal 0.5*(${C46}+${C64})
variable C46all equal 0.5*(1.78944377198896e-10+${C64})
variable C46all equal 0.5*(1.78944377198896e-10+-1.72476508143514e-11)
variable C56all equal 0.5*(${C56}+${C65})
variable C56all equal 0.5*(-3.12613671010119e-10+${C65})
variable C56all equal 0.5*(-3.12613671010119e-10+-2.02659897068629e-10)

print "c11 = ${C11all} ${cunits}"
c11 = 46.6376409000077 GPa
print "c22 = ${C22all} ${cunits}"
c22 = 46.6376409000077 GPa
print "c33 = ${C33all} ${cunits}"
c33 = 46.6376409000077 GPa
print "c12 = ${C12all} ${cunits}"
c12 = 33.2460307048677 GPa
print "c13 = ${C13all} ${cunits}"
c13 = 33.2460307048677 GPa
print "c23 = ${C23all} ${cunits}"
c23 = 33.2460307048677 GPa
print "c44 = ${C44all} ${cunits}"
c44 = 20.0379453875716 GPa
print "c55 = ${C55all} ${cunits}"
c55 = 20.0379453874098 GPa
print "c66 = ${C66all} ${cunits}"
c66 = 20.0379453875651 GPa
print "c14 = ${C14all} ${cunits}"
c14 = 1.00252001619885e-10 GPa
print "c15 = ${C15all} ${cunits}"
c15 = -1.40137475480416e-11 GPa
print "c16 = ${C16all} ${cunits}"
c16 = -2.15596001692187e-11 GPa
print "c24 = ${C24all} ${cunits}"
c24 = 1.72477198049718e-11 GPa
print "c25 = ${C25all} ${cunits}"
c25 = 6.14449037091985e-11 GPa
print "c26 = ${C26all} ${cunits}"
c26 = 1.07797451077224e-11 GPa
print "c34 = ${C34all} ${cunits}"
c34 = 5.9288761945156e-11 GPa
print "c35 = ${C35all} ${cunits}"
c35 = 1.3043540779268e-10 GPa
print "c36 = ${C36all} ${cunits}"
c36 = 2.37155090899752e-11 GPa
print "c45 = ${C45all} ${cunits}"
c45 = 1.22889512052254e-10 GPa
print "c46 = ${C46all} ${cunits}"
c46 = 8.08483631922723e-11 GPa
print "c56 = ${C56all} ${cunits}"
c56 = -2.57636784039374e-10 GPa
print "lammps_sim_done"
lammps_sim_done
Total wall time: 0:00:00
