LAMMPS (16 Mar 2018)
Reading data file ...
  triclinic box = (0 0 0) to (4.2565 4.2565 4.2565) with tilt (0 0 0)
  1 by 1 by 1 MPI processor grid
  reading atoms ...
  8 atoms
4 atoms in group Mg
4 atoms in group O
Setting atom values ...
  4 settings made for charge
Setting atom values ...
  4 settings made for charge
PPPM initialization ...
  using 12-bit tables for long-range coulomb (../kspace.cpp:321)
  G vector (1/distance) = 0.353157
  grid = 8 8 8
  stencil order = 5
  estimated absolute RMS force accuracy = 4.10592e-05
  estimated relative force accuracy = 2.85141e-06
  using double precision FFTs
  3d grid and FFT values/proc = 3375 512
Neighbor list info ...
  update every 1 steps, delay 0 steps, check yes
  max neighbors/atom: 2000, page size: 100000
  master list distance cutoff = 11
  ghost atom cutoff = 11
  binsize = 5.5, bins = 1 1 1
  1 neighbor lists, perpetual/occasional/extra = 1 0 0
  (1) pair buck/coul/long, perpetual
      attributes: half, newton on
      pair build: half/bin/newton/tri
      stencil: half/bin/3d/newton/tri
      bin: standard
Setting up cg style minimization ...
  Unit style    : metal
  Current step  : 0
WARNING: Energy due to 3 extra global DOFs will be included in minimizer energies
Per MPI rank memory allocation (min/avg/max) = 4.909 | 4.909 | 4.909 Mbytes
Step PotEng Xhi Xlo Yhi Ylo Zhi Xy Xz Yz Press Pxx Pyy Pzz Pxy Pxz Pyz c_eatoms 
       0   -115.56433       4.2565            0       4.2565            0       4.2565            0            0            0    83382.543    83382.543    83382.543    83382.543 1.5669968e-10  7.86633e-11 2.8752358e-10   -115.56433 
      10   -115.64492    4.2777825   -0.0212825    4.2777825   -0.0212825    4.2777825            0            0            0    31905.399    31905.399    31905.399    31905.399 -1.2060375e-10 1.8044794e-11 1.0442137e-10   -115.64492 
      19   -115.66091    4.2924126 -0.035912595    4.2924126 -0.035912595    4.2924126            0            0            0   -2.1343152   -2.1343152   -2.1343152   -2.1343152 -5.0947581e-13 2.7565153e-11 9.8330478e-11   -115.66091 
Loop time of 0.0155108 on 1 procs for 19 steps with 8 atoms

100.0% CPU use with 1 MPI tasks x no OpenMP threads

Minimization stats:
  Stopping criterion = linesearch alpha is zero
  Energy initial, next-to-last, final = 
        -115.564328913      -115.66091139      -115.66091139
  Force two-norm initial, final = 6.95158 0.000224352
  Force max component initial, final = 4.01349 0.000106228
  Final line search alpha, max atom move = 0.125 1.32785e-05
  Iterations, force evaluations = 19 27

MPI task timing breakdown:
Section |  min time  |  avg time  |  max time  |%varavg| %total
---------------------------------------------------------------
Pair    | 0.0043287  | 0.0043287  | 0.0043287  |   0.0 | 27.91
Kspace  | 0.0038426  | 0.0038426  | 0.0038426  |   0.0 | 24.77
Neigh   | 0          | 0          | 0          |   0.0 |  0.00
Comm    | 0.00032949 | 0.00032949 | 0.00032949 |   0.0 |  2.12
Output  | 1.7881e-05 | 1.7881e-05 | 1.7881e-05 |   0.0 |  0.12
Modify  | 0          | 0          | 0          |   0.0 |  0.00
Other   |            | 0.006992   |            |       | 45.08

Nlocal:    8 ave 8 max 8 min
Histogram: 1 0 0 0 0 0 0 0 0 0
Nghost:    2189 ave 2189 max 2189 min
Histogram: 1 0 0 0 0 0 0 0 0 0
Neighs:    2344 ave 2344 max 2344 min
Histogram: 1 0 0 0 0 0 0 0 0 0

Total # of neighbors = 2344
Ave neighs/atom = 293
Neighbor list builds = 0
Dangerous builds = 0
pypospack:output_section:begin
tot_energy = -115.660911390444
num_atoms = 8
a11 = 4.32832519078002
a22 = 4.32832519078001
a33 = 4.32832519078001
a12 = 0
a13 = 0
a23 = 0
tot_press = -2.13431519315925
pxx = -2.13431520019285
pyy = -2.13431518979887
pzz = -2.13431518948602
pxy = -5.09475806746376e-13
pxz = 2.75651532363734e-11
pyz = 9.83304781342944e-11
pypospack:output_section:done
pypospack:lammps_sim:done
Total wall time: 0:00:00
