# ['Ni']

107 atoms
1 atom types

    0.0000    26.9252 xlo xhi
    0.0000    26.9252 ylo yhi
    0.0000    26.9252 zlo zhi

    0.0000    -0.0000    -0.0000 xy xz yz

Atoms

1 1     4.4875     4.4875     0.0000
2 1     4.4875     0.0000     4.4875
3 1     0.0000     4.4875     4.4875
4 1     0.0000     0.0000     8.9750
5 1     4.4875     4.4875     8.9750
6 1     4.4875     0.0000    13.4626
7 1     0.0000     4.4875    13.4626
8 1     0.0000     0.0000    17.9501
9 1     4.4875     4.4875    17.9501
10 1     4.4875     0.0000    22.4376
11 1     0.0000     4.4875    22.4376
12 1     0.0000     8.9750     0.0000
13 1     4.4875    13.4626     0.0000
14 1     4.4875     8.9750     4.4875
15 1     0.0000    13.4626     4.4875
16 1     0.0000     8.9750     8.9750
17 1     4.4875    13.4626     8.9750
18 1     4.4875     8.9750    13.4626
19 1     0.0000    13.4626    13.4626
20 1     0.0000     8.9750    17.9501
21 1     4.4875    13.4626    17.9501
22 1     4.4875     8.9750    22.4376
23 1     0.0000    13.4626    22.4376
24 1     0.0000    17.9501     0.0000
25 1     4.4875    22.4376     0.0000
26 1     4.4875    17.9501     4.4875
27 1     0.0000    22.4376     4.4875
28 1     0.0000    17.9501     8.9750
29 1     4.4875    22.4376     8.9750
30 1     4.4875    17.9501    13.4626
31 1     0.0000    22.4376    13.4626
32 1     0.0000    17.9501    17.9501
33 1     4.4875    22.4376    17.9501
34 1     4.4875    17.9501    22.4376
35 1     0.0000    22.4376    22.4376
36 1     8.9750     0.0000     0.0000
37 1    13.4626     4.4875     0.0000
38 1    13.4626     0.0000     4.4875
39 1     8.9750     4.4875     4.4875
40 1     8.9750     0.0000     8.9750
41 1    13.4626     4.4875     8.9750
42 1    13.4626     0.0000    13.4626
43 1     8.9750     4.4875    13.4626
44 1     8.9750     0.0000    17.9501
45 1    13.4626     4.4875    17.9501
46 1    13.4626     0.0000    22.4376
47 1     8.9750     4.4875    22.4376
48 1     8.9750     8.9750     0.0000
49 1    13.4626    13.4626     0.0000
50 1    13.4626     8.9750     4.4875
51 1     8.9750    13.4626     4.4875
52 1     8.9750     8.9750     8.9750
53 1    13.4626    13.4626     8.9750
54 1    13.4626     8.9750    13.4626
55 1     8.9750    13.4626    13.4626
56 1     8.9750     8.9750    17.9501
57 1    13.4626    13.4626    17.9501
58 1    13.4626     8.9750    22.4376
59 1     8.9750    13.4626    22.4376
60 1     8.9750    17.9501     0.0000
61 1    13.4626    22.4376     0.0000
62 1    13.4626    17.9501     4.4875
63 1     8.9750    22.4376     4.4875
64 1     8.9750    17.9501     8.9750
65 1    13.4626    22.4376     8.9750
66 1    13.4626    17.9501    13.4626
67 1     8.9750    22.4376    13.4626
68 1     8.9750    17.9501    17.9501
69 1    13.4626    22.4376    17.9501
70 1    13.4626    17.9501    22.4376
71 1     8.9750    22.4376    22.4376
72 1    17.9501     0.0000     0.0000
73 1    22.4376     4.4875     0.0000
74 1    22.4376     0.0000     4.4875
75 1    17.9501     4.4875     4.4875
76 1    17.9501     0.0000     8.9750
77 1    22.4376     4.4875     8.9750
78 1    22.4376     0.0000    13.4626
79 1    17.9501     4.4875    13.4626
80 1    17.9501     0.0000    17.9501
81 1    22.4376     4.4875    17.9501
82 1    22.4376     0.0000    22.4376
83 1    17.9501     4.4875    22.4376
84 1    17.9501     8.9750     0.0000
85 1    22.4376    13.4626     0.0000
86 1    22.4376     8.9750     4.4875
87 1    17.9501    13.4626     4.4875
88 1    17.9501     8.9750     8.9750
89 1    22.4376    13.4626     8.9750
90 1    22.4376     8.9750    13.4626
91 1    17.9501    13.4626    13.4626
92 1    17.9501     8.9750    17.9501
93 1    22.4376    13.4626    17.9501
94 1    22.4376     8.9750    22.4376
95 1    17.9501    13.4626    22.4376
96 1    17.9501    17.9501     0.0000
97 1    22.4376    22.4376     0.0000
98 1    22.4376    17.9501     4.4875
99 1    17.9501    22.4376     4.4875
100 1    17.9501    17.9501     8.9750
101 1    22.4376    22.4376     8.9750
102 1    22.4376    17.9501    13.4626
103 1    17.9501    22.4376    13.4626
104 1    17.9501    17.9501    17.9501
105 1    22.4376    22.4376    17.9501
106 1    22.4376    17.9501    22.4376
107 1    17.9501    22.4376    22.4376
