   4   4   0   0
  0.1064635E+02  0.3492102E-09  0.3492102E-09  0.3492102E-09  0.5000000E-15
  1.000000000000000E-004
  CAR 
 automatically generated by pyflamestk   
     33.69498700     -0.88015025  301      9.53197216      1.00000000
     -0.880  0.0000E+00  0.0000E+00  0.0000E+00  0.0000E+00
     -0.765  0.0000E+00  0.0000E+00  0.0000E+00  0.0000E+00
     -0.650  0.0000E+00  0.0000E+00  0.0000E+00  0.0000E+00
     -0.534 -0.4909E-29 -0.4916E-29 -0.5658E-30 -0.5666E-30
     -0.419 -0.4523E-25 -0.4529E-25 -0.5213E-26 -0.5220E-26
     -0.304 -0.2133E-21 -0.2135E-21 -0.2459E-22 -0.2462E-22
     -0.189 -0.5142E-18 -0.5148E-18 -0.5929E-19 -0.5935E-19
     -0.073 -0.6331E-15 -0.6337E-15 -0.7302E-16 -0.7309E-16
      0.042 -0.3838E-12 -0.3841E-12 -0.4430E-13 -0.4435E-13
      0.157 -0.1214E-09 -0.1215E-09 -0.1403E-10 -0.1405E-10
      0.272 -0.1937E-07 -0.1939E-07 -0.2247E-08 -0.2249E-08
      0.388 -0.1547E-05 -0.1548E-05 -0.1806E-06 -0.1807E-06
      0.503 -0.6090E-04 -0.6092E-04 -0.7199E-05 -0.7202E-05
      0.618 -0.1145E-02 -0.1145E-02 -0.1391E-03 -0.1392E-03
      0.733 -0.9509E-02 -0.9511E-02 -0.1235E-02 -0.1235E-02
      0.849 -0.2534E-01 -0.2534E-01 -0.4155E-02 -0.4156E-02
      0.964  0.5258E-01  0.5261E-01  0.1904E-02  0.1907E-02
      1.079  0.3430E+00  0.3430E+00  0.4143E-01  0.4144E-01
      1.194  0.4998E+00  0.4998E+00  0.9903E-01  0.9904E-01
      1.310  0.2459E+00  0.2458E+00  0.1274E+00  0.1274E+00
      1.425  0.8214E-02  0.8197E-02  0.1283E+00  0.1283E+00
      1.540 -0.2260E-01 -0.2260E-01  0.1257E+00  0.1257E+00
      1.655 -0.5620E-02 -0.5618E-02  0.1251E+00  0.1251E+00
      1.771 -0.5253E-03 -0.5251E-03  0.1250E+00  0.1250E+00
      1.886 -0.2470E-04 -0.2469E-04  0.1250E+00  0.1250E+00
      2.001 -0.1028E-03 -0.1029E-03  0.1250E+00  0.1250E+00
      2.116 -0.2193E-02 -0.2194E-02  0.1247E+00  0.1247E+00
      2.232 -0.2117E-01 -0.2118E-01  0.1223E+00  0.1223E+00
      2.347 -0.7283E-01 -0.7283E-01  0.1139E+00  0.1139E+00
      2.462  0.7162E-01  0.7170E-01  0.1222E+00  0.1222E+00
      2.577  0.8589E+00  0.8590E+00  0.2211E+00  0.2212E+00
      2.693  0.1516E+01  0.1516E+01  0.3958E+00  0.3958E+00
      2.808  0.9096E+00  0.9094E+00  0.5006E+00  0.5007E+00
      2.923  0.9459E-01  0.9450E-01  0.5115E+00  0.5115E+00
      3.038 -0.7434E-01 -0.7433E-01  0.5030E+00  0.5030E+00
      3.154 -0.2319E-01 -0.2318E-01  0.5003E+00  0.5003E+00
      3.269 -0.2604E-02 -0.2603E-02  0.5000E+00  0.5000E+00
      3.384 -0.2190E-02 -0.2192E-02  0.4998E+00  0.4998E+00
      3.499 -0.2035E-01 -0.2036E-01  0.4974E+00  0.4974E+00
      3.615 -0.7206E-01 -0.7207E-01  0.4891E+00  0.4891E+00
      3.730  0.6238E-01  0.6250E-01  0.4963E+00  0.4963E+00
      3.845  0.8370E+00  0.8373E+00  0.5928E+00  0.5928E+00
      3.960  0.1514E+01  0.1514E+01  0.7673E+00  0.7673E+00
      4.076  0.9279E+00  0.9276E+00  0.8742E+00  0.8742E+00
      4.191  0.8679E-01  0.8662E-01  0.8842E+00  0.8842E+00
      4.306 -0.9406E-01 -0.9402E-01  0.8734E+00  0.8734E+00
      4.421  0.1024E+00  0.1026E+00  0.8852E+00  0.8852E+00
      4.537  0.3923E+00  0.3925E+00  0.9304E+00  0.9304E+00
      4.652  0.7070E+00  0.7072E+00  0.1012E+01  0.1012E+01
      4.767  0.1319E+01  0.1319E+01  0.1164E+01  0.1164E+01
      4.882  0.1368E+01  0.1367E+01  0.1321E+01  0.1322E+01
      4.998  0.3981E+00  0.3975E+00  0.1367E+01  0.1367E+01
      5.113 -0.3710E-02 -0.3121E-02  0.1367E+01  0.1367E+01
      5.228  0.1224E+01  0.1227E+01  0.1508E+01  0.1508E+01
      5.343  0.2925E+01  0.2926E+01  0.1845E+01  0.1846E+01
      5.459  0.3518E+01  0.3518E+01  0.2251E+01  0.2251E+01
      5.574  0.3293E+01  0.3292E+01  0.2630E+01  0.2630E+01
      5.689  0.1755E+01  0.1754E+01  0.2832E+01  0.2833E+01
      5.804  0.7706E+00  0.7720E+00  0.2921E+01  0.2922E+01
      5.920  0.2969E+01  0.2973E+01  0.3263E+01  0.3264E+01
      6.035  0.5228E+01  0.5228E+01  0.3866E+01  0.3867E+01
      6.150  0.3740E+01  0.3737E+01  0.4297E+01  0.4297E+01
      6.265  0.2520E+01  0.2521E+01  0.4587E+01  0.4588E+01
      6.381  0.3969E+01  0.3971E+01  0.5045E+01  0.5046E+01
      6.496  0.3440E+01  0.3437E+01  0.5441E+01  0.5442E+01
      6.611  0.2346E+01  0.2347E+01  0.5712E+01  0.5712E+01
      6.726  0.3466E+01  0.3467E+01  0.6111E+01  0.6112E+01
      6.842  0.3491E+01  0.3489E+01  0.6513E+01  0.6514E+01
      6.957  0.2635E+01  0.2635E+01  0.6817E+01  0.6818E+01
      7.072  0.3281E+01  0.3283E+01  0.7195E+01  0.7196E+01
      7.187  0.4946E+01  0.4950E+01  0.7765E+01  0.7766E+01
      7.303  0.6773E+01  0.6774E+01  0.8546E+01  0.8547E+01
      7.418  0.6427E+01  0.6424E+01  0.9287E+01  0.9288E+01
      7.533  0.3938E+01  0.3935E+01  0.9740E+01  0.9741E+01
      7.648  0.3272E+01  0.3275E+01  0.1012E+02  0.1012E+02
      7.764  0.5624E+01  0.5628E+01  0.1077E+02  0.1077E+02
      7.879  0.7878E+01  0.7880E+01  0.1167E+02  0.1168E+02
      7.994  0.7066E+01  0.7062E+01  0.1249E+02  0.1249E+02
      8.109  0.3663E+01  0.3658E+01  0.1291E+02  0.1291E+02
      8.225  0.1980E+01  0.1982E+01  0.1314E+02  0.1314E+02
      8.340  0.3572E+01  0.3575E+01  0.1355E+02  0.1355E+02
      8.455  0.4209E+01  0.4208E+01  0.1404E+02  0.1404E+02
      8.570  0.4675E+01  0.4679E+01  0.1457E+02  0.1458E+02
      8.686  0.7419E+01  0.7424E+01  0.1543E+02  0.1543E+02
      8.801  0.7336E+01  0.7330E+01  0.1627E+02  0.1628E+02
      8.916  0.3398E+01  0.3391E+01  0.1667E+02  0.1667E+02
      9.031  0.1925E+01  0.1927E+01  0.1689E+02  0.1689E+02
      9.147  0.4626E+01  0.4633E+01  0.1742E+02  0.1742E+02
      9.262  0.6753E+01  0.6754E+01  0.1820E+02  0.1820E+02
      9.377  0.5861E+01  0.5859E+01  0.1887E+02  0.1888E+02
      9.492  0.6791E+01  0.6796E+01  0.1966E+02  0.1966E+02
      9.608  0.8705E+01  0.8705E+01  0.2066E+02  0.2066E+02
      9.723  0.5676E+01  0.5666E+01  0.2132E+02  0.2132E+02
      9.838  0.1095E+01  0.1089E+01  0.2144E+02  0.2144E+02
      9.953 -0.3627E+00 -0.3629E+00  0.2140E+02  0.2140E+02
     10.069 -0.1823E+00 -0.1818E+00  0.2138E+02  0.2138E+02
     10.184 -0.2752E-01 -0.2740E-01  0.2138E+02  0.2138E+02
     10.299 -0.1855E-02 -0.1845E-02  0.2138E+02  0.2138E+02
     10.414 -0.1030E-03 -0.1029E-03  0.2137E+02  0.2137E+02
     10.530 -0.1358E-02 -0.1364E-02  0.2137E+02  0.2137E+02
     10.645 -0.2040E-01 -0.2047E-01  0.2137E+02  0.2137E+02
     10.760 -0.1298E+00 -0.1300E+00  0.2136E+02  0.2136E+02
     10.875 -0.1909E+00 -0.1905E+00  0.2134E+02  0.2134E+02
     10.991  0.1043E+01  0.1046E+01  0.2146E+02  0.2146E+02
     11.106  0.3817E+01  0.3820E+01  0.2190E+02  0.2190E+02
     11.221  0.4136E+01  0.4134E+01  0.2237E+02  0.2237E+02
     11.336  0.1427E+01  0.1424E+01  0.2254E+02  0.2254E+02
     11.452 -0.1310E+00 -0.1317E+00  0.2252E+02  0.2252E+02
     11.567 -0.1569E+00 -0.1566E+00  0.2250E+02  0.2250E+02
     11.682 -0.2884E-01 -0.2876E-01  0.2250E+02  0.2250E+02
     11.797 -0.3118E-02 -0.3112E-02  0.2250E+02  0.2250E+02
     11.913 -0.1186E-01 -0.1188E-01  0.2250E+02  0.2250E+02
     12.028 -0.5822E-01 -0.5826E-01  0.2249E+02  0.2249E+02
     12.143 -0.2542E-01 -0.2525E-01  0.2249E+02  0.2249E+02
     12.258  0.5655E+00  0.5662E+00  0.2255E+02  0.2255E+02
     12.374  0.1436E+01  0.1436E+01  0.2272E+02  0.2272E+02
     12.489  0.1192E+01  0.1191E+01  0.2286E+02  0.2286E+02
     12.604  0.2714E+00  0.2708E+00  0.2289E+02  0.2289E+02
     12.719 -0.7172E-01 -0.7176E-01  0.2288E+02  0.2288E+02
     12.835 -0.3798E-01 -0.3794E-01  0.2288E+02  0.2288E+02
     12.950 -0.1155E-01 -0.1156E-01  0.2287E+02  0.2287E+02
     13.065 -0.4159E-01 -0.4165E-01  0.2287E+02  0.2287E+02
     13.180 -0.6744E-01 -0.6737E-01  0.2286E+02  0.2286E+02
     13.296  0.3198E+00  0.3206E+00  0.2290E+02  0.2290E+02
     13.411  0.1247E+01  0.1248E+01  0.2304E+02  0.2304E+02
     13.526  0.1401E+01  0.1401E+01  0.2320E+02  0.2320E+02
     13.641  0.5049E+00  0.5040E+00  0.2326E+02  0.2326E+02
     13.757 -0.3892E-01 -0.3910E-01  0.2326E+02  0.2326E+02
     13.872 -0.5433E-01 -0.5427E-01  0.2325E+02  0.2325E+02
     13.987 -0.1028E-01 -0.1026E-01  0.2325E+02  0.2325E+02
     14.102 -0.1936E-02 -0.1936E-02  0.2325E+02  0.2325E+02
     14.218 -0.1637E-01 -0.1640E-01  0.2325E+02  0.2325E+02
     14.333 -0.9636E-01 -0.9646E-01  0.2324E+02  0.2324E+02
     14.448 -0.1103E+00 -0.1101E+00  0.2322E+02  0.2322E+02
     14.563  0.8297E+00  0.8311E+00  0.2332E+02  0.2332E+02
     14.679  0.2673E+01  0.2674E+01  0.2363E+02  0.2363E+02
     14.794  0.2651E+01  0.2650E+01  0.2393E+02  0.2393E+02
     14.909  0.8038E+00  0.8024E+00  0.2403E+02  0.2403E+02
     15.024 -0.1143E+00 -0.1145E+00  0.2401E+02  0.2401E+02
     15.140 -0.9452E-01 -0.9443E-01  0.2400E+02  0.2400E+02
     15.255 -0.1578E-01 -0.1575E-01  0.2400E+02  0.2400E+02
     15.370 -0.1099E-02 -0.1096E-02  0.2400E+02  0.2400E+02
     15.485 -0.3598E-04 -0.3588E-04  0.2400E+02  0.2400E+02
     15.601 -0.8935E-05 -0.8962E-05  0.2400E+02  0.2400E+02
     15.716 -0.2958E-03 -0.2966E-03  0.2400E+02  0.2400E+02
     15.831 -0.4962E-02 -0.4973E-02  0.2400E+02  0.2400E+02
     15.946 -0.3600E-01 -0.3604E-01  0.2400E+02  0.2400E+02
     16.062 -0.7310E-01 -0.7306E-01  0.2399E+02  0.2399E+02
     16.177  0.2509E+00  0.2515E+00  0.2402E+02  0.2402E+02
     16.292  0.1166E+01  0.1167E+01  0.2415E+02  0.2415E+02
     16.407  0.1449E+01  0.1448E+01  0.2432E+02  0.2432E+02
     16.523  0.5821E+00  0.5813E+00  0.2438E+02  0.2438E+02
     16.638 -0.7486E-01 -0.7513E-01  0.2438E+02  0.2438E+02
     16.753 -0.9241E-01 -0.9220E-01  0.2436E+02  0.2436E+02
     16.868  0.5223E+00  0.5231E+00  0.2443E+02  0.2443E+02
     16.984  0.1418E+01  0.1419E+01  0.2459E+02  0.2459E+02
     17.099  0.1220E+01  0.1220E+01  0.2473E+02  0.2473E+02
     17.214  0.2952E+00  0.2947E+00  0.2476E+02  0.2476E+02
     17.329 -0.6989E-01 -0.6994E-01  0.2476E+02  0.2476E+02
     17.445 -0.4206E-01 -0.4202E-01  0.2475E+02  0.2475E+02
     17.560 -0.3564E-01 -0.3567E-01  0.2475E+02  0.2475E+02
     17.675 -0.1298E+00 -0.1298E+00  0.2473E+02  0.2473E+02
     17.790  0.9761E-02  0.1014E-01  0.2473E+02  0.2473E+02
     17.906  0.1354E+01  0.1355E+01  0.2489E+02  0.2489E+02
     18.021  0.2965E+01  0.2966E+01  0.2523E+02  0.2523E+02
     18.136  0.2175E+01  0.2174E+01  0.2548E+02  0.2548E+02
     18.251  0.3875E+00  0.3867E+00  0.2553E+02  0.2553E+02
     18.367 -0.1605E+00 -0.1605E+00  0.2551E+02  0.2551E+02
     18.482 -0.8835E-01 -0.8829E-01  0.2550E+02  0.2550E+02
     18.597  0.4295E-01  0.4309E-01  0.2550E+02  0.2550E+02
     18.712  0.3398E+00  0.3400E+00  0.2554E+02  0.2554E+02
     18.828  0.5004E+00  0.5004E+00  0.2560E+02  0.2560E+02
     18.943  0.2487E+00  0.2485E+00  0.2563E+02  0.2563E+02
     19.058  0.9188E-02  0.9109E-02  0.2563E+02  0.2563E+02
     19.173 -0.2304E-01 -0.2303E-01  0.2563E+02  0.2563E+02
     19.289 -0.1164E-01 -0.1164E-01  0.2562E+02  0.2562E+02
     19.404 -0.5233E-01 -0.5239E-01  0.2562E+02  0.2562E+02
     19.519 -0.1512E+00 -0.1512E+00  0.2560E+02  0.2560E+02
     19.634  0.2525E+00  0.2531E+00  0.2563E+02  0.2563E+02
     19.750  0.1945E+01  0.1947E+01  0.2585E+02  0.2585E+02
     19.865  0.3020E+01  0.3020E+01  0.2620E+02  0.2620E+02
     19.980  0.1590E+01  0.1589E+01  0.2639E+02  0.2639E+02
     20.095  0.9097E-01  0.9052E-01  0.2640E+02  0.2640E+02
     20.211 -0.1448E+00 -0.1447E+00  0.2638E+02  0.2638E+02
     20.326 -0.6893E-01 -0.6894E-01  0.2637E+02  0.2637E+02
     20.441 -0.7933E-01 -0.7931E-01  0.2636E+02  0.2636E+02
     20.556  0.1914E+00  0.1921E+00  0.2638E+02  0.2638E+02
     20.672  0.1083E+01  0.1084E+01  0.2651E+02  0.2651E+02
     20.787  0.1484E+01  0.1484E+01  0.2668E+02  0.2668E+02
     20.902  0.6811E+00  0.6801E+00  0.2676E+02  0.2676E+02
     21.017  0.6168E-02  0.5864E-02  0.2676E+02  0.2676E+02
     21.133 -0.6585E-01 -0.6580E-01  0.2675E+02  0.2675E+02
     21.248 -0.2891E-01 -0.2890E-01  0.2675E+02  0.2675E+02
     21.363 -0.8915E-01 -0.8924E-01  0.2674E+02  0.2674E+02
     21.478 -0.1284E+00 -0.1283E+00  0.2672E+02  0.2672E+02
     21.594  0.6945E+00  0.6958E+00  0.2680E+02  0.2680E+02
     21.709  0.2500E+01  0.2502E+01  0.2709E+02  0.2709E+02
     21.824  0.2760E+01  0.2759E+01  0.2741E+02  0.2741E+02
     21.939  0.1625E+01  0.1624E+01  0.2760E+02  0.2760E+02
     22.055  0.1395E+01  0.1395E+01  0.2776E+02  0.2776E+02
     22.170  0.9660E+00  0.9657E+00  0.2787E+02  0.2787E+02
     22.285  0.1619E+00  0.1617E+00  0.2789E+02  0.2789E+02
     22.400 -0.9846E-01 -0.9848E-01  0.2788E+02  0.2788E+02
     22.516 -0.1189E+00 -0.1189E+00  0.2786E+02  0.2786E+02
     22.631 -0.1642E-01 -0.1625E-01  0.2786E+02  0.2786E+02
     22.746  0.8440E+00  0.8447E+00  0.2796E+02  0.2796E+02
     22.861  0.2251E+01  0.2251E+01  0.2822E+02  0.2822E+02
     22.977  0.2448E+01  0.2448E+01  0.2850E+02  0.2850E+02
     23.092  0.1142E+01  0.1142E+01  0.2863E+02  0.2863E+02
     23.207  0.8218E-01  0.8182E-01  0.2864E+02  0.2864E+02
     23.322 -0.1057E+00 -0.1057E+00  0.2863E+02  0.2863E+02
     23.438 -0.6866E-01 -0.6865E-01  0.2862E+02  0.2862E+02
     23.553 -0.1035E+00 -0.1035E+00  0.2861E+02  0.2861E+02
     23.668  0.1176E+00  0.1178E+00  0.2862E+02  0.2862E+02
     23.783  0.1126E+01  0.1127E+01  0.2875E+02  0.2875E+02
     23.899  0.2685E+01  0.2686E+01  0.2906E+02  0.2906E+02
     24.014  0.3527E+01  0.3527E+01  0.2947E+02  0.2947E+02
     24.129  0.2279E+01  0.2278E+01  0.2973E+02  0.2973E+02
     24.244  0.4108E+00  0.4101E+00  0.2978E+02  0.2978E+02
     24.360 -0.1609E+00 -0.1609E+00  0.2976E+02  0.2976E+02
     24.475 -0.7071E-01 -0.7066E-01  0.2975E+02  0.2975E+02
     24.590 -0.9444E-02 -0.9432E-02  0.2975E+02  0.2975E+02
     24.705 -0.5753E-03 -0.5744E-03  0.2975E+02  0.2975E+02
     24.821 -0.7989E-03 -0.8000E-03  0.2975E+02  0.2975E+02
     24.936 -0.1227E-01 -0.1228E-01  0.2975E+02  0.2975E+02
     25.051 -0.8194E-01 -0.8199E-01  0.2974E+02  0.2974E+02
     25.166 -0.1383E+00 -0.1382E+00  0.2972E+02  0.2972E+02
     25.282  0.6102E+00  0.6109E+00  0.2979E+02  0.2979E+02
     25.397  0.2434E+01  0.2434E+01  0.3007E+02  0.3007E+02
     25.512  0.2925E+01  0.2925E+01  0.3041E+02  0.3041E+02
     25.627  0.1724E+01  0.1723E+01  0.3061E+02  0.3061E+02
     25.743  0.9199E+00  0.9197E+00  0.3072E+02  0.3072E+02
     25.858  0.3653E+00  0.3651E+00  0.3076E+02  0.3076E+02
     25.973 -0.1009E-01 -0.1013E-01  0.3076E+02  0.3076E+02
     26.088 -0.4596E-01 -0.4595E-01  0.3075E+02  0.3075E+02
     26.204 -0.1075E-01 -0.1074E-01  0.3075E+02  0.3075E+02
     26.319 -0.1165E-02 -0.1164E-02  0.3075E+02  0.3075E+02
     26.434 -0.3526E-02 -0.3529E-02  0.3075E+02  0.3075E+02
     26.549 -0.2880E-01 -0.2881E-01  0.3075E+02  0.3075E+02
     26.665 -0.7601E-01 -0.7601E-01  0.3074E+02  0.3074E+02
     26.780  0.1610E+00  0.1612E+00  0.3076E+02  0.3076E+02
     26.895  0.1034E+01  0.1035E+01  0.3088E+02  0.3088E+02
     27.010  0.1498E+01  0.1498E+01  0.3105E+02  0.3105E+02
     27.126  0.7318E+00  0.7315E+00  0.3113E+02  0.3113E+02
     27.241  0.2267E-01  0.2257E-01  0.3113E+02  0.3113E+02
     27.356 -0.6753E-01 -0.6751E-01  0.3113E+02  0.3113E+02
     27.471 -0.1667E-01 -0.1666E-01  0.3113E+02  0.3113E+02
     27.587 -0.1564E-02 -0.1562E-02  0.3113E+02  0.3113E+02
     27.702 -0.4840E-03 -0.4843E-03  0.3112E+02  0.3112E+02
     27.817 -0.6441E-02 -0.6446E-02  0.3112E+02  0.3112E+02
     27.932 -0.4209E-01 -0.4211E-01  0.3112E+02  0.3112E+02
     28.048 -0.6626E-01 -0.6624E-01  0.3111E+02  0.3111E+02
     28.163  0.3309E+00  0.3312E+00  0.3115E+02  0.3115E+02
     28.278  0.1259E+01  0.1259E+01  0.3129E+02  0.3130E+02
     28.393  0.1393E+01  0.1393E+01  0.3146E+02  0.3146E+02
     28.509  0.4918E+00  0.4915E+00  0.3151E+02  0.3151E+02
     28.624 -0.4156E-01 -0.4162E-01  0.3151E+02  0.3151E+02
     28.739 -0.5389E-01 -0.5387E-01  0.3150E+02  0.3150E+02
     28.854 -0.1644E-01 -0.1643E-01  0.3150E+02  0.3150E+02
     28.970 -0.4310E-01 -0.4312E-01  0.3149E+02  0.3149E+02
     29.085 -0.6592E-01 -0.6589E-01  0.3149E+02  0.3149E+02
     29.200  0.3343E+00  0.3346E+00  0.3153E+02  0.3153E+02
     29.315  0.1262E+01  0.1263E+01  0.3167E+02  0.3167E+02
     29.431  0.1390E+01  0.1390E+01  0.3183E+02  0.3183E+02
     29.546  0.4879E+00  0.4876E+00  0.3189E+02  0.3189E+02
     29.661 -0.4233E-01 -0.4238E-01  0.3188E+02  0.3188E+02
     29.776 -0.5320E-01 -0.5318E-01  0.3188E+02  0.3188E+02
     29.892 -0.9836E-02 -0.9829E-02  0.3188E+02  0.3188E+02
     30.007 -0.7414E-03 -0.7407E-03  0.3188E+02  0.3188E+02
     30.122 -0.2604E-04 -0.2601E-04  0.3188E+02  0.3188E+02
     30.237 -0.4457E-06 -0.4451E-06  0.3188E+02  0.3188E+02
     30.353 -0.3796E-08 -0.3790E-08  0.3188E+02  0.3188E+02
     30.468 -0.1626E-10 -0.1623E-10  0.3188E+02  0.3188E+02
     30.583 -0.9795E-13 -0.9814E-13  0.3187E+02  0.3187E+02
     30.698 -0.2414E-10 -0.2420E-10  0.3187E+02  0.3187E+02
     30.814 -0.4710E-08 -0.4721E-08  0.3187E+02  0.3187E+02
     30.929 -0.4613E-06 -0.4622E-06  0.3187E+02  0.3187E+02
     31.044 -0.2238E-04 -0.2242E-04  0.3187E+02  0.3187E+02
     31.159 -0.5250E-03 -0.5257E-03  0.3187E+02  0.3187E+02
     31.275 -0.5618E-02 -0.5623E-02  0.3187E+02  0.3187E+02
     31.390 -0.2260E-01 -0.2261E-01  0.3187E+02  0.3187E+02
     31.505  0.8197E-02  0.8251E-02  0.3187E+02  0.3187E+02
     31.620  0.2458E+00  0.2460E+00  0.3190E+02  0.3190E+02
     31.736  0.4998E+00  0.4998E+00  0.3196E+02  0.3196E+02
     31.851  0.3430E+00  0.3429E+00  0.3200E+02  0.3200E+02
     31.966  0.5261E-01  0.5252E-01  0.3200E+02  0.3200E+02
     32.081 -0.2534E-01 -0.2534E-01  0.3200E+02  0.3200E+02
     32.197 -0.9511E-02 -0.9504E-02  0.3200E+02  0.3200E+02
     32.312 -0.1145E-02 -0.1144E-02  0.3200E+02  0.3200E+02
     32.427 -0.6092E-04 -0.6083E-04  0.3200E+02  0.3200E+02
     32.542 -0.1548E-05 -0.1545E-05  0.3200E+02  0.3200E+02
     32.658 -0.1939E-07 -0.1935E-07  0.3200E+02  0.3200E+02
     32.773 -0.1215E-09 -0.1212E-09  0.3200E+02  0.3200E+02
     32.888 -0.3841E-12 -0.3829E-12  0.3200E+02  0.3200E+02
     33.003 -0.7225E-15 -0.7225E-15  0.3200E+02  0.3200E+02
     33.119  0.0000E+00  0.0000E+00  0.3200E+02  0.3200E+02
     33.234  0.0000E+00  0.0000E+00  0.3200E+02  0.3200E+02
     33.349  0.0000E+00  0.0000E+00  0.3200E+02  0.3200E+02
     33.464  0.0000E+00  0.0000E+00  0.3200E+02  0.3200E+02
     33.580  0.0000E+00  0.0000E+00  0.3200E+02  0.3200E+02
     33.695  0.0000E+00  0.0000E+00  0.3200E+02  0.3200E+02
