    4    4    1    2
  0.1064635E+02  0.3492102E-09  0.3492102E-09  0.3492102E-09  0.5000000E-15
  1.000000000000000E-004
  CAR 
 automatically generated by pyflamestk   
     40      4     32
 
  0.1250000E+00  0.1250000E+00  0.1250000E+00  0.1250000E+00
    1        1.119867      1.119850   1.000000   1.000000
    2        5.333151      5.333007   1.000000   1.000000
    3        5.333151      5.333007   1.000000   1.000000
    4        5.333151      5.333007   1.000000   1.000000
    5        5.903656      5.903488   1.000000   1.000000
    6        5.903656      5.903488   1.000000   1.000000
    7        5.903656      5.903488   1.000000   1.000000
    8        7.440633      7.440440   1.000000   1.000000
    9        7.725363      7.725164   1.000000   1.000000
   10        7.725363      7.725164   1.000000   1.000000
   11        8.703055      8.702802   1.000000   1.000000
   12        8.703055      8.702802   1.000000   1.000000
   13        8.725282      8.725107   1.000000   1.000000
   14        8.725282      8.725107   1.000000   1.000000
   15        8.725282      8.725107   1.000000   1.000000
   16        9.206395      9.206144   1.021781   1.021724
   17        9.206395      9.206144   1.021781   1.021724
   18        9.206395      9.206144   1.021781   1.021724
   19        9.608845      9.608614   0.199832   0.200592
   20        9.608845      9.608614   0.199832   0.200592
   21        9.608845      9.608614   0.199832   0.200592
   22       12.353321     12.353234  -0.000000  -0.000000
   23       12.353321     12.353234  -0.000000  -0.000000
   24       12.353321     12.353234  -0.000000  -0.000000
   25       20.705865     20.705749   0.000000   0.000000
   26       20.705865     20.705749   0.000000   0.000000
   27       20.705865     20.705749   0.000000   0.000000
   28       22.018802     22.018756   0.000000   0.000000
   29       22.018802     22.018756   0.000000   0.000000
   30       22.018802     22.018756   0.000000   0.000000
   31       25.665245     25.665211   0.000000   0.000000
   32       25.665245     25.665211   0.000000   0.000000
 
  0.3750000E+00  0.1250000E+00  0.1250000E+00  0.3750000E+00
    1        2.637906      2.637885   1.000000   1.000000
    2        4.784653      4.784587   1.000000   1.000000
    3        5.997340      5.997182   1.000000   1.000000
    4        5.997340      5.997182   1.000000   1.000000
    5        6.349749      6.349575   1.000000   1.000000
    6        6.359650      6.359488   1.000000   1.000000
    7        6.359650      6.359488   1.000000   1.000000
    8        7.000244      7.000060   1.000000   1.000000
    9        7.400191      7.400025   1.000000   1.000000
   10        7.400191      7.400025   1.000000   1.000000
   11        7.811072      7.810887   1.000000   1.000000
   12        7.881826      7.881614   1.000000   1.000000
   13        8.033492      8.033286   1.000000   1.000000
   14        8.553750      8.553526   1.000000   1.000000
   15        8.621085      8.620864   1.000000   1.000000
   16        8.753564      8.753320   1.000000   1.000000
   17        8.753564      8.753320   1.000000   1.000000
   18        9.012639      9.012386   1.000744   1.000739
   19        9.402716      9.402466   0.939703   0.940204
   20        9.522208      9.521987   0.541262   0.542192
   21        9.522208      9.521987   0.541262   0.542192
   22        9.622340      9.622152   0.157490   0.158048
   23       14.677770     14.677676  -0.000000  -0.000000
   24       14.677770     14.677676  -0.000000  -0.000000
   25       17.987246     17.987174   0.000000   0.000000
   26       17.987246     17.987174   0.000000   0.000000
   27       21.716469     21.716376   0.000000   0.000000
   28       21.716469     21.716376   0.000000   0.000000
   29       23.808974     23.808927   0.000000   0.000000
   30       23.987685     23.987625   0.000000   0.000000
   31       23.987685     23.987625   0.000000   0.000000
   32       26.935305     26.935269   0.000000   0.000000
 
  0.3750000E+00  0.3750000E+00  0.1250000E+00  0.3750000E+00
    1        3.908164      3.908129   1.000000   1.000000
    2        5.535744      5.535648   1.000000   1.000000
    3        5.535744      5.535648   1.000000   1.000000
    4        6.045928      6.045785   1.000000   1.000000
    5        6.639643      6.639477   1.000000   1.000000
    6        6.747140      6.746979   1.000000   1.000000
    7        6.747140      6.746979   1.000000   1.000000
    8        7.025188      7.025019   1.000000   1.000000
    9        7.210801      7.210610   1.000000   1.000000
   10        7.210801      7.210610   1.000000   1.000000
   11        7.328938      7.328773   1.000000   1.000000
   12        7.648693      7.648485   1.000000   1.000000
   13        7.985155      7.984937   1.000000   1.000000
   14        8.336424      8.336192   1.000000   1.000000
   15        8.337125      8.336900   1.000000   1.000000
   16        8.337125      8.336900   1.000000   1.000000
   17        8.644524      8.644296   1.000000   1.000000
   18        9.172507      9.172281   1.014535   1.014491
   19        9.172507      9.172281   1.014535   1.014491
   20        9.240474      9.240249   1.029498   1.029451
   21        9.585951      9.585720   0.280561   0.281424
   22       11.109367     11.109197  -0.000000  -0.000000
   23       11.109367     11.109197  -0.000000  -0.000000
   24       13.423653     13.423539  -0.000000  -0.000000
   25       16.967137     16.967050   0.000000   0.000000
   26       19.797069     19.797001   0.000000   0.000000
   27       19.797069     19.797001   0.000000   0.000000
   28       22.811247     22.811194   0.000000   0.000000
   29       22.935922     22.935848   0.000000   0.000000
   30       25.410433     25.410380   0.000000   0.000000
   31       25.410433     25.410380   0.000000   0.000000
   32       28.289293     28.289258   0.000000   0.000000
 
  0.3750000E+00  0.3750000E+00  0.3750000E+00  0.1250000E+00
    1        4.524987      4.524906   1.000000   1.000000
    2        5.280526      5.280398   1.000000   1.000000
    3        5.280526      5.280398   1.000000   1.000000
    4        5.280526      5.280398   1.000000   1.000000
    5        7.247029      7.246836   1.000000   1.000000
    6        7.247029      7.246836   1.000000   1.000000
    7        7.247029      7.246836   1.000000   1.000000
    8        7.651640      7.651427   1.000000   1.000000
    9        7.651640      7.651427   1.000000   1.000000
   10        7.809486      7.809269   1.000000   1.000000
   11        7.809486      7.809269   1.000000   1.000000
   12        7.809486      7.809269   1.000000   1.000000
   13        7.868411      7.868320   1.000000   1.000000
   14        7.900007      7.899868   1.000000   1.000000
   15        7.900007      7.899868   1.000000   1.000000
   16        7.900007      7.899868   1.000000   1.000000
   17        9.278945      9.278707   1.035220   1.035206
   18        9.278945      9.278707   1.035220   1.035206
   19        9.516326      9.516087   0.565983   0.566983
   20        9.516326      9.516087   0.565983   0.566983
   21        9.516326      9.516087   0.565983   0.566983
   22       11.125498     11.125367  -0.000000  -0.000000
   23       11.125498     11.125367  -0.000000  -0.000000
   24       11.125498     11.125367  -0.000000  -0.000000
   25       16.315871     16.315767   0.000000   0.000000
   26       16.315871     16.315767   0.000000   0.000000
   27       16.315871     16.315767   0.000000   0.000000
   28       18.754166     18.754088   0.000000   0.000000
   29       29.326040     29.326002   0.000000   0.000000
   30       29.326040     29.326002   0.000000   0.000000
   31       29.326040     29.326002   0.000000   0.000000
   32       31.694987     31.694933   0.000000   0.000000
