LAMMPS (10 Feb 2015)
Reading data file ...
  triclinic box = (0 0 0) to (4.2565 4.2565 4.2565) with tilt (0 0 0)
  1 by 1 by 1 MPI processor grid
  reading atoms ...
  8 atoms
4 atoms in group Mg
4 atoms in group O
Setting atom values ...
  4 settings made for charge
Setting atom values ...
  4 settings made for charge
PPPM initialization ...
  G vector (1/distance) = 0.352172
  grid = 8 8 8
  stencil order = 5
  estimated absolute RMS force accuracy = 3.68665e-05
  estimated relative force accuracy = 2.56024e-06
  using double precision FFTs
  3d grid and FFT values/proc = 3375 512
Neighbor list info ...
  1 neighbor list requests
  update every 1 steps, delay 0 steps, check yes
  master list distance cutoff = 11
Setting up minimization ...
Memory usage per processor = 4.06549 Mbytes
Step PotEng Lx Ly Lz Xy Xz Yz Press Pxx Pyy Pzz Pxy Pxz Pyz eatoms 
       0   -101.30442       4.2565       4.2565       4.2565            0            0            0    88329.967    88329.967    88329.967    88329.967 -1.1961844e-11 -2.4099438e-10 5.9240466e-12   -101.30442 
      10    -101.3918     4.299065     4.299065     4.299065            0            0            0    35693.934    35693.934    35693.934    35693.934 1.4632835e-11 -2.3788485e-11 -3.8066587e-11    -101.3918 
      20   -101.41159    4.3315082    4.3315082    4.3315082            0            0            0   -5.9294003   -5.9294003   -5.9294003   -5.9294003 1.7198652e-10 1.1926792e-10 -5.3176444e-11   -101.41159 
Loop time of 0.0118399 on 1 procs for 20 steps with 8 atoms

Minimization stats:
  Stopping criterion = linesearch alpha is zero
  Energy initial, next-to-last, final = 
        -101.304424021     -101.411593199     -101.411593199
  Force two-norm initial, final = 12.7549 0.00088671
  Force max component initial, final = 12.7549 0.000886651
  Final line search alpha, max atom move = 0.015625 1.38539e-05
  Iterations, force evaluations = 20 34

Pair  time (%) = 0.00325155 (27.4627)
Kspce time (%) = 0.0020051 (16.9352)
Neigh time (%) = 0 (0)
Comm  time (%) = 0.000350714 (2.96214)
Outpt time (%) = 1.21593e-05 (0.102698)
Other time (%) = 0.00622034 (52.5373)

Nlocal:    8 ave 8 max 8 min
Histogram: 1 0 0 0 0 0 0 0 0 0
Nghost:    2189 ave 2189 max 2189 min
Histogram: 1 0 0 0 0 0 0 0 0 0
Neighs:    2344 ave 2344 max 2344 min
Histogram: 1 0 0 0 0 0 0 0 0 0

Total # of neighbors = 2344
Ave neighs/atom = 293
Neighbor list builds = 0
Dangerous builds = 0
pypospack:output_section:begin
tot_energy = -101.411593198701
num_atoms = 8
xx = 4.33150823558717
yy = 4.33150823558717
zz = 4.33150823558717
xy = 0
xz = 0
yz = 0
tot_press = -5.92940031006952
pxx = -5.92940030994687
pyy = -5.92940031012476
pzz = -5.92940031013695
pxy = 1.71986520125442e-10
pxz = 1.19267916823708e-10
pyz = -5.31764436793611e-11
pypospack:output_section:done
pypospack:lammps_sim:done
PPPM initialization ...
  G vector (1/distance) = 0.351443
  grid = 8 8 8
  stencil order = 5
  estimated absolute RMS force accuracy = 3.81088e-05
  estimated relative force accuracy = 2.64651e-06
  using double precision FFTs
  3d grid and FFT values/proc = 3375 512
Setting up run ...
Memory usage per processor = 3.06549 Mbytes
Step Temp PotEng KinEng TotEng Press Lx Ly Lz Press Pxx Pyy Pzz Pxy Pxz Pyz Volume 
       0         1600    -101.4116    1.4477136    -99.96389    19019.918    4.3315082    4.3315082    4.3315082    19019.918    25158.207    14640.534    17261.012    6807.9394    10667.326   -7591.4906      81.2676 
     100    555.86149   -100.28648   0.50295516   -99.783529    23762.982    4.3628243    4.3628243    4.3628243    23762.982    32456.132   -10525.142    49357.957   -6377.1628   -11154.152    143.07205    83.043029 
     200    1063.0883   -100.34301   0.96190468    -99.38111   -18519.726    4.4157359    4.4157359    4.4157359   -18519.726    38506.441   -66653.733   -27411.886     5480.053   -13798.556   -6333.4043    86.101214 
     300    1228.9807   -100.15815    1.1120076   -99.046141   -4029.6379    4.4181818    4.4181818    4.4181818   -4029.6379    50735.565   -54128.927   -8695.5517    -8252.117   -22802.354   -7869.0392    86.244369 
     400     1338.185   -99.958658    1.2108179    -98.74784    9404.5774    4.3918936    4.3918936    4.3918936    9404.5774    17196.144   -42639.863    53657.451    3810.2131   -25414.379   -8043.0336     84.71405 
     500    2114.4585   -100.49017    1.9132065   -98.576961    7723.2373    4.3903104    4.3903104    4.3903104    7723.2373    48372.155   -9730.3669   -15472.076   -13864.594    9406.0963   -23408.671    84.622467 
     600    1308.8732   -99.687167     1.184296   -98.502871    4087.8287     4.408504     4.408504     4.408504    4087.8287    33930.601    -72096.35    50429.236   -12297.139   -2669.9262   -5531.0856    85.678866 
     700    1698.1758   -100.00761    1.5365451    -98.47106   -12264.821     4.436701     4.436701     4.436701   -12264.821     37807.91   -65483.369   -9119.0041   -17470.282    15794.303   -1745.4781    87.333423 
     800    1536.5141   -99.831909    1.3902702   -98.441638   -10942.639    4.4255782    4.4255782    4.4255782   -10942.639    36044.595   -69583.793    711.28186   -16165.211   -17243.097    31.471237    86.678233 
     900     1565.111   -99.841502    1.4161453   -98.425357    11617.782    4.4078773    4.4078773    4.4078773    11617.782    12746.692   -42107.028    64213.684    6208.1597   -23784.428    8285.5459    85.642331 
    1000    1885.8419   -100.15588    1.7063494   -98.449535   -1084.5356    4.4021823    4.4021823    4.4021823   -1084.5356   -29776.615     9091.066    17431.943    3343.2809   -39310.507   -8195.3368    85.310813 
    1100    1463.2967   -99.794057    1.3240216   -98.470036    15803.845    4.4071657    4.4071657    4.4071657    15803.845    -12708.29   -40503.829    100623.65    8491.5548   -10828.651    3694.7424    85.600865 
    1200    1573.7029   -99.904246    1.4239194   -98.480326    3526.4557    4.4185603    4.4185603    4.4185603    3526.4557   -40263.311    5006.8191     45835.86    10266.927    616.77334   -13746.979    86.266538 
    1300    1805.7141   -100.09401    1.6338481   -98.460167    -29678.38    4.4206222    4.4206222    4.4206222    -29678.38   -13570.897   -63267.532   -12196.709   -10642.112    7948.8907   -1382.0407    86.387358 
    1400    1977.0022   -100.23802    1.7888331   -98.449189   -29601.826    4.4127877    4.4127877    4.4127877   -29601.826   -58607.252   -36476.011    6277.7851      4041.55    5613.2436   -9079.4772     85.92887 
    1500    2071.0243   -100.32479    1.8739063    -98.45088   -23643.308    4.4112548    4.4112548    4.4112548   -23643.308   -38983.397   -33681.328    1734.8027    1613.3455   -4558.7679    17259.454    85.839351 
    1600    1145.1855   -99.496579    1.0361879   -98.460391   -8021.2287    4.4168578    4.4168578    4.4168578   -8021.2287   -46111.011   -62273.763    84321.089    2987.5992    8567.1288    14674.574     86.16686 
    1700    1991.8454   -100.26631    1.8022636   -98.464049   -29524.148    4.4165611    4.4165611    4.4165611   -29524.148   -73757.975   -16042.365     1227.896   -2385.0719   -22506.963    29534.835    86.149491 
    1800    1439.9553   -99.759612    1.3029018    -98.45671    14273.039    4.4073638    4.4073638    4.4073638    14273.039   -6051.2047   -60249.026    109119.35   -442.82148   -8169.2006    8166.7934    85.612405 
    1900    1561.2605   -99.879645    1.4126613   -98.466984   -7628.9132    4.4092542    4.4092542    4.4092542   -7628.9132   -43659.281   -9126.8815    29899.423    10632.223   -21440.114    5063.8614    85.722615 
    2000    1935.7181   -100.19857    1.7514785   -98.447095    135.67321    4.4190416    4.4190416    4.4190416    135.67321   -12119.135   -37226.643    49752.798    9402.8473    5405.0591   -108.92893    86.294729 
    2100    1143.6489   -99.489505    1.0347976   -98.454707   -11406.764    4.4131566    4.4131566    4.4131566   -11406.764   -37781.428    2349.7987    1211.3376   -9315.1641   -30819.149    14351.526    85.950424 
    2200     2212.845   -100.44683    2.0022287   -98.444601    3174.0631    4.4058068    4.4058068    4.4058068    3174.0631   -28021.053    15152.949    22390.294    4613.3892     975.2846    4889.3292    85.521706 
    2300    1310.8687   -99.651206    1.1861015   -98.465104   -30894.099    4.4203745    4.4203745    4.4203745   -30894.099   -65452.999    14257.245   -41486.543    5500.9751   -34112.136    14161.929    86.372841 
    2400    1136.5664    -99.49298    1.0283891   -98.464591    9871.5504     4.419128     4.419128     4.419128    9871.5504   -37461.707   -38829.077    105905.44    10907.984    12340.881    2684.3057    86.299792 
    2500    2105.6576   -100.37397    1.9052432   -98.468724   -14328.273     4.406735     4.406735     4.406735   -14328.273    -35504.59   -30450.693    22970.465   -1717.4291   -39946.359    9827.2078    85.575766 
    2600    1594.1151   -99.927655    1.4423889   -98.485266     -17963.2    4.4061958    4.4061958    4.4061958     -17963.2   -31997.919   -25412.384    3520.7022    5897.0691    -2530.684    6940.3505    85.544356 
    2700    1742.9073   -100.07228    1.5770192   -98.495263    15989.314    4.4133784    4.4133784    4.4133784    15989.314    -32186.07    6541.3315    73612.681    -7359.653   -4717.0514    1161.0036    85.963385 
    2800    1757.6935   -100.06306     1.590398   -98.472661   -42336.721    4.4272433    4.4272433    4.4272433   -42336.721   -36463.513   -70356.063   -20190.588   -97.688884   -1010.8943    2062.9446    86.776108 
    2900    1495.0063   -99.796383    1.3527131    -98.44367   -7104.2628    4.4139166    4.4139166    4.4139166   -7104.2628   -34845.625   -14186.583    27719.419    1633.2883   -700.77768    1145.2708    85.994834 
    3000    1909.2489   -100.15722    1.7275285   -98.429694    22874.701    4.3974297    4.3974297    4.3974297    22874.701    70709.958    -5401.531    3315.6773   -6189.9358   -5856.5319     8868.131    85.034801 
    3100    1230.7109   -99.572598    1.1135731   -98.459025   -10331.718     4.408453     4.408453     4.408453   -10331.718   -4156.0721   -49660.379    22821.298     8782.995   -1932.8979    1188.0577    85.675894 
    3200    2128.4986   -100.39462    1.9259103   -98.468708   -5314.9174    4.4162699    4.4162699    4.4162699   -5314.9174    19231.869    -13495.29   -21681.331    288.52455   -11638.792    12525.567    86.132456 
    3300    912.63307   -99.301071   0.82576958   -98.475302   -3730.5727    4.4249354    4.4249354    4.4249354   -3730.5727   -11066.814   -25973.913    25849.008   -2237.6564   -9734.8685    10450.563    86.640471 
    3400    1629.5762   -99.920183    1.4744748   -98.445709    13004.443    4.4068606    4.4068606    4.4068606    13004.443     35913.15   -3829.8014    6929.9799    7969.6702   -8146.7799    6910.0253    85.583084 
    3500    1636.1468   -99.930394      1.48042   -98.449974    5728.4254    4.4102934    4.4102934    4.4102934    5728.4254    31954.186   -11205.728   -3563.1819   -13544.877    2652.1731    4885.4491    85.783241 
    3600     997.6317   -99.366952   0.90267812   -98.464274   -13494.517    4.4216098    4.4216098    4.4216098   -13494.517    -9930.232   -31886.399    1333.0806   -729.20367   -34629.372    3025.1972    86.445274 
    3700    1889.1273   -100.16435    1.7093221    -98.45503    9141.2573    4.4188714    4.4188714    4.4188714    9141.2573    10854.783    12277.917    4291.0723     -5565.59    17733.389    10892.806    86.284761 
    3800     1473.281   -99.788355    1.3330556     -98.4553   -41701.566    4.4189622    4.4189622    4.4189622   -41701.566   -27048.379   -47330.551   -50725.769    3830.3497   -25798.199   -10348.357    86.290075 
    3900    1718.3282   -100.01169    1.5547795   -98.456912    24235.515    4.4071132    4.4071132    4.4071132    24235.515    28442.032     32612.86    11651.652   -20804.611    13436.251    1326.0389    85.597804 
    4000    1597.5332   -99.912478    1.4454816   -98.466997      13420.3    4.3952385    4.3952385    4.3952385      13420.3    13924.577     2951.078    23385.245   -7969.2007   -23377.346   -1459.4283    84.907753 
    4100    1268.0324   -99.636934    1.1473424   -98.489592    10187.455    4.4187008    4.4187008    4.4187008    10187.455    29524.839    49084.483   -48046.956   -1605.1784   -4010.2826   -255.34671    86.274765 
    4200    2125.0328   -100.39275    1.9227743   -98.469976   -50530.444    4.4270125    4.4270125    4.4270125   -50530.444   -50694.361   -25533.128   -75363.841   -10353.534   -26421.965    -5177.075    86.762536 
    4300    1486.0352   -99.799796    1.3445959     -98.4552    13846.754      4.40623      4.40623      4.40623    13846.754   -5236.8198    51553.541     -4776.46   -4896.9441    17038.956    2281.0399    85.546354 
    4400    1257.7612   -99.614214    1.1380487   -98.476165    36357.251    4.4057352    4.4057352    4.4057352    36357.251     90264.23    22258.841   -3451.3171     25701.01   -18225.156   -8554.5473    85.517532 
    4500    2155.6744   -100.41865    1.9504995   -98.468148   -24363.982     4.425948     4.425948     4.425948   -24363.982   -18251.865    -9922.087   -44917.993   -7544.5196    4968.3747    4000.1725    86.699964 
    4600    1018.3212   -99.382928   0.92139846   -98.461529    -1127.955    4.4256904    4.4256904    4.4256904    -1127.955    69487.383   -12342.824   -60528.424    11477.817   -28369.334    634.86093    86.684827 
    4700    1845.6776   -100.12961    1.6700079     -98.4596    30074.614    4.4056055    4.4056055    4.4056055    30074.614    35951.769     66441.84   -12169.767    3381.9073    8621.3176   -9986.8065    85.509984 
    4800    1482.6722   -99.817776     1.341553   -98.476223   -19405.371    4.4038156    4.4038156    4.4038156   -19405.371    3810.7852   -36107.003   -25919.895    -7448.487   -30783.927    -5636.454    85.405803 
    4900    1712.8404   -100.03074     1.549814    -98.48093    3430.3193    4.4169066    4.4169066    4.4169066    3430.3193     13263.93    28688.012   -31660.984    4934.7496    11033.534    15329.408    86.169716 
    5000    1349.2632   -99.694318    1.2208417   -98.473476    171.58774    4.4128704    4.4128704    4.4128704    171.58774    22905.671    40974.257   -63365.165   -4667.7603    -19788.01   -8812.1121    85.933703 
    5100    2125.1888   -100.37397    1.9229154   -98.451051   -27900.702    4.4145586    4.4145586    4.4145586   -27900.702    -8935.108   -42033.388   -32733.609   -9479.6741    11572.954   -16644.544    86.032366 
    5200    1355.3418   -99.679726    1.2263418   -98.453384    3829.4889    4.4120549    4.4120549    4.4120549    3829.4889   -7840.3208    83384.261   -64055.473     4227.253    -25648.63   -569.84082    85.886067 
    5300    1526.1096   -99.817274     1.380856   -98.436418    26826.649    4.4058585    4.4058585    4.4058585    26826.649    50824.097    13491.302    16164.547   -8125.8599    7219.8059    13489.007    85.524716 
    5400    1545.3335   -99.854782    1.3982502   -98.456532   -4663.7171    4.4122835    4.4122835    4.4122835   -4663.7171   -2656.2932   -3561.1865   -7773.6716    624.98611   -30719.493   -13224.777    85.899419 
    5500    1575.9932    -99.87591    1.4259918   -98.449918    9433.1279    4.4245414    4.4245414    4.4245414    9433.1279    66628.327    28334.788   -66663.731   -18330.008     4321.078   -20311.839    86.617328 
    5600    2082.2247   -100.33908    1.8840407   -98.455038   -36647.865    4.4216711    4.4216711    4.4216711   -36647.865   -29297.446   -30553.851   -50092.298   -16101.663   -24865.174   -2012.4681    86.448868 
    5700    1324.3895   -99.656527    1.1983354   -98.458191    13695.159    4.4121651    4.4121651    4.4121651    13695.159    34933.064    48319.147   -42166.734   -7827.0422   -445.47614   -6524.2599    85.892503 
    5800    1593.1724   -99.906798    1.4415359   -98.465262   -20126.258    4.4154998    4.4154998    4.4154998   -20126.258   -46819.774    41542.285   -55101.286    2381.8956   -43408.345   -10291.047    86.087401 
    5900    1582.6582   -99.884296    1.4320224   -98.452273    17033.599    4.4147448    4.4147448    4.4147448    17033.599    22636.868    29655.269   -1191.3389   -21633.289    14629.141    2323.0968    86.043248 
    6000     1656.345   -99.959664    1.4986958   -98.460968   -26269.762    4.4200693    4.4200693    4.4200693   -26269.762   -70440.896    10810.917   -19179.306   -8493.2953   -15005.537    1205.6017     86.35495 
    6100    1881.6412   -100.15878    1.7025485   -98.456234    16310.694    4.4183103    4.4183103    4.4183103    16310.694    35681.377    10626.952     2623.752   -4181.8171    9694.7347   -11456.131    86.251891 
    6200    1256.0064   -99.597453     1.136461   -98.460992    5263.0635    4.4194783    4.4194783    4.4194783    5263.0635   -7184.8193      4604.59     18369.42   -8982.2568   -4795.7813   -4025.0953    86.320314 
    6300    2028.2982   -100.27839    1.8352468   -98.443142    4424.8423    4.4299678    4.4299678    4.4299678    4424.8423    9392.9467   -6429.3962    10310.976   -11519.208    6577.8857   -9188.9223    86.936414 
    6400    1215.8398   -99.525497    1.1001174   -98.425379   -2963.6117    4.4340755    4.4340755    4.4340755   -2963.6117   -17876.219    -10900.22    19885.604    4734.2149   -5513.8527   -2240.7791    87.178472 
    6500    1705.4709   -99.947573    1.5431459   -98.404427    12184.034    4.4248467    4.4248467    4.4248467    12184.034    61487.428   -27115.362    2180.0375    -7885.972     18673.23    18925.622    86.635263 
    6600    1561.1441   -99.854115     1.412556   -98.441559   -9864.4411    4.4179908    4.4179908    4.4179908   -9864.4411    29488.782   -7725.0244   -51357.081   -1969.3037   -27500.902    3160.3749    86.233185 
    6700    1607.0803   -99.908128    1.4541201   -98.454008   -4691.5954    4.4117823    4.4117823    4.4117823   -4691.5954   -15235.776    13468.392   -12307.402    8044.3249   -2942.5913   -14916.893    85.870148 
    6800    1574.7517   -99.889579    1.4248684    -98.46471   -16019.809    4.4239571    4.4239571    4.4239571   -16019.809   -6884.8004    2558.4265   -43733.053   -2999.9607   -23621.985   -1676.3477    86.583018 
    6900    1472.9214   -99.785116    1.3327302   -98.452386   -16925.812     4.428171     4.428171     4.428171   -16925.812    15110.369   -1477.6547    -64410.15    4350.6567   -24533.136    12582.299    86.830668 
    7000    1617.6756    -99.91305    1.4637069   -98.449343   -11004.618    4.4214048    4.4214048    4.4214048   -11004.618   -2154.8698   -13444.756   -17414.228   -6933.4095   -14670.433   -4492.2164    86.433251 
    7100    2004.1581   -100.25974    1.8134044    -98.44634   -25743.774    4.4174096    4.4174096    4.4174096   -25743.774   -1432.2044   -38921.011   -36878.106    6619.2271    630.14324    12985.882    86.199155 
    7200    1544.2455   -99.843502    1.3972658   -98.446236   -29863.817    4.4248495    4.4248495    4.4248495   -29863.817   -41782.514   -21509.412   -26299.524   -9071.1046   -3997.6151    6984.5341    86.635425 
    7300    1739.8873   -100.00231    1.5742866   -98.428028    2890.9996    4.4260829    4.4260829    4.4260829    2890.9996    20236.565    -6082.937   -5480.6292   -17363.953   -690.66621   -6383.3789     86.70789 
    7400     1034.142   -99.360784   0.93571343    -98.42507     4088.407    4.4173127    4.4173127    4.4173127     4088.407   -2383.1045    18229.378   -3581.0524    5793.0012   -5196.4515   -5065.0433    86.193482 
    7500    2013.7906   -100.25057      1.82212   -98.428455   -3703.4122    4.4131558    4.4131558    4.4131558   -3703.4122   -35549.364   -1436.4831     25875.61   -20940.189   -14851.164    5577.9226    85.950373 
    7600    1575.9444   -99.874026    1.4259476   -98.448078   -12071.108    4.4201822    4.4201822    4.4201822   -12071.108    29848.127   -24935.541    -41125.91   -14894.124   -18630.429    8550.8413    86.361568 
    7700    1086.0984     -99.4506   0.98272467   -98.467875    29082.417    4.4168205    4.4168205    4.4168205    29082.417    32309.574   -16121.256    71058.933   -3586.4956    -11296.23   -18128.233    86.164672 
    7800    1924.6707   -100.22143    1.7414825    -98.47995   -13482.473    4.4187137    4.4187137    4.4187137   -13482.473    8888.5104   -41530.123   -7805.8057    13106.568   -11585.958   -11080.152    86.275522 
    7900    1278.4715   -99.634591    1.1567878   -98.477804    37237.223    4.4158822    4.4158822    4.4158822    37237.223    96667.693   -33915.776    48959.753   -11936.014   -20509.881    5096.9507    86.109769 
    8000    1751.3384   -100.05261    1.5846478   -98.467966   -27974.568    4.4302344    4.4302344    4.4302344   -27974.568   -66236.035   -68835.158    51147.489   -1144.9747    7206.5718   -9690.4152    86.952107 
    8100    1432.8964   -99.748104    1.2965148    -98.45159    1525.9699    4.4269221    4.4269221    4.4269221    1525.9699    35210.863   -34681.137    4048.1837    3381.3886   -13783.823    9066.0929    86.757225 
    8200    1476.6236   -99.780378      1.33608   -98.444298    10622.572    4.4245561    4.4245561    4.4245561    10622.572   -21582.013    5289.1472    48160.581    1092.3179    13669.977     18770.68    86.618192 
    8300    803.46522    -99.16144   0.72699222   -98.434448    14282.327    4.4270566    4.4270566    4.4270566    14282.327   -6017.0785    26236.676    22627.382    1779.8368   -7054.1853    29590.692    86.765128 
    8400    2002.1175   -100.22532     1.811558   -98.413767    470.02247    4.4197255    4.4197255    4.4197255    470.02247   -52332.677    53627.148    115.59725    9666.6854   -9382.8541    6387.1714      86.3348 
    8500    1159.3278   -99.479466    1.0489842   -98.430482   -9411.5484     4.431947     4.431947     4.431947   -9411.5484   -40791.018    27106.823    -14550.45    2226.7645    -7113.714    5790.3413    87.052984 
    8600    1533.8475   -99.816268    1.3878575   -98.428411   -12780.633    4.4290815    4.4290815    4.4290815   -12780.633   -33066.688   -22810.071    17534.859    3373.3885    2473.9312    15162.242    86.884241 
    8700    1475.4151   -99.766171    1.3349866   -98.431185    26843.426    4.4110297    4.4110297    4.4110297    26843.426   -6969.7561    32338.941    55161.094     12166.17   -11370.638    5191.0636    85.826212 
    8800    1450.5625   -99.762755    1.3124994   -98.450256   -11771.188    4.4069496    4.4069496    4.4069496   -11771.188   -7356.5205    -16949.21   -11007.832   -20368.822    6871.3547    2415.6465    85.588268 
    8900    1592.8063   -99.900417    1.4412046   -98.459212    19539.797    4.4217162    4.4217162    4.4217162    19539.797    32643.869     36490.99   -10515.467   -15808.888    7215.5902   -2537.9923     86.45151 
    9000    1399.7846   -99.711229    1.2665545   -98.444674   -14945.251    4.4275751    4.4275751    4.4275751   -14945.251   -34061.209    -15689.94    4915.3954   -9056.1385   -5180.3104    2270.0481     86.79562 
    9100    1400.6724   -99.683239    1.2673579   -98.415881    27426.585    4.4212955    4.4212955    4.4212955    27426.585    9150.4174    61982.963    11146.375    9288.2718    5399.3892    32157.022    86.426839 
    9200    1600.2397   -99.884572    1.4479305   -98.436642   -6324.1178    4.4183838    4.4183838    4.4183838   -6324.1178   -8566.5378    10489.692   -20895.507   -3381.7662   -8044.2048   -973.78714      86.2562 
    9300    1136.0208   -99.468239    1.0278955   -98.440343    35295.217    4.4081433    4.4081433    4.4081433    35295.217    39451.335    89369.919   -22935.605   -19057.539   -1891.9066    4577.6896    85.657839 
    9400    1928.4147   -100.20682    1.7448701   -98.461952   -11926.122    4.4092717    4.4092717    4.4092717   -11926.122   -37213.915    29577.626   -28142.077    12945.152    2721.4283    13928.785    85.723637 
    9500    1877.7638   -100.16096    1.6990401   -98.461925   -8893.6259    4.4211358    4.4211358    4.4211358   -8893.6259   -240.07822   -8567.0306   -17873.769   -1934.4312   -3675.1588    9841.2066    86.417475 
    9600    956.02712      -99.338   0.86503343   -98.472967   -24050.897    4.4284547    4.4284547    4.4284547   -24050.897   -31397.254   -25118.987   -15636.449     5880.973   -10446.862    3485.1538    86.847362 
    9700    2381.3877   -100.59275    2.1547296   -98.438024    74.450555    4.4086337    4.4086337    4.4086337    74.450555    2872.4003   -6529.0169    3879.9683    6510.2823    11731.546    18835.431    85.686432 
    9800    1143.6472   -99.495704     1.034796   -98.460908   -14720.501    4.4153182    4.4153182    4.4153182   -14720.501   -34696.085   -15262.135    5796.7176   -16221.125    -16053.21   -1912.9528    86.076784 
    9900    2213.0932   -100.44835    2.0024532   -98.445897    -10538.74    4.4191226    4.4191226    4.4191226    -10538.74   -14015.962   -7618.8565   -9981.4018    14349.381    2189.3949    24465.177    86.299476 
   10000    1058.1776   -99.405294   0.95746133   -98.447832    20578.793     4.424379     4.424379     4.424379    20578.793    22895.572    10948.885    27891.921   -2586.3952   -7389.4249   -5320.4128    86.607792 
   10100    2060.8992   -100.28648    1.8647449   -98.421736   -16258.978    4.4303567    4.4303567    4.4303567   -16258.978    4623.6365   -42211.339    -11189.23   -1307.8314    4732.2705    9814.9624    86.959307 
   10200    1563.1723   -99.835646    1.4143912   -98.421255   -16123.807    4.4149299    4.4149299    4.4149299   -16123.807   -37595.178    25669.413   -36445.656   -12181.083   -2265.2565   -1805.4642    86.054076 
   10300    1985.7961     -100.228      1.79679   -98.431206    12244.513    4.4092306    4.4092306    4.4092306    12244.513    45991.065   -43963.612    34706.085   -7777.6073   -2358.5523    14243.001    85.721237 
   10400    1121.2638   -99.480096    1.0145431   -98.465553   -9365.7461     4.426509     4.426509     4.426509   -9365.7461   -26548.508    11607.055   -13155.785    1449.9219   -6592.2463   -8324.4109    86.732935 
   10500    1815.5022    -100.0907    1.6427045   -98.447999   -5188.5538    4.4260668    4.4260668    4.4260668   -5188.5538    35756.616   -66652.142    15329.865   -3903.9392   -4391.6779    10925.533    86.706945 
   10600    1597.2333   -99.886792    1.4452102   -98.441582     1978.842    4.4275424    4.4275424    4.4275424     1978.842    5821.2039   -649.58565    764.90788   -2446.1519   -15922.314    10118.435    86.793695 
   10700    1628.5338   -99.906758    1.4735316   -98.433227   -11922.303     4.431396     4.431396     4.431396   -11922.303    6950.3405   -41850.029   -867.22016   -8891.2942    -8052.599   -15073.485    87.020524 
   10800    1133.6905    -99.46135     1.025787   -98.435563    56251.305     4.419456     4.419456     4.419456    56251.305    60894.632    31900.525    75958.757   -1387.1374   -17217.878    8858.7451    86.319008 
   10900    1363.8396   -99.675661    1.2340308    -98.44163    7910.9588    4.4254446    4.4254446    4.4254446    7910.9588    71832.745     -15107.3   -32992.568   -11341.725   -11937.688   -8430.3226    86.670386 
   11000     1773.142   -100.04523    1.6043761   -98.440851    18289.814     4.425346     4.425346     4.425346    18289.814    44185.742   -24764.475    35448.173   -16234.307   -10602.153    3877.3746    86.664593 
   11100    1367.0711   -99.694634    1.2369547   -98.457679    10183.282     4.418006     4.418006     4.418006    10183.282   -5865.6784    26963.948     9451.576   -5233.0541   -9469.1049    -8673.154    86.234073 
   11200    2255.9796   -100.49592    2.0412578   -98.454665   -27041.927    4.4187638    4.4187638    4.4187638   -27041.927    -4581.519   -48866.558   -27677.705    1931.2216     1636.313    7864.1257    86.278454 
   11300    1418.7036   -99.749052    1.2836729   -98.465379    25131.248    4.4179926    4.4179926    4.4179926    25131.248    7084.9229    17945.186    50363.636   -15981.326   -14000.795     2064.583     86.23329 
   11400    1676.6787    -99.99027    1.5170942   -98.473176   -16848.889     4.434805     4.434805     4.434805   -16848.889    24968.724   -51931.499    -23583.89   -10378.583   -2778.3117    124.69368    87.221505 
   11500    1287.4347   -99.633042     1.164898   -98.468144    7330.1434     4.434496     4.434496     4.434496    7330.1434    93345.532   -50356.246   -20998.856    5790.6012    4093.3087   -2352.9054    87.203277 
   11600    1320.6261   -99.649773    1.1949302   -98.454843    38132.555    4.4275548    4.4275548    4.4275548    38132.555    67407.045   -10882.654    57873.275      4584.06   -3574.9477    23343.376    86.794427 
   11700     1413.597   -99.726192    1.2790522    -98.44714   -20879.535    4.4265739    4.4265739    4.4265739   -20879.535    18034.454   -69174.313   -11498.747    3769.4707   -10432.505    4360.6964    86.736752 
   11800    1255.6249   -99.587965    1.1361158   -98.451849    40771.552    4.4208663    4.4208663    4.4208663    40771.552    41245.219   -31542.407    112611.84   -8649.9147   -3573.3094   -1771.3594    86.401672 
   11900     1525.997   -99.836189    1.3807542   -98.455435   -11519.828    4.4256063    4.4256063    4.4256063   -11519.828    27096.254   -70763.297    9107.5582   -4439.5925   -28803.088   -3345.4673    86.679884 
   12000    1084.3909   -99.434993   0.98117967   -98.453813    16099.523    4.4163316    4.4163316    4.4163316    16099.523    37628.653   -52438.614     63108.53   -14.405784   -29312.415    5935.8495    86.136063 
   12100     2253.438    -100.4904    2.0389581   -98.451442    -17140.28    4.4092481    4.4092481    4.4092481    -17140.28   -25579.576   -56240.621    30399.356    5289.6731    1342.6002    1453.2843    85.722261 
   12200     1132.647   -99.490441    1.0248428   -98.465599   -424.77247     4.415155     4.415155     4.415155   -424.77247   -11604.422   -52209.628    62539.732    4536.6031    5307.3313    175.06314    86.067235 
   12300     2310.017   -100.54243     2.090152   -98.452275   -14658.289    4.4222978    4.4222978    4.4222978   -14658.289    13687.218   -35822.198   -21839.887       3726.6    5353.9062    7998.3884    86.485632 
   12400    1761.4823   -100.04526    1.5938262   -98.451433   -28144.388    4.4264859    4.4264859    4.4264859   -28144.388   -11349.679   -49939.149   -23144.337   -12131.292    12805.367    8926.3958    86.731581 
   12500    2162.1579    -100.3959    1.9563659   -98.439531   -18541.906    4.4233077    4.4233077    4.4233077   -18541.906   -13485.241    -28459.32   -13681.157     23135.46   -2984.1879    6653.4237    86.544897 
   12600    1814.9396   -100.06754    1.6421955   -98.425344   -12471.535     4.427212     4.427212     4.427212   -12471.535   -14944.168    11322.109   -33792.547   -1756.9559    12158.616    9497.9785    86.774269 
   12700    1548.6485   -99.824984    1.4012497   -98.423734   -11768.384    4.4376845    4.4376845    4.4376845   -11768.384   -57705.606   -5369.7544    27770.209   -7247.7512   -10958.918    7161.9859    87.391517 
   12800    1905.7126    -100.1452    1.7243288   -98.420869    342.71676    4.4228053    4.4228053    4.4228053    342.71676   -42795.813   -47727.346    91551.309   -804.18839    -14623.36    23224.142    86.515406 
   12900      1242.77   -99.571815    1.1244844    -98.44733    16320.315    4.4163617    4.4163617    4.4163617    16320.315   -8673.9654    -35027.21    92662.119    11664.777    4673.9861     1081.479    86.137827 
   13000    1552.8248   -99.875929    1.4050285     -98.4709    10479.842    4.4321774    4.4321774    4.4321774    10479.842    5365.6593    3103.4194    22970.448    3008.1167   -11302.448    14006.851    87.066565 
   13100    719.64178   -99.099047   0.65114701     -98.4479    6355.5066    4.4379227    4.4379227    4.4379227    6355.5066   -39459.261    30972.391     27553.39     23643.43   -21650.961    5583.7246    87.405591 
   13200     2301.605   -100.49238    2.0825406   -98.409842   -15734.258    4.4316009    4.4316009    4.4316009   -15734.258    8833.8848   -13837.898   -42198.763     3071.464    7619.6918    2638.9224    87.032592 
   13300    1609.2675   -99.877305     1.456099   -98.421206   -26434.434    4.4283815    4.4283815    4.4283815   -26434.434   -12251.041   -32269.316   -34782.944   -6660.4533   -1951.5327   -7605.2416    86.843051 
   13400    1415.2264   -99.702614    1.2805266   -98.422087    34028.196    4.4163201    4.4163201    4.4163201    34028.196   -21496.199    74965.267    48615.521    11265.692   -8061.9477   -8628.8156    86.135391 
   13500    1585.8197   -99.878236     1.434883   -98.443353     -288.046    4.4305342    4.4305342    4.4305342     -288.046   -7567.7804    21360.715   -14657.073     8474.949     3935.914    8313.2267    86.969764 
   13600    1851.6215   -100.10633     1.675386   -98.430947   -30946.018    4.4345475    4.4345475    4.4345475   -30946.018   -65990.692   -32021.736    5174.3731   -8636.9137     8899.905   -9505.9643    87.206315 
   13700    1529.2295   -99.824174     1.383679   -98.440495    15112.645    4.4162185    4.4162185    4.4162185    15112.645   -5587.3314    75638.962   -24713.695   -15959.028   -12744.666   -8807.9282    86.129445 
   13800    1491.7705   -99.808267    1.3497853   -98.458482    24464.721    4.4073219    4.4073219    4.4073219    24464.721    12558.793    51871.705    8963.6645    6360.4272   -11754.229   -11759.621    85.609961 
   13900    1499.6474   -99.841894    1.3569124   -98.484982   -8198.9855    4.4291227    4.4291227    4.4291227   -8198.9855   -41399.541     27487.11   -10684.525   -3318.9094   -8193.9014    15984.059    86.886666 
   14000    1653.7235   -99.934521    1.4963238   -98.438197   -6008.5688    4.4349774    4.4349774    4.4349774   -6008.5688   -47927.392    49201.067   -19299.382    5359.0932   -672.83238   -23791.533    87.231682 
   14100    1476.1506   -99.760419    1.3356521   -98.424767   -28425.151     4.434965     4.434965     4.434965   -28425.151   -61518.629    32297.563   -56054.388   -7580.6667    12720.532    21418.076    87.230947 
   14200    2074.4712   -100.29466    1.8770251   -98.417638     8447.233    4.4134569    4.4134569    4.4134569     8447.233   -4450.5412    57437.906   -27645.666   -13000.983    6286.9745    15130.367    85.967972 
   14300    1393.8343   -99.722511    1.2611705    -98.46134    8462.6033    4.4130978    4.4130978    4.4130978    8462.6033   -28407.757    31150.812    22644.755    3334.1585    5576.6599    14828.323    85.946986 
   14400    2037.4116   -100.31535    1.8434929   -98.471858   -18788.958    4.4364887    4.4364887    4.4364887   -18788.958   -68340.556    33194.485   -21220.803   -9829.5427   -7076.3166   -7137.3806    87.320886 
   14500    1269.8182   -99.598221    1.1489582   -98.449263   -15084.292    4.4406188    4.4406188    4.4406188   -15084.292   -57744.496    18293.802   -5802.1815   -1259.8514   -9193.1579   -6604.3059    87.564983 
   14600    1997.1638   -100.23693    1.8070757   -98.429858   -15161.374    4.4293576    4.4293576    4.4293576   -15161.374   -26020.325      9728.86   -29192.656   -26629.877   -547.58473   -21201.536    86.900491 
   14700    1542.2083   -99.822092    1.3954225    -98.42667    31290.676    4.4017301    4.4017301    4.4017301    31290.676   -22343.713    76054.465    40161.276    1419.7536   -10680.325    4643.5893    85.284521 
   14800    1632.3562    -99.97439    1.4769902   -98.497399   -8549.2607    4.4196879    4.4196879    4.4196879   -8549.2607   -47593.588     27797.78   -5851.9739    4545.3979     11304.15    13771.221    86.332598 
   14900    1625.6032   -99.959172      1.47088   -98.488292   -20274.028    4.4452231    4.4452231    4.4452231   -20274.028   -73229.997    81307.911   -68899.996   -7522.1151    8713.4388    6491.7008    87.837646 
   15000    1486.2029   -99.807837    1.3447476   -98.463089   -40216.958    4.4395148    4.4395148    4.4395148   -40216.958   -55044.566   -23465.269   -42141.038   -9067.4798   -12231.734    27335.059    87.499689 
   15100     1644.326   -99.918374    1.4878207   -98.430553    12193.247    4.4041437    4.4041437    4.4041437    12193.247    -3462.227    39622.911    419.05599    7324.5296   -1092.9201   -18933.083    85.424892 
   15200    1904.4811   -100.17993    1.7232145   -98.456717   -16257.031    4.4016178    4.4016178    4.4016178   -16257.031   -46927.449     1379.877   -3223.5193   -10012.056   -10180.886    37179.758    85.277999 
   15300    1291.3556   -99.651524    1.1684457   -98.483079   -11944.141    4.4198641    4.4198641    4.4198641   -11944.141   -34242.654   -6024.3935     4434.623   -3830.2228     -5722.35   -12820.377    86.342925 
   15400    1437.2902   -99.767173    1.3004904   -98.466682    25113.125    4.4284083    4.4284083    4.4284083    25113.125   -33659.505    86643.464    22355.416   -6927.7034    8920.7121   -4213.3351    86.844627 
   15500    1341.3712   -99.666345    1.2137009   -98.452644   -8111.7438    4.4324263    4.4324263    4.4324263   -8111.7438   -44771.534   -17722.129    38158.431    5682.9988    3544.4244   -18215.973     87.08123 
   15600    1744.4652   -100.01152    1.5784288   -98.433091   -2873.8127    4.4200985    4.4200985    4.4200985   -2873.8127   -58026.468    38684.164    10720.866   -2972.9717   -4892.7711    14583.468     86.35666 
   15700     1629.774   -99.916377    1.4746538   -98.441723     5746.438    4.4064729    4.4064729    4.4064729     5746.438   -22246.143    24381.426    15104.031   -13082.813   -2618.7068    6040.4806    85.560499 
   15800     1377.053   -99.707663    1.2459865   -98.461677    30628.246    4.4088963    4.4088963    4.4088963    30628.246    10472.208    46440.745    34971.785    1281.9919     9627.334   -7649.2041    85.701744 
   15900    1735.3735   -100.03481    1.5702024   -98.464603   -29607.432    4.4354898    4.4354898    4.4354898   -29607.432   -72938.108    30700.995   -46585.183   -9425.5627    -67.79789    30109.248    87.261916 
   16000    1638.5921   -99.920978    1.4826325   -98.438345   -10713.412    4.4191811    4.4191811    4.4191811   -10713.412   -29839.664    3201.2495     -5501.82   -13917.551    -7762.563    672.02672      86.3029 
   16100    998.44615   -99.339675   0.90341506    -98.43626    38545.078    4.4079753    4.4079753    4.4079753    38545.078   -33310.517    109415.92    39529.837   -1522.4562    5257.4263   -7122.4809    85.648047 
   16200    1868.2635    -100.1497    1.6904441   -98.459253    1512.5581    4.4260924    4.4260924    4.4260924    1512.5581   -7553.3489    44320.114   -32229.091   -5841.6002    15894.825    8151.5276    86.708454 
   16300    865.82919   -99.230258   0.78342045   -98.446838    21351.604    4.4418484    4.4418484    4.4418484    21351.604    4761.3879    59975.585   -682.16104   -22791.996   -14881.748   -9655.7252    87.637746 
   16400    1276.5385   -99.569343    1.1550389   -98.414304      13063.9    4.4437879    4.4437879    4.4437879      13063.9   -36208.424    64495.644    10904.481   -6380.9061   -8899.9903   -14877.985    87.752594 
   16500    1804.0969   -100.02225    1.6323848   -98.389863     -3590.22    4.4199389    4.4199389    4.4199389     -3590.22   -35329.008    8534.1065    16024.242    2982.6153   -1823.8789   -973.74294    86.347306 
   16600    1317.2501   -99.615518    1.1918755   -98.423642   -7425.3776    4.4156616    4.4156616    4.4156616   -7425.3776    -35744.09    35576.375   -22108.418    24396.489    17904.376    2802.0338    86.096866 
   16700    1872.0278   -100.14291    1.6938501   -98.449064   -1732.0347    4.4287026    4.4287026    4.4287026   -1732.0347    5074.9001    -27463.07    17192.065   -10411.174   -7979.4325     3401.446    86.861946 
   16800    1062.8505   -99.411062   0.96168949   -98.449372   -4473.8746    4.4451062    4.4451062    4.4451062   -4473.8746    17201.572   -12417.579   -18205.617   -951.99789   -3513.3989   -3496.8529    87.830718 
   16900    1674.6756   -99.924581    1.5152817   -98.409299   -4657.9002    4.4368514    4.4368514    4.4368514   -4657.9002    12717.901    19129.284   -45820.886    2029.9236    7189.9424   -3637.8501    87.342305 
   17000    1818.0027    -100.0594    1.6449671   -98.414431   -23054.578    4.4131688    4.4131688    4.4131688   -23054.578   -6742.3209   -27675.808   -34745.605   -6795.0246    9068.3278    3019.7684    85.951138 
   17100    1257.4554   -99.577067    1.1377721   -98.439295     40727.83     4.400527     4.400527     4.400527     40727.83    75652.549    59441.095   -12910.155    13756.402   -13014.373   -16063.578    85.214613 
   17200    1558.0884   -99.884731    1.4097911    -98.47494   -11179.907    4.4216245    4.4216245    4.4216245   -11179.907   -9001.8532    2451.6617    -26989.53   -2678.6617   -2348.1348    17060.107    86.446132 
   17300    1498.1705   -99.809879    1.3555762   -98.454303   -22132.425    4.4388962    4.4388962    4.4388962   -22132.425    5192.2534    2920.2849   -74509.814   -7097.1404    691.98773    15141.354     87.46312 
   17400    2160.2161    -100.3872     1.954609   -98.432587   -26524.619    4.4173213    4.4173213    4.4173213   -26524.619   -21941.195   -21960.538   -35672.124    7527.3975    1763.0109    1555.9168    86.193987 
   17500    1392.9573   -99.725721     1.260377   -98.465344    -680.8741    4.3994325    4.3994325    4.3994325    -680.8741   -1910.2444     42104.05   -42236.428    14888.386    3769.5507    11010.412    85.151043 
   17600    1902.4982   -100.20723    1.7214204   -98.485814   -2828.5578    4.4102397    4.4102397    4.4102397   -2828.5578    19967.846    8775.2979   -37228.817    9271.5904   -331.05855    -740.2782    85.780109 
   17700    1083.5351    -99.47076   0.98040534   -98.490354   -22233.629    4.4312594    4.4312594    4.4312594   -22233.629   -10179.095   -7955.8409    -48565.95    5292.5982     11956.82    7692.5273    87.012477 
   17800    1651.6181   -99.944976    1.4944188   -98.450557   -7961.9888     4.424748     4.424748     4.424748   -7961.9888    560.54495    11065.321   -35511.833   -1645.6221    12323.548   -8356.6807    86.629462 
   17900    1658.4708   -99.945967    1.5006192   -98.445347   -14788.754    4.4130353    4.4130353    4.4130353   -14788.754   -25360.418   -3662.9244    -15342.92    10363.789   -6587.7143    27610.124    85.943333 
   18000    1660.9857    -99.95793    1.5028947   -98.455035   -444.39819    4.4121455    4.4121455    4.4121455   -444.39819   -3458.1076    4171.7646   -2046.8515   -3633.3982    5169.4665    751.85377    85.891362 
   18100    1380.2178   -99.734323    1.2488501   -98.485473    9924.3376    4.4176431    4.4176431    4.4176431    9924.3376    4264.9517    64891.712   -39383.651    7352.0758    2436.4242    15663.203    86.212826 
   18200     1651.717   -99.988887    1.4945082   -98.494378   -17087.853    4.4231968    4.4231968    4.4231968   -17087.853   -35012.601   -15645.571   -605.38553    8212.8778    8065.6576    8661.0455    86.538385 
   18300    1396.4763   -99.737343    1.2635611   -98.473782   -1114.9526    4.4290811    4.4290811    4.4290811   -1114.9526   -27486.596    28129.221   -3987.4827   -20866.942   -15335.931    3493.5722    86.884219 
   18400    1431.4447   -99.750907    1.2952013   -98.455706    3513.1779    4.4174387    4.4174387    4.4174387    3513.1779    4405.9784    -10710.29    16843.845    4258.3397     17564.79    13472.652    86.200857 
   18500    1693.1561   -99.989729    1.5320032   -98.457726    14307.146    4.4023077    4.4023077    4.4023077    14307.146    20276.586    33200.996   -10556.144    2811.7346   -18544.827     8159.647    85.318103 
   18600    1830.4824   -100.15173    1.6562589    -98.49547   -24481.874    4.4199823    4.4199823    4.4199823   -24481.874   -21082.926   -26016.153   -26346.543    10839.664    8887.8466    10706.006    86.349851 
   18700    1584.6052   -99.901554    1.4337841    -98.46777   -2548.1173    4.4319292    4.4319292    4.4319292   -2548.1173    11739.085   -21427.272    2043.8354    20837.198    8616.2019   -3941.7506    87.051939 
   18800    1424.6477   -99.727187    1.2890511   -98.438136    1426.8055    4.4265997    4.4265997    4.4265997    1426.8055    37778.835   -10195.666   -23302.752    7211.1525   -6560.5611    20761.695    86.738269 
   18900    2260.9323   -100.47798    2.0457391   -98.432237   -27975.426    4.4141986    4.4141986    4.4141986   -27975.426    -764.7592   -15219.764   -67941.755   -6719.0539   -3300.9998   -9594.9105    86.011319 
   19000     1339.807   -99.691993    1.2122855   -98.479707    27000.181    4.4096266    4.4096266    4.4096266    27000.181    69954.873    15635.031   -4589.3609    18265.645    8875.3611    14552.529    85.744338 
   19100    1615.0542   -99.960725     1.461335    -98.49939   -8863.6248    4.4288741    4.4288741    4.4288741   -8863.6248    18766.581   -11552.284   -33805.172    3097.7893   -2365.3313    4545.4972    86.872038 
   19200    1580.1644   -99.911558    1.4297659   -98.481792   -20888.506    4.4307997    4.4307997    4.4307997   -20888.506   -10132.163   -14577.084   -37956.271    4317.0142    12100.512     25876.16    86.985397 
   19300    1270.0074   -99.608494    1.1491294   -98.459365    44943.929    4.4083526    4.4083526    4.4083526    44943.929    111969.26    19521.838    3340.6935    2023.9332   -2661.6578    1304.0767    85.670043 
   19400    1822.8068   -100.12666    1.6493139   -98.477344   -7543.6132    4.4186362    4.4186362    4.4186362   -7543.6132   -24500.951   -35552.075    37422.187   -4416.5664    5107.0254     1191.152    86.270982 
   19500    1671.5443   -99.985047    1.5124484   -98.472599    4887.4877    4.4292344    4.4292344    4.4292344    4887.4877     36746.73     7539.813    -29624.08   -2330.3091    12116.386   -3329.2325    86.893242 
   19600    1455.0247   -99.776664    1.3165369   -98.460127    21804.328    4.4270211    4.4270211    4.4270211    21804.328    14466.155    5175.9641    45770.864   -2902.9794   -8084.8868    27948.045    86.763041 
   19700    1602.0006   -99.926834    1.4495238    -98.47731   -9322.5475    4.4276458    4.4276458    4.4276458   -9322.5475    -23972.61   -38752.703     34757.67    975.21265    5912.8417    1610.0517    86.799776 
   19800     1496.254   -99.841207    1.3538421   -98.487365   -2545.0676     4.420864     4.420864     4.420864   -2545.0676    1586.7738   -13761.087    4539.1102    15429.302   -15906.536    7178.1622    86.401535 
   19900    1913.8242   -100.22303    1.7316684   -98.491365   -23343.279    4.4150645    4.4150645    4.4150645   -23343.279   -43466.184   -2716.5126    -23847.14    12801.918    -11562.89    4743.7394    86.061944 
   20000    1613.3822   -99.954342    1.4598222    -98.49452   -18629.828    4.4160247    4.4160247    4.4160247   -18629.828   -43329.707   -35164.719     22604.94   -4122.1056    8666.2239    15383.161    86.118109 
   20100    1457.8284   -99.812475    1.3190738   -98.493401    -549.3268     4.422138     4.422138     4.422138    -549.3268   -64029.199   -12063.029    74444.248    20530.599    13794.449   -8781.7229    86.476258 
   20200    1329.6741   -99.685122     1.203117   -98.482005    3817.3982    4.4162064    4.4162064    4.4162064    3817.3982    37988.246    13729.182   -40265.233    14325.288    11334.785    10798.235    86.128741 
   20300    2217.8695   -100.49725    2.0067749   -98.490471   -21787.184    4.4168829    4.4168829    4.4168829   -21787.184   -30307.985   -18409.038   -16644.528    5581.2999    4989.7423   -2494.5514    86.168328 
   20400    1266.9092   -99.647689    1.1463261   -98.501363    30925.644    4.4258785    4.4258785    4.4258785    30925.644    9094.3792    17037.967    66644.586    9121.7765    17930.397    8548.9787    86.695882 
   20500    1539.9245   -99.898284    1.3933561   -98.504927   -5751.0359    4.4257556    4.4257556    4.4257556   -5751.0359   -48456.672    19481.931    11721.634    9230.7623   -800.76917    5410.7692     86.68866 
   20600    2013.9038   -100.30437    1.8222225   -98.482144    13477.325    4.4164507    4.4164507    4.4164507    13477.325    22128.769    11836.531    6466.6753   -12791.891    938.35642    5717.9268    86.143034 
   20700    1264.7085   -99.627998    1.1443349   -98.483664    19581.743    4.4111114    4.4111114    4.4111114    19581.743   -40342.987    19708.043    79380.171    18538.345   -4422.8708    11136.545    85.830979 
   20800    1736.0714   -100.07612    1.5708338    -98.50529   -16590.089    4.4332148    4.4332148    4.4332148   -16590.089   -9210.1504   -25572.298   -14987.819   -12512.821   -7888.5988   -1359.8213    87.127713 
   20900    1352.3381   -99.704351    1.2236239   -98.480727   -7886.6499    4.4392404    4.4392404    4.4392404   -7886.6499    3393.1425    1201.8875    -28254.98    14041.064   -4076.0824     4761.759    87.483469 
   21000    1607.1053   -99.910475    1.4541427   -98.456332   -6086.6303    4.4170431    4.4170431    4.4170431   -6086.6303   -18577.134    6456.4729   -6139.2299   -2343.5952    14603.246    1669.6684    86.177703 
   21100     1840.639   -100.13574    1.6654488    -98.47029    8295.3593    4.3985004    4.3985004    4.3985004    8295.3593    14784.781    14174.177   -4072.8802   -494.18605    9569.8392    21646.653    85.096934 
   21200     1435.288   -99.789314    1.2986787   -98.490636    19986.854    4.4139743    4.4139743    4.4139743    19986.854    14167.376     32058.11    13735.075   -12998.364    6763.8406    -6826.382     85.99821 
   21300    1226.7385   -99.587488    1.1099788   -98.477509   -16326.077    4.4431811    4.4431811    4.4431811   -16326.077    4261.3682    1808.9713   -55048.571    8762.3878   -20905.385    22433.852    87.716653 
   21400    1673.5034   -99.940364     1.514221   -98.426143    2519.0006     4.434376     4.434376     4.434376    2519.0006    42284.504   -14839.449   -19888.053   -20454.561   -1988.3518    9593.2808    87.196197 
   21500    1367.6221   -99.651818    1.2374533   -98.414365   -6569.6869    4.4136629    4.4136629    4.4136629   -6569.6869    27202.394    -24756.66   -22154.795   -5427.8106    8753.6069   -9442.2386     85.98001 
   21600    2145.0385   -100.37195     1.940876    -98.43107    -4167.353    4.4091175    4.4091175    4.4091175    -4167.353    1773.2457    22997.012   -37272.317   -460.11529   -7978.6982    14125.731    85.714644 
   21700    1475.6478   -99.819824    1.3351972   -98.484626    172.75828    4.4211236    4.4211236    4.4211236    172.75828    47217.468   -19565.062   -27134.132    10829.457     1968.265    3512.8929    86.416761 
   21800    1619.8807   -99.951922    1.4657021    -98.48622   -6309.9363    4.4363414    4.4363414    4.4363414   -6309.9363    255.40919   -1521.9965   -17663.222    15348.686    5340.7137   -18089.836    87.312191 
   21900    1707.6972   -100.00749    1.5451603   -98.462325   -41509.168    4.4355002    4.4355002    4.4355002   -41509.168   -21497.568   -50723.231   -52306.706   -1291.0122    -14908.92    -678.3588    87.262531 
   22000    1555.9578   -99.849457    1.4078633   -98.441593    4262.4226    4.4259696    4.4259696    4.4259696    4262.4226    31597.792    15876.882   -34687.407     17411.97    13424.659   -1970.1983    86.701232 
   22100    1636.8485   -99.924814    1.4810549   -98.443759    9508.0907     4.410089     4.410089     4.410089    9508.0907     13122.13    36248.029   -20845.887   -2036.6485     10662.46    12708.227    85.771315 
   22200    1674.3755   -99.978655    1.5150102   -98.463644   -12997.432    4.4195827    4.4195827    4.4195827   -12997.432   -27538.563    38442.503   -49896.237      13429.4   -1430.9105   -9608.5905    86.326435 
   22300    1572.6131   -99.889829    1.4229334   -98.466896   -2286.7608    4.4367218    4.4367218    4.4367218   -2286.7608     17863.24    18553.949   -43277.471   -17675.292    14613.804   -4876.8627    87.334651 
   22400    1504.1356   -99.796861    1.3609735   -98.435887    4771.0952    4.4222268    4.4222268    4.4222268    4771.0952    14688.847     3119.022   -3494.5839    22479.615     2724.695   -2132.0753    86.481464 
   22500    2103.8317    -100.3519    1.9035911   -98.448308   -12868.574    4.4178808    4.4178808    4.4178808   -12868.574   -17399.974    16757.662   -37963.411   -20360.626    5813.0745    2081.1031    86.226741 
   22600    1158.4178    -99.52941    1.0481607   -98.481249    32781.234    4.4319687    4.4319687    4.4319687    32781.234    11867.176    52706.571    33769.956    7629.8778    27141.345    6619.1211    87.054268 
   22700    1661.4457   -99.959299     1.503311   -98.455988   -3603.9994    4.4498462    4.4498462    4.4498462   -3603.9994    14509.312    25861.837   -51183.147    1214.0175     11370.62   -2287.6137    88.111988 
   22800     1701.284   -99.978593    1.5393575   -98.439235   -29172.701    4.4422877    4.4422877    4.4422877   -29172.701   -51246.142   -36404.665    132.70437     503.7898   -12115.861    1375.5673    87.663751 
   22900    1397.7129   -99.706493      1.26468   -98.441813    35805.579    4.4037504    4.4037504    4.4037504    35805.579    20331.871    136695.74    -49610.87   -3708.2414   -3677.0111   -3608.2528     85.40201 
   23000    1514.1317   -99.864875    1.3700182   -98.494857    19779.668    4.4005443    4.4005443    4.4005443    19779.668    34667.466    58079.744   -33408.205   -8494.7462    5544.4309    7479.8869    85.215618 
   23100    1529.7477   -99.929782    1.3841479   -98.545634    5250.6579    4.4362606    4.4362606    4.4362606    5250.6579   -9098.1512     35898.62   -11048.495     23915.13    6644.1103   -3866.1164    87.307422 
   23200    1657.5673   -99.972201    1.4998018     -98.4724   -38485.655    4.4615346    4.4615346    4.4615346   -38485.655    569.79703   -45046.604   -70980.159   -3307.5453    -1641.432   -8103.2751    88.808146 
   23300    1335.3734    -99.63907    1.2082739   -98.430796    28578.728    4.4171301    4.4171301    4.4171301    28578.728   -23679.532    121609.51   -12193.799   -6818.2362   -3343.6576    12046.234    86.182792 
   23400    2071.7668   -100.29087    1.8745781   -98.416289    8439.8376    4.3963531    4.3963531    4.3963531    8439.8376   -13585.531    60052.555   -21147.511    21407.295   -5530.0867   -23067.418    84.972361 
   23500    1792.9283   -100.11023    1.6222792   -98.487952   -11229.133    4.4269218    4.4269218    4.4269218   -11229.133   -37394.988     49445.31   -45737.721   -10873.471    15542.057   -555.46433    86.757207 
   23600     1236.175   -99.606829    1.1185171   -98.488311   -23230.871    4.4604943    4.4604943    4.4604943   -23230.871    -17933.21     37633.41   -89392.813    13693.365   -2436.8121   -1937.0018    88.746037 
   23700     1703.218    -100.0003    1.5411075   -98.459195    748.23785     4.430094     4.430094     4.430094    748.23785     57982.17   -28942.254   -26795.202    7876.4441    3812.9098    -2275.446    86.943844 
   23800    1209.4074   -99.560978    1.0942972   -98.466681    51428.133    4.3999321    4.3999321    4.3999321    51428.133    25939.116    151296.47   -22951.187   -1058.2167    1556.1882    19649.746    85.180057 
   23900    1714.3035   -100.07518    1.5511378    -98.52404    12007.418    4.4112002    4.4112002    4.4112002    12007.418   -25515.599    100352.99   -38815.141   -2049.2475   -1603.1956   -10705.359    85.836162 
   24000    1705.1132   -100.06715    1.5428222   -98.524326   -25178.746    4.4399129    4.4399129    4.4399129   -25178.746   -59161.364    9078.8038   -25453.679     -2304.45    -7875.788    3613.6919    87.523233 
   24100    1470.1406   -99.803699    1.3302141   -98.473485   -10298.096    4.4495723    4.4495723    4.4495723   -10298.096   -48635.638     103065.5   -85324.149     14536.12    2636.3593    13275.093     88.09572 
   24200    1821.6591   -100.08546    1.6482755    -98.43718    3266.9282    4.4401711    4.4401711    4.4401711    3266.9282   -32263.416     85825.24   -43761.039    25783.903    1079.2157    20580.323    87.538502 
   24300    2047.6343   -100.28564    1.8527426   -98.432892   -14840.427    4.4113847    4.4113847    4.4113847   -14840.427   -13320.142   -10880.352   -20320.787    -5885.778   -5938.8365   -12336.226    85.846934 
   24400    1667.5788   -99.998833    1.5088603   -98.489973    32921.067    4.4078332    4.4078332    4.4078332    32921.067    10190.105    109955.28   -21382.183    8796.6379   -6544.8863   -12801.753    85.639761 
   24500    1357.4909   -99.753005    1.2282863   -98.524719    -29130.37    4.4406702    4.4406702    4.4406702    -29130.37   -34216.203    -7408.031   -45766.875   -15956.172   -4994.1402   -2375.3473    87.568028 
   24600    1456.6592   -99.799945    1.3180158    -98.48193   -3552.8304    4.4301465    4.4301465    4.4301465   -3552.8304   -52402.802    38723.223    3021.0875   -17244.959    983.41044    7713.8904    86.946932 
   24700    1841.9497   -100.12557    1.6666348   -98.458934    1878.9138     4.417641     4.417641     4.417641    1878.9138   -7325.7461    50318.713   -37356.225    12771.344    398.15901    -15905.03    86.212705 
   24800    931.99346   -99.303005   0.84328727   -98.459718    26627.095    4.4154073    4.4154073    4.4154073    26627.095   -35885.514    114818.76    948.04353    7147.2733   -2803.4837   -17251.372    86.081991 
   24900    1467.7961   -99.803721    1.3280928   -98.475628    628.83422    4.4234576    4.4234576    4.4234576    628.83422   -47747.549    37749.017    11885.034    11920.962   -721.92318   -24678.311    86.553696 
   25000     1681.632     -99.9841     1.521576   -98.462524    183.50784    4.4143984    4.4143984    4.4143984    183.50784   -40138.788    9575.6679    31113.644   -1619.2111    3072.2719    3088.3663       86.023 
   25100    1720.1349   -100.02416    1.5564142   -98.467748   -4219.9142    4.4131278    4.4131278    4.4131278   -4219.9142   -10264.826   -595.52546   -1799.3912     4100.266    5013.2179   -7780.9922     85.94874 
   25200    1247.5802    -99.60662    1.1288368   -98.477783    21212.362    4.4211509    4.4211509    4.4211509    21212.362   -38684.168    85271.865     17049.39   -857.05385   -3930.8171    3268.4147     86.41836 
   25300    1673.6018   -99.974989    1.5143101   -98.460679   -20763.601    4.4262329    4.4262329    4.4262329   -20763.601   -47325.894   -57836.752    42871.844     4198.765      4431.46    2559.1745    86.716706 
   25400    1344.9399    -99.67048    1.2169299    -98.45355    30924.482    4.4103915    4.4103915    4.4103915    30924.482   -32215.539    95889.974     29099.01     -25048.1   -2223.4249   -4983.6776    85.788967 
   25500      1621.36   -99.947761    1.4670406    -98.48072    194.62613    4.4194838    4.4194838    4.4194838    194.62613   -43964.352     4938.387    39609.844   -9695.4301    5629.5714    -1047.434    86.320637 
   25600    1281.8613   -99.641518     1.159855   -98.481663    10365.693    4.4159713    4.4159713    4.4159713    10365.693   -30640.131    62540.807   -803.59588   -14510.195    1576.7903   -30107.618    86.114985 
   25700    2022.5116   -100.29951     1.830011     -98.4695   -485.07457    4.4027796    4.4027796    4.4027796   -485.07457   -43869.558    62167.447   -19753.113   -8582.1105    9216.5908    4740.4915    85.345539 
   25800    1308.1009   -99.682299    1.1835972   -98.498702    8152.8467    4.4066977    4.4066977    4.4066977    8152.8467   -27752.602   -55378.135    107589.28   -20371.161    -3425.341   -1910.5656    85.573593 
   25900     1940.761   -100.26656    1.7560413   -98.510522    -20183.93    4.4212496    4.4212496    4.4212496    -20183.93   -73805.753    3754.4954    9499.4674   -1387.4107   -4477.0098     18769.57    86.424144 
   26000     1676.359   -100.02655    1.5168048   -98.509743   -7563.5038    4.4328074    4.4328074    4.4328074   -7563.5038   -44641.597    24150.772   -2199.6864    2776.4004   -4177.9542    28191.821    87.103699 
   26100    1169.3958   -99.552613    1.0580939   -98.494519    16529.705    4.4265134    4.4265134    4.4265134    16529.705   -27743.099     18207.76    59124.455   -1032.4797    11718.385   -22266.675    86.733196 
   26200    1586.1559   -99.904848    1.4351871    -98.46966    16879.184     4.421735     4.421735     4.421735    16879.184   -25537.896    68600.672    7574.7749    179.95169   -165.97578   -4350.5762    86.452612 
   26300    1036.2925   -99.420745   0.93765923   -98.483085      23099.1    4.4213678    4.4213678    4.4213678      23099.1    -76707.83    46914.931    99090.198   -14176.859    11991.066    2266.3406    86.431078 
   26400    1739.5364   -100.07279    1.5739691   -98.498817   -11269.477    4.4258734    4.4258734    4.4258734   -11269.477   -53829.633    62213.419   -42192.217    1566.7208   -3741.5048    8134.2232    86.695578 
   26500    1530.1006   -99.889829    1.3844672   -98.505362    909.76582    4.4283231    4.4283231    4.4283231    909.76582   -16499.848   -13216.938    32446.083   -10229.192    7122.1498    -10358.67    86.839615 
   26600    1611.5578   -99.934947    1.4581714   -98.476775   -6079.9618    4.4325992    4.4325992    4.4325992   -6079.9618   -22175.798    2380.6492    1555.2636   -9016.4773   -4287.3347    23965.607    87.091426 
   26700    1098.6335   -99.453042   0.99406666   -98.458975    2738.2187    4.4176527    4.4176527    4.4176527    2738.2187   -54687.386    63603.484   -701.44118   -11413.332    15281.398    12487.214    86.213386 
   26800    2169.4337   -100.40707    1.9629492   -98.444121    4012.3931    4.4101519    4.4101519    4.4101519    4012.3931   -41193.228    47899.135    5331.2725   -1963.5152   -16218.962    24357.669    85.774985 
   26900    1122.7846   -99.510598    1.0159191   -98.494679   -4674.1195    4.4390803    4.4390803    4.4390803   -4674.1195   -56046.106   -22407.994    64431.742   -6020.4886    -1239.485    43447.518    87.474004 
   27000    1925.5057   -100.19924     1.742238   -98.456999   -24228.974    4.4582246    4.4582246    4.4582246   -24228.974   -60983.201   -12294.627    590.90466    9657.4376   -10772.353    11831.035    88.610633 
   27100    1050.1683   -99.371469   0.95021433   -98.421255   -9317.1005    4.4467562    4.4467562    4.4467562   -9317.1005   -60339.606   -15369.777    47758.082     -7036.07   -5143.7475    18334.949    87.928559 
   27200    2092.2958   -100.28141    1.8931532    -98.38826    3202.5753    4.4115805    4.4115805    4.4115805    3202.5753   -40979.335    33788.294    16798.766    12801.361   -11381.794    19265.178    85.858369 
   27300    1524.0391   -99.814955    1.3789826   -98.435972   -1464.3476    4.4111574    4.4111574    4.4111574   -1464.3476   -27933.156    25004.439   -1464.3253    2598.0855    17324.377   -6629.2094    85.833668 
   27400    1731.2595   -100.01572      1.56648   -98.449241    4714.9366    4.4301725    4.4301725    4.4301725    4714.9366   -60265.819    96022.984   -21612.356    19248.724     2071.757    4598.8217    86.948461 
   27500    1780.8934   -100.07141    1.6113898   -98.460021   -33651.959    4.4398737    4.4398737    4.4398737   -33651.959   -69059.644   -17270.825   -14625.407   -9261.6133    9984.6352    16235.259    87.520917 
   27600    2022.6782   -100.26624    1.8301618   -98.436078   -27802.414     4.419511     4.419511     4.419511   -27802.414   -53742.622    -8327.423   -21337.197    1534.6947    2345.3854   -9000.3239    86.322231 
   27700    1687.7249   -99.964714     1.527089   -98.437625   -19037.868    4.4139109    4.4139109    4.4139109   -19037.868   -62081.494    21307.279   -16339.388   -15163.943   -4819.3867   -15046.433    85.994502 
   27800    1751.3973    -100.0323    1.5847011   -98.447601   -6945.4918    4.4197144    4.4197144    4.4197144   -6945.4918   -40287.932    17303.754    2147.7027    1581.0407   -824.36723   -478.56475    86.334151 
   27900     2021.018   -100.30165    1.8286595   -98.472993   -26114.228    4.4255198    4.4255198    4.4255198   -26114.228    -49855.71   -31727.025    3240.0504   -22531.845    1727.6053    12883.548    86.674803 
   28000    1420.8942   -99.748842    1.2856549   -98.463187    29881.791    4.4180824    4.4180824    4.4180824    29881.791    -37937.04    67818.895    59763.517     1943.442   -16055.154    16836.249    86.238545 
   28100    1528.8076   -99.847989    1.3832972   -98.464691   -1159.1803    4.4170441    4.4170441    4.4170441   -1159.1803    -26433.86    30358.899   -7402.5804   -23849.487    1243.3713    3990.7995    86.177762 
   28200    2240.9455   -100.48291    2.0276545   -98.455255   -25697.244    4.4241707    4.4241707    4.4241707   -25697.244   -36486.616   -4545.2412   -36059.876    1223.0721    29.791349    13612.262    86.595558 
   28300    973.79659   -99.355026   0.88111162   -98.473915   -12179.382    4.4170989    4.4170989    4.4170989   -12179.382   -33820.383   -25869.769    23152.005   -14778.545    9061.9143    22220.989    86.180971 
   28400    2544.4563   -100.75936    2.3022776    -98.45708   -16538.028    4.4164886    4.4164886    4.4164886   -16538.028   -30471.149   -13713.993   -5428.9412    5970.2825   -2748.8832   -2857.0908    86.145252 
   28500    960.73088   -99.338149   0.86928949    -98.46886   -14286.415    4.4423212    4.4423212    4.4423212   -14286.415    -32082.93   -18093.318    7317.0019   -12975.446   -11284.027    21081.055    87.665731 
   28600    1965.1763    -100.2002    1.7781329   -98.422069   -16718.648    4.4345003    4.4345003    4.4345003   -16718.648   -29407.734    24858.418   -45606.628   -4986.4614   -544.90536    16574.015    87.203531 
   28700    1612.8678   -99.888645    1.4593567   -98.429288   -3605.0794    4.4159599    4.4159599    4.4159599   -3605.0794   -29371.345   -17479.169    36035.276   -14784.016    10529.377   -3931.3092    86.114314 
   28800    1732.6885   -100.00602    1.5677729    -98.43825    5560.5449    4.4041286    4.4041286    4.4041286    5560.5449   -22701.619     20389.78    18993.474      8311.85    2487.6349    23904.771    85.424015 
   28900    1472.1366   -99.805526    1.3320201   -98.473506    31775.783    4.4117384    4.4117384    4.4117384    31775.783     46538.94    22738.066    26050.344   -14728.607    12366.446   -1969.8192    85.867584 
   29000    1354.6048   -99.696067    1.2256749   -98.470392    17419.715    4.4272464    4.4272464    4.4272464    17419.715   -20117.224   -26045.414    98421.784    13236.666   -9635.7646    18808.897     86.77629 
   29100    1865.7865   -100.13442    1.6882029    -98.44622   -20124.274    4.4230352    4.4230352    4.4230352   -20124.274   -52008.225   -39040.309    30675.711   -25619.119    15933.109   -20420.141    86.528901 
   29200    1551.8677   -99.854386    1.4041625   -98.450224    12443.598    4.4054897    4.4054897    4.4054897    12443.598   -550.41615   -31317.986    69199.195    15690.417    14294.574    13803.157    85.503237 
   29300    1454.9822   -99.788419    1.3164985   -98.471921   -6194.2945    4.3937714    4.3937714    4.3937714   -6194.2945   -24911.354    15230.866    -8902.396   -17829.278   -5505.3453   -2397.7687    84.822756 
   29400    1778.1699   -100.10721    1.6089255   -98.498289   -17157.565    4.4003128    4.4003128    4.4003128   -17157.565    -28811.48   -31034.856    8373.6408    16838.353   -4073.5451   -6615.1623     85.20217 
   29500    1861.9359   -100.17528    1.6847188   -98.490558   -18863.697    4.4252201    4.4252201    4.4252201   -18863.697   -38505.302   -21923.032    3837.2408   -12561.441    6575.8278    9134.7039    86.657194 
   29600    1376.1317   -99.698183    1.2451529    -98.45303    -9982.679    4.4170194    4.4170194    4.4170194    -9982.679    15936.298   -31496.081   -14388.254    11156.033    24.296247   -17013.713    86.176317 
   29700    1479.1876   -99.769311       1.3384   -98.430911    42507.466    4.4007493    4.4007493    4.4007493    42507.466   -20285.419    70406.179    77401.638    2351.4095   -7670.9426    18298.861    85.227524 
   29800    1453.4188   -99.775762    1.3150839   -98.460678    33551.305     4.396174     4.396174     4.396174    33551.305   -30021.812    72723.675    57952.052   -66.415926    5093.4911   -25864.335    84.961981 
   29900      1865.83    -100.1809    1.6882422   -98.492659   -17656.795     4.410979     4.410979     4.410979   -17656.795   -42947.446    16525.527   -26548.466   -347.80817   -17981.185    28976.685    85.823252 
   30000    1943.5743    -100.2369    1.7585869   -98.478315   -9688.4709    4.4286413    4.4286413    4.4286413   -9688.4709   -77452.062    6773.6554    41612.994    8879.3768   -7742.7069   -25507.911    86.858337 
   30100    1550.8618   -99.860755    1.4032524   -98.457502   -17644.374    4.4149146    4.4149146    4.4149146   -17644.374   -50229.545    27650.015   -30353.591    11326.847   -9963.9666    13036.452    86.053179 
   30200    1436.8234   -99.754641     1.300068   -98.454573    38882.404    4.3914866    4.3914866    4.3914866    38882.404   -5892.5358    91459.618    31080.129   -8988.6143    3863.5934   -8547.1204    84.690496 
   30300    1686.6421   -100.00013    1.5261092   -98.474016    17920.329    4.3900657    4.3900657    4.3900657    17920.329    -5924.007    43357.157    16327.836    9277.4474    2056.7867   -21833.389    84.608318 
   30400     1355.633   -99.721988    1.2266053   -98.495382   -24090.549     4.410397     4.410397     4.410397   -24090.549   -38395.771    -7973.574   -25902.301   -2605.9972    -11329.25    19444.518    85.789286 
   30500    2203.5177   -100.46199    1.9937891   -98.468204   -6414.5691    4.4155898    4.4155898    4.4155898   -6414.5691   -42108.277     14462.11    8402.4604    8300.3935    6339.3645   -14203.506    86.092666 
   30600     1247.754   -99.592608    1.1289941   -98.463614   -21176.111     4.407112     4.407112     4.407112   -21176.111   -24272.052    17437.945   -56694.225    103.97391   -19642.658    41975.598     85.59773 
   30700     2051.987   -100.30491    1.8566809   -98.448224    10027.111    4.3928014    4.3928014    4.3928014    10027.111   -43706.345    40051.993    33735.686    13157.471    2518.2199   -16517.327    84.766588 
   30800    1486.7221    -99.81231    1.3452174   -98.467092   -9642.4889    4.3956056    4.3956056    4.3956056   -9642.4889    -31733.33    56467.569   -53661.706    650.65368   -19295.695    31263.033     84.92903 
   30900    1540.2076   -99.872329    1.3936122   -98.478717   -17558.198    4.4059901    4.4059901    4.4059901   -17558.198   -27553.545    7770.2057   -32891.255   -1845.4832   -4146.9835   -3285.9397    85.532378 
   31000     2066.932   -100.34568    1.8702035   -98.475473   -25135.695     4.405569     4.405569     4.405569   -25135.695   -55514.828    1869.0594   -21761.316   -3381.7119   -29031.001    7449.0768    85.507857 
   31100    1250.3808   -99.611104    1.1313708   -98.479733   -25262.836    4.4000798    4.4000798    4.4000798   -25262.836     1739.219    -2724.143   -74803.584     5839.753    7180.1268    22489.018    85.188635 
   31200    1892.2947   -100.17488     1.712188   -98.462696    14408.799    4.3823557    4.3823557    4.3823557    14408.799    -19517.63    67189.873   -4445.8476    7674.3798   -25049.547   -4816.0792    84.163323 
   31300    1445.2291   -99.787331    1.3076737   -98.479657   -19400.578    4.3978398    4.3978398    4.3978398   -19400.578    -16340.33    1276.6082   -43138.011   -6759.6163   -1416.6897    29635.601    85.058595 
   31400    1371.9261   -99.712338    1.2413475    -98.47099    9208.1157    4.4060702    4.4060702    4.4060702    9208.1157   -20890.139    37813.131    10701.355        10371   -15704.737    12243.385    85.537047 
   31500     1714.542   -100.02199    1.5513536   -98.470632   -18014.137    4.4143706    4.4143706    4.4143706   -18014.137    -39984.64   -8353.4169   -5704.3548   -6800.0044   -2701.9345    26696.091    86.021372 
   31600    1631.4402   -99.915001    1.4761614    -98.43884   -1897.0427    4.4061581    4.4061581    4.4061581   -1897.0427   -31369.682    31516.944   -5838.3904   -10057.832    6050.6069   -3204.9743    85.542163 
   31700    1197.0722   -99.517938    1.0831361   -98.434802    32580.623    4.3858923    4.3858923    4.3858923    32580.623    24293.264    3878.6975    69569.908   -6553.0486    14928.677    30408.782    84.367249 
   31800    1765.1927   -100.03367    1.5971835   -98.436482    13481.819    4.3951446    4.3951446    4.3951446    13481.819   -4424.4896    48696.656   -3826.7084   -14453.165    8990.4226    964.95566     84.90231 
   31900    1244.2473   -99.575122    1.1258211   -98.449301    5928.0689    4.4078617    4.4078617    4.4078617    5928.0689    15948.472    26039.977   -24204.242   -20329.597    945.32431    18901.014    85.641424 
   32000    1605.6199   -99.881955    1.4527986   -98.429157    7912.4216    4.4150442    4.4150442    4.4150442    7912.4216   -12662.691    16393.342    20006.614   -5771.6462    27080.239    16869.013     86.06076 
   32100    1231.7563   -99.539839    1.1145189    -98.42532   -8346.6785    4.4097639    4.4097639    4.4097639   -8346.6785    33810.379   -28233.762   -30616.652    4142.2541    7048.3349    27057.335    85.752346 
   32200    1692.8276   -99.949373     1.531706   -98.417667    32115.576     4.386052     4.386052     4.386052    32115.576    21944.738    73795.279    606.71249   -19315.631     12161.66   -7542.7194    84.376464 
   32300    1258.5915   -99.597726       1.1388   -98.458926    4847.2791    4.3964205    4.3964205    4.3964205    4847.2791    45234.773   -18153.303   -12539.633   -2926.6751    6477.8759    36969.998    84.976275 
   32400    1757.6854   -100.03872    1.5903907   -98.448332    -1412.849    4.4082791    4.4082791    4.4082791    -1412.849    47497.659   -27723.574   -24012.633     4512.192    7180.3574   -13437.436    85.665754 
   32500    1551.0693   -99.854883    1.4034401   -98.451443   -14190.244    4.4002471    4.4002471    4.4002471   -14190.244   -3363.9606    -9864.906   -29341.864   -2781.8789   -502.55384    14064.722    85.198354 
   32600    1339.7455   -99.655103    1.2122299   -98.442873    32545.598    4.3873694    4.3873694    4.3873694    32545.598    5263.4171    54615.502    37757.874   -22287.287    2408.4936   -1965.6499    84.452519 
   32700    1768.9615   -100.05879    1.6005935   -98.458197   -15090.244    4.3917911    4.3917911    4.3917911   -15090.244   -22824.282    5947.7031   -28394.154    280.42037    2683.2873     14959.85    84.708115 
   32800     1385.613   -99.729094    1.2537317   -98.475362    18099.049    4.3981656    4.3981656    4.3981656    18099.049   -24268.193    59114.406    19450.934    3453.6776   -18302.992    3759.1183    85.077503 
   32900    1312.6343   -99.660697    1.1876991   -98.472998   -8717.4282    4.4027077    4.4027077    4.4027077   -8717.4282    4471.0668   -4961.7996   -25661.552   -7868.8823    24074.834    18033.846    85.341357 
   33000    1821.7875    -100.1153    1.6483916   -98.466906   -2839.5327    4.3970149    4.3970149    4.3970149   -2839.5327     -28577.7   -9855.4577     29914.56    1301.6543   -27547.927    6063.6315    85.010745 
   33100    1305.2142   -99.643881    1.1809853   -98.462895    18033.013     4.395286     4.395286     4.395286    18033.013    16411.311    7768.9278    29918.801   -21394.314     18351.38    6309.9235    84.910503 
   33200    1359.8465   -99.708008    1.2304177    -98.47759   -13417.161    4.3957428    4.3957428    4.3957428   -13417.161   -18125.072    14532.595   -36659.007    14214.762   -30250.267    17431.059    84.936983 
   33300     2001.907   -100.27673    1.8113675   -98.465363    4522.8656    4.3947055    4.3947055    4.3947055    4522.8656   -6859.7608    -6183.728    26612.086   -15503.994    2554.3342   -20916.134    84.876868 
   33400    1028.7965    -99.41104   0.93087666   -98.480163   -4691.7262    4.3965266    4.3965266    4.3965266   -4691.7262    17531.185    -1863.141   -29743.222    3081.1937   -4083.2216    42405.247    84.982423 
   33500    2276.8422   -100.52536    2.0601346   -98.465229   -7694.8377    4.3998195    4.3998195    4.3998195   -7694.8377    -16726.96    9583.6378   -15941.191   -4342.7917   -12712.803   -36773.193    85.173519 
   33600    1328.8587     -99.6672    1.2023793    -98.46482   -9840.1255    4.4078301    4.4078301    4.4078301   -9840.1255   -14048.552    17624.547   -33096.371   -1203.2559   -9763.6955     21405.75    85.639582 
   33700    2054.2426    -100.3094    1.8587219   -98.450675   -14315.018    4.4066865    4.4066865    4.4066865   -14315.018   -12903.701   -3743.8931    -26297.46   -9184.5459    4705.6597    -42017.03     85.57294 
   33800    1583.6643   -99.875594    1.4329327   -98.442662   -21825.637    4.4075101    4.4075101    4.4075101   -21825.637   -37137.052   -12736.725   -15603.134    843.00563   -1263.3425    8846.7048    85.620929 
   33900    1948.6477   -100.20488    1.7631774   -98.441701   -2522.1231    4.4127363    4.4127363    4.4127363   -2522.1231    -29421.66   -5731.4543    27586.745   -1632.6459    13195.478   -16897.243    85.925867 
   34000    1163.3616   -99.497026     1.052634   -98.444392   -9395.7477    4.4143776    4.4143776    4.4143776   -9395.7477    41674.847   -58768.407   -11093.683    4651.9769    4618.1138    3093.9305    86.021783 
   34100    1805.7351   -100.06109     1.633867   -98.427223    18076.597    4.4041387    4.4041387    4.4041387    18076.597     15467.15    9.6546744    38752.988    3295.2874    20143.138    3645.0894    85.424603 
   34200    1246.2686   -99.581472      1.12765   -98.453822     5135.717    4.3955563    4.3955563    4.3955563     5135.717    57270.881   -25630.528   -16233.203    11281.138    9627.5345    16819.456    84.926171 
   34300    1837.7428   -100.12654    1.6628283   -98.463716    7843.3192    4.3987255    4.3987255    4.3987255    7843.3192    16704.793    834.96258    5990.2026   -1710.3819   -91.939499    17469.519    85.109998 
   34400    1207.4606   -99.555154    1.0925357   -98.462618   -3831.1599    4.4186336    4.4186336    4.4186336   -3831.1599   -15400.847    19804.642   -15897.274    11020.368    7393.8035    25351.288    86.270831 
   34500    2167.4831   -100.39642    1.9611843   -98.435237   -55350.949    4.4249585    4.4249585    4.4249585   -55350.949   -75996.835   -50104.483    -39951.53    14374.957   -14795.374    -714.2636    86.641825 
   34600    1800.9129   -100.05475    1.6295038   -98.425251   -6861.5194    4.3942023    4.3942023    4.3942023   -6861.5194   -15025.384    21134.798   -26693.973    3342.2632    9328.1726    7489.5579    84.847713 
   34700    1498.5566   -99.796197    1.3559255   -98.440271    15597.123    4.3798519    4.3798519    4.3798519    15597.123    314.28336    38071.777    8405.3077    17519.026   -7623.6826    1958.2582    84.019151 
   34800    1910.9077   -100.19935    1.7290294    -98.47032   -7438.9204    4.4006753    4.4006753    4.4006753   -7438.9204   -49518.443    4245.4542    22956.228   -1666.1233    6308.9395    5956.8403    85.223225 
   34900    1263.6826   -99.605345    1.1434065   -98.461938   -19654.172    4.4105904    4.4105904    4.4105904   -19654.172   -25641.748    43046.482   -76367.251    15003.635   -1727.7156    4554.1156    85.800573 
   35000    1810.9172   -100.09249     1.638556   -98.453938   -2641.0137    4.4044074    4.4044074    4.4044074   -2641.0137   -25058.578    26590.001    -9454.464    11095.319    6917.6821   -8289.9554    85.440241 
[...]
   91200    1621.4131   -99.933778    1.4670886   -98.466689   -16324.438    4.3906225    4.3906225    4.3906225   -16324.438    26386.093   -36243.383   -39116.025    1293.8226    6138.0517    48964.428    84.640513 
   91300    1395.1725   -99.723077    1.2623814   -98.460696    35804.768    4.3727872    4.3727872    4.3727872    35804.768   -7432.9451     39608.08    75239.169    22991.081   -5247.8914   -10617.246    83.613237 
   91400    1800.5707   -100.10502    1.6291942   -98.475822   -15775.188    4.3870581    4.3870581    4.3870581   -15775.188    8492.4375   -23604.027   -32213.974   -14070.642     -819.327    47820.041    84.434545 
   91500    1278.7266   -99.639007    1.1570187   -98.481988    7432.2799    4.3963392    4.3963392    4.3963392    7432.2799    -29686.07   -6807.4026    58790.312    26830.475   -389.20001    5042.3952    84.971557 
   91600    1748.4305   -100.05284    1.5820166   -98.470824    1333.6279    4.3979845    4.3979845    4.3979845    1333.6279   -3648.6533   -4605.4859    12255.023   -12855.674   -1258.6782    20492.396    85.066996 
   91700    1216.5869   -99.571899    1.1007934   -98.471105   -3505.7033    4.3913631    4.3913631    4.3913631   -3505.7033   -44260.535    12390.903    21352.523    31248.061   -6788.0661    858.96094    84.683356 
   91800    2163.9606    -100.4133     1.957997   -98.455306    14924.841    4.3902423    4.3902423    4.3902423    14924.841   -17172.026     -7271.08    69217.629   -19751.597     6538.212    3549.7074    84.618528 
   91900     757.8267   -99.166122   0.68569752   -98.480424    -11366.44    4.3996757    4.3996757    4.3996757    -11366.44   -47182.585    8168.6182    4914.6475     53085.94   -9982.4684    16883.856    85.165169 
   92000    2364.3839   -100.59645    2.1393443   -98.457107     -1586.08    4.3904718    4.3904718    4.3904718     -1586.08   -16498.669   -13360.476    25100.905   -21162.064   -3323.3615   -6923.3571    84.631797 
   92100    996.58417    -99.37963    0.9017303     -98.4779   -22044.258    4.3927999    4.3927999    4.3927999   -22044.258   -31219.473   -4911.7855   -30001.514    44396.675   -9184.9231    37602.477      84.7665 
   92200    1791.5707   -100.09382    1.6210508   -98.472771    8092.2989    4.3810939    4.3810939    4.3810939    8092.2989   -23469.347    9549.0746    38197.169   -4212.4611    -11971.43   -27259.705    84.090645 
   92300    1468.8263   -99.816227    1.3290249   -98.487202   -13467.236    4.3824421    4.3824421    4.3824421   -13467.236   -31382.977   -11393.938    2375.2086    28788.745   -2543.8991    38437.927    84.168299 
   92400    1720.4856   -100.04269    1.5567315   -98.485955   -18257.904     4.390087     4.390087     4.390087   -18257.904   -44961.911   -19666.017    9854.2152    17789.653   -15709.533   -9930.3396    84.609549 
   92500    1218.3127   -99.589123     1.102355   -98.486768    33857.837    4.3739769    4.3739769    4.3739769    33857.837    -16714.16    42793.877    75493.793     18652.77    7445.4868    20092.072    83.681499 
   92600    1837.1539   -100.15907    1.6622954   -98.496775   -10720.497    4.3883319    4.3883319    4.3883319   -10720.497   -36088.109    -25028.76    28955.378    8022.1305   -6708.0535    5571.2334    84.508111 
   92700    1584.0911     -99.9075     1.433319   -98.474181    7889.4314    4.3953654    4.3953654    4.3953654    7889.4314   -36387.134    12542.929    47512.499    14090.937   -3386.8812    2222.3536    84.915103 
   92800    1744.2595   -100.05612    1.5782427   -98.477879   -29445.032     4.385335     4.385335     4.385335   -29445.032   -29830.978   -29125.087    -29379.03    11192.534   -441.26468    28237.918    84.335092 
   92900    1829.3913   -100.12415    1.6552717   -98.468874    3293.6223    4.3893868    4.3893868    4.3893868    3293.6223   -29509.252    17810.477    21579.641    2472.4689    -657.6586   -20589.282    84.569072 
   93000    1684.5632   -99.998098    1.5242282    -98.47387   -23765.009    4.4066329    4.4066329    4.4066329   -23765.009   -32892.903   -15854.453   -22547.671    8097.8423    4412.0156    28818.559    85.569822 
   93100    2110.8099    -100.3531    1.9099052   -98.443199   -25870.224    4.4212082    4.4212082    4.4212082   -25870.224   -9500.9526   -37606.245   -30503.474   -2764.6442    -5114.241   -26960.082    86.421721 
   93200    975.05233   -99.323367   0.88224784   -98.441119   -1586.2858    4.3992061    4.3992061    4.3992061   -1586.2858   -10928.702    21584.301   -15414.457    14797.319   -7849.3473    36897.261    85.137896 
   93300    2324.7121   -100.53381    2.1034483   -98.430361    16786.648    4.3781827    4.3781827    4.3781827    16786.648    8784.1795    47682.568   -6106.8034   -3032.6011    3689.2499   -20061.512    83.923127 
   93400    770.15484   -99.177267   0.69685228   -98.480414    26435.309    4.3892631    4.3892631    4.3892631    26435.309    20133.124    84672.719   -25499.917    10020.676    602.04388    25366.804    84.561922 
   93500     2264.031   -100.51034    2.0485429   -98.461799   -20582.228    4.4150703    4.4150703    4.4150703   -20582.228   -24271.002   -21019.121    -16456.56   -11176.081    2718.0082    1120.6929    86.062284 
   93600    1236.9129   -99.567047    1.1191848   -98.447862   -15268.166    4.4185707    4.4185707    4.4185707   -15268.166   -30597.341    8364.1123   -23571.268    14039.276    3575.0501    34148.021    86.267146 
   93700     2537.085   -100.69855    2.2956078   -98.402943    -34187.71     4.409637     4.409637     4.409637    -34187.71   -23057.034    -39034.51   -40471.584   -11023.985   -4205.5167    11080.576    85.744944 
   93800    1177.0104   -99.484549    1.0649837   -98.419565   -1397.9043    4.3967767    4.3967767    4.3967767   -1397.9043    8492.6867    5291.1191   -17977.519     5927.129    6839.7937    20243.031    84.996927 
   93900    2018.0759    -100.2351    1.8259975   -98.409101   -413.15316    4.3989837    4.3989837    4.3989837   -413.15316    3937.7109   -3927.2881   -1249.8823   -14445.037    9830.9059    391.38346    85.124984 
   94000    1165.6356   -99.506729    1.0546916   -98.452037   -30651.504    4.3937968    4.3937968    4.3937968   -30651.504   -20425.845   -16229.469   -55299.199    13990.584    8416.5851    9001.6417    84.824228 
   94100    2072.4485   -100.32523     1.875195   -98.450037    12242.554    4.3762635    4.3762635    4.3762635    12242.554   -1359.6649    26890.399    11196.927    146.90244     3247.186    4918.6294    83.812807 
   94200    1202.9871   -99.570915     1.088488   -98.482427   -1522.9001    4.3796799    4.3796799    4.3796799   -1522.9001    20281.849   -19042.398   -5808.1512    3615.0054    10427.582   -3168.3072    84.009251 
   94300    2320.8692   -100.56807    2.0999712   -98.468101   -14169.876    4.3986022    4.3986022    4.3986022   -14169.876     -18326.8    9687.3818    -33870.21    6730.0065   -6167.7615    3442.8756    85.102841 
   94400    1083.5968   -99.448812   0.98046117   -98.468351   -26499.394    4.3990963    4.3990963    4.3990963   -26499.394   -44464.048   -35893.807    859.67168   -32686.248    1977.2311    -12302.15    85.131526 
   94500    2035.5241   -100.27483     1.841785   -98.433045    40378.229    4.3796555    4.3796555    4.3796555    40378.229    46084.646    72152.322    2897.7183    35272.442    3849.1467   -7582.7702    84.007848 
   94600    759.21173   -99.166453   0.68695073   -98.479503   -1062.9957    4.3801896    4.3801896    4.3801896   -1062.9957   -19818.397    67945.015   -51315.606   -33357.733   -13618.392   -13672.939    84.038586 
   94700    1994.9193   -100.26841    1.8050449   -98.463368    39506.428    4.3923487    4.3923487    4.3923487    39506.428    45161.559     61726.82    11630.905    19465.773    7398.7271   -6699.8162    84.740387 
   94800    1024.1873   -99.401778   0.92670618   -98.475072   -30676.529    4.4142896    4.4142896    4.4142896   -30676.529   -43043.375   -14969.927   -34016.286   -29885.795   -20185.935   -19169.026    86.016639 
   94900    2186.4099   -100.40162    1.9783096   -98.423314    14648.927    4.4087154    4.4087154    4.4087154    14648.927    11169.432    21580.617    11196.732    18996.623    16730.674    3402.0561    85.691193 
   95000    822.95338   -99.170895   0.74462551   -98.426269    18327.476    4.3853593    4.3853593    4.3853593    18327.476    6883.6965    41969.421    6129.3116   -17474.103   -22064.414    -30593.14    84.336497 
   95100    2205.7295    -100.4172    1.9957904   -98.421411    25757.469    4.3820925    4.3820925    4.3820925    25757.469    13614.971   -6349.2262    70006.663    16730.767   -7615.6818    10945.916    84.148159 
   95200    1144.2895   -99.500527    1.0353771    -98.46515    -3833.421    4.3979479    4.3979479    4.3979479    -3833.421   -15080.897   -988.62998    4569.2642   -6699.0049   -10247.413   -8586.2451    85.064867 
   95300     2303.844   -100.51533    2.0845664    -98.43076   -6185.7938    4.4100981    4.4100981    4.4100981   -6185.7938   -27021.078   -40614.706    49078.402    14262.315   -7774.9929    15013.745    85.771847 
   95400    724.36276   -99.096391   0.65541865   -98.440972    2747.2562     4.398549     4.398549     4.398549    2747.2562   -27314.067    6975.7676    28580.068    2293.9855   -22113.585   -20451.328    85.099755 
   95500    2290.8436   -100.48924    2.0728035   -98.416441    9372.5156    4.3751372    4.3751372    4.3751372    9372.5156   -12090.398    27260.394    12947.551    5698.4684   -14982.932     10990.65    83.748114 
   95600    1125.4202   -99.476817    1.0183039   -98.458513   -5647.9543      4.37742      4.37742      4.37742   -5647.9543   -5539.3404   -29850.509    18445.987    8570.9804   -5064.9806   -13757.048    83.879274 
   95700    2187.2754   -100.43194    1.9790928   -98.452847   -9715.4318    4.4026084    4.4026084    4.4026084   -9715.4318   -11892.296    576.97603   -17830.976    -1118.743   -22719.761    5414.8835    85.335583 
   95800     1201.293   -99.523243    1.0869552   -98.436287   -44145.589    4.4220357    4.4220357    4.4220357   -44145.589   -27775.799   -72479.095   -32181.873    5452.1522    12617.037   -21959.913    86.470256 
   95900    2214.0754   -100.40174     2.003342     -98.3984    612.37576    4.4050067    4.4050067    4.4050067    612.37576   -40592.187    21741.842    20687.472    12132.478    3735.4949    8662.0428     85.47512 
   96000    981.34947   -99.309793   0.88794562   -98.421847   -9059.3963    4.3699941    4.3699941    4.3699941   -9059.3963    10949.098   -41582.239    3454.9516    25746.277    21514.195   -25732.742    83.453115 
   96100    2068.0422   -100.30066     1.871208   -98.429451    62359.846    4.3615564    4.3615564    4.3615564    62359.846    29111.347    79429.513    78538.678    871.26239    2642.0324    3033.3929    82.970646 
   96200    1161.0645    -99.54657    1.0505556   -98.496015   -13362.909    4.4044795    4.4044795    4.4044795   -13362.909   -45981.943    3472.7152    2420.5017    17828.939    18094.866   -35754.692    85.444435 
   96300    2458.4914   -100.63767    2.2244947   -98.413171   -36497.878    4.4291535    4.4291535    4.4291535   -36497.878   -41914.388   -29149.018   -38430.229   -2468.4958   -2357.1557     5896.985    86.888481 
   96400    955.69989   -99.298676   0.86473735   -98.433938   -911.30538    4.3897485    4.3897485    4.3897485   -911.30538   -13504.718   -8635.5172    19406.319    18627.284    23887.999   -36306.167     84.58998 
   96500    2269.6026   -100.47842    2.0535841   -98.424833    29106.415     4.351671     4.351671     4.351671    29106.415    37210.077    26629.461    23479.707   -15160.083   -9467.5606    308.97648    82.407771 
   96600    1154.2648   -99.549871     1.044403   -98.505468     11612.63    4.3603538    4.3603538    4.3603538     11612.63   -7048.8876   -2043.4931     43930.27    19749.973    15969.482   -36196.855    82.902035 
   96700    2168.6609   -100.43902    1.9622499   -98.476773   -5787.9013    4.4072645    4.4072645    4.4072645   -5787.9013   -17252.576   -661.47171    550.34399   -10055.729   -5085.5784   -823.25458    85.606619 
   96800    866.12889   -99.246566   0.78369162   -98.462874   -44606.091    4.4127014    4.4127014    4.4127014   -44606.091   -51757.069   -85720.781    3659.5779    35037.676    3262.6367    -19654.65    85.923828 
   96900    2274.5287   -100.49668    2.0580413   -98.438634    24590.451    4.3642805    4.3642805    4.3642805    24590.451    21934.757    19265.604    32570.991   -22188.208   -1408.1594   -12597.964    83.126206 
   97000    1240.8136   -99.569657    1.1227142   -98.446942    14005.388    4.3400748    4.3400748    4.3400748    14005.388    10299.235    11915.076    19801.854    31285.235    -14388.65    2832.6019    81.750731 
   97100    1786.4927   -100.08828    1.6164561   -98.471824    17768.562    4.3692177    4.3692177    4.3692177    17768.562    10774.328    7076.0377    35455.321   -12470.253     4248.876   -14855.815    83.408645 
   97200    1165.1548    -99.53378    1.0542565   -98.479524   -28522.234    4.3983278    4.3983278    4.3983278   -28522.234   -35378.384   -22506.796   -27681.523    10291.077   -15412.846    22234.435    85.086916 
   97300    2224.7801   -100.45119    2.0130278    -98.43816    4629.3917    4.3878792    4.3878792    4.3878792    4629.3917    1993.4083    3637.8935    8256.8733   -9214.4534    2753.5596   -25885.306    84.481961 
   97400    720.33918   -99.107251   0.65177803   -98.455473    10006.194    4.3651773    4.3651773    4.3651773    10006.194   -37945.795    13815.348     54149.03    8680.7882   -11732.121    19128.843     83.17746 
   97500    2396.4273   -100.60878    2.1683378   -98.440441    17956.648    4.3658335    4.3658335    4.3658335    17956.648    24746.521    26777.253    2346.1714   -9480.8558   -644.99215   -20666.719    83.214978 
   97600    1114.9668   -99.486696    1.0088454    -98.47785   -19047.601    4.3858696    4.3858696    4.3858696   -19047.601   -44813.146   -21324.845    8995.1871    2243.9524   -11499.679    15586.964    84.365938 
   97700    1916.6697   -100.18104     1.734243   -98.446796    2231.8003    4.3902968    4.3902968    4.3902968    2231.8003    2273.4299    1064.9443    3357.0268    6396.8655    2387.5914   -21481.163    84.621677 
   97800    1244.9713   -99.578051    1.1264762   -98.451575   -4239.2274    4.3751707    4.3751707    4.3751707   -4239.2274    3852.5338    2193.8795   -18764.095   -14849.229   -414.16467     3802.018    83.750038 
   97900    2042.3638   -100.28232    1.8479737   -98.434343    9001.5791    4.3685599    4.3685599    4.3685599    9001.5791    16166.338   -10105.424    20943.823    8309.0265   -8228.1579   -22874.511    83.370977 
   98000    829.55043   -99.220304   0.75059466    -98.46971    4966.7428    4.3730297    4.3730297    4.3730297    4966.7428   -9888.2055    18183.309    6605.1244   -16121.965    10340.868    -22629.61    83.627149 
   98100    2348.1058   -100.57736    2.1246154   -98.452746     2174.564    4.3843723    4.3843723    4.3843723     2174.564    10752.942    7086.4816   -11315.732    13935.595   -7980.3417   -16347.881    84.279565 
   98200    827.89874   -99.224342   0.74910018   -98.475242   -27647.086    4.3871312    4.3871312    4.3871312   -27647.086   -52410.445   -14319.408   -16211.405    -29221.94     10697.39   -25312.827    84.438763 
   98300    2374.1813   -100.59059    2.1482091    -98.44238    16679.212    4.3664536    4.3664536    4.3664536    16679.212   -2466.7408     32957.56    19546.817    24350.913    5444.9439   -6278.8196    83.250443 
   98400    949.44517   -99.330322   0.85907795   -98.471244    163.68317    4.3677996    4.3677996    4.3677996    163.68317    -22891.42    10049.511    13332.958   -28804.026    3430.6785   -28255.191    83.327453 
   98500     1917.736   -100.19714    1.7352078   -98.461932    1813.1014    4.3804419    4.3804419    4.3804419    1813.1014   -22184.931    29700.683   -2076.4472    8176.8184    15918.084    16354.834    84.053106 
   98600    1581.5113   -99.899496    1.4309846   -98.468511   -4083.2387    4.3807535    4.3807535    4.3807535   -4083.2387   -15960.552    15538.234   -11827.397   -5305.9452   -3768.2861   -18150.196    84.071044 
   98700    1392.5804   -99.724397     1.260036   -98.464361    3482.4579    4.3794387    4.3794387    4.3794387    3482.4579    -18354.98    27264.713    1537.6399    1338.8295    29382.191    26257.405    83.995371 
   98800    1867.3857   -100.15116    1.6896498   -98.461512    8876.6085     4.373854     4.373854     4.373854    8876.6085    3329.3997     32473.72   -9173.2943   -8332.7315   -3481.5612   -878.43838    83.674446 
   98900    1505.9552   -99.822563      1.36262   -98.459943    2978.2639    4.3740543    4.3740543    4.3740543    2978.2639    10154.319    15502.645   -16722.173    2636.7966    15571.752    12508.364    83.685941 
   99000    1560.1935   -99.880662    1.4116958   -98.468966      -4139.8    4.3745713    4.3745713    4.3745713      -4139.8    15580.122   -22518.397   -5481.1255   -316.80432   -2390.8031    37570.902    83.715618 
   99100    1837.2629   -100.12676    1.6623941   -98.464369    4776.1187    4.3781002    4.3781002    4.3781002    4776.1187    7914.4298    32358.436    -25944.51   -12975.642    16880.565    157.73638    83.918381 
   99200     1088.707   -99.454311   0.98508495   -98.469226   -11633.925    4.3843841    4.3843841    4.3843841   -11633.925    51457.231   -42914.728   -43444.278    5380.9436    4399.0622    53586.949    84.280246 
   99300    1846.2005   -100.11769     1.670481   -98.447209    13073.849    4.3757003    4.3757003    4.3757003    13073.849    9841.6269    15227.596    14152.324   -15267.388    4324.3902   -3352.1953    83.780452 
   99400    1136.6107   -99.496477    1.0284293   -98.468047   -1327.5672    4.3700062    4.3700062    4.3700062   -1327.5672    31262.669   -5380.5418   -29864.828    3277.3041    19764.702    45253.024    83.453809 
   99500    2147.5474   -100.40608     1.943146   -98.462929    8180.4496    4.3748448    4.3748448    4.3748448    8180.4496    16569.136   -1500.8104    9473.0235    418.92177      814.167   -10802.813    83.731321 
   99600    1038.8242   -99.430827   0.93994993   -98.490878   -355.35898    4.3803385    4.3803385    4.3803385   -355.35898    2738.9486    36408.431   -40213.456    2214.2666    16941.788    48006.067    84.047157 
   99700     2090.893   -100.35169    1.8918839   -98.459802   -7054.8206    4.3877699    4.3877699    4.3877699   -7054.8206   -30403.682   -20541.906    29781.126    9199.9027   -3169.0313   -23587.578     84.47565 
   99800    1487.3818   -99.801902    1.3458143   -98.456087     -11015.5    4.3854968    4.3854968    4.3854968     -11015.5    14792.245   -8520.8083   -39317.935    4771.9213    6651.7549    54319.998    84.344429 
   99900    1639.3759   -99.923103    1.4833418   -98.439761    20791.228    4.3780202    4.3780202    4.3780202    20791.228   -1324.1321    41042.485    22655.332    7588.9598    812.66461   -31256.774    83.913781 
  100000    1281.6293   -99.624447    1.1596451   -98.464802   -19332.122    4.3683074    4.3683074    4.3683074   -19332.122    31805.321    -47778.98   -42022.707   -793.98842    3400.2671    66015.613    83.356522 
Loop time of 21.4687 on 1 procs for 100000 steps with 8 atoms

Pair  time (%) = 6.3596 (29.6226)
Kspce time (%) = 5.35443 (24.9406)
Neigh time (%) = 0.161083 (0.750312)
Comm  time (%) = 0.881921 (4.10793)
Outpt time (%) = 0.0265834 (0.123824)
Other time (%) = 8.68512 (40.4547)

Nlocal:    8 ave 8 max 8 min
Histogram: 1 0 0 0 0 0 0 0 0 0
Nghost:    1948 ave 1948 max 1948 min
Histogram: 1 0 0 0 0 0 0 0 0 0
Neighs:    2088 ave 2088 max 2088 min
Histogram: 1 0 0 0 0 0 0 0 0 0

Total # of neighbors = 2088
Ave neighs/atom = 261
Neighbor list builds = 2151
Dangerous builds = 0
seeds:9236395
