# ['Ni']

18 atoms
1 atom types

    0.0000     2.5609 xlo xhi
    0.0000     4.4357 ylo yhi
    0.0000    37.6316 zlo zhi

    0.0000     0.0000    -0.0004 xy xz yz

Atoms

1 1     0.0000     0.0000     0.0000
2 1     1.2805     0.7393     2.0907
3 1     0.0000     1.4786     4.1813
4 1     1.2805     2.2178     0.0000
5 1     0.0000     2.9571     2.0907
6 1     1.2805     3.6964     4.1813
7 1     0.0000     0.0000     6.2719
8 1     1.2805     0.7393     8.3626
9 1     0.0000     1.4786    10.4532
10 1     1.2805     2.2178     6.2719
11 1     0.0000     2.9571     8.3626
12 1     1.2805     3.6964    10.4532
13 1     0.0000     0.0000    12.5438
14 1     1.2805     0.7393    14.6345
15 1     0.0000     1.4786    16.7251
16 1     1.2805     2.2178    12.5438
17 1     0.0000     2.9571    14.6345
18 1     1.2805     3.6964    16.7251
