# ['Ni']

28 atoms
1 atom types

    0.0000     2.4936 xlo xhi
    0.0000     4.3190 ylo yhi
    0.0000    28.5042 zlo zhi

    0.0000     0.0000     0.0000 xy xz yz

Atoms

1 1     0.0000     0.0000     0.0000
2 1     1.2468     2.1595     0.0000
3 1     1.2468     0.7198     2.0360
4 1     0.0000     2.8794     2.0360
5 1     0.0000     1.4397     4.0720
6 1     1.2468     3.5992     4.0720
7 1     0.0000     0.0000     6.1081
8 1     1.2468     2.1595     6.1081
9 1     1.2468     0.7198     8.1441
10 1     0.0000     2.8794     8.1441
11 1     0.0000     1.4397    10.1801
12 1     1.2468     3.5992    10.1801
13 1     0.0000     0.0000    12.2161
14 1     1.2468     2.1595    12.2161
15 1     0.0000     1.4397    14.2521
16 1     1.2468     3.5992    14.2521
17 1     0.0000     0.0000    16.2881
18 1     1.2468     2.1595    16.2881
19 1     1.2468     0.7198    18.3241
20 1     0.0000     2.8794    18.3241
21 1     0.0000     1.4397    20.3602
22 1     1.2468     3.5992    20.3602
23 1     0.0000     0.0000    22.3962
24 1     1.2468     2.1595    22.3962
25 1     1.2468     0.7198    24.4322
26 1     0.0000     2.8794    24.4322
27 1     0.0000     1.4397    26.4682
28 1     1.2468     3.5992    26.4682
