    4    4    1    2
  0.1064635E+02  0.3492102E-09  0.3492102E-09  0.3492102E-09  0.5000000E-15
  1.000000000000000E-004
  CAR 
 automatically generated by pyflamestk   
     40      4     32
 
  0.1250000E+00  0.1250000E+00  0.1250000E+00  0.1250000E+00
    1        1.120770      1.120730   1.000000   1.000000
    2        5.335040      5.334754   1.000000   1.000000
    3        5.335040      5.334754   1.000000   1.000000
    4        5.335040      5.334754   1.000000   1.000000
    5        5.905458      5.905177   1.000000   1.000000
    6        5.905458      5.905177   1.000000   1.000000
    7        5.905458      5.905177   1.000000   1.000000
    8        7.444878      7.444559   1.000000   1.000000
    9        7.728954      7.728623   1.000000   1.000000
   10        7.728954      7.728623   1.000000   1.000000
   11        8.707728      8.707266   1.000000   1.000000
   12        8.707728      8.707266   1.000000   1.000000
   13        8.727935      8.727634   1.000000   1.000000
   14        8.727935      8.727634   1.000000   1.000000
   15        8.727935      8.727634   1.000000   1.000000
   16        9.208827      9.208382   1.021605   1.021503
   17        9.208827      9.208382   1.021605   1.021503
   18        9.208827      9.208382   1.021605   1.021503
   19        9.612222      9.611829   0.199252   0.200548
   20        9.612222      9.611829   0.199252   0.200548
   21        9.612222      9.611829   0.199252   0.200548
   22       12.353926     12.353749  -0.000000  -0.000000
   23       12.353926     12.353749  -0.000000  -0.000000
   24       12.353926     12.353749  -0.000000  -0.000000
   25       20.690955     20.690820   0.000000   0.000000
   26       20.690955     20.690820   0.000000   0.000000
   27       20.690955     20.690820   0.000000   0.000000
   28       22.009217     22.009110   0.000000   0.000000
   29       22.009217     22.009110   0.000000   0.000000
   30       22.009217     22.009110   0.000000   0.000000
   31       25.660806     25.660736   0.000000   0.000000
   32       25.660806     25.660736   0.000000   0.000000
 
  0.3750000E+00  0.1250000E+00  0.1250000E+00  0.3750000E+00
    1        2.638818      2.638770   1.000000   1.000000
    2        4.785975      4.785838   1.000000   1.000000
    3        5.999532      5.999224   1.000000   1.000000
    4        5.999532      5.999224   1.000000   1.000000
    5        6.352190      6.351900   1.000000   1.000000
    6        6.362146      6.361871   1.000000   1.000000
    7        6.362146      6.361871   1.000000   1.000000
    8        7.003128      7.002822   1.000000   1.000000
    9        7.402625      7.402341   1.000000   1.000000
   10        7.402625      7.402341   1.000000   1.000000
   11        7.814210      7.813874   1.000000   1.000000
   12        7.883945      7.883571   1.000000   1.000000
   13        8.036721      8.036371   1.000000   1.000000
   14        8.555018      8.554619   1.000000   1.000000
   15        8.622681      8.622297   1.000000   1.000000
   16        8.756485      8.756041   1.000000   1.000000
   17        8.756485      8.756041   1.000000   1.000000
   18        9.015338      9.014884   1.000735   1.000727
   19        9.406013      9.405575   0.939509   0.940388
   20        9.525864      9.525492   0.539343   0.540914
   21        9.525864      9.525492   0.539343   0.540914
   22        9.625095      9.624770   0.158820   0.159795
   23       14.676111     14.675929  -0.000000  -0.000000
   24       14.676111     14.675929  -0.000000  -0.000000
   25       17.980545     17.980399   0.000000   0.000000
   26       17.980545     17.980399   0.000000   0.000000
   27       21.701602     21.701484   0.000000   0.000000
   28       21.701602     21.701484   0.000000   0.000000
   29       23.798702     23.798590   0.000000   0.000000
   30       23.980826     23.980725   0.000000   0.000000
   31       23.980826     23.980725   0.000000   0.000000
   32       26.908914     26.908800   0.000000   0.000000
 
  0.3750000E+00  0.3750000E+00  0.1250000E+00  0.3750000E+00
    1        3.909182      3.909111   1.000000   1.000000
    2        5.537348      5.537173   1.000000   1.000000
    3        5.537348      5.537173   1.000000   1.000000
    4        6.048123      6.047879   1.000000   1.000000
    5        6.641680      6.641359   1.000000   1.000000
    6        6.749063      6.748779   1.000000   1.000000
    7        6.749063      6.748779   1.000000   1.000000
    8        7.026890      7.026608   1.000000   1.000000
    9        7.212538      7.212198   1.000000   1.000000
   10        7.212538      7.212198   1.000000   1.000000
   11        7.330899      7.330619   1.000000   1.000000
   12        7.650637      7.650267   1.000000   1.000000
   13        7.986734      7.986344   1.000000   1.000000
   14        8.338408      8.337983   1.000000   1.000000
   15        8.339192      8.338787   1.000000   1.000000
   16        8.339192      8.338787   1.000000   1.000000
   17        8.644857      8.644457   1.000000   1.000000
   18        9.174403      9.174013   1.014284   1.014209
   19        9.174403      9.174013   1.014284   1.014209
   20        9.242244      9.241862   1.029196   1.029114
   21        9.587251      9.586850   0.287705   0.289222
   22       11.111798     11.111502  -0.000000  -0.000000
   23       11.111798     11.111502  -0.000000  -0.000000
   24       13.422527     13.422328  -0.000000  -0.000000
   25       16.961312     16.961130   0.000000   0.000000
   26       19.784536     19.784389   0.000000   0.000000
   27       19.784536     19.784389   0.000000   0.000000
   28       22.788739     22.788607   0.000000   0.000000
   29       22.915681     22.915575   0.000000   0.000000
   30       25.391521     25.391430   0.000000   0.000000
   31       25.391521     25.391430   0.000000   0.000000
   32       28.266789     28.266704   0.000000   0.000000
 
  0.3750000E+00  0.3750000E+00  0.3750000E+00  0.1250000E+00
    1        4.526611      4.526466   1.000000   1.000000
    2        5.282771      5.282550   1.000000   1.000000
    3        5.282771      5.282550   1.000000   1.000000
    4        5.282771      5.282550   1.000000   1.000000
    5        7.249593      7.249234   1.000000   1.000000
    6        7.249593      7.249234   1.000000   1.000000
    7        7.249593      7.249234   1.000000   1.000000
    8        7.655452      7.655069   1.000000   1.000000
    9        7.655452      7.655069   1.000000   1.000000
   10        7.812766      7.812374   1.000000   1.000000
   11        7.812766      7.812374   1.000000   1.000000
   12        7.812766      7.812374   1.000000   1.000000
   13        7.870318      7.870163   1.000000   1.000000
   14        7.901684      7.901447   1.000000   1.000000
   15        7.901684      7.901447   1.000000   1.000000
   16        7.901684      7.901447   1.000000   1.000000
   17        9.281954      9.281541   1.035209   1.035184
   18        9.281954      9.281541   1.035209   1.035184
   19        9.520669      9.520257   0.561194   0.562921
   20        9.520669      9.520257   0.561194   0.562921
   21        9.520669      9.520257   0.561194   0.562921
   22       11.126246     11.126017  -0.000000  -0.000000
   23       11.126246     11.126017  -0.000000  -0.000000
   24       11.126246     11.126017  -0.000000  -0.000000
   25       16.312715     16.312512   0.000000   0.000000
   26       16.312715     16.312512   0.000000   0.000000
   27       16.312715     16.312512   0.000000   0.000000
   28       18.748069     18.747905   0.000000   0.000000
   29       29.298858     29.298810   0.000000   0.000000
   30       29.298858     29.298810   0.000000   0.000000
   31       29.298858     29.298810   0.000000   0.000000
   32       31.674701     31.674607   0.000000   0.000000
