    4    4    1    2
  0.1064635E+02  0.3492102E-09  0.3492102E-09  0.3492102E-09  0.5000000E-15
  1.000000000000000E-004
  CAR 
 automatically generated by pyflamestk   
     40      4     32
 
  0.1250000E+00  0.1250000E+00  0.1250000E+00  0.1250000E+00
    1        1.119654      1.119595   1.000000   1.000000
    2        5.341187      5.341429   1.000000   1.000000
    3        5.341187      5.341429   1.000000   1.000000
    4        5.341187      5.341429   1.000000   1.000000
    5        5.912526      5.913048   1.000000   1.000000
    6        5.912526      5.913048   1.000000   1.000000
    7        5.912526      5.913048   1.000000   1.000000
    8        7.452705      7.453329   1.000000   1.000000
    9        7.737069      7.737712   1.000000   1.000000
   10        7.737069      7.737712   1.000000   1.000000
   11        8.716956      8.717424   1.000000   1.000000
   12        8.716956      8.717424   1.000000   1.000000
   13        8.735696      8.736254   1.000000   1.000000
   14        8.735696      8.736254   1.000000   1.000000
   15        8.735696      8.736254   1.000000   1.000000
   16        9.218895      9.219424   1.021567   1.021688
   17        9.218895      9.219424   1.021567   1.021688
   18        9.218895      9.219424   1.021567   1.021688
   19        9.622382      9.623071   0.199501   0.197241
   20        9.622382      9.623071   0.199501   0.197241
   21        9.622382      9.623071   0.199501   0.197241
   22       12.356477     12.356670  -0.000000  -0.000000
   23       12.356477     12.356670  -0.000000  -0.000000
   24       12.356477     12.356670  -0.000000  -0.000000
   25       20.697372     20.697479   0.000000   0.000000
   26       20.697372     20.697479   0.000000   0.000000
   27       20.697372     20.697479   0.000000   0.000000
   28       22.010586     22.010640   0.000000   0.000000
   29       22.010586     22.010640   0.000000   0.000000
   30       22.010586     22.010640   0.000000   0.000000
   31       25.662543     25.662520   0.000000   0.000000
   32       25.662543     25.662520   0.000000   0.000000
 
  0.3750000E+00  0.1250000E+00  0.1250000E+00  0.3750000E+00
    1        2.638024      2.637977   1.000000   1.000000
    2        4.787800      4.787868   1.000000   1.000000
    3        6.006444      6.006732   1.000000   1.000000
    4        6.006444      6.006732   1.000000   1.000000
    5        6.359718      6.360262   1.000000   1.000000
    6        6.369116      6.369601   1.000000   1.000000
    7        6.369116      6.369601   1.000000   1.000000
    8        7.010990      7.011578   1.000000   1.000000
    9        7.409816      7.410329   1.000000   1.000000
   10        7.409816      7.410329   1.000000   1.000000
   11        7.821620      7.822060   1.000000   1.000000
   12        7.892865      7.893417   1.000000   1.000000
   13        8.045456      8.046080   1.000000   1.000000
   14        8.564306      8.564842   1.000000   1.000000
   15        8.632057      8.632657   1.000000   1.000000
   16        8.765990      8.766455   1.000000   1.000000
   17        8.765990      8.766455   1.000000   1.000000
   18        9.025226      9.025735   1.000729   1.000738
   19        9.416270      9.416845   0.939466   0.938305
   20        9.535917      9.536641   0.540114   0.537063
   21        9.535917      9.536641   0.540114   0.537063
   22        9.632804      9.633326   0.166453   0.164865
   23       14.679640     14.679846  -0.000000  -0.000000
   24       14.679640     14.679846  -0.000000  -0.000000
   25       17.983443     17.983589   0.000000   0.000000
   26       17.983443     17.983589   0.000000   0.000000
   27       21.707336     21.707418   0.000000   0.000000
   28       21.707336     21.707418   0.000000   0.000000
   29       23.802990     23.803068   0.000000   0.000000
   30       23.983971     23.984013   0.000000   0.000000
   31       23.983971     23.984013   0.000000   0.000000
   32       26.916173     26.916076   0.000000   0.000000
 
  0.3750000E+00  0.3750000E+00  0.1250000E+00  0.3750000E+00
    1        3.909162      3.909171   1.000000   1.000000
    2        5.540656      5.540866   1.000000   1.000000
    3        5.540656      5.540866   1.000000   1.000000
    4        6.053476      6.053902   1.000000   1.000000
    5        6.648582      6.648868   1.000000   1.000000
    6        6.756085      6.756511   1.000000   1.000000
    7        6.756085      6.756511   1.000000   1.000000
    8        7.034352      7.034880   1.000000   1.000000
    9        7.220446      7.220944   1.000000   1.000000
   10        7.220446      7.220944   1.000000   1.000000
   11        7.338068      7.338586   1.000000   1.000000
   12        7.658978      7.659491   1.000000   1.000000
   13        7.995644      7.996185   1.000000   1.000000
   14        8.347543      8.348026   1.000000   1.000000
   15        8.348361      8.348868   1.000000   1.000000
   16        8.348361      8.348868   1.000000   1.000000
   17        8.654530      8.655109   1.000000   1.000000
   18        9.184237      9.184871   1.014207   1.014328
   19        9.184237      9.184871   1.014207   1.014328
   20        9.251981      9.252660   1.029089   1.029234
   21        9.596698      9.597265   0.290687   0.288542
   22       11.118362     11.118794  -0.000000  -0.000000
   23       11.118362     11.118794  -0.000000  -0.000000
   24       13.426779     13.427023  -0.000000  -0.000000
   25       16.964540     16.964765   0.000000   0.000000
   26       19.787802     19.787957   0.000000   0.000000
   27       19.787802     19.787957   0.000000   0.000000
   28       22.792600     22.792725   0.000000   0.000000
   29       22.921134     22.921201   0.000000   0.000000
   30       25.397364     25.397409   0.000000   0.000000
   31       25.397364     25.397409   0.000000   0.000000
   32       28.272640     28.272673   0.000000   0.000000
 
  0.3750000E+00  0.3750000E+00  0.3750000E+00  0.1250000E+00
    1        4.528843      4.529028   1.000000   1.000000
    2        5.287390      5.287753   1.000000   1.000000
    3        5.287390      5.287753   1.000000   1.000000
    4        5.287390      5.287753   1.000000   1.000000
    5        7.257275      7.257657   1.000000   1.000000
    6        7.257275      7.257657   1.000000   1.000000
    7        7.257275      7.257657   1.000000   1.000000
    8        7.664073      7.664594   1.000000   1.000000
    9        7.664073      7.664594   1.000000   1.000000
   10        7.821596      7.822107   1.000000   1.000000
   11        7.821596      7.822107   1.000000   1.000000
   12        7.821596      7.822107   1.000000   1.000000
   13        7.873891      7.874126   1.000000   1.000000
   14        7.907538      7.907956   1.000000   1.000000
   15        7.907538      7.907956   1.000000   1.000000
   16        7.907538      7.907956   1.000000   1.000000
   17        9.292102      9.292715   1.035204   1.035239
   18        9.292102      9.292715   1.035204   1.035239
   19        9.530848      9.531489   0.561431   0.558744
   20        9.530848      9.531489   0.561431   0.558744
   21        9.530848      9.531489   0.561431   0.558744
   22       11.131293     11.131583  -0.000000  -0.000000
   23       11.131293     11.131583  -0.000000  -0.000000
   24       11.131293     11.131583  -0.000000  -0.000000
   25       16.317214     16.317508   0.000000   0.000000
   26       16.317214     16.317508   0.000000   0.000000
   27       16.317214     16.317508   0.000000   0.000000
   28       18.751611     18.751819   0.000000   0.000000
   29       29.307367     29.307347   0.000000   0.000000
   30       29.307367     29.307347   0.000000   0.000000
   31       29.307367     29.307347   0.000000   0.000000
   32       31.678158     31.678175   0.000000   0.000000
