# ['Ni']

107 atoms
1 atom types

    0.0000     9.8759 xlo xhi
    0.0000     9.8759 ylo yhi
    0.0000     9.8759 zlo zhi

    0.0000    -0.0000    -0.0000 xy xz yz

Atoms

1 1     1.6460     1.6460     0.0000
2 1     1.6460     0.0000     1.6460
3 1     0.0000     1.6460     1.6460
4 1     0.0000     0.0000     3.2920
5 1     1.6460     1.6460     3.2920
6 1     1.6460     0.0000     4.9380
7 1     0.0000     1.6460     4.9380
8 1     0.0000     0.0000     6.5840
9 1     1.6460     1.6460     6.5840
10 1     1.6460     0.0000     8.2299
11 1     0.0000     1.6460     8.2299
12 1     0.0000     3.2920     0.0000
13 1     1.6460     4.9380     0.0000
14 1     1.6460     3.2920     1.6460
15 1     0.0000     4.9380     1.6460
16 1     0.0000     3.2920     3.2920
17 1     1.6460     4.9380     3.2920
18 1     1.6460     3.2920     4.9380
19 1     0.0000     4.9380     4.9380
20 1     0.0000     3.2920     6.5840
21 1     1.6460     4.9380     6.5840
22 1     1.6460     3.2920     8.2299
23 1     0.0000     4.9380     8.2299
24 1     0.0000     6.5840     0.0000
25 1     1.6460     8.2299     0.0000
26 1     1.6460     6.5840     1.6460
27 1     0.0000     8.2299     1.6460
28 1     0.0000     6.5840     3.2920
29 1     1.6460     8.2299     3.2920
30 1     1.6460     6.5840     4.9380
31 1     0.0000     8.2299     4.9380
32 1     0.0000     6.5840     6.5840
33 1     1.6460     8.2299     6.5840
34 1     1.6460     6.5840     8.2299
35 1     0.0000     8.2299     8.2299
36 1     3.2920     0.0000     0.0000
37 1     4.9380     1.6460     0.0000
38 1     4.9380     0.0000     1.6460
39 1     3.2920     1.6460     1.6460
40 1     3.2920     0.0000     3.2920
41 1     4.9380     1.6460     3.2920
42 1     4.9380     0.0000     4.9380
43 1     3.2920     1.6460     4.9380
44 1     3.2920     0.0000     6.5840
45 1     4.9380     1.6460     6.5840
46 1     4.9380     0.0000     8.2299
47 1     3.2920     1.6460     8.2299
48 1     3.2920     3.2920     0.0000
49 1     4.9380     4.9380     0.0000
50 1     4.9380     3.2920     1.6460
51 1     3.2920     4.9380     1.6460
52 1     3.2920     3.2920     3.2920
53 1     4.9380     4.9380     3.2920
54 1     4.9380     3.2920     4.9380
55 1     3.2920     4.9380     4.9380
56 1     3.2920     3.2920     6.5840
57 1     4.9380     4.9380     6.5840
58 1     4.9380     3.2920     8.2299
59 1     3.2920     4.9380     8.2299
60 1     3.2920     6.5840     0.0000
61 1     4.9380     8.2299     0.0000
62 1     4.9380     6.5840     1.6460
63 1     3.2920     8.2299     1.6460
64 1     3.2920     6.5840     3.2920
65 1     4.9380     8.2299     3.2920
66 1     4.9380     6.5840     4.9380
67 1     3.2920     8.2299     4.9380
68 1     3.2920     6.5840     6.5840
69 1     4.9380     8.2299     6.5840
70 1     4.9380     6.5840     8.2299
71 1     3.2920     8.2299     8.2299
72 1     6.5840     0.0000     0.0000
73 1     8.2299     1.6460     0.0000
74 1     8.2299     0.0000     1.6460
75 1     6.5840     1.6460     1.6460
76 1     6.5840     0.0000     3.2920
77 1     8.2299     1.6460     3.2920
78 1     8.2299     0.0000     4.9380
79 1     6.5840     1.6460     4.9380
80 1     6.5840     0.0000     6.5840
81 1     8.2299     1.6460     6.5840
82 1     8.2299     0.0000     8.2299
83 1     6.5840     1.6460     8.2299
84 1     6.5840     3.2920     0.0000
85 1     8.2299     4.9380     0.0000
86 1     8.2299     3.2920     1.6460
87 1     6.5840     4.9380     1.6460
88 1     6.5840     3.2920     3.2920
89 1     8.2299     4.9380     3.2920
90 1     8.2299     3.2920     4.9380
91 1     6.5840     4.9380     4.9380
92 1     6.5840     3.2920     6.5840
93 1     8.2299     4.9380     6.5840
94 1     8.2299     3.2920     8.2299
95 1     6.5840     4.9380     8.2299
96 1     6.5840     6.5840     0.0000
97 1     8.2299     8.2299     0.0000
98 1     8.2299     6.5840     1.6460
99 1     6.5840     8.2299     1.6460
100 1     6.5840     6.5840     3.2920
101 1     8.2299     8.2299     3.2920
102 1     8.2299     6.5840     4.9380
103 1     6.5840     8.2299     4.9380
104 1     6.5840     6.5840     6.5840
105 1     8.2299     8.2299     6.5840
106 1     8.2299     6.5840     8.2299
107 1     6.5840     8.2299     8.2299
