# ['Ni']

107 atoms
1 atom types

    0.0000    10.1389 xlo xhi
    0.0000    10.1389 ylo yhi
    0.0000    10.1389 zlo zhi

    0.0000    -0.0000    -0.0000 xy xz yz

Atoms

1 1     1.6898     1.6898     0.0000
2 1     1.6898     0.0000     1.6898
3 1     0.0000     1.6898     1.6898
4 1     0.0000     0.0000     3.3796
5 1     1.6898     1.6898     3.3796
6 1     1.6898     0.0000     5.0694
7 1     0.0000     1.6898     5.0694
8 1     0.0000     0.0000     6.7593
9 1     1.6898     1.6898     6.7593
10 1     1.6898     0.0000     8.4491
11 1     0.0000     1.6898     8.4491
12 1     0.0000     3.3796     0.0000
13 1     1.6898     5.0694     0.0000
14 1     1.6898     3.3796     1.6898
15 1     0.0000     5.0694     1.6898
16 1     0.0000     3.3796     3.3796
17 1     1.6898     5.0694     3.3796
18 1     1.6898     3.3796     5.0694
19 1     0.0000     5.0694     5.0694
20 1     0.0000     3.3796     6.7593
21 1     1.6898     5.0694     6.7593
22 1     1.6898     3.3796     8.4491
23 1     0.0000     5.0694     8.4491
24 1     0.0000     6.7593     0.0000
25 1     1.6898     8.4491     0.0000
26 1     1.6898     6.7593     1.6898
27 1     0.0000     8.4491     1.6898
28 1     0.0000     6.7593     3.3796
29 1     1.6898     8.4491     3.3796
30 1     1.6898     6.7593     5.0694
31 1     0.0000     8.4491     5.0694
32 1     0.0000     6.7593     6.7593
33 1     1.6898     8.4491     6.7593
34 1     1.6898     6.7593     8.4491
35 1     0.0000     8.4491     8.4491
36 1     3.3796     0.0000     0.0000
37 1     5.0694     1.6898     0.0000
38 1     5.0694     0.0000     1.6898
39 1     3.3796     1.6898     1.6898
40 1     3.3796     0.0000     3.3796
41 1     5.0694     1.6898     3.3796
42 1     5.0694     0.0000     5.0694
43 1     3.3796     1.6898     5.0694
44 1     3.3796     0.0000     6.7593
45 1     5.0694     1.6898     6.7593
46 1     5.0694     0.0000     8.4491
47 1     3.3796     1.6898     8.4491
48 1     3.3796     3.3796     0.0000
49 1     5.0694     5.0694     0.0000
50 1     5.0694     3.3796     1.6898
51 1     3.3796     5.0694     1.6898
52 1     3.3796     3.3796     3.3796
53 1     5.0694     5.0694     3.3796
54 1     5.0694     3.3796     5.0694
55 1     3.3796     5.0694     5.0694
56 1     3.3796     3.3796     6.7593
57 1     5.0694     5.0694     6.7593
58 1     5.0694     3.3796     8.4491
59 1     3.3796     5.0694     8.4491
60 1     3.3796     6.7593     0.0000
61 1     5.0694     8.4491     0.0000
62 1     5.0694     6.7593     1.6898
63 1     3.3796     8.4491     1.6898
64 1     3.3796     6.7593     3.3796
65 1     5.0694     8.4491     3.3796
66 1     5.0694     6.7593     5.0694
67 1     3.3796     8.4491     5.0694
68 1     3.3796     6.7593     6.7593
69 1     5.0694     8.4491     6.7593
70 1     5.0694     6.7593     8.4491
71 1     3.3796     8.4491     8.4491
72 1     6.7593     0.0000     0.0000
73 1     8.4491     1.6898     0.0000
74 1     8.4491     0.0000     1.6898
75 1     6.7593     1.6898     1.6898
76 1     6.7593     0.0000     3.3796
77 1     8.4491     1.6898     3.3796
78 1     8.4491     0.0000     5.0694
79 1     6.7593     1.6898     5.0694
80 1     6.7593     0.0000     6.7593
81 1     8.4491     1.6898     6.7593
82 1     8.4491     0.0000     8.4491
83 1     6.7593     1.6898     8.4491
84 1     6.7593     3.3796     0.0000
85 1     8.4491     5.0694     0.0000
86 1     8.4491     3.3796     1.6898
87 1     6.7593     5.0694     1.6898
88 1     6.7593     3.3796     3.3796
89 1     8.4491     5.0694     3.3796
90 1     8.4491     3.3796     5.0694
91 1     6.7593     5.0694     5.0694
92 1     6.7593     3.3796     6.7593
93 1     8.4491     5.0694     6.7593
94 1     8.4491     3.3796     8.4491
95 1     6.7593     5.0694     8.4491
96 1     6.7593     6.7593     0.0000
97 1     8.4491     8.4491     0.0000
98 1     8.4491     6.7593     1.6898
99 1     6.7593     8.4491     1.6898
100 1     6.7593     6.7593     3.3796
101 1     8.4491     8.4491     3.3796
102 1     8.4491     6.7593     5.0694
103 1     6.7593     8.4491     5.0694
104 1     6.7593     6.7593     6.7593
105 1     8.4491     8.4491     6.7593
106 1     8.4491     6.7593     8.4491
107 1     6.7593     8.4491     8.4491
