# ['Ni']

107 atoms
1 atom types

    0.0000    11.0992 xlo xhi
    0.0000    11.0992 ylo yhi
    0.0000    11.0992 zlo zhi

    0.0000    -0.0000    -0.0000 xy xz yz

Atoms

1 1     1.8499     1.8499     0.0000
2 1     1.8499     0.0000     1.8499
3 1     0.0000     1.8499     1.8499
4 1     0.0000     0.0000     3.6997
5 1     1.8499     1.8499     3.6997
6 1     1.8499     0.0000     5.5496
7 1     0.0000     1.8499     5.5496
8 1     0.0000     0.0000     7.3994
9 1     1.8499     1.8499     7.3994
10 1     1.8499     0.0000     9.2493
11 1     0.0000     1.8499     9.2493
12 1     0.0000     3.6997     0.0000
13 1     1.8499     5.5496     0.0000
14 1     1.8499     3.6997     1.8499
15 1     0.0000     5.5496     1.8499
16 1     0.0000     3.6997     3.6997
17 1     1.8499     5.5496     3.6997
18 1     1.8499     3.6997     5.5496
19 1     0.0000     5.5496     5.5496
20 1     0.0000     3.6997     7.3994
21 1     1.8499     5.5496     7.3994
22 1     1.8499     3.6997     9.2493
23 1     0.0000     5.5496     9.2493
24 1     0.0000     7.3994     0.0000
25 1     1.8499     9.2493     0.0000
26 1     1.8499     7.3994     1.8499
27 1     0.0000     9.2493     1.8499
28 1     0.0000     7.3994     3.6997
29 1     1.8499     9.2493     3.6997
30 1     1.8499     7.3994     5.5496
31 1     0.0000     9.2493     5.5496
32 1     0.0000     7.3994     7.3994
33 1     1.8499     9.2493     7.3994
34 1     1.8499     7.3994     9.2493
35 1     0.0000     9.2493     9.2493
36 1     3.6997     0.0000     0.0000
37 1     5.5496     1.8499     0.0000
38 1     5.5496     0.0000     1.8499
39 1     3.6997     1.8499     1.8499
40 1     3.6997     0.0000     3.6997
41 1     5.5496     1.8499     3.6997
42 1     5.5496     0.0000     5.5496
43 1     3.6997     1.8499     5.5496
44 1     3.6997     0.0000     7.3994
45 1     5.5496     1.8499     7.3994
46 1     5.5496     0.0000     9.2493
47 1     3.6997     1.8499     9.2493
48 1     3.6997     3.6997     0.0000
49 1     5.5496     5.5496     0.0000
50 1     5.5496     3.6997     1.8499
51 1     3.6997     5.5496     1.8499
52 1     3.6997     3.6997     3.6997
53 1     5.5496     5.5496     3.6997
54 1     5.5496     3.6997     5.5496
55 1     3.6997     5.5496     5.5496
56 1     3.6997     3.6997     7.3994
57 1     5.5496     5.5496     7.3994
58 1     5.5496     3.6997     9.2493
59 1     3.6997     5.5496     9.2493
60 1     3.6997     7.3994     0.0000
61 1     5.5496     9.2493     0.0000
62 1     5.5496     7.3994     1.8499
63 1     3.6997     9.2493     1.8499
64 1     3.6997     7.3994     3.6997
65 1     5.5496     9.2493     3.6997
66 1     5.5496     7.3994     5.5496
67 1     3.6997     9.2493     5.5496
68 1     3.6997     7.3994     7.3994
69 1     5.5496     9.2493     7.3994
70 1     5.5496     7.3994     9.2493
71 1     3.6997     9.2493     9.2493
72 1     7.3994     0.0000     0.0000
73 1     9.2493     1.8499     0.0000
74 1     9.2493     0.0000     1.8499
75 1     7.3994     1.8499     1.8499
76 1     7.3994     0.0000     3.6997
77 1     9.2493     1.8499     3.6997
78 1     9.2493     0.0000     5.5496
79 1     7.3994     1.8499     5.5496
80 1     7.3994     0.0000     7.3994
81 1     9.2493     1.8499     7.3994
82 1     9.2493     0.0000     9.2493
83 1     7.3994     1.8499     9.2493
84 1     7.3994     3.6997     0.0000
85 1     9.2493     5.5496     0.0000
86 1     9.2493     3.6997     1.8499
87 1     7.3994     5.5496     1.8499
88 1     7.3994     3.6997     3.6997
89 1     9.2493     5.5496     3.6997
90 1     9.2493     3.6997     5.5496
91 1     7.3994     5.5496     5.5496
92 1     7.3994     3.6997     7.3994
93 1     9.2493     5.5496     7.3994
94 1     9.2493     3.6997     9.2493
95 1     7.3994     5.5496     9.2493
96 1     7.3994     7.3994     0.0000
97 1     9.2493     9.2493     0.0000
98 1     9.2493     7.3994     1.8499
99 1     7.3994     9.2493     1.8499
100 1     7.3994     7.3994     3.6997
101 1     9.2493     9.2493     3.6997
102 1     9.2493     7.3994     5.5496
103 1     7.3994     9.2493     5.5496
104 1     7.3994     7.3994     7.3994
105 1     9.2493     9.2493     7.3994
106 1     9.2493     7.3994     9.2493
107 1     7.3994     9.2493     9.2493
