LAMMPS (10 Feb 2015)
# ---- initialize simulations
clear
units metal
dimension 3
boundary p p p
atom_style charge
atom_modify map array
# ---- create atoms
read_data /Users/eugeneragasa/pyflamestk_git/pypospack/tests/tests_integration/workflow/WorkflowLammpsThermalExpansion/param_3867/MgO_NaCl_unit.npt.T900/lammps.structure
  triclinic box = (0 0 0) to (4.2565 4.2565 4.2565) with tilt (0 0 0)
  1 by 1 by 1 MPI processor grid
  reading atoms ...
  8 atoms
# ---- define interatomic potential
include potential.mod
mass 1 24.305
mass 2 15.999

group Mg type 1
4 atoms in group Mg
group O type 2
4 atoms in group O

set group Mg charge 1.73479148785
  4 settings made for charge
set group O charge -1.73479148785
  4 settings made for charge

variable R_cut equal 10.0

pair_style buck/coul/long ${R_cut}
pair_style buck/coul/long 10
pair_coeff 1 1 0.0 0.5 0.0 ${R_cut}
pair_coeff 1 1 0.0 0.5 0.0 10
pair_coeff 1 2 1225.32983502 0.291530354982 0.0 ${R_cut}
pair_coeff 1 2 1225.32983502 0.291530354982 0.0 10
pair_coeff 2 2 16858.6500597 0.120403294253 7.45918898041 ${R_cut}
pair_coeff 2 2 16858.6500597 0.120403294253 7.45918898041 10

kspace_style pppm 1.0e-5

neighbor 1.0 bin
neigh_modify every 1 delay 0 check yes
# ---- define settings
compute eng all pe/atom
compute eatoms all reduce sum c_eng
# ---- run minimization
reset_timestep 0
fix 1 all box/relax iso 0.0 vmax 0.001
thermo 10
thermo_style custom step pe lx ly lz xy xz yz press pxx pyy pzz pxy pxz pyz c_eatoms
min_style cg
minimize 1e-25 1e-25 5000 10000
PPPM initialization ...
  G vector (1/distance) = 0.3534
  grid = 8 8 8
  stencil order = 5
  estimated absolute RMS force accuracy = 4.23269e-05
  estimated relative force accuracy = 2.93944e-06
  using double precision FFTs
  3d grid and FFT values/proc = 3375 512
Neighbor list info ...
  1 neighbor list requests
  update every 1 steps, delay 0 steps, check yes
  master list distance cutoff = 11
Memory usage per processor = 4.06549 Mbytes
Step PotEng Lx Ly Lz Xy Xz Yz Press Pxx Pyy Pzz Pxy Pxz Pyz eatoms 
       0   -122.62677       4.2565       4.2565       4.2565            0            0            0    18600.794    18600.794    18600.794    18600.794 4.9707872e-11 4.7042733e-11 1.8950886e-10   -122.62677 
       5   -122.63132    4.2712858    4.2712858    4.2712858            0            0            0   -6.7076035   -6.7076035   -6.7076035   -6.7076035 9.5134085e-11 4.9732958e-12 8.6603347e-11   -122.63132 
Loop time of 0.00798893 on 1 procs for 5 steps with 8 atoms

Minimization stats:
  Stopping criterion = linesearch alpha is zero
  Energy initial, next-to-last, final = 
        -122.626768711     -122.631316441     -122.631316441
  Force two-norm initial, final = 2.68597 0.0019334
  Force max component initial, final = 2.68596 0.000975322
  Final line search alpha, max atom move = 0.00390625 3.80985e-06
  Iterations, force evaluations = 5 22

Pair  time (%) = 0.00220418 (27.5904)
Kspce time (%) = 0.0013628 (17.0586)
Neigh time (%) = 0 (0)
Comm  time (%) = 0.000248671 (3.11269)
Outpt time (%) = 0 (0)
Other time (%) = 0.00417328 (52.2383)

Nlocal:    8 ave 8 max 8 min
Histogram: 1 0 0 0 0 0 0 0 0 0
Nghost:    2189 ave 2189 max 2189 min
Histogram: 1 0 0 0 0 0 0 0 0 0
Neighs:    2344 ave 2344 max 2344 min
Histogram: 1 0 0 0 0 0 0 0 0 0

Total # of neighbors = 2344
Ave neighs/atom = 293
Neighbor list builds = 0
Dangerous builds = 0
unfix 1
# ---- define output variables ----
variable natoms equal "count(all)"
variable tot_energy equal "c_eatoms"
variable length_x equal "lx"
variable length_y equal "ly"
variable length_z equal "lz"
variable tilt_xy equal "xy"
variable tilt_xz equal "xz"
variable tilt_yz equal "yz"
variable tot_press equal "press"
variable press_xx equal "pxx"
variable press_yy equal "pyy"
variable press_zz equal "pzz"
variable press_xy equal "pxy"
variable press_xz equal "pxz"
variable press_yz equal "pyz"

# ---- output ----
print "pypospack:output_section:begin"
pypospack:output_section:begin
print "tot_energy = ${tot_energy}"
tot_energy = -122.631316441343
print "num_atoms = ${natoms}"
num_atoms = 8
print "xx = ${length_x}"
xx = 4.27128583299446
print "yy = ${length_y}"
yy = 4.27128583299446
print "zz = ${length_z}"
zz = 4.27128583299446
print "xy = ${tilt_xy}"
xy = 0
print "xz = ${tilt_xz}"
xz = 0
print "yz = ${tilt_yz}"
yz = 0
print "tot_press = ${tot_press}"
tot_press = -6.70760353710228
print "pxx = ${press_xx}"
pxx = -6.70760353705429
print "pyy = ${press_yy}"
pyy = -6.70760353725253
print "pzz = ${press_zz}"
pzz = -6.70760353700002
print "pxy = ${press_xy}"
pxy = 9.51340852761742e-11
print "pxz = ${press_xz}"
pxz = 4.97329584958765e-12
print "pyz = ${press_yz}"
pyz = 8.66033470907354e-11
print "pypospack:output_section:done"
pypospack:output_section:done
print "pypospack:lammps_sim:done"
pypospack:lammps_sim:done
#------------------------------------------------------------------------------
# RUN THERMOSTAT
# running using an NPT Nose-Hoover style thermostat
#------------------------------------------------------------------------------
variable tempdamp equal 0.1
variable pressdamp equal 1.0
# set initial velocities
velocity all create 900 9629373 mom yes dist gaussian loop all
# fix for Nose-Hoover style thermostat
fix 20 all npt temp 900 900 0.1 aniso 0.0 0.0 1.0 drag 1.0 couple xyz
variable boxx equal lx
variable boxy equal ly
variable boxz equal lz
variable boxp equal press
variable boxt equal temp
# calculate averages every 10000 steps
reset_timestep 0
fix 21 all ave/time 10 10 100 v_boxx v_boxy v_boxz v_boxp v_boxt file lattice.out
thermo_style custom step temp pe ke etotal press lx ly lz press pxx pyy pzz pxy pxz pyz vol
thermo_modify flush yes
thermo 100
run 100000
PPPM initialization ...
  G vector (1/distance) = 0.353246
  grid = 8 8 8
  stencil order = 5
  estimated absolute RMS force accuracy = 4.26311e-05
  estimated relative force accuracy = 2.96057e-06
  using double precision FFTs
  3d grid and FFT values/proc = 3375 512
Memory usage per processor = 3.06549 Mbytes
Step Temp PotEng KinEng TotEng Press Lx Ly Lz Press Pxx Pyy Pzz Pxy Pxz Pyz Volume 
       0          900   -122.63132   0.81433891   -121.81698    11154.863    4.2712858    4.2712858    4.2712858    11154.863    7956.5186    12214.847    13293.223    1025.9975    2064.2035   -4676.5343    77.924838 
     100    365.15292   -122.04125   0.33039804   -121.71085   -7904.2906    4.3037217    4.3037217    4.3037217   -7904.2906   -28245.859   -9908.0746    14441.062   -529.65155   -3127.6016    904.75043    79.713619 
     200    706.85786   -122.13223   0.63957985   -121.49265   -25265.582    4.3047494    4.3047494    4.3047494   -25265.582   -29122.651   -34926.723   -11747.371    6825.8678    303.27394    903.72426    79.770742 
     300    579.76234   -121.81871   0.52458115   -121.29413    31174.263    4.2973364    4.2973364    4.2973364    31174.263    21897.844    23130.678    48494.266    1227.2361   -11394.589    8930.6301    79.359342 
     400    1131.0253   -122.16187    1.0233755    -121.1385   -17055.742    4.3263428    4.3263428    4.3263428   -17055.742    -846.7565   -31041.817   -19278.652   -9913.4778    2600.9983   -7047.3412    80.977208 
     500     655.8059   -121.63157   0.59338696   -121.03818    35616.474    4.2990386    4.2990386    4.2990386    35616.474    24564.175    30641.989    51643.258    8650.1435     4160.722   -8359.5523    79.453683 
     600    759.20193   -121.68874   0.68694186    -121.0018    2787.5217     4.307566     4.307566     4.307566    2787.5217    30193.395   -9250.7347   -12580.095      6664.06    64.022785    9835.7836    79.927427 
     700    720.00621   -121.63248   0.65147675   -120.98101   -28659.073     4.336359     4.336359     4.336359   -28659.073   -30388.675    -26975.01   -28613.532   -2281.0962   -14442.256    797.91766    81.540938 
     800    1142.4187   -122.00221    1.0336845   -120.96853    25900.223    4.2832257    4.2832257    4.2832257    25900.223    43350.877    23761.936    10587.857    3397.3821   -4164.0647    10099.221    78.580154 
     900    799.62839   -121.73403   0.72352057    -121.0105    -1837.177    4.3076068    4.3076068    4.3076068    -1837.177   -35400.462    5887.4968    24001.434    9078.8806    7149.8359   -12280.493    79.929696 
    1000    688.62114   -121.60805   0.62307888   -120.98497   -65094.113    4.3429022    4.3429022    4.3429022   -65094.113   -70012.339   -68594.928   -56675.072    2443.2044   -3481.3166    10726.955    81.910608 
    1100    934.74269   -121.81045   0.84577483   -120.96468    34105.147    4.2700877    4.2700877    4.2700877    34105.147    33413.553     29606.69    39295.199   -12397.363   -6479.4864    4310.2642    77.859282 
    1200    803.63699   -121.73217   0.72714763   -121.00503    17215.996    4.3034527    4.3034527    4.3034527    17215.996    26368.485    26486.084   -1206.5813    2328.4421    -3516.586   -11858.874    79.698674 
    1300    899.83801   -121.79325   0.81419234   -120.97906   -45936.838    4.3379719    4.3379719    4.3379719   -45936.838   -41571.599    -51254.36   -44984.554    15913.172     10948.12    2582.7797    81.631959 
    1400    943.58634   -121.81656   0.85377675   -120.96279    45466.906    4.2670303    4.2670303    4.2670303    45466.906    47003.433    49205.148    40192.137    5572.7236    4492.4644    6584.6593    77.692157 
    1500    885.20186   -121.81301   0.80094925   -121.01206   -2758.5089    4.3104726    4.3104726    4.3104726   -2758.5089   -3156.1332    8798.8639   -13918.257   -714.36825   -11625.151    1655.6655     80.08933 
    1600    1112.6114   -121.97839    1.0067142   -120.97167   -45593.358    4.3366535    4.3366535    4.3366535   -45593.358   -40582.312   -26601.749   -69596.013   -642.06162   -6537.4874    479.89999     81.55755 
    1700    1146.7891    -121.9878    1.0376388   -120.95016    48547.111    4.2665904    4.2665904    4.2665904    48547.111    31256.669    62633.348    51751.314    2891.6279    5378.0035   -15192.291    77.668133 
    1800    872.97877   -121.78685   0.78988954   -120.99696    5034.9256    4.3072211    4.3072211    4.3072211    5034.9256    2055.8733    7215.3555     5833.548    6412.6427    6434.1903    10587.652    79.908229 
    1900    885.44839   -121.77456   0.80117231   -120.97339   -36846.101     4.333858     4.333858     4.333858   -36846.101   -35317.809   -32798.615   -42421.879   -5065.2052   -5059.2833    16027.324     81.39993 
    2000    663.85687   -121.56294   0.60067165   -120.96227     52073.62     4.280934     4.280934     4.280934     52073.62    76290.312    65335.984    14594.566   -498.68605   -6010.8146   -22224.078    78.454089 
    2100     1213.402   -122.08629    1.0979116   -120.98838    -2984.746    4.3066851    4.3066851    4.3066851    -2984.746    10798.826    -8676.963   -11076.101   -130.31964    3652.6634    305.91189    79.878398 
    2200    984.56724   -121.86872   0.89085713   -120.97787   -12330.485    4.3232653    4.3232653    4.3232653   -12330.485   -935.82918   -4620.2062   -31435.419   -13332.034   -252.73798     10198.92     80.80452 
    2300    803.49121   -121.70359   0.72701573   -120.97657    16364.164    4.2832741    4.2832741    4.2832741    16364.164    16913.215    20376.349    11802.927   -17136.765   -1844.0739   -1252.2788     78.58282 
    2400    568.27718   -121.51719   0.51418913     -121.003   -22595.175    4.3066161    4.3066161    4.3066161   -22595.175    -1907.679   -30347.574   -35530.272    2644.6561   -12356.157   -7453.5336    79.874557 
    2500    1071.8417   -121.95499   0.96982493   -120.98516   -26297.997    4.3174864    4.3174864    4.3174864   -26297.997   -11097.054   -20150.333   -47646.603    5224.6457   -1671.8256   -19165.554    80.480922 
    2600    1261.6004   -122.11775    1.1415225   -120.97623    20332.707    4.2879796    4.2879796    4.2879796    20332.707    11412.161    35121.985    14463.975   -1775.3757      1431.45    9359.2929    78.842091 
    2700    878.00859   -121.79047   0.79444062   -120.99603   -9402.0625    4.3032359    4.3032359    4.3032359   -9402.0625    18877.035   -28828.748   -18254.474   -4994.6717   -4143.9133    3536.4907     79.68663 
    2800    522.10657   -121.46908   0.47241299   -120.99667   -16081.453    4.3148002    4.3148002    4.3148002   -16081.453    13276.294   -10637.821   -50882.832   -11311.823   -10079.566   -28571.957    80.330796 
    2900    777.91725   -121.69632   0.70387588   -120.99244    22993.159    4.2923412    4.2923412    4.2923412    22993.159    40108.698    32414.091   -3543.3101    10304.865   -3011.6513   -13150.771    79.082924 
    3000    1337.8914   -122.20127    1.2105523   -120.99072    9762.9116    4.2935405    4.2935405    4.2935405    9762.9116    10674.168    12381.955    6232.6123    2383.6512    1912.0301     4750.005     79.14923 
    3100    905.51926   -121.81213   0.81933286   -120.99279   -20745.842     4.317684     4.317684     4.317684   -20745.842   -23863.826    3476.5454   -41850.246    6032.4059    1244.6501   -15720.064    80.491973 
    3200    649.09675   -121.57935   0.58731638   -120.99203    -22717.17    4.3033974    4.3033974    4.3033974    -22717.17    3920.0644   -32868.232   -39203.341   -12565.558   -5484.3257   -39780.821    79.695602 
    3300    928.01908   -121.82539   0.83969117    -120.9857     7381.933    4.2828088    4.2828088    4.2828088     7381.933    5846.3798     15098.37     1201.049   -295.98035   -5200.3918    -1241.603    78.557214 
    3400    921.60417    -121.8322   0.83388682   -120.99832    -14755.19     4.319768     4.319768     4.319768    -14755.19   -28646.728    8620.3886   -24239.232    14666.773    1045.9154    3290.3849    80.608577 
    3500    1013.6082   -121.91983   0.91713397   -121.00269   -19223.162    4.3064274    4.3064274    4.3064274   -19223.162    6769.8104   -28933.932   -35505.364    11887.927    4560.7876   -20521.555    79.864062 
    3600    699.08768   -121.61404   0.63254923   -120.98149    59993.657    4.2698217    4.2698217    4.2698217    59993.657    91822.406    71976.078    16182.486   -10429.694   -6152.5473   -13626.284    77.844732 
    3700     932.4003   -121.84128   0.84365539   -120.99762   -30306.674    4.3276034    4.3276034    4.3276034   -30306.674   -17934.613   -36859.773   -36125.635   -1201.2645   -597.55817   -5091.7689    81.048009 
    3800    840.43938   -121.74966   0.76044721   -120.98921   -12748.305    4.3112469    4.3112469    4.3112469   -12748.305   -5476.3216   -22624.415   -10144.178    7993.6467    2908.8226    7926.5411      80.1325 
    3900    1158.6918   -122.00736    1.0484086   -120.95895    32121.058    4.2668368    4.2668368    4.2668368    32121.058    36199.984    39180.306    20982.884    14097.375   -178.97042   -11716.019    77.681586 
    4000    1050.4226   -121.94017   0.95044446   -120.98973   -22161.193    4.3192928    4.3192928    4.3192928   -22161.193     482.9438   -20678.386   -46288.136   -4747.6621   -2258.2903   -17272.232    80.581983 
    4100    758.17051   -121.66999   0.68600861   -120.98398   -10722.698    4.3168911    4.3168911    4.3168911   -10722.698    9081.8843   -25559.598    -15690.38    -5250.739   -3035.4445    12495.489    80.447637 
    4200     489.6698   -121.41707   0.44306352     -120.974     38967.74    4.2860247    4.2860247    4.2860247     38967.74    76554.291    29623.852    10725.076    7789.5081     1830.414    -631.2096    78.734309 
    4300    966.10724   -121.86128   0.87415413   -120.98712    -16705.08    4.3148223    4.3148223    4.3148223    -16705.08    10735.586   -37326.118   -23524.707    1292.2965    89.086469   -18380.766    80.332031 
    4400    1063.2846   -121.94499   0.96208225   -120.98291   -4990.7406    4.3066995    4.3066995    4.3066995   -4990.7406     19096.39   -13759.455   -20309.157   -4547.4415   -5467.8415    14093.693    79.879198 
    4500    1046.0756    -121.9303   0.94651115   -120.98379   -11466.855    4.2958814    4.2958814    4.2958814   -11466.855   -16326.976   -7995.5729   -10078.015    3446.9012   -9584.1474    16805.414    79.278759 
    4600    734.12529   -121.65295   0.66425199   -120.98869   -23000.975    4.3172897    4.3172897    4.3172897   -23000.975   -14379.094   -37043.743   -17580.087   -1594.3029   -5820.6629   -9723.4952    80.469918 
    4700    1082.6286   -121.96286   0.97958515   -120.98327    1818.9437    4.2953177    4.2953177    4.2953177    1818.9437    20404.371   -19673.786    4726.2456   -109.36201   -4458.2601    1978.8568    79.247553 
    4800    837.31517   -121.74757   0.75762036   -120.98995    14673.907    4.2944393    4.2944393    4.2944393    14673.907    68435.889     6201.124   -30615.292   -5119.4031   -3398.4624    15602.742    79.198946 
    4900    673.07567   -121.60056   0.60901301   -120.99154   -31168.046    4.3188149    4.3188149    4.3188149   -31168.046   -17311.269   -26811.461   -49381.406    16699.802   -9311.2751    16381.402    80.555234 
    5000    723.25478   -121.64093   0.65441613   -120.98651    19473.425    4.2831662    4.2831662    4.2831662    19473.425    8386.1166    33488.101    16546.057    25693.009    2289.8719    -1660.403     78.57688 
    5100    1133.7823   -122.02403    1.0258701   -120.99816    1536.0455    4.2964822    4.2964822    4.2964822    1536.0455    -3746.904    8804.7306   -449.69019    1242.9266    3921.0199   -7554.3079    79.312027 
    5200    941.55109   -121.83724   0.85193521   -120.98531   -41734.598     4.324983     4.324983     4.324983   -41734.598   -36125.794   -19061.673   -70016.328   -12105.784    717.52001     21341.29    80.900873 
    5300    901.11623   -121.79454    0.8153489   -120.97919    1970.5147    4.2822305    4.2822305    4.2822305    1970.5147    7029.5021    8341.9772   -9459.9352    5281.6866   -3221.6464     9202.344    78.525394 
    5400    836.48426    -121.7504   0.75686854   -120.99353   -2160.9276    4.2956582    4.2956582    4.2956582   -2160.9276    13370.786   -14990.935    -4862.634    27504.529   -694.42869   -6401.8672    79.266405 
    5500    1123.2341   -122.00475    1.0163258   -120.98842   -20730.298     4.311228     4.311228     4.311228   -20730.298   -23232.467   -15633.359   -23325.067    13223.135      5244.21    2479.9914    80.131443 
    5600     1047.702   -121.92959   0.94798279   -120.98161    41714.572    4.2784376    4.2784376    4.2784376    41714.572    61022.302    59641.704    4479.7114   -9367.2592   -3095.0274    11768.422     78.31692 
    5700    744.41899    -121.6735   0.67356595   -120.99993   -6441.5474      4.30859      4.30859      4.30859   -6441.5474   -10266.296    15454.182   -24512.529    12732.002   -7430.9706    10153.357    79.984438 
    5800    552.24166   -121.48941   0.49967986   -120.98973     -17969.2    4.3136898    4.3136898    4.3136898     -17969.2   -28742.945    10905.702   -36070.358    25912.159   -2477.8219   -9721.0397    80.268793 
    5900    999.93505   -121.87867   0.90476224    -120.9739    27215.463    4.2779424    4.2779424    4.2779424    27215.463    49006.507    11283.781      21356.1    23200.403     8106.165   -4568.9663    78.289731 
    6000    1200.2569    -122.0736    1.0860176   -120.98758   -2966.5766    4.3020309    4.3020309    4.3020309   -2966.5766    35317.039   -21384.927   -22831.842   -9095.7518     -7136.87    17943.287    79.619708 
    6100    955.95841   -121.85694   0.86497126   -120.99197   -6569.5383    4.3026449    4.3026449    4.3026449   -6569.5383    11938.745   -13620.918   -18026.442   -1659.3312   -18264.745    8615.1256    79.653805 
    6200    775.02654   -121.69635    0.7012603   -120.99509   -4827.8424    4.2832492    4.2832492    4.2832492   -4827.8424   -10849.443    3323.2225   -6957.3065    14262.973    -4200.776   -5534.3436    78.581449 
    6300    814.45251    -121.7417   0.73693375   -121.00477   -20411.753    4.3041697    4.3041697    4.3041697   -20411.753   -6576.6807   -33842.722   -20815.855    14330.397    1406.0195   -8828.0767    79.738518 
    6400     1333.299   -122.19318    1.2063969   -120.98679   -13839.252    4.3097272    4.3097272    4.3097272   -13839.252    19861.241   -27007.172   -34371.826   -10577.676    2494.2278   -2804.9226    80.047788 
    6500    977.08299   -121.86583   0.88408523   -120.98175   -6593.6349    4.3024038    4.3024038    4.3024038   -6593.6349    2601.3638   -7490.6045   -14891.664    1642.3283   -9762.7557    10090.643    79.640412 
    6600    456.33648   -121.40038   0.41290284   -120.98748   -14809.468    4.2990484    4.2990484    4.2990484   -14809.468    2965.6736   -24680.643   -22713.433    27117.817   -4991.2983   -8174.5702    79.454229 
    6700    801.96866   -121.71646   0.72563809   -120.99082    4759.8063    4.2949955    4.2949955    4.2949955    4759.8063    7413.6366    25279.906   -18414.124     18232.84     4668.463   -16477.863    79.229723 
    6800    1170.9147   -122.04794    1.0594682   -120.98847    9397.6778    4.3058028    4.3058028    4.3058028    9397.6778    9813.1018     44503.06   -26123.128    2346.9065    749.31373    4441.6571    79.829319 
    6900    1029.3929   -121.92089   0.93141631   -120.98947    7469.0045    4.2977695    4.2977695    4.2977695    7469.0045   -10378.003    50834.061   -18049.045     825.3164   -5270.8981    6089.0135    79.383337 
    7000    598.43073    -121.5356    0.5414727   -120.99413    7480.8048    4.2913864    4.2913864    4.2913864    7480.8048    16946.587    11926.099   -6430.2713    9076.1046    -3438.459   -13511.547    79.030159 
    7100    951.33329   -121.85116   0.86078636   -120.99037   -19677.997    4.3074163    4.3074163    4.3074163   -19677.997   -21076.967   -9435.2396   -28521.784    4855.2264    8881.2135     -11943.5     79.91909 
    7200    1213.3683   -122.07583    1.0978811   -120.97795   -12040.922    4.3083757    4.3083757    4.3083757   -12040.922   -5118.1181    -2400.621   -28604.026   -7079.0756   -4663.5363    4229.6672    79.972508 
    7300    1110.8047   -121.98201    1.0050794   -120.97693   -7688.4655    4.2968688    4.2968688    4.2968688   -7688.4655     751.3439   -60.670102    -23756.07   -11129.653   -5724.0882    7232.6919    79.333437 
    7400    884.26284    -121.7802    0.8000996    -120.9801    3479.3579    4.2985094    4.2985094    4.2985094    3479.3579   -26812.298    40670.801   -3420.4295    10113.411     4365.926   -7086.5639    79.424345 
    7500    1032.6839   -121.91596    0.9343941   -120.98156   -15225.545    4.3109785    4.3109785    4.3109785   -15225.545   -19576.293    4468.5634   -30568.904    8009.4901    6985.3796   -11032.043    80.117533 
    7600    826.34953    -121.7315   0.74769842    -120.9838    -422.9543    4.3010378    4.3010378    4.3010378    -422.9543    18208.561    4681.6144   -24159.039   -2259.8396    2515.0863    22692.152    79.564578 
    7700    823.34995   -121.72753   0.74498434   -120.98255     13162.91    4.2883918    4.2883918    4.2883918     13162.91    45642.521    27017.877   -33171.668    7565.4681   -5681.2486    24588.405    78.864827 
    7800    814.38192   -121.72594   0.73686988   -120.98907   -4720.0846    4.3117975    4.3117975    4.3117975   -4720.0846    19751.854   -5611.5068   -28300.601     5191.985    7370.8349   -12420.725    80.163206 
    7900    739.13078   -121.66002   0.66878107   -120.99124   -8003.1336    4.2995315    4.2995315    4.2995315   -8003.1336    22659.263   -20337.463   -26331.201    22157.626    3824.6681    12916.097    79.481017 
    8000    798.74039   -121.70683   0.72271709   -120.98411    21642.651    4.2759896    4.2759896    4.2759896    21642.651      67142.3    2841.0881   -5055.4348   -168.01886   -3740.2353    34458.567    78.182568 
    8100    1187.3632   -122.06548    1.0743512   -120.99113   -33972.126    4.3151709    4.3151709    4.3151709   -33972.126   -22836.378   -23634.071    -55445.93    -4437.191   -6008.1682    3801.3818      80.3515 
    8200    896.28236    -121.7983   0.81097511   -120.98732   -18427.144    4.3047508    4.3047508    4.3047508   -18427.144   -24612.212    371.81396   -31041.034    17879.198   -1930.2398   -5637.9934    79.770819 
    8300    704.60786   -121.61439     0.637544   -120.97685    10912.104    4.2765427    4.2765427    4.2765427    10912.104    27936.325    16035.602   -11235.615    8557.1413    6694.9564    27036.353    78.212907 
    8400      809.498   -121.72177    0.7324508   -120.98932   -17144.611    4.3084853    4.3084853    4.3084853   -17144.611    21574.786   -31479.517   -41529.102   -2190.0385    4392.7039    26758.456    79.978609 
    8500    1285.2811    -122.1477    1.1629494   -120.98475    8836.6232    4.2920774    4.2920774    4.2920774    8836.6232    45938.502   -3580.8903   -15847.742   -9693.9984   -3182.3119   -3906.9189    79.068344 
    8600    998.42669   -121.89464   0.90339745   -120.99124    21436.809    4.2855748    4.2855748    4.2855748    21436.809    25467.268    43031.274   -4188.1145    5814.1192    4019.7849   -2454.8414    78.709513 
    8700    691.00954   -121.62228   0.62523995   -120.99704   -30705.196     4.309111     4.309111     4.309111   -30705.196   -21787.034   -19982.664   -50345.889    22003.151    12517.736    21016.084     80.01346 
    8800    643.13462   -121.57419   0.58192172   -120.99226    24511.773    4.2842727    4.2842727    4.2842727    24511.773    22062.833    58321.576   -6849.0887     7336.523    1961.5464    16356.798    78.637792 
    8900    1232.6025   -122.11078    1.1152846   -120.99549   -8199.4198    4.2991496    4.2991496    4.2991496   -8199.4198    -3663.176   -3150.5181   -17784.565   -21417.593   -375.47674   -14184.271    79.459836 
    9000    1007.0892   -121.90497   0.91123551   -120.99373   -12219.378    4.3017421    4.3017421    4.3017421   -12219.378   -15100.327   -7550.8481   -14006.959    1075.6275     7332.086   -15609.989    79.603671 
    9100    797.60591    -121.7096   0.72169059   -120.98791    23790.559    4.2713801    4.2713801    4.2713801    23790.559    9477.8402    38545.458    23348.378    25039.737    4066.9455    11199.345    77.929996 
    9200    605.30493   -121.54978   0.54769262   -121.00209   -23151.163     4.309982     4.309982     4.309982   -23151.163   -13413.657   -30875.024    -25164.81    13703.015    5122.5952    11220.053    80.061988 
    9300     943.3916   -121.84239   0.85360054   -120.98879   -13196.302    4.3046713    4.3046713    4.3046713   -13196.302    12896.091   -22048.107    -30436.89   -18501.581    -4498.327   -2571.5606    79.766399 
    9400     994.3805   -121.87245   0.89973638   -120.97271    33463.986    4.2725889    4.2725889    4.2725889    33463.986    23871.083    46400.152    30120.723    5089.4431   -5796.2894   -7845.2141     77.99618 
    9500    647.05854    -121.5764   0.58547217   -120.99093   -8876.5536    4.3067045    4.3067045    4.3067045   -8876.5536   -12804.481   -8099.2323   -5725.9472    42992.959    7134.7033    9333.5612    79.879478 
    9600    787.79636   -121.69882    0.7128147   -120.98601   -1598.0575    4.3003402    4.3003402    4.3003402   -1598.0575    503.78556    3326.9877   -8624.9458    20358.069    2151.5788    17282.665    79.525873 
    9700    1116.0365   -121.98898    1.0098133   -120.97916    14509.983    4.2834295    4.2834295    4.2834295    14509.983    9707.1662    25586.931    8235.8519    -23189.74    946.39705   -9707.4928     78.59137 
    9800    851.26307   -121.75911   0.77024072   -120.98887   -15605.803    4.3061566    4.3061566    4.3061566   -15605.803   -19746.245   -36514.409    9443.2442   -342.96487   -8519.7408   -6753.1132    79.848997 
    9900    849.18116   -121.75462   0.76835696   -120.98626   -8981.5652    4.3005674    4.3005674    4.3005674   -8981.5652   -43722.198   -3066.0357    19843.538     33665.24   -1341.1813    1048.2757    79.538479 
   10000    971.60086   -121.86544   0.87912488   -120.98631    4147.1851     4.296688     4.296688     4.296688    4147.1851   -21606.547    23772.303      10275.8    16224.659    9662.4709   -1695.6627    79.323424 
   10100    1145.1323   -122.01868    1.0361398   -120.98254    7489.6858    4.2944648    4.2944648    4.2944648    7489.6858    7842.2287    26786.549    -12159.72   -16573.848    792.42297    -6331.618     79.20036 
   10200    742.57826   -121.66192   0.67190041   -120.99002    5912.5339    4.2923841    4.2923841    4.2923841    5912.5339   -5987.2457      17813.9    5910.9476    17827.867    114.68414   -18329.938    79.085297 
   10300    417.81857   -121.37785   0.37805102    -120.9998   -10019.756    4.3035701    4.3035701    4.3035701   -10019.756   -2942.6105   -34776.021    7659.3649    41814.493    8610.9783    78.468037    79.705196 
   10400     1022.085   -121.91738   0.92480395   -120.99257    2075.1173    4.2910612    4.2910612    4.2910612    2075.1173   -3204.8313    655.94613    8774.2371     14545.45    11035.851    4785.7363    79.012195 
   10500    1236.1523    -122.1059    1.1184965    -120.9874    9024.1529    4.2923976    4.2923976    4.2923976    9024.1529    26738.947    12401.443   -12067.932   -12855.429    10155.756   -11993.887    79.086041 
   10600    893.55789   -121.79976   0.80850996   -120.99125   -29682.021    4.3092557    4.3092557    4.3092557   -29682.021   -43599.781   -33712.849   -11733.433    25561.014    776.47306     -3563.88    80.021521 
   10700    561.62559    -121.5002   0.50817063   -120.99203    4909.7502    4.2914536    4.2914536    4.2914536    4909.7502   -8132.6461    -1652.721    24514.618    32865.005    -364.8856   -2884.6256    79.033871 
   10800    1124.5666   -122.00524    1.0175315    -120.9877    615.41943    4.2932905    4.2932905    4.2932905    615.41943   -3357.1204    4091.7882    1111.5905   -12770.965     4900.208   -933.82178    79.135405 
   10900    1042.8253    -121.9275    0.9435702   -120.98393   -13120.152    4.3058453    4.3058453    4.3058453   -13120.152   -3932.0848   -7338.8212   -28089.549   -4045.0096    4828.0991    8988.2656    79.831679 
   11000    745.96487   -121.66343   0.67496469   -120.98847   -4305.2958    4.2898823    4.2898823    4.2898823   -4305.2958   -26329.694   -19670.681    33084.487    51341.702    772.09814   -8752.8103     78.94709 
   11100    822.41661   -121.73417   0.74413983   -120.99003   -1161.5747    4.2928549    4.2928549    4.2928549   -1161.5747   -10515.074   -11840.966    18871.316    31231.607   -3606.9698   -4907.5677     79.11132 
   11200    1069.8534   -121.95212   0.96802588   -120.98409   -5839.9723    4.3048272    4.3048272    4.3048272   -5839.9723   -12353.819    11457.353   -16623.451   -18852.076   -4623.2088    6784.6276    79.775065 
   11300    899.51715    -121.7984   0.81390202   -120.98449    7052.5096    4.2940903    4.2940903    4.2940903    7052.5096     -22528.5    24997.246    18688.784    722.85494    3669.6438    14758.189    79.179638 
   11400     621.9501   -121.55204   0.56275352   -120.98929    4444.2349    4.2982892    4.2982892    4.2982892    4444.2349   -10472.011   -4019.0019    27823.717    37462.984   -3268.2229    11105.536     79.41214 
   11500    1072.4245   -121.95474   0.97035223   -120.98439   -8601.4657    4.3020115    4.3020115    4.3020115   -8601.4657   -15417.997   -17345.525    6959.1246    14961.056   -930.43755   -13682.807    79.618629 
   11600    1195.5758   -122.06389    1.0817821   -120.98211    9152.7351    4.2896207    4.2896207    4.2896207    9152.7351      7158.53    12544.686    7754.9889   -17610.603   -771.76341    -2947.379    78.932647 
   11700    806.85283   -121.71933    0.7300574   -120.98927   -1638.1477    4.2971313    4.2971313    4.2971313   -1638.1477    7400.3142   -14950.006     2635.249    6385.4258   -811.37807    17379.132    79.347978 
   11800    699.89622   -121.62298   0.63328081    -120.9897   -14199.905    4.2987529    4.2987529    4.2987529   -14199.905   -22554.273   -26248.942    6203.4991    32819.746    1839.5262    10310.028    79.437843 
   11900    901.31713    -121.8031   0.81553068   -120.98757     943.3189    4.2911666    4.2911666    4.2911666     943.3189    2984.1415    8812.9742    -8967.159    13718.584   -786.88321   -21053.592    79.018017 
   12000    1001.2648   -121.89285   0.90596539   -120.98689   -2566.8099    4.2941979    4.2941979    4.2941979   -2566.8099     19280.26    -8216.071   -18764.618   -9493.2048   -2626.7688   -27412.335    79.185591 
   12100    971.96564   -121.86796   0.87945493    -120.9885   -5726.2639    4.2917407    4.2917407    4.2917407   -5726.2639   -7041.5736   -3695.7004   -6441.5177    922.50362    6866.1464    18810.459    79.049737 
   12200    738.72169   -121.65996   0.66841091   -120.99155   -19639.414    4.2985566    4.2985566    4.2985566   -19639.414    -12411.72     -30481.9   -16024.622    29818.309    5534.6234     14141.59    79.426961 
   12300    658.70901   -121.58707   0.59601375   -120.99106   -10118.908    4.2958824    4.2958824    4.2958824   -10118.908    23736.366   -36547.273   -17545.817    12984.319    -6524.464   -33149.402    79.278815 
   12400    1265.0885   -122.12904    1.1446787   -120.98436   -1907.8172     4.285116     4.285116     4.285116   -1907.8172     16444.93   -9806.6774   -12361.704   -4015.6752     2943.099   -21155.639    78.684239 
   12500    1012.9616   -121.90603   0.91654899   -120.98948   -5907.3511     4.301394     4.301394     4.301394   -5907.3511   -11647.712    -6627.613    553.27189    702.25641    5458.0912    21458.668    79.584352 
   12600    638.08914   -121.56919   0.57735646   -120.99183   -6268.4395    4.2989675    4.2989675    4.2989675   -6268.4395   -172.57194   -12405.707   -6227.0391    13004.769    2708.8468    14007.854    79.449743 
   12700    834.39768   -121.74279   0.75498055   -120.98781    5109.6167    4.2828345    4.2828345    4.2828345    5109.6167    20262.242   -4800.0208   -133.37087    14208.478   -2182.2395    -29952.18    78.558625 
   12800    959.46887   -121.85775    0.8681476   -120.98961    1526.3211    4.3019144    4.3019144    4.3019144    1526.3211    167.73711    9592.3227   -5181.0966   -5549.1626   -3325.1484   -25165.731    79.613241 
   12900    1123.5597   -122.00076    1.0166204   -120.98414   -9838.8514    4.2993079    4.2993079    4.2993079   -9838.8514   -19736.093    4596.1919   -14376.653   -7426.5433    4892.9945    13317.727    79.468615 
   13000    831.17639    -121.7382   0.75206587   -120.98614    10568.249    4.2806664    4.2806664    4.2806664    10568.249    30747.796   -6445.9073    7402.8577    15637.782    5103.7722    11235.514    78.439381 
   13100    767.95263   -121.69096   0.69485968   -120.99611    -10151.67     4.303919     4.303919     4.303919    -10151.67    14009.137   -29276.571   -15187.575    19962.355    -4274.645   -18159.915    79.724585 
   13200    1123.6491   -122.00351    1.0167013   -120.98681   -10661.861    4.3026067    4.3026067    4.3026067   -10661.861   -4668.9627   -10639.644   -16676.976   -6322.7598    4009.3697   -17289.933    79.651681 
   13300    799.60064    -121.7063   0.72349546    -120.9828    30390.196    4.2790899    4.2790899    4.2790899    30390.196    40150.676    35059.597    15960.314   -24918.432    11677.365    13806.394    78.352748 
   13400    789.57487   -121.70846   0.71442394   -120.99403     -3165.17    4.3017043    4.3017043    4.3017043     -3165.17   -6290.4164    6898.2291   -10103.323     1403.033    5449.0737    11991.035    79.601575 
   13500    960.90897   -121.85243   0.86945063   -120.98298    -1712.711    4.3062897    4.3062897    4.3062897    -1712.711   -111.28944   -597.52964   -4429.3138    14820.806    1149.7974   -8048.8143    79.856399 
   13600    1098.7365   -121.97193   0.99415986   -120.97777    21013.701    4.2817048    4.2817048    4.2817048    21013.701    33105.948    12085.895     17849.26   -6322.5204   -4312.1598   -3959.6583    78.496479 
   13700    756.35468   -121.67511   0.68436561   -120.99075   -15474.233    4.2899012    4.2899012    4.2899012   -15474.233   -28123.705   -15042.594    -3256.401   -27900.513    7574.6574     8511.721    78.948135 
   13800    606.26432   -121.54344    0.5485607   -120.99488    -11628.27    4.2993297    4.2993297    4.2993297    -11628.27   -25695.455    2276.9617   -11466.318   -6817.9902    3396.6603     12617.17    79.469826 
   13900    1257.8673   -122.12188    1.1381447   -120.98373    3317.2754    4.3001029    4.3001029    4.3001029    3317.2754    21911.816   -992.19288   -10967.797    18707.337    -8205.293   -8923.0564    79.512709 
   14000    1217.6394   -122.08367    1.1017458   -120.98193   -3885.2532    4.2947867    4.2947867    4.2947867   -3885.2532   -8041.8691   -13138.553    9524.6626   -21266.205    1323.8886     -7042.39    79.218168 
   14100    349.73142   -121.30776   0.31644434   -120.99131    15373.439     4.285824     4.285824     4.285824    15373.439    9752.3627     25874.65    10493.303   -30976.425   -3946.7813     6776.147    78.723245 
   14200    660.99719   -121.59476   0.59808415   -120.99668   -17831.238    4.3070808    4.3070808    4.3070808   -17831.238     -14870.8   -2529.4104   -36093.503   -136.04447   -1117.8957    10401.333    79.900418 
   14300    1243.9075   -122.11089    1.1255137   -120.98538    -1361.292    4.2950829    4.2950829    4.2950829    -1361.292    11155.562     5200.726   -20440.164    1890.3053    -1565.691    5483.2667    79.234561 
   14400    1140.8316   -122.01501    1.0322484   -120.98276    22299.962    4.2745247    4.2745247    4.2745247    22299.962    15149.846    21647.687    30102.354   -17395.999    -1378.094   -9020.4602    78.102239 
   14500    612.32555   -121.55162   0.55404503   -120.99758   -28935.146    4.3050407    4.3050407    4.3050407   -28935.146   -27622.447   -24288.721   -34894.269   -23494.512    2014.4632    7170.6106    79.786933 
   14600    760.54771   -121.67979   0.68815955   -120.99163   -10137.612    4.2979558    4.2979558    4.2979558   -10137.612    14639.558    429.48934   -45481.885   -895.38384    3271.0756    22749.167    79.393665 
   14700    1264.8733   -122.12214     1.144484   -120.97766    13522.279    4.2840929    4.2840929    4.2840929    13522.279    23872.963    20984.998   -4291.1232    10726.334    2913.1682    2208.9768    78.627891 
   14800    852.14297   -121.75502   0.77103687   -120.98398   -9078.2875    4.3008443    4.3008443    4.3008443   -9078.2875    1242.1526   -19180.044   -9296.9714   -12448.845   -1464.7899   -10180.569    79.553844 
   14900    775.42929   -121.68936   0.70162472   -120.98774   -2601.8206    4.2906346    4.2906346    4.2906346   -2601.8206   -3219.3465    5966.2456   -10552.361   -17370.049    2726.3866   -7366.6868     78.98863 
   15000    1013.3772   -121.90468     0.916925   -120.98776    11353.416    4.2928555    4.2928555    4.2928555    11353.416   -880.19335    40783.738   -5843.2969    2926.0297    5732.7502    10357.956    79.111352 
   15100    1326.8582   -122.18444    1.2005692   -120.98387   -5162.8597    4.2946563    4.2946563    4.2946563   -5162.8597   -11953.027    17652.328    -21187.88     277.0086   -4383.3041    2800.3578    79.210955 
   15200    571.31519   -121.50971   0.51693799   -120.99277    17132.652    4.2816693    4.2816693    4.2816693    17132.652    15965.142    19283.068    16149.748   -7332.9036    1337.0741   -22518.819    78.494524 
   15300     513.5278   -121.46475   0.46465075    -121.0001   -20484.902    4.3012408    4.3012408    4.3012408   -20484.902   -46354.294    -18439.46     3339.048    -16930.51    -3462.315   -12643.447    79.575847 
   15400    1135.0369   -122.01494    1.0270052   -120.98793   -5199.7949    4.2956655    4.2956655    4.2956655   -5199.7949   -17324.421    15170.974   -13445.938   -376.52159   -860.80546    6575.1324    79.266809 
   15500    1177.9268   -122.04647    1.0658129   -120.98066    19852.048    4.2813081    4.2813081    4.2813081    19852.048    10823.393    48278.974    453.77764    4224.2533    2336.7996    2789.3261    78.474659 
   15600    717.88601   -121.64172   0.64955835   -120.99217   -17262.939    4.2996739    4.2996739    4.2996739   -17262.939   -21469.909   -35046.191    4727.2844   -22315.138   -2607.9515   -7966.1256     79.48891 
   15700    615.31246   -121.54897   0.55674764   -120.99223    3465.8376    4.2901791    4.2901791    4.2901791    3465.8376   -32380.139    17401.515    25376.137   -15681.303     4143.711   -6637.8694    78.963477 
   15800     1117.879   -121.99673    1.0114804   -120.98525    7221.6888    4.2879353    4.2879353    4.2879353    7221.6888    1289.2529    16179.277    4196.5365    7109.6178   -7907.2486    6644.0189    78.839646 
   15900    975.33361   -121.86838   0.88250235   -120.98587   -14526.988    4.3009038    4.3009038    4.3009038   -14526.988   -7646.0719   -17497.814   -18437.079   -2526.3939   -845.17023    27169.246    79.557143 
   16000    703.48438   -121.62433   0.63652745   -120.98781    3780.2387    4.2844548    4.2844548    4.2844548    3780.2387   -8031.5584   -11264.571    30636.845   -20386.507    3335.5264    7506.5691    78.647823 
   16100    830.75313   -121.74306   0.75168289   -120.99138   -2647.8379     4.294416     4.294416     4.294416   -2647.8379    -37692.55    17348.303    12400.734   -9416.4376   -8089.8003   -15013.461    79.197657 
   16200    1028.7963   -121.91547   0.93087652    -120.9846   -7935.6074    4.3001466    4.3001466    4.3001466   -7935.6074   -10311.753   -4477.2891   -9017.7802     6763.361    3832.8452    12535.417    79.515132 
   16300     1028.066    -121.9127    0.9302157   -120.98249    14201.928    4.2770626    4.2770626    4.2770626    14201.928    19178.774    21855.426    1571.5825   -1379.2439    301.52937    32072.192    78.241437 
   16400    694.72513   -121.62202    0.6286019   -120.99342   -12507.465     4.297836     4.297836     4.297836   -12507.465       -17487   -6425.0235   -13610.371   -20918.437    2018.9725    6892.5207    79.387025 
   16500    1027.6228   -121.91669   0.92981471   -120.98688   -13314.392    4.2972431    4.2972431    4.2972431   -13314.392   -37734.237   -10067.535    7858.5957   -17596.815    9309.3839   -5699.1527     79.35417 
   16600    1026.1676   -121.90948   0.92849801   -120.98098      28154.3    4.2809147    4.2809147    4.2809147      28154.3    22734.905    56344.915      5383.08      9205.65   -3678.2256    614.19405    78.453032 
   16700    922.63111    -121.8222   0.83481602   -120.98738   -20461.517    4.2996406    4.2996406    4.2996406   -20461.517    6598.9251   -33164.383   -34819.093   -2665.8376   -610.00744    39220.281    79.487068 
   16800      518.914   -121.46021   0.46952429   -120.99069    7072.3149    4.2911806    4.2911806    4.2911806    7072.3149    11569.528   -2463.8764    12111.293   -28387.955   -2336.7977    15192.555    79.018789 
   16900    1072.4077   -121.95785   0.97033703   -120.98751    6223.8435    4.2879156    4.2879156    4.2879156    6223.8435   -18448.156    1539.0372     35580.65   -12487.176   -8291.9104   -9360.3699    78.838558 
   17000    1059.0396   -121.94345   0.95824128   -120.98521    220.48969    4.2971642    4.2971642    4.2971642    220.48969     9263.439   -17621.357    9019.3867    4267.2261    1185.6073     12883.44    79.349803 
   17100    767.33703     -121.683   0.69430267    -120.9887    7412.4736    4.2850107    4.2850107    4.2850107    7412.4736    37833.531   -20680.434    5084.3241   -491.47713   -2784.8781    40181.829     78.67844 
   17200     609.8469   -121.54476   0.55180229   -120.99296   -11664.874    4.2975316    4.2975316    4.2975316   -11664.874   -12219.358   -25569.356    2794.0907   -33267.792    19.562906    14087.731    79.370156 
   17300    1082.1843   -121.96162   0.97918305   -120.98244   -11091.562    4.2986171    4.2986171    4.2986171   -11091.562   -30318.816   -11552.888    8597.0177   -28487.688    2812.1307   -16047.198    79.430317 
   17400    1205.3475   -122.06929    1.0906238   -120.97866    10318.441    4.2815091    4.2815091    4.2815091    10318.441    30896.692   -137.35339    195.98295     13887.81   -833.76184    21761.512    78.485717 
   17500     753.9775   -121.67257   0.68221469   -120.99036   -15431.395    4.2930641    4.2930641    4.2930641   -15431.395    4152.9134   -23496.745   -26950.354   -13587.629    3587.9669    31374.741    79.122887 
   17600    663.65054    -121.5914   0.60048496   -120.99091   -9143.3347    4.2958888    4.2958888    4.2958888   -9143.3347   -21621.919    -35740.73    29932.645   -43105.012   -1739.2807     3855.011     79.27917 
   17700    1124.3961   -122.00001    1.0173773   -120.98263    8299.7862     4.292894     4.292894     4.292894    8299.7862   -10792.811   -8704.7023    44396.872   -10386.256   -9444.6588   -10867.387    79.113482 
   17800    1166.3498   -122.03658    1.0553378   -120.98124    1297.6409    4.2940252    4.2940252    4.2940252    1297.6409    8088.2801    2965.6479   -7161.0053    9831.3004    -78.19138    19065.923    79.176041 
   17900    557.67422   -121.49453   0.50459536   -120.98994    7407.5324    4.2886356    4.2886356    4.2886356    7407.5324   -828.53649   -30264.285    53315.419   -17928.013   -1555.9269    33817.197     78.87828 
   18000    670.64773   -121.60022   0.60681616    -120.9934   -8065.0585    4.2983607    4.2983607    4.2983607   -8065.0585   -22844.251   -21379.435     20028.51   -38296.387    -1613.681    9935.3115    79.416104 
   18100    1306.2066    -122.1663    1.1818832   -120.98442    2910.4373     4.293792     4.293792     4.293792    2910.4373   -16712.087    23293.034    2150.3651   -2347.6676   -5660.9366    -13484.03    79.163141 
   18200    1171.2323   -122.04564    1.0597556   -120.98588    10473.743    4.2884463    4.2884463    4.2884463    10473.743    4225.0715     9782.424    17413.732    10542.971   -4397.8256    4884.2036    78.867838 
   18300    436.27795   -121.39172   0.39475346   -120.99697   -16416.401    4.3035419    4.3035419    4.3035419   -16416.401   -33036.786   -31914.762    15702.345    -35118.22    1740.3368    19049.512    79.703633 
   18400    791.00368   -121.70836   0.71571675   -120.99264   -10487.128    4.2954765    4.2954765    4.2954765   -10487.128   -19676.361   -25384.459    13599.435   -31933.541    3029.9847    12297.255    79.256348 
   18500    1500.9844   -122.33712    1.3581222   -120.97899    8611.4582    4.2892845    4.2892845    4.2892845    8611.4582   -6032.5909    11470.786     20396.18    12331.022   -6643.0168   -14529.676    78.914093 
   18600    1020.5725   -121.90605   0.92343546   -120.98262   -21765.701    4.3075647    4.3075647    4.3075647   -21765.701    -32312.57    -10791.52   -22193.011   -9016.0676    1211.8223      6701.59    79.927355 
   18700    441.16765   -121.39284   0.39917776   -120.99366    -7993.276    4.2907312    4.2907312    4.2907312    -7993.276   -19821.306   -2068.7833   -2089.7385   -43384.782   -2583.2883    27034.596    78.993969 
   18800    639.31827    -121.5745    0.5784686   -120.99603    20080.801    4.2870195    4.2870195    4.2870195    20080.801    18590.572    20918.591    20733.241   -20835.618    1791.5714    15773.448    78.789145 
   18900    1451.3824   -122.29148    1.3132413   -120.97824   -9944.6023    4.3101095    4.3101095    4.3101095   -9944.6023   -22803.688    12479.239   -19509.358      9052.84    942.39105   -2749.6355    80.069095 
   19000    920.12669   -121.81744   0.83254997   -120.98489    -5133.915    4.2963717    4.2963717    4.2963717    -5133.915    2938.1431   -19696.792    1356.9039    -16998.38   -8755.9786    3560.0988     79.30591 
   19100    317.36517   -121.27587   0.28715868   -120.98871   -2209.6002    4.2845559    4.2845559    4.2845559   -2209.6002    14286.905   -44819.138    23903.433   -52794.536    4237.4445    26153.665    78.653391 
   19200    1054.4646   -121.94333   0.95410174   -120.98922   -9053.0251    4.2982385    4.2982385    4.2982385   -9053.0251   -5794.1669   -21799.741    434.83307   -12296.236   -2899.2551    18730.461    79.409329 
   19300    1369.8963   -122.21706     1.239511   -120.97755    1998.9567    4.3032545    4.3032545    4.3032545    1998.9567     14142.71   -9563.1566    1417.3169    14506.806    2149.8825   -4771.7631    79.687662 
   19400    931.65528   -121.82967   0.84298128   -120.98669   -640.01339    4.2860455    4.2860455    4.2860455   -640.01339   -13315.205    -24201.63    35596.795   -37150.079    8832.4973    -3927.815    78.735451 
   19500     333.6974   -121.29907   0.30193642   -120.99714    4597.1106    4.2847525    4.2847525    4.2847525    4597.1106   -6945.0148   -14404.713     35141.06   -37759.269   -4780.9176    22813.943    78.664217 
   19600    981.29965   -121.87841   0.88790054   -120.99051     -7642.09    4.3013209    4.3013209    4.3013209     -7642.09   -3951.6029   -21509.904     2535.237    4226.0808    6418.7589    21659.162    79.580295 
   19700    1162.4213   -122.03416    1.0517832   -120.98238    11407.181    4.2968312    4.2968312    4.2968312    11407.181    12278.961   -1892.1181      23834.7    10074.637   -3442.4838   -10396.388    79.331358 
   19800     707.2005   -121.62573   0.63988987   -120.98584    7488.6918    4.2852971    4.2852971    4.2852971    7488.6918   -23987.754    -11357.64    57811.469   -35057.073    2802.6362   -409.63263    78.694213 
   19900     632.2669   -121.56385   0.57208838   -120.99176   -7683.7238    4.2901756    4.2901756    4.2901756   -7683.7238    860.69905   -41618.993    17707.123   -31530.515    3447.7088    21481.926    78.963287 
   20000    994.66626   -121.88679   0.89999494   -120.98679   -3197.7924    4.2997334    4.2997334    4.2997334   -3197.7924    27708.716   -23448.007   -13854.086    13507.595   -1249.4975    32432.874    79.492213 
   20100    1208.5613   -122.07702    1.0935317   -120.98349   -4348.3977    4.2938196    4.2938196    4.2938196   -4348.3977   -21291.851   -6129.9841    14376.642   -4293.4732    5878.3625   -5696.6036    79.164665 
   20200    837.41993   -121.74792   0.75771515   -120.99021   -280.64016    4.2798573    4.2798573    4.2798573   -280.64016   -12566.932   -20151.547    31876.559   -31808.967   -2317.9203   -753.10476    78.394908 
   20300    539.09328   -121.48702   0.48778293   -120.99924   -2498.9684    4.2917108    4.2917108    4.2917108   -2498.9684    8781.8489   -15546.757    -731.9968   -17903.738    389.57249    37628.685    79.048084 
   20400    1113.8001   -121.99594    1.0077897   -120.98815   -15500.211    4.3064578    4.3064578    4.3064578   -15500.211   -8479.3694   -6236.5092   -31784.753    5606.3654   -3356.1357    18957.213    79.865751 
   20500    1137.7996   -122.00915     1.029505   -120.97964    20873.269    4.2859872    4.2859872    4.2859872    20873.269   -7893.8016    23373.555    47140.052   -8068.6082   -3943.7737   -10814.091     78.73224 
   20600    788.24821    -121.7003   0.71322355   -120.98708    7067.4998    4.2857557    4.2857557    4.2857557    7067.4998    385.44502   -7565.4691    28382.523   -29945.405    -1173.801   -557.29799    78.719483 
   20700    537.00476    -121.4755   0.48589319   -120.98961   -18243.837    4.3077159    4.3077159    4.3077159   -18243.837   -10871.778   -46647.243    2787.5119   -9868.4412   -867.07378      32167.5     79.93577 
   20800     983.6721   -121.87455   0.89004719    -120.9845    9542.2767    4.2900276    4.2900276    4.2900276    9542.2767    16314.462    6864.9544    5447.4133    13110.265   -5757.3968    28881.372     78.95511 
   20900    1289.8033   -122.14922    1.1670411   -120.98218    18873.015    4.2810273    4.2810273    4.2810273    18873.015    10287.903    19652.525    26678.617   -6868.7416   -2873.9261   -16170.939    78.459222 
   21000    876.54807   -121.78539   0.79311911   -120.99227   -3497.4256     4.302001     4.302001     4.302001   -3497.4256   -21130.673    8973.0776    1665.3185   -18600.862    7896.7553    9988.6403    79.618045 
   21100     560.0096    -121.4981   0.50670845    -120.9914   -5006.5387    4.3017136    4.3017136    4.3017136   -5006.5387   -3489.5131    9081.3095   -20611.413   -4518.4982    4623.6107    35042.106     79.60209 
   21200    922.51208   -121.81792   0.83470832   -120.98321    2729.7314    4.2905352    4.2905352    4.2905352    2729.7314    9492.9592    1933.6586   -3237.4237    4378.3029    153.08064    10100.089    78.983145 
   21300    1424.7595   -122.26885    1.2891523    -120.9797    5662.4418     4.284497     4.284497     4.284497    5662.4418   -4059.4858    10841.889    10204.922    3612.2662   -3232.9252   -18357.989    78.650148 
   21400    917.69562   -121.82382   0.83035028   -120.99347    -2504.972    4.2962377    4.2962377    4.2962377    -2504.972   -6081.4825   -26342.838    24909.405   -20015.098     5879.189    7924.5791    79.298486 
   21500    571.68149   -121.50974   0.51726943   -120.99247   -21718.231    4.3030861    4.3030861    4.3030861   -21718.231   -3916.3559   -37062.932   -24175.405   -16276.222    3945.2898    42864.993     79.67831 
   21600    929.28852   -121.82662   0.84083978   -120.98578    5726.1274    4.2881162    4.2881162    4.2881162    5726.1274   -3679.4876    32344.724   -11486.854    5128.2263   -10950.807     7745.263    78.849628 
   21700     1215.252   -122.08273    1.0995856   -120.98315    9139.0608    4.2879483    4.2879483    4.2879483    9139.0608     -16654.9    19125.532    24946.551    2735.8014   -3809.0592   -11307.418    78.840363 
   21800    871.87264   -121.78001   0.78888869   -120.99112    8623.2995    4.2874753    4.2874753    4.2874753    8623.2995    5388.0266    11988.958    8492.9139    6591.9503    2607.1094    28983.962    78.814275 
   21900    660.59221   -121.59677   0.59771772   -120.99905   -5798.5897     4.295632     4.295632     4.295632   -5798.5897    12576.411   -18404.733   -11567.447   -10493.689    7426.2566    39966.031    79.264953 
   22000    942.56383   -121.84455   0.85285156   -120.99169   -7297.2279    4.2972476    4.2972476    4.2972476   -7297.2279    -2559.147   -11422.899    -7909.638   -4411.8919   -611.51191    1476.2166     79.35442 
   22100      1141.52   -122.01897    1.0328713    -120.9861    16497.157    4.2754277    4.2754277    4.2754277    16497.157   -12629.399     22832.61    39288.259    16821.944    -16178.28   -7657.0737    78.151749 
   22200    787.96175    -121.7118   0.71296435   -120.99884   -2193.5019     4.293703     4.293703     4.293703   -2193.5019    17953.395   -29671.195    5137.2945      8690.27   -2577.7447    26653.361    79.158214 
   22300    849.07551    -121.7582   0.76826137   -120.98994   -24473.473    4.3067334    4.3067334    4.3067334   -24473.473    5837.1644   -46998.775   -32258.807    1930.6471    1737.4557     41895.07    79.881086 
   22400    1092.9253   -121.97336   0.98890177   -120.98446    21504.999    4.2698342    4.2698342    4.2698342    21504.999    14152.771    34376.037    15986.188    -9678.607   -2794.5048   -5452.3421    77.845413 
   22500    885.29126   -121.79718   0.80103014   -120.99615     5704.785    4.2822745    4.2822745    4.2822745     5704.785   -15676.825    29171.419    3619.7615    222.26809   -3800.2022   -8302.9684    78.527816 
   22600    507.66702   -121.45406   0.45934779   -120.99472   -13987.033    4.3086079    4.3086079    4.3086079   -13987.033   -9149.7897   -7882.6079   -24928.702    17213.557   -7887.8123    24451.953    79.985439 
   22700    988.32248   -121.87977   0.89425495   -120.98552    14146.492    4.2875242    4.2875242    4.2875242    14146.492    11173.434    1486.9167    29779.126   -462.76961      5591.07     25977.79    78.816976 
   22800    1146.9306   -122.01821     1.037767   -120.98044    12546.377    4.2852044    4.2852044    4.2852044    12546.377   -1129.4341    15483.419    23285.146    -2717.898   -613.93374    276.53674    78.689108 
   22900    751.20055   -121.67284   0.67970204   -120.99314   -4964.6808    4.2915318    4.2915318    4.2915318   -4964.6808    -21050.71    21269.497   -15112.829    4078.7132   -12791.632   -13641.608    79.038193 
   23000    690.51925   -121.62291   0.62479633   -120.99812   -4975.6411     4.287751     4.287751     4.287751   -4975.6411   -17457.222    4953.7293   -2423.4301    12651.917    -4581.433    9143.4603     78.82948 
   23100    1059.3326   -121.95296   0.95850641   -120.99445   -10904.189    4.2963875    4.2963875    4.2963875   -10904.189    -18605.54   -21153.169    7046.1413    10928.269   -1297.1516    15609.615    79.306783 
   23200    1187.1489   -122.06467    1.0741572   -120.99051   -6830.0482    4.2884193    4.2884193    4.2884193   -6830.0482     -15106.2   -10501.006    5117.0612    -16817.45    410.84414   -10700.518    78.866348 
   23300    794.18762   -121.71184   0.71859765   -120.99325    7114.4147    4.2817597    4.2817597    4.2817597    7114.4147   -10515.601    26573.684    5285.1615    -4070.963   -1164.2665   -7616.3347    78.499495 
   23400    782.53071   -121.70376   0.70805023   -120.99571    -11610.94    4.3023643    4.3023643    4.3023643    -11610.94   -40945.978    5744.2046     368.9522    12459.525   -7690.5504   -477.08385    79.638219 
   23500    1045.6821   -121.93883   0.94615514   -120.99267    5391.4812    4.2884829    4.2884829    4.2884829    5391.4812   -5710.2959    2442.9571    19441.782   -8744.7682   -987.66127    7254.8565    78.869855 
   23600    948.38286   -121.84742   0.85811674    -120.9893    26243.241    4.2720493    4.2720493    4.2720493    26243.241   -924.56006    21113.674    58540.611   -24258.437     3571.868    1746.6822    77.966629 
   23700    656.70743   -121.59269   0.59420268   -120.99849   -18080.308    4.3017055    4.3017055    4.3017055   -18080.308   -37990.689    3660.3693   -19910.603   -15211.302   -9125.8369   -9514.4258    79.601643 
   23800    743.20276   -121.66764   0.67246548   -120.99517   -9215.4971    4.2940061    4.2940061    4.2940061   -9215.4971   -27171.227    36522.933   -36998.198    10146.572    -11177.27    1013.3499    79.174982 
   23900    1107.8097   -121.98425    1.0023695   -120.98188     14939.22    4.2761776    4.2761776    4.2761776     14939.22   -11561.814    27355.475    29023.998   -12603.333    -231.9864    2976.4136    78.192878 
   24000    1155.0776   -122.03156    1.0451385   -120.98642   -12177.669     4.295845     4.295845     4.295845   -12177.669   -24000.795   -24043.037    11510.825   -27243.165   -192.12391   -5702.0326    79.276744 
   24100    625.54384   -121.56164   0.56600521   -120.99564   -2370.7328    4.2901441    4.2901441    4.2901441   -2370.7328   -14039.545    9642.3582   -2715.0112   -3263.4904   -10797.187   -4780.2024    78.961545 
   24200    552.38605   -121.49743    0.4998105   -120.99762    4028.3796    4.2823295    4.2823295    4.2823295    4028.3796   -26795.147    34566.094    4314.1917    8057.3848   -7747.8093    -5981.633    78.530839 
   24300    1078.3537   -121.97211    0.9757171   -120.99639   -5705.5132    4.2934568    4.2934568    4.2934568   -5705.5132   -23062.775    7531.6561   -1585.4208    10014.879    9631.2019     5416.145      79.1446 
   24400    1334.4563   -122.19779    1.2074441   -120.99034    23254.963    4.2835805    4.2835805    4.2835805    23254.963    23352.072    20421.073    25991.745    -3052.825    4634.9306    1436.2395    78.599682 
   24500    983.49737   -121.88927   0.88988909   -120.99938    2532.8619    4.2894636    4.2894636    4.2894636    2532.8619   -5398.9341     14024.06   -1026.5401   -3816.8197   -5536.1263   -9225.4029    78.923979 
   24600    479.13054   -121.43304   0.43352739   -120.99951   -15225.202    4.2978163    4.2978163    4.2978163   -15225.202   -27832.744      9989.35   -27832.212    7100.5379   -5504.0189    1142.7589    79.385929 
   24700    902.49899   -121.81157   0.81660006   -120.99497    9511.3786    4.2756003    4.2756003    4.2756003    9511.3786   -20496.653    41636.928    7393.8601    9724.7089    -4420.607   -510.14458    78.161217 
   24800    1229.8498    -122.1094    1.1127939   -120.99661    519.56294    4.2859053    4.2859053    4.2859053    519.56294    1238.9984   -4316.1405    4635.8309    9790.0335    2672.7578    7229.1854    78.727725 
   24900    877.92718   -121.78853   0.79436696   -120.99417   -21956.656    4.3021686    4.3021686    4.3021686   -21956.656    -4291.041   -29314.697   -32264.231   -7455.7694   -6661.3252    1636.0848    79.627354 
   25000    781.88874   -121.69921   0.70746936   -120.99174   -3089.8162    4.2820162    4.2820162    4.2820162   -3089.8162   -13711.156    28598.984   -24157.277     546.1688   -17002.591   -6238.2057    78.513604 
   25100    1104.5627   -121.98925   0.99943153   -120.98982    3097.3096    4.2862179    4.2862179    4.2862179    3097.3096   -19002.068    36692.907   -8398.9103    10619.014   -2991.0563    965.83446    78.744955 
   25200      1168.81   -122.04488    1.0575638   -120.98731   -6849.4633    4.2956138    4.2956138    4.2956138   -6849.4633   -2425.7799   -5126.2499    -12996.36   -3048.8896    7371.3319   -353.25341    79.263945 
   25300    334.84161   -121.30035   0.30297172   -120.99737    13166.989    4.2851696    4.2851696    4.2851696    13166.989    17986.965     40105.32   -18591.318   -5251.2694   -7765.4858   -3703.8108    78.687189 
   25400    515.56222   -121.46798   0.46649153   -121.00149   -16254.272     4.294516     4.294516     4.294516   -16254.272   -25028.822    12735.567   -36469.561    -12137.97   -12814.684   -5760.8003    79.203189 
   25500    1230.9315   -122.10597    1.1137727    -120.9922    13940.258    4.2829905    4.2829905    4.2829905    13940.258    6834.2199    26162.166    8824.3885    964.88898   -1524.0412    1008.2279    78.567213 
   25600    1321.5892   -122.19059    1.1958017   -120.99479     10511.67    4.2853957    4.2853957    4.2853957     10511.67    13221.882    21895.614   -3582.4862    13635.839    3228.0357    1527.0486    78.699648 
   25700    657.80009   -121.59458   0.59519135   -120.99939   -27117.476    4.3030113    4.3030113    4.3030113   -27117.476   -8600.7607   -17715.461   -55036.206   -7577.6606   -2977.8481    7693.4767    79.674152 
   25800     636.5717   -121.57309   0.57598346   -120.99711    15622.187    4.2728639    4.2728639    4.2728639    15622.187    34888.701    27216.463   -15238.605   -8955.2454   -10446.296    6309.8515     78.01124 
   25900     1136.719   -122.02668    1.0285272   -120.99815    7430.4834    4.2851085    4.2851085    4.2851085    7430.4834   -8997.3075    29069.343     2219.415    8722.9657   -1006.2721   -2928.7847    78.683827 
   26000    1078.1874   -121.96174    0.9755666   -120.98617   -30311.308    4.3074445    4.3074445    4.3074445   -30311.308   -53958.822   -17991.977   -18983.125    25119.797    7686.0837    1802.9357    79.920664 
   26100    730.23524   -121.64877   0.66073219   -120.98804    4946.3156    4.2729954    4.2729954    4.2729954    4946.3156    18927.769    7078.1156   -11166.938    10148.296    487.51207    4437.2519     78.01844 
   26200    881.52065   -121.79124   0.79761841   -120.99362   -4686.5196    4.2817199    4.2817199    4.2817199   -4686.5196    21345.842   -421.55318   -34983.847   -9772.7946   -10973.772   -1100.5054    78.497306 
   26300    1107.3781   -121.98411     1.001979   -120.98213   -22751.264    4.3045764    4.3045764    4.3045764   -22751.264       -35924   -12632.015   -19697.776    19064.001   -6454.6733   -4030.0241    79.761125 
   26400    917.82864   -121.81487   0.83047064    -120.9844    4546.9262    4.2822749    4.2822749    4.2822749    4546.9262   -15694.611    22231.731     7103.658    31518.134    14143.057    578.62796    78.527836 
   26500     604.1413    -121.5376   0.54663974   -120.99096   -1415.0999    4.2842101    4.2842101    4.2842101   -1415.0999    14837.539     13490.89   -32573.729   -453.00887    7681.9503    8660.8574    78.634349 
   26600    806.94181   -121.72062    0.7301379   -120.99048   -9093.9778    4.2933671    4.2933671    4.2933671   -9093.9778    4984.3321    5932.7757   -38199.041   -6909.1911   -4495.8146    5538.2635    79.139641 
   26700    1097.8424   -121.98148   0.99335086   -120.98813     18033.83    4.2820044    4.2820044    4.2820044     18033.83     23642.75    14223.405    16235.334   -3492.2299   -1276.3364    12.756015    78.512958 
   26800    986.29607   -121.88409   0.89242141   -120.99167    6594.1794    4.2915235    4.2915235    4.2915235    6594.1794    -3840.422    8666.5194    14956.441    10957.581    13300.811    1040.5683    79.037736 
   26900    682.87398   -121.61297   0.61787873   -120.99509   -5018.1653    4.2924538    4.2924538    4.2924538   -5018.1653   -23897.613    9823.1639   -980.04709    11141.718    26336.353    11403.773    79.089148 
   27000     673.1956   -121.60165   0.60912152   -120.99252    13864.462    4.2829815    4.2829815    4.2829815    13864.462    25537.037    6813.9456    9242.4033   -10282.494    4856.4649    10202.869    78.566714 
   27100    1148.9099   -122.02739    1.0395578   -120.98783   -10063.954    4.2959627    4.2959627    4.2959627   -10063.954   -13251.985   -21036.549     4096.673   -8951.2923   -3849.5124    -3538.062    79.283259 
   27200    1107.6787   -121.98857     1.002251   -120.98632   -11383.292    4.2919231    4.2919231    4.2919231   -11383.292   -33403.357    9917.6375   -10664.157   -5010.2738    23724.098    -4393.902    79.059816 
   27300    987.94658    -121.8813   0.89391482   -120.98738    3869.2766    4.2752634    4.2752634    4.2752634    3869.2766   -5903.7308    36153.593   -18642.033      5499.72    25572.094    4518.9518     78.14274 
   27400    787.33912   -121.70781   0.71240098   -120.99541   -15916.688    4.2964822    4.2964822    4.2964822   -15916.688   -576.37186   -24408.156   -22765.537   -3455.5854   -1905.5953    16675.738    79.312029 
   27500    941.75503   -121.84127   0.85211974   -120.98915   -10118.251    4.2979153    4.2979153    4.2979153   -10118.251   -16458.501   -22501.984    8605.7328   -17692.057   -6175.4753    395.17619    79.391415 
   27600    927.73493   -121.82145   0.83943406   -120.98201    15800.553    4.2782892    4.2782892    4.2782892    15800.553   -17949.997      38848.3    26503.357     -1051.72    20525.841   -7748.7143    78.308771 
   27700    652.43153   -121.58095   0.59033376   -120.99061   -14140.103    4.2925273    4.2925273    4.2925273   -14140.103    -30939.68    9749.3294   -21229.959    9142.2374    24600.815    12289.777    79.093209 
   27800     774.9669    -121.6897   0.70120633   -120.98849   -3061.2798    4.2923866    4.2923866    4.2923866   -3061.2798   -5586.5719   -3074.6739   -522.59359    1486.7593    -2935.385    22153.103    79.085434 
   27900    1270.9417   -122.13277    1.1499747   -120.98279    4042.3832    4.2872162    4.2872162    4.2872162    4042.3832   -2473.6979    5986.1604     8614.687   -6394.6921   -4651.4277    8032.9341    78.799988 
   28000     1098.464   -121.98412    0.9939133   -120.99021   -8776.4241    4.2884688    4.2884688    4.2884688   -8776.4241   -24623.115     12244.59   -13950.747   -5271.3538     29613.59   -7075.8864     78.86908 
   28100    529.82549   -121.47692   0.47939724   -120.99752    15206.505    4.2771498    4.2771498    4.2771498    15206.505    -12239.07    40002.853    17855.733    8601.4285    26593.802    8144.5773    78.246224 
   28200    751.71512   -121.68058   0.68016764   -121.00042   -5638.6849    4.3000642    4.3000642    4.3000642   -5638.6849   -17760.339   -5705.9709    6550.2553    6798.1583   -11768.736    24227.225     79.51056 
   28300    1307.1446   -122.17043    1.1827319   -120.98769    2252.6107    4.2925657    4.2925657    4.2925657    2252.6107    8094.6311   -11515.459     10178.66   -3101.7776   -4458.5098    5716.9359    79.095332 
   28400    1135.2108   -122.00885    1.0271626   -120.98169    26599.337    4.2670248    4.2670248    4.2670248    26599.337     11097.42    42272.757    26427.833    764.94085    24267.173   -15455.784    77.691854 
   28500    560.59383   -121.50281   0.50723708   -120.99557   -20557.076    4.2960385    4.2960385    4.2960385   -20557.076   -30634.974    10399.172   -41435.427   -1462.2661    29251.742    6787.3509    79.287458 
   28600    768.13126   -121.68677   0.69502131   -120.99175   -6355.1421    4.2889052    4.2889052    4.2889052   -6355.1421    612.33729   -2533.2464   -17144.517    10366.215    -4118.113    27406.399    78.893158 
   28700     1121.301   -121.99913    1.0145767   -120.98455    18981.263    4.2788511    4.2788511    4.2788511    18981.263    11170.593    9569.2396    36203.955    3439.9964   -8309.6142    5966.6183    78.339632 
   28800     978.6586   -121.87257   0.88551086   -120.98706   -11790.299       4.2944       4.2944       4.2944   -11790.299   -24759.864   -515.13041   -10095.903   -4497.9296    30557.408   -21014.449    79.196774 
   28900     713.6901   -121.63593    0.6457618   -120.99016     15732.38     4.278513     4.278513     4.278513     15732.38    5082.3281    27750.294    14364.517    3179.8135    19144.473    3750.6557    78.321065 
   29000    825.09845   -121.74158   0.74656641   -120.99502   -7187.3017    4.2877424    4.2877424    4.2877424   -7187.3017   -15185.614    -7797.204     1420.913    5906.5142   -8289.7527    28659.778    78.829006 
   29100    872.04631   -121.78022   0.78904583   -120.99117   -15349.002    4.2934154    4.2934154    4.2934154   -15349.002   -22156.556   -24119.786    229.33689    9028.2171   -10217.798   -158.80454    79.142312 
   29200    1068.0628   -121.95183   0.96640563   -120.98543    10995.148    4.2740402    4.2740402    4.2740402    10995.148    1361.5916    19701.588    11922.265   -2705.2236    11239.258    -27319.38    78.075686 
   29300    990.90699   -121.88708   0.89659346   -120.99049   -14403.799    4.2941245    4.2941245    4.2941245   -14403.799   -14580.005    2260.7172    -30892.11   -2833.6364    13715.894    5444.9765    79.181531 
   29400    745.08607   -121.66616   0.67416953   -120.99199   -8346.3039    4.2902668    4.2902668    4.2902668   -8346.3039   -9778.1704   -3161.7817    -12098.96    11706.769    -9087.637    38226.125     78.96832 
   29500    799.10827   -121.71265   0.72304995    -120.9896    15493.794    4.2751641    4.2751641    4.2751641    15493.794   -9948.5454    11845.036     44584.89   -471.73981   -9015.1806     3559.982    78.137295 
   29600    1038.8643    -121.9291   0.93998627   -120.98911   -6436.3788    4.2935038    4.2935038    4.2935038   -6436.3788   -18673.091   -11493.404    10857.359   -9778.3344    2313.3066   -24303.028    79.147198 
   29700    947.46892   -121.84639   0.85728979    -120.9891    5860.3665    4.2854967    4.2854967    4.2854967    5860.3665    12497.376    3284.1521    1799.5717   -2276.8222    1333.6142    19503.112    78.705211 
   29800    732.08004   -121.65624   0.66240141   -120.99384   -7860.3981    4.2852095    4.2852095    4.2852095   -7860.3981     10898.29    -3919.808   -30559.677    1805.0763    -849.0234    49625.422    78.689389 
   29900    946.72642   -121.84729   0.85661796   -120.99067   -11911.718    4.2879413    4.2879413    4.2879413   -11911.718   -14351.928   -8022.1401   -13361.087   -1354.7253   -4370.9387    8086.5276    78.839979 
   30000    1055.7824   -121.94297   0.95529409   -120.98767    11717.546    4.2790355    4.2790355    4.2790355    11717.546    1224.9455    25659.665    8268.0279   -10893.501   -3415.3584    -17581.84    78.349758 
   30100    639.20813   -121.57517   0.57836895    -120.9968   -24124.018    4.2972725    4.2972725    4.2972725   -24124.018    3709.6179   -22041.521   -54040.151   -5244.8289    3286.9412    37163.193      79.3558 
   30200    686.82813   -121.61981   0.62145652   -120.99836   -8161.9818    4.2834373    4.2834373    4.2834373   -8161.9818    38939.332   -11726.345   -51698.933    5483.5512    294.43691    46254.452      78.5918 
   30300    1321.4023    -122.1831    1.1956325   -120.98746     23092.25    4.2736695    4.2736695    4.2736695     23092.25    14191.145    43514.423    11571.181   -5057.4632   -3916.8535   -11702.411    78.055371 
   30400    1215.2413    -122.0876    1.0995758   -120.98803   -19652.324    4.3022782    4.3022782    4.3022782   -19652.324   -29372.051    -5225.339   -24359.583   -5299.1811   -7377.1264     6108.361     79.63344 
   30500    528.16397   -121.47914   0.47789386   -121.00124   -5120.4967    4.2811472    4.2811472    4.2811472   -5120.4967    20538.265    -12031.87   -23867.885    883.26817   -2115.6373    62168.695    78.465811 
   30600    575.21435    -121.5184   0.52046603   -120.99793    16305.798    4.2712662    4.2712662    4.2712662    16305.798    45537.601    1526.0379    1853.7565   -652.26832    432.55892    21053.486    77.923765 
   30700    1180.4479   -122.05522     1.068094   -120.98713   -16715.212    4.3007249    4.3007249    4.3007249   -16715.212    -17449.57   -14403.091   -18292.973    6233.3267   -4534.5502   -40168.768    79.547216 
   30800    1031.9426   -121.92196   0.93372339   -120.98824    5392.8788    4.2834913    4.2834913    4.2834913    5392.8788    6748.4687    3372.8456    6057.3222    1382.3073   -4235.7533    8127.2668    78.594774 
   30900    865.76971    -121.7723   0.78336663   -120.98894    5150.3975    4.2740733    4.2740733    4.2740733    5150.3975    33401.285   -5789.2605   -12160.831   -2260.4022   -6730.3209    59674.681    78.077499 
   31000    877.18898    -121.7835   0.79369903   -120.98981   -11392.806    4.2926411    4.2926411    4.2926411   -11392.806    10360.895   -21671.891   -22867.423    134.94536    2089.7184    11423.067    79.099501 
   31100    906.26885   -121.80837    0.8200111   -120.98836   -4111.7322    4.2891206    4.2891206    4.2891206   -4111.7322    -10030.76   -10067.646    7763.2092   -111.80225    2369.7423   -40281.308    78.905043 
   31200    760.20812   -121.67875   0.68785229   -120.99089   -2670.1716     4.285046     4.285046     4.285046   -2670.1716    4205.4838   -17563.337    5347.3383    7854.8228    -5893.562   -4936.2185    78.680385 
   31300    1016.9506   -121.90906   0.92015828    -120.9889    4068.5645    4.2833493    4.2833493    4.2833493    4068.5645    15658.855   -3265.6104   -187.55138    3516.4094   -2027.7201    38737.628     78.58696 
   31400    1046.2945   -121.93681   0.94670921    -120.9901    7712.7751    4.2845834    4.2845834    4.2845834    7712.7751    -1331.976    6522.7283    17947.573   -9842.4956    1778.0421    6315.6071    78.654905 
   31500    486.14799   -121.43705   0.43987692   -120.99718    -18472.94    4.2958019    4.2958019    4.2958019    -18472.94   -25413.222   -42315.306    12309.709   -5475.4303    6768.6868    -31631.52    79.274361 
   31600    568.17718    -121.5119   0.51409866    -120.9978   -5278.7162     4.283054     4.283054     4.283054   -5278.7162   -3394.0399   -27214.979    14772.871    7423.9953    1665.1223   -12418.454    78.570707 
   31700    1416.2907   -122.27003    1.2814896   -120.98854    12435.853    4.2785057    4.2785057    4.2785057    12435.853   -2977.8112    27154.399    13130.971    5822.6397    807.63023    12219.043    78.320659 
   31800    1348.9621   -122.21105    1.2205693   -120.99048   -8952.0055    4.2946925    4.2946925    4.2946925   -8952.0055   -23755.779    9051.0844   -12151.322   -8220.2104    7330.9702    1183.1247    79.212955 
   31900     378.8245   -121.34887   0.34276837    -121.0061   -11114.392    4.2850273    4.2850273    4.2850273   -11114.392   -15970.884   -18074.545    702.25464   -4730.9537    4297.9543     -26218.7    78.679353 
   32000    416.42077   -121.38455   0.37678626   -121.00776   -7477.3505    4.2763584    4.2763584    4.2763584   -7477.3505   -20693.631   -29716.733    27978.313    13712.252    1785.3895   -26280.784      78.2028 
   32100    1209.2239   -122.09393    1.0941312    -120.9998   -4229.4787    4.2871798    4.2871798    4.2871798   -4229.4787   -13309.634   -2817.4291    3438.6265     10848.31   -2096.1182    9353.5577    78.797982 
   32200    1155.7294   -122.03975    1.0457282   -120.99403   -3812.0094      4.29121      4.29121      4.29121   -3812.0094    3704.8956    2080.8523   -17221.776   -6066.8295   -5419.9848    25538.205    79.020415 
   32300    702.72957   -121.63123   0.63584449   -120.99539   -3307.6383    4.2821194    4.2821194    4.2821194   -3307.6383    3774.7733   -15853.306    2155.6182     4878.746    5350.4425   -10051.864    78.519282 
   32400    786.71337   -121.70422   0.71183479   -120.99239    2593.5939    4.2814496    4.2814496    4.2814496    2593.5939   -13219.767   -3105.6804    24106.229    15045.982    516.87569   -28610.597    78.482441 
   32500    929.05175   -121.83151   0.84062555   -120.99089   -4833.9135    4.2889561    4.2889561    4.2889561   -4833.9135   -5788.5774   -3440.8858   -5272.2774    4441.3466   -6389.5494     13893.11    78.895969 
   32600    815.31861   -121.73195   0.73771741   -120.99423   -540.35471     4.282504     4.282504     4.282504   -540.35471    18087.544   -11130.874   -8577.7345   -2730.0339   -5886.9561    51139.753    78.540442 
   32700     955.7353   -121.85839   0.86476938   -120.99362     3920.538    4.2848242    4.2848242    4.2848242     3920.538    9464.8478   -9716.7343      12013.5    952.20526    499.78646    9163.9206    78.668164 
   32800    1284.2242   -122.14987    1.1619931   -120.98788   -5420.6597    4.2890856    4.2890856    4.2890856   -5420.6597    -11548.66   -9165.8031    4452.4843    6139.5683      4092.67   -30784.494    78.903112 
   32900    646.33069   -121.57967   0.58481359   -120.99486    1883.0753     4.284072     4.284072     4.284072    1883.0753    20668.784   -18350.515    3330.9574    5538.2139    -6542.918    21622.741    78.626744 
   33000    465.36154   -121.42066    0.4210689    -120.9996   -14362.052    4.2902897    4.2902897    4.2902897   -14362.052    23398.728    -19099.09   -47385.794   -7868.9625   -8133.6728    58387.369    78.969584 
   33100    1181.7783   -122.06345    1.0692978   -120.99415      2542.62     4.282035     4.282035     4.282035      2542.62    6490.3396    18171.484   -17033.963   -8371.5791   -1275.1148    7467.9089    78.514641 
   33200    1409.7814   -122.26519    1.2755998   -120.98959    19342.008    4.2793691    4.2793691    4.2793691    19342.008    19781.206    24482.857    13761.961     3728.366    5186.9548   -10981.188    78.368087 
   33300    685.67968   -121.62197   0.62041739   -121.00155    -13028.29     4.296441     4.296441     4.296441    -13028.29    21913.695   -24493.586   -36504.979    8799.0845    5010.2315    43079.286    79.309743 
   33400    450.47966   -121.40934   0.40760346   -121.00174   -3597.6531    4.2837618    4.2837618    4.2837618   -3597.6531    13597.409   -18680.671   -5709.6971    4754.5835   -5669.4549    43606.669    78.609666 
   33500    950.76537   -121.85363   0.86027249   -120.99335    14342.678     4.278161     4.278161     4.278161    14342.678    4459.6718    8748.9886    29819.375   -14851.206   -7465.6588    -8274.375    78.301734 
   33600    1144.3811   -122.02285      1.03546   -120.98739   -5646.0757    4.2973218    4.2973218    4.2973218   -5646.0757   -3616.1961   -12202.605   -1119.4257   -12775.785    612.76006   -4186.2328    79.358534 
   33700    905.34468   -121.80689   0.81917489   -120.98771   -6450.9411    4.2905572    4.2905572    4.2905572   -6450.9411     8629.168   -26425.982   -1556.0097    12427.368    73.101724     36664.83    78.984359 
[...]
   91300    513.03037    -121.4643   0.46420066    -121.0001    -2919.949    4.2764622    4.2764622    4.2764622    -2919.949   -8387.1051    14789.124   -15161.866    9476.1442    39862.602    12542.826    78.208494 
   91400    1054.8478   -121.95085   0.95444843    -120.9964   -461.03537     4.283811     4.283811     4.283811   -461.03537   -2933.9533     4864.574   -3313.7267    8632.1025    6618.2695   -18589.985    78.612374 
   91500    1439.2231   -122.29065    1.3022393   -120.98841    4246.9704    4.2835363    4.2835363    4.2835363    4246.9704    15686.171    605.76346   -3551.0235   -2521.9506   -12009.628   -3610.1156     78.59725 
   91600     700.8811   -121.63335   0.63417195   -120.99918    5998.7171    4.2766746    4.2766746    4.2766746    5998.7171    9359.9735    15454.747   -6818.5693   -3716.2544    24377.118    24758.139    78.220144 
   91700    354.84205   -121.32553   0.32106854   -121.00446   -14534.355     4.285707     4.285707     4.285707   -14534.355    -25019.05    8877.5762   -27461.592    11522.551    39137.402    18921.208      78.7168 
   91800    1111.9895   -122.00455    1.0061515    -120.9984    2199.4949    4.2800775    4.2800775    4.2800775    2199.4949   -7160.9587    14106.471   -347.02767    16388.098    4315.1822   -3315.2839    78.407013 
   91900    1527.9248   -122.37121    1.3824985   -120.98871    13999.629    4.2765815    4.2765815    4.2765815    13999.629      17560.1    11402.679    13036.109   -2507.5173   -10517.097   -4983.3357    78.215038 
   92000    711.01096   -121.64678   0.64333766   -121.00345   -12181.306    4.2858501    4.2858501    4.2858501   -12181.306   -11244.963    -859.5064   -24439.449   -14851.733    22701.688    16472.081    78.724683 
   92100    283.57557   -121.26407   0.25658513   -121.00748   -8919.3254    4.2782877    4.2782877    4.2782877   -8919.3254    -15782.09    8068.0869   -19043.973    2883.0463      39054.4    23155.998    78.308691 
   92200    1002.5694    -121.9071   0.90714582   -120.99996    1401.3769    4.2791675    4.2791675    4.2791675    1401.3769    1382.5736   -2189.5609    5011.1182    18151.734    8491.6177    2894.1502    78.357008 
   92300    1397.8557   -122.25379    1.2648092   -120.98898   -2901.9583    4.2859174    4.2859174    4.2859174   -2901.9583    4728.7948   -13237.541   -197.12855    3008.4713   -12073.412   -18991.965    78.728395 
   92400    790.86074   -121.71123   0.71558742   -120.99564   -2135.4786    4.2789648    4.2789648    4.2789648   -2135.4786    -799.7331    7078.9776    -12685.68   -13937.509    19835.341   -1536.2513    78.345876 
   92500    559.67042   -121.50463   0.50640156   -120.99823   -8138.6535    4.2806159    4.2806159    4.2806159   -8138.6535   -6640.4867    7389.2694   -25164.743   -6703.9488    38593.933    25683.282    78.436605 
   92600    1071.2962   -121.96129    0.9693313   -120.99196    -1879.486     4.281157     4.281157     4.281157    -1879.486    6175.3423   -2269.9702   -9543.8301      5028.14    3457.7966    5338.0624    78.466354 
   92700    1124.9343   -122.00786    1.0178642      -120.99    6732.9014    4.2778002    4.2778002    4.2778002    6732.9014    22565.019    3694.8229   -6061.1377    6204.6339   -16396.411   -28527.779    78.281924 
   92800    616.19443   -121.55507   0.55754567   -120.99752   -5876.7016    4.2832062    4.2832062    4.2832062   -5876.7016    6771.0362    6330.2845   -30731.425    708.50922    20856.711   -16707.293    78.579082 
   92900      675.802   -121.60785   0.61147985   -120.99637   -1444.4974    4.2809369    4.2809369    4.2809369   -1444.4974   -4539.1963    15897.438   -15691.734    -9919.009     41029.83     15810.66    78.454249 
   93000    1142.5655   -122.02355    1.0338173   -120.98974    8266.9125    4.2779722    4.2779722    4.2779722    8266.9125    12311.132    6960.8417    5528.7639   -9649.9749    4501.5225    5055.6474    78.291367 
   93100    1120.2359   -122.00454     1.013613   -120.99092    1537.2128     4.281162     4.281162     4.281162    1537.2128    27479.921   -10726.753   -12141.529   -875.33058   -15456.436    -27688.17    78.466628 
   93200    719.24813   -121.64807   0.65079082   -120.99728   -2797.1099    4.2798575    4.2798575    4.2798575   -2797.1099    8846.1635    8134.4963    -25371.99    5830.0809    23991.476   -22115.006    78.394921 
   93300    772.13768   -121.69615    0.6986464   -120.99751   -3507.8787    4.2796545    4.2796545    4.2796545   -3507.8787   -11785.608     17854.22   -16592.248   -2443.6882    40625.689    5608.6057    78.383766 
   93400    1127.7601   -122.01237    1.0204211   -120.99195    1529.8439    4.2802515    4.2802515    4.2802515    1529.8439    8479.4525   -12769.081    8879.1607   -19459.576    1074.0252    2493.6812    78.416572 
   93500    1029.9744   -121.92382   0.93194251   -120.99188   -459.57991    4.2803005    4.2803005    4.2803005   -459.57991    25433.172   -25564.168   -1247.7436   -13165.126   -8219.5276    -23851.09     78.41927 
   93600    708.40489   -121.63689   0.64097963   -120.99591    -8772.962    4.2801714    4.2801714    4.2801714    -8772.962    11554.102    3516.6732   -41389.662    4929.1563    34230.767   -22885.818    78.412169 
   93700    829.39265   -121.74508    0.7504519   -120.99463   -3196.7629    4.2791002    4.2791002    4.2791002   -3196.7629   -189.43405    19373.349   -28774.204   -1324.1001     39190.08    4665.9523    78.353311 
   93800    1087.1505   -121.97335   0.98367657   -120.98968   -2355.9325    4.2818936    4.2818936    4.2818936   -2355.9325    1581.6552   -14074.335    5424.8819   -15366.748   -2709.1806    4384.3218    78.506862 
   93900    870.46542   -121.78065   0.78761541   -120.99303   -3912.2884    4.2801293    4.2801293    4.2801293   -3912.2884    17027.086   -25964.267   -2799.6838   -13411.901   -9241.4567   -21467.441    78.409858 
   94000    529.75746   -121.47697   0.47933568   -120.99763   -3668.7371    4.2783525    4.2783525    4.2783525   -3668.7371    8820.5827    582.51298   -20409.307    2441.8553     34207.14    -23911.54    78.312249 
   94100     805.9278   -121.72605   0.72922041   -120.99683   -3572.0998    4.2822714    4.2822714    4.2822714   -3572.0998   -2968.5879    8849.6967   -16597.408    4238.2696    38559.806    3860.9876    78.527643 
   94200    1245.1494   -122.11691    1.1266373   -120.99027    7288.7481    4.2785196    4.2785196    4.2785196    7288.7481    16430.502    -1611.271    7047.0131   -8188.8671   -4555.4467    15924.096    78.321425 
   94300    1066.2248   -121.95761   0.96474257   -120.99286    4100.2647    4.2796875    4.2796875    4.2796875    4100.2647    14048.617   -13382.497    11634.674   -9018.6825   -6344.6524   -14082.466    78.385579 
   94400    591.17814   -121.53408    0.5349104   -120.99917   -12420.211    4.2841438    4.2841438    4.2841438   -12420.211   -5445.3789   -8390.6648   -23424.589   -1187.8961    31356.205   -30030.744    78.630694 
   94500    743.56782   -121.67129   0.67279579    -120.9985   -233.72301      4.27696      4.27696      4.27696   -233.72301    13485.946    11269.796   -25456.911    3605.2455    33954.878    2970.4839    78.235807 
   94600    1299.2475   -122.16729    1.1755865    -120.9917    5771.4761    4.2795225    4.2795225    4.2795225    5771.4761      23369.8   -925.30341   -5130.0677    726.14022   -2813.7685    27186.374    78.376514 
   94700    1239.0251   -122.11271    1.1210959   -120.99162   -937.52177     4.284011     4.284011     4.284011   -937.52177    21763.143   -16150.351   -8425.3577   -5157.5379   -7193.8206   -6094.1716    78.623383 
   94800    567.81763   -121.51452   0.51377332   -121.00074   -2441.3863    4.2761395    4.2761395    4.2761395   -2441.3863    17601.997    1286.7286   -26212.884    -5986.988    32532.596   -36612.018    78.190787 
   94900    510.87793    -121.4665   0.46225309   -121.00425   -8331.5431    4.2798782    4.2798782    4.2798782   -8331.5431   -404.00152    5177.6143   -29768.242   -4938.4985    31563.683   -6863.1375    78.396056 
   95000    1214.5458   -122.09288    1.0989466   -120.99394   -2116.1334    4.2838248    4.2838248    4.2838248   -2116.1334    7640.3469   -5462.2754   -8526.4717    1118.4723   -5185.2504    23953.816    78.613133 
   95100     1236.444   -122.10986    1.1187606    -120.9911    8864.2617    4.2773418    4.2773418    4.2773418    8864.2617     31263.98   -4620.9923    -50.20226    3973.2699   -5290.0784   -4513.5893    78.256758 
   95200    483.35199   -121.43864   0.43734704    -121.0013   -8666.0381    4.2809422    4.2809422    4.2809422   -8666.0381    7575.6748     404.1544   -33977.943   -232.81172    31454.574   -36248.408    78.454541 
   95300    504.64867   -121.45775   0.45661673   -121.00113   -9786.3007     4.282191     4.282191     4.282191   -9786.3007   -3329.1283    8258.1746   -34287.949   -6150.6793    31389.547    -14442.17     78.52322 
   95400    1159.6061   -122.04122     1.049236   -120.99199    7360.0964    4.2781224    4.2781224    4.2781224    7360.0964    12312.964    2777.0761    6990.2488   -2902.7213   -6889.0699    15371.111    78.299615 
   95500    1137.6118    -122.0214     1.029335   -120.99206    2310.8226     4.280382     4.280382     4.280382    2310.8226     11332.38   -10990.416    6590.5036    13069.884   -7902.8541   -5810.2342    78.423748 
   95600    601.27195   -121.54387    0.5440435   -120.99983   -4559.0163    4.2796789    4.2796789    4.2796789   -4559.0163    12236.253   -3681.1138   -22232.188    11923.589    25976.647   -33369.667    78.385107 
   95700    789.58796    -121.7119   0.71443578   -120.99747   -4869.9347    4.2819835    4.2819835    4.2819835   -4869.9347    7152.0805    1674.7714   -23436.656   -5747.7514    28980.984   -16224.535    78.511805 
   95800    1264.4776   -122.13227    1.1441259   -120.98814   -991.19804    4.2832893    4.2832893    4.2832893   -991.19804    -1722.413   -6336.0957    5084.9146   -4586.9649   -3380.0422    13023.825    78.583655 
   95900    1061.8092   -121.95098   0.96074724   -120.99024      2694.64    4.2777369    4.2777369    4.2777369      2694.64    9981.8376   -19930.051    18032.133    18384.314   -10308.171   -6212.0923    78.278449 
   96000    587.13377   -121.52815   0.53125097    -120.9969   -6068.8028    4.2801817    4.2801817    4.2801817   -6068.8028    12872.957   -23041.271   -8038.0937    19672.385    18066.919   -34086.749    78.412736 
   96100    816.57116   -121.73596   0.73885074   -120.99711   -5550.0477    4.2823391    4.2823391    4.2823391   -5550.0477    13278.378   -4245.7103    -25682.81    -5357.319    20886.772   -13332.324    78.531368 
   96200    1200.5361   -122.07597    1.0862703    -120.9897    4963.5311    4.2790015    4.2790015    4.2790015    4963.5311     15860.06    379.29277   -1348.7592   -2729.2783    855.95203    19148.004    78.347889 
   96300    1002.3122   -121.89857   0.90691317   -120.99166     1303.896    4.2812506    4.2812506    4.2812506     1303.896    8196.8498    -22563.06    18277.898    19033.633    -5403.678   -1131.0948      78.4715 
   96400    553.95543   -121.49742   0.50123052   -120.99619   -5773.8521    4.2826053    4.2826053    4.2826053   -5773.8521    8071.2272   -23895.499   -1497.2845    19942.929    9968.5993   -37022.407    78.546015 
   96500    694.59984   -121.62311   0.62848853   -120.99462   -1840.5209    4.2800107    4.2800107    4.2800107   -1840.5209    18978.365   -7462.3108   -17037.617   -1221.4827      19200.3   -13114.596    78.403339 
   96600    1179.4553   -122.05589    1.0671959   -120.98869    3256.1249     4.279931     4.279931     4.279931    3256.1249    13522.661   -2481.0795   -1273.2063   -7367.1122    3047.6272     28186.04    78.398959 
   96700    1115.8317   -121.99985     1.009628   -120.99022    2155.5691     4.280602     4.280602     4.280602    2155.5691     8322.481    -11487.51    9631.7359    17542.622   -8143.7898     3022.093     78.43584 
   96800    608.78779   -121.54991   0.55084398   -120.99907   -4862.7594    4.2800797    4.2800797    4.2800797   -4862.7594    11798.576   -20828.528   -5558.3261    23863.275    4455.0748   -39988.442    78.407133 
   96900    666.83792   -121.60321   0.60336897   -120.99984   -4993.5882    4.2806896    4.2806896    4.2806896   -4993.5882    10984.833     -5638.22   -20327.378    5136.2694    18102.881   -24849.059    78.440656 
   97000     1353.485   -122.21483    1.2246616   -120.99017    1204.5244    4.2819583    4.2819583    4.2819583    1204.5244    938.17989    14826.959   -12151.565   -5849.9327    12963.968    15693.492    78.510422 
   97100    1216.8833   -122.09262    1.1010615   -120.99156   -712.45164    4.2815628    4.2815628    4.2815628   -712.45164    5688.1748   -4591.2942   -3234.2356    6554.9814   -6498.4012    740.57427     78.48867 
   97200    365.83759   -121.33342   0.33101754   -121.00241    -9889.654     4.280568     4.280568     4.280568    -9889.654    6104.6414   -16688.355   -19085.249     22699.32    1506.2067   -41902.907     78.43397 
   97300    508.59317   -121.46474   0.46018579   -121.00455   -8741.9634     4.282069     4.282069     4.282069   -8741.9634    -8630.492    12334.891   -29930.289    8107.5006    17065.425   -26306.506    78.516509 
   97400    1386.8282   -122.24679    1.2548313   -120.99196    3174.9813    4.2813394    4.2813394    4.2813394    3174.9813   -5980.9064    27751.482   -12245.632   -6777.0836    11577.854    13133.564    78.476385 
   97500     1273.599   -122.14473    1.1523791   -120.99236    5178.0214    4.2781015    4.2781015    4.2781015    5178.0214    10345.074   -4.0465311    5193.0368    6779.5588   -3495.8284    779.12875    78.298466 
   97600    564.25477   -121.51227   0.51054957   -121.00172   -8675.7176    4.2820865    4.2820865    4.2820865   -8675.7176     2054.587   -30376.789    2295.0488    21298.712    676.26438   -34592.484    78.517473 
   97700    635.51962   -121.57339   0.57503151   -120.99835   -6150.1752    4.2830861    4.2830861    4.2830861   -6150.1752   -5731.4908   -6412.1424   -6306.8923    12581.201    17109.845   -28145.839    78.572472 
   97800    1117.2406   -121.99988    1.0109027   -120.98898    4121.5522    4.2800236    4.2800236    4.2800236    4121.5522    6355.7354    11332.973   -5324.0513   -6703.7134    10680.761    21090.143     78.40405 
   97900    980.44343   -121.87689   0.88712582   -120.98976   -125.53968    4.2803692    4.2803692    4.2803692   -125.53968    15749.384   -20379.278    4253.2752    431.78711   -4174.0104    24456.663    78.423042 
   98000    738.35437   -121.66166   0.66807855   -120.99358    456.59576    4.2794513    4.2794513    4.2794513    456.59576    10437.899   -19578.908    10510.797    20458.472   -1838.6449   -18225.742    78.372604 
   98100    874.51488   -121.78463   0.79127944   -120.99335   -584.37475    4.2809103    4.2809103    4.2809103   -584.37475   -3354.4901    1030.0569    571.30896    13649.141    15004.793   -27390.585    78.452788 
   98200     918.9112   -121.82485   0.83145017    -120.9934   -408.79747    4.2791011    4.2791011    4.2791011   -408.79747     3045.268    6521.4186   -10793.079   -6703.1639      21088.7    14639.333    78.353363 
   98300    839.49014   -121.75499   0.75958832    -120.9954    342.31546    4.2784447    4.2784447    4.2784447    342.31546    16359.904   -9453.2446   -5879.7132   -9341.5474    469.90168    37010.346    78.317312 
   98400    1008.7447   -121.90518    0.9127334   -120.99245   -5034.2913    4.2845727    4.2845727    4.2845727   -5034.2913    5236.3427   -17512.387   -2826.8293    10403.454   -10337.532   -889.77436    78.654315 
   98500    1106.3175   -121.98917    1.0010194   -120.98815    371.28411    4.2810077    4.2810077    4.2810077    371.28411   -2543.9103    7196.9793   -3539.2166        12653    16391.861   -20990.822    78.458143 
   98600    709.27982   -121.63521   0.64177128   -120.99344   -1822.3558    4.2774352    4.2774352    4.2774352   -1822.3558    209.98312    13220.808   -18897.858   -8382.7193    34667.177    14321.505    78.261887 
   98700    651.65115   -121.58648   0.58962765   -120.99685   -9549.9987    4.2817048    4.2817048    4.2817048   -9549.9987    4117.5339   -11325.469   -21442.061   -10589.015    4153.0568    32231.181    78.496475 
   98800    1095.3244   -121.98339   0.99107257   -120.99231    312.81967    4.2802936    4.2802936    4.2802936    312.81967    5034.9181   -8387.1323    4290.6732    1057.0544   -20175.071    11599.288     78.41889 
   98900     1161.414    -122.0427    1.0508718   -120.99183    3585.1124    4.2793312    4.2793312    4.2793312    3585.1124   -11287.266    17211.253    4831.3504    7644.4115    17203.917   -11161.315    78.366005 
   99000    783.34602   -121.70583   0.70878794   -120.99704   -2753.0628    4.2801421    4.2801421    4.2801421   -2753.0628   -14529.306    19529.984   -13259.867   -95.404245    47338.641    7243.2784    78.410562 
   99100    759.42878   -121.68382   0.68714712   -120.99668    516.02433    4.2801885    4.2801885    4.2801885    516.02433    6060.2801   -2859.3611    -1652.846   -7822.6508    8917.5851    32248.385    78.413111 
   99200    1085.7097   -121.97239   0.98237292   -120.99001    544.30958    4.2827134    4.2827134    4.2827134    544.30958    -1125.127   -7395.7834    10153.839   -1006.5246   -23808.796    14986.906    78.551964 
   99300    902.42033   -121.80772   0.81652888   -120.99119    552.64731    4.2788991    4.2788991    4.2788991    552.64731   -33899.237    26155.662    9401.5176    3800.3741    19949.615   -8161.6393    78.342268 
   99400    602.11892   -121.54164   0.54480985   -120.99683   -2787.6047    4.2772326    4.2772326    4.2772326   -2787.6047   -32485.214    31168.962   -7046.5619    4075.3501    49523.479    879.33668    78.250767 
   99500    866.75495   -121.77967    0.7842581   -120.99541   -4581.2824    4.2818425    4.2818425    4.2818425   -4581.2824    -4202.777   -2866.0029   -6675.0674     340.3313    10516.789    30057.348    78.504052 
   99600    1231.4255   -122.10405    1.1142197   -120.98983    1831.6115    4.2802089    4.2802089    4.2802089    1831.6115    2656.3459   -10424.019    13262.508   -3334.6131   -13278.698    23790.807    78.414234 
   99700     852.4708   -121.76787    0.7713335   -120.99653   -2222.7182    4.2784657    4.2784657    4.2784657   -2222.7182    -31847.21    25275.253   -96.198206    46.621816    28737.688   -9390.3504    78.318465 
   99800     549.6093   -121.49832   0.49729804   -121.00103   -6557.3692    4.2798431    4.2798431    4.2798431   -6557.3692   -44493.151    34032.543   -9211.4997    2869.9249     40886.94   -3621.1129     78.39413 
   99900    1005.2395   -121.90574   0.90956184   -120.99618    1422.4103    4.2812628    4.2812628    4.2812628    1422.4103   -10987.053    886.74462    14367.539    6002.6092   -6623.7228    17055.719    78.472169 
  100000    1352.9123   -122.21384    1.2241435    -120.9897    5193.6177    4.2805599    4.2805599    4.2805599    5193.6177    954.96274   -9045.6571    23671.547    1374.9902   -6650.1429    13774.712    78.433524 
Loop time of 22.6666 on 1 procs for 100000 steps with 8 atoms

Pair  time (%) = 7.36446 (32.4904)
Kspce time (%) = 5.4134 (23.8827)
Neigh time (%) = 0 (0)
Comm  time (%) = 1.07492 (4.74232)
Outpt time (%) = 0.0397019 (0.175156)
Other time (%) = 8.77409 (38.7094)

Nlocal:    8 ave 8 max 8 min
Histogram: 1 0 0 0 0 0 0 0 0 0
Nghost:    2189 ave 2189 max 2189 min
Histogram: 1 0 0 0 0 0 0 0 0 0
Neighs:    2344 ave 2344 max 2344 min
Histogram: 1 0 0 0 0 0 0 0 0 0

Total # of neighbors = 2344
Ave neighs/atom = 293
Neighbor list builds = 0
Dangerous builds = 0
unfix 20
unfix 21
print "seeds:9629373"
seeds:9629373
