LAMMPS (11 Aug 2017)
Reading data file ...
  triclinic box = (0 0 0) to (3.5167 3.5167 3.5167) with tilt (0 -0 0)
  1 by 1 by 1 MPI processor grid
  reading atoms ...
  4 atoms
4 atoms in group Ni
Neighbor list info ...
  update every 1 steps, delay 0 steps, check yes
  max neighbors/atom: 2000, page size: 100000
  master list distance cutoff = 11
  ghost atom cutoff = 11
  binsize = 5.5, bins = 1 1 1
  1 neighbor lists, perpetual/occasional/extra = 1 0 0
  (1) pair eam/alloy, perpetual
      attributes: half, newton on
      pair build: half/bin/newton/tri
      stencil: half/bin/3d/newton/tri
      bin: standard
Setting up cg style minimization ...
  Unit style    : metal
  Current step  : 0
WARNING: Energy due to 3 extra global DOFs will be included in minimizer energies
Per MPI rank memory allocation (min/avg/max) = 4.307 | 4.307 | 4.307 Mbytes
Step PotEng Xhi Xlo Yhi Ylo Zhi Xy Xz Yz Press Pxx Pyy Pzz Pxy Pxz Pyz c_eatoms 
       0    -18.05511       3.5167            0       3.5167            0       3.5167            0           -0            0   -10213.687   -10213.687   -10213.687   -10213.687 -3.8933043e-11 -4.8564346e-11 8.7128376e-11    -18.05511 
      10   -18.055873    3.5134823 0.0032177323    3.5134823 0.0032177323    3.5134823            0           -0            0 9.4826832e-10 9.8768947e-10 8.9239212e-10 9.6472336e-10 4.8645537e-11 -6.7825558e-11 -3.6495833e-11   -18.055873 
      15   -18.055873    3.5134823 0.0032177323    3.5134823 0.0032177323    3.5134823            0           -0            0 2.8894979e-10 2.1845736e-10 2.6680527e-10 3.8158673e-10 6.579531e-11 -4.6357665e-11 -9.889631e-11   -18.055873 
Loop time of 0.00297284 on 1 procs for 15 steps with 4 atoms

99.4% CPU use with 1 MPI tasks x no OpenMP threads

Minimization stats:
  Stopping criterion = energy tolerance
  Energy initial, next-to-last, final = 
        -18.0551099951     -18.0558734296     -18.0558734296
  Force two-norm initial, final = 0.48022 1.7289e-14
  Force max component initial, final = 0.277254 1.03204e-14
  Final line search alpha, max atom move = 1 1.03204e-14
  Iterations, force evaluations = 15 29

MPI task timing breakdown:
Section |  min time  |  avg time  |  max time  |%varavg| %total
---------------------------------------------------------------
Pair    | 0.0020421  | 0.0020421  | 0.0020421  |   0.0 | 68.69
Neigh   | 0          | 0          | 0          |   0.0 |  0.00
Comm    | 0.00023055 | 0.00023055 | 0.00023055 |   0.0 |  7.76
Output  | 1.6928e-05 | 1.6928e-05 | 1.6928e-05 |   0.0 |  0.57
Modify  | 0          | 0          | 0          |   0.0 |  0.00
Other   |            | 0.0006833  |            |       | 22.99

Nlocal:    4 ave 4 max 4 min
Histogram: 1 0 0 0 0 0 0 0 0 0
Nghost:    1684 ave 1684 max 1684 min
Histogram: 1 0 0 0 0 0 0 0 0 0
Neighs:    1060 ave 1060 max 1060 min
Histogram: 1 0 0 0 0 0 0 0 0 0

Total # of neighbors = 1060
Ave neighs/atom = 265
Neighbor list builds = 0
Dangerous builds = 0
pypospack:output_section:begin
tot_energy = -18.0558734296317
num_atoms = 4
a11 = 3.51026453541847
a22 = 3.51026453541847
a33 = 3.51026453541847
a12 = 0
a13 = -0
a23 = 0
tot_press = 2.88949787704142e-10
pxx = 2.1845736167942e-10
pyy = 2.66805270695646e-10
pzz = 3.8158673073736e-10
pxy = 6.57953099190952e-11
pxz = -4.63576647874477e-11
pyz = -9.88963097125103e-11
pypospack:output_section:done
pypospack:lammps_sim:done
Total wall time: 0:00:00
