LAMMPS (11 Aug 2017)
# ---- initialize simulations
clear
units metal
dimension 3
boundary p p p
atom_style atomic
atom_modify map array
# ---- create atoms
read_data /ufrc/phillpot/eragasa/pareto_optimization_3.5NN/rank_35/Ni_fcc_110_s.lmps_min_pos/lammps.structure
  triclinic box = (0 0 0) to (3.337 2.3887 23.8873) with tilt (0 0 0)
  1 by 1 by 1 MPI processor grid
  reading atoms ...
  10 atoms
# ---- define interatomic potential
include potential.mod
mass 1 58.6934

group Ni type 1
10 atoms in group Ni

pair_style eam/alloy
pair_coeff * * /ufrc/phillpot/eragasa/pareto_optimization_3.5NN/rank_35/Ni_fcc_110_s.lmps_min_pos/Ni.eam.alloy Ni

neighbor 1.0 bin
neigh_modify every 1 delay 0 check yes
# ---- define settings
compute eng all pe/atom
compute eatoms all reduce sum c_eng

# ---- run minimization
reset_timestep 0
thermo 1
thermo_style custom step pe lx ly lz xy xz yz press pxx pyy pzz pxy pxz pyz c_eatoms
min_style cg
minimize 1e-20 1e-20 1000 100000
Neighbor list info ...
  update every 1 steps, delay 0 steps, check yes
  max neighbors/atom: 2000, page size: 100000
  master list distance cutoff = 5.64464
  ghost atom cutoff = 5.64464
  binsize = 2.82232, bins = 2 1 9
  1 neighbor lists, perpetual/occasional/extra = 1 0 0
  (1) pair eam/alloy, perpetual
      attributes: half, newton on
      pair build: half/bin/newton/tri
      stencil: half/bin/3d/newton/tri
      bin: standard
Per MPI rank memory allocation (min/avg/max) = 4.214 | 4.214 | 4.214 Mbytes
Step PotEng Lx Ly Lz Xy Xz Yz Press Pxx Pyy Pzz Pxy Pxz Pyz c_eatoms 
       0   -52.293367        3.337       2.3887      23.8873            0            0            0   -40239.919   -45979.496   -42062.607   -32677.653 5.2548247e-12 3.6199904e-12    -1.219012   -52.293367 
       1   -52.318317        3.337       2.3887      23.8873            0            0            0   -32907.527   -38342.989   -37605.824   -22773.768 1.1210293e-11 -1.2845127e-12  -0.40956983   -52.318317 
       2   -52.328497        3.337       2.3887      23.8873            0            0            0   -28708.423   -34316.168   -35354.291   -16454.809 8.7580412e-12 1.8975756e-12 -0.056950533   -52.328497 
       3   -52.341855        3.337       2.3887      23.8873            0            0            0   -20500.404   -27010.141    -31286.93   -3204.1415 1.0392876e-11 -5.021277e-12 -0.044742261   -52.341855 
       4   -52.343196        3.337       2.3887      23.8873            0            0            0   -19733.767   -26422.098   -30976.234   -1802.9691 9.3419106e-13 5.8386941e-13 -0.047560242   -52.343196 
       5   -52.343261        3.337       2.3887      23.8873            0            0            0    -19533.89   -26332.035   -30934.301   -1335.3335 1.9384465e-11 5.2256312e-12 -0.091958793   -52.343261 
       6   -52.343315        3.337       2.3887      23.8873            0            0            0   -19192.844   -26040.581   -30774.304   -763.64617 1.985156e-12 -2.5982189e-12  -0.18861755   -52.343315 
       7   -52.343349        3.337       2.3887      23.8873            0            0            0   -18762.281   -25626.217   -30538.715   -121.91143 1.1910936e-11 -1.2553192e-12  -0.22071913   -52.343349 
       8   -52.343351        3.337       2.3887      23.8873            0            0            0   -18709.684   -25580.936    -30513.34   -34.775711 8.5244934e-12 6.510144e-12  -0.17442431   -52.343351 
       9   -52.343351        3.337       2.3887      23.8873            0            0            0   -18701.453   -25573.267   -30508.927   -22.165476 7.4735285e-12 -3.1528948e-12  -0.14390002   -52.343351 
      10   -52.343351        3.337       2.3887      23.8873            0            0            0   -18695.956   -25568.841   -30506.531   -12.496154 2.6857993e-12 -2.6274124e-12 -0.088322784   -52.343351 
      11   -52.343351        3.337       2.3887      23.8873            0            0            0   -18690.872   -25564.625   -30504.207   -3.7847463 1.1327067e-11 5.2548247e-13 -0.077095046   -52.343351 
      12   -52.343351        3.337       2.3887      23.8873            0            0            0   -18688.491   -25562.177    -30502.79   -0.5059531 1.0626423e-11 3.4448295e-12 -0.086988156   -52.343351 
      13   -52.343351        3.337       2.3887      23.8873            0            0            0   -18688.495   -25562.159   -30502.779   -0.5456858 5.8386941e-12 -2.9485405e-12 -0.091284124   -52.343351 
      14   -52.343351        3.337       2.3887      23.8873            0            0            0   -18688.463   -25562.149   -30502.776  -0.46337773 7.940624e-12 1.2553192e-12 -0.096824956   -52.343351 
      15   -52.343351        3.337       2.3887      23.8873            0            0            0   -18688.323    -25562.04   -30502.717  -0.21066194 6.6561113e-12 1.1093519e-12 -0.099295645   -52.343351 
      16   -52.343351        3.337       2.3887      23.8873            0            0            0   -18688.194   -25561.912   -30502.643 -0.025619868 1.0976745e-11 -5.8386941e-14  -0.09569339   -52.343351 
      17   -52.343351        3.337       2.3887      23.8873            0            0            0   -18688.178   -25561.897   -30502.635 -0.0039283055 1.0392876e-11 4.4374075e-12 -0.089329555   -52.343351 
      18   -52.343351        3.337       2.3887      23.8873            0            0            0    -18688.17   -25561.895   -30502.634  0.019046411 9.6922323e-12 1.7516082e-12 -0.081684992   -52.343351 
      19   -52.343351        3.337       2.3887      23.8873            0            0            0   -18688.157   -25561.881   -30502.626  0.036500932 1.0392876e-11 -4.9336965e-12  -0.07351876   -52.343351 
      20   -52.343351        3.337       2.3887      23.8873            0            0            0   -18688.136   -25561.854    -30502.61  0.057460667 2.3705098e-11 1.1093519e-11 -0.029616477   -52.343351 
      21   -52.343351        3.337       2.3887      23.8873            0            0            0   -18688.137   -25561.861   -30502.615  0.066222433 1.6581891e-11 -2.3646711e-12 -0.0099133743   -52.343351 
      22   -52.343351        3.337       2.3887      23.8873            0            0            0   -18688.149   -25561.875   -30502.623  0.050564481 -1.0976745e-11 6.7144982e-13 -0.0041101724   -52.343351 
      23   -52.343351        3.337       2.3887      23.8873            0            0            0   -18688.161   -25561.883   -30502.627  0.029112371 -9.92578e-12 1.3954479e-11 -0.0022652601   -52.343351 
      24   -52.343351        3.337       2.3887      23.8873            0            0            0   -18688.176   -25561.897   -30502.635 0.0045745998 -1.9968334e-11 2.8463634e-11 -0.00026003825   -52.343351 
      25   -52.343351        3.337       2.3887      23.8873            0            0            0   -18688.178   -25561.899   -30502.636 0.0023380836 1.8099952e-11 1.9588819e-11 -1.1795811e-05   -52.343351 
      26   -52.343351        3.337       2.3887      23.8873            0            0            0   -18688.178   -25561.899   -30502.636 0.0013838497 2.5223159e-11 -1.480109e-11 1.7209171e-07   -52.343351 
      27   -52.343351        3.337       2.3887      23.8873            0            0            0   -18688.178     -25561.9   -30502.637 0.00091206713 4.9045031e-12 4.9336965e-12 -9.562716e-07   -52.343351 
      28   -52.343351        3.337       2.3887      23.8873            0            0            0   -18688.179     -25561.9   -30502.637 0.00042092544 1.623157e-11 6.5159826e-11 -1.8297729e-06   -52.343351 
      29   -52.343351        3.337       2.3887      23.8873            0            0            0   -18688.179     -25561.9   -30502.637 0.00011398811 2.9310245e-11 -1.7136567e-11 -7.2402248e-07   -52.343351 
      30   -52.343351        3.337       2.3887      23.8873            0            0            0   -18688.179     -25561.9   -30502.637 6.7355256e-05 3.7484416e-11 -3.9732314e-11 -1.1529494e-08   -52.343351 
      31   -52.343351        3.337       2.3887      23.8873            0            0            0   -18688.179     -25561.9   -30502.637 5.1886172e-05 -8.4077195e-12 4.180505e-11 1.432192e-07   -52.343351 
      32   -52.343351        3.337       2.3887      23.8873            0            0            0   -18688.179     -25561.9   -30502.637 2.5284947e-05 1.9384465e-11 -1.7136567e-11 4.1509793e-07   -52.343351 
      33   -52.343351        3.337       2.3887      23.8873            0            0            0   -18688.179     -25561.9   -30502.637 4.0459745e-07 -4.2155372e-11 -1.5122218e-11 4.8835731e-07   -52.343351 
      34   -52.343351        3.337       2.3887      23.8873            0            0            0   -18688.179     -25561.9   -30502.637 1.2687739e-07 9.5754584e-12 -2.1544781e-11 3.1941294e-07   -52.343351 
      35   -52.343351        3.337       2.3887      23.8873            0            0            0   -18688.179     -25561.9   -30502.637 4.7762853e-09 6.5393374e-12 -1.9150917e-11 2.4584604e-07   -52.343351 
      36   -52.343351        3.337       2.3887      23.8873            0            0            0   -18688.179     -25561.9   -30502.637 -3.1867593e-09 3.4448295e-11 9.5170714e-12 2.3295403e-07   -52.343351 
      37   -52.343351        3.337       2.3887      23.8873            0            0            0   -18688.179     -25561.9   -30502.637 -4.5854768e-09 -3.2579913e-11 -5.2078232e-10 1.9058251e-07   -52.343351 
      38   -52.343351        3.337       2.3887      23.8873            0            0            0   -18688.179     -25561.9   -30502.637 -5.6868881e-10 1.9501238e-11 8.9159779e-10 1.699363e-07   -52.343351 
      39   -52.343351        3.337       2.3887      23.8873            0            0            0   -18688.179     -25561.9   -30502.637 6.1432404e-09 -1.412964e-11 9.6005648e-10 1.2038348e-07   -52.343351 
      40   -52.343351        3.337       2.3887      23.8873            0            0            0   -18688.179     -25561.9   -30502.637 9.7660333e-09 3.7250869e-11 -1.4676142e-09  2.38064e-08   -52.343351 
      41   -52.343351        3.337       2.3887      23.8873            0            0            0   -18688.179     -25561.9   -30502.637 1.2448096e-09 1.1910936e-11 9.2187142e-10 7.7404152e-09   -52.343351 
      42   -52.343351        3.337       2.3887      23.8873            0            0            0   -18688.179     -25561.9   -30502.637 2.0335004e-09 1.0042554e-11 -2.9543792e-11 5.9008178e-09   -52.343351 
      43   -52.343351        3.337       2.3887      23.8873            0            0            0   -18688.179     -25561.9   -30502.637 2.1878755e-09 3.1295401e-11 -2.6857993e-12 5.3474848e-09   -52.343351 
      44   -52.343351        3.337       2.3887      23.8873            0            0            0   -18688.179     -25561.9   -30502.637 1.0556359e-09 -1.8450273e-11 6.6415146e-11 4.9319449e-09   -52.343351 
      45   -52.343351        3.337       2.3887      23.8873            0            0            0   -18688.179     -25561.9   -30502.637 1.1331738e-09 4.6709553e-11 -4.1542309e-11 4.7128771e-09   -52.343351 
      46   -52.343351        3.337       2.3887      23.8873            0            0            0   -18688.179     -25561.9   -30502.637 5.4183082e-10 4.2038598e-12 7.2691742e-11 4.4363566e-09   -52.343351 
      47   -52.343351        3.337       2.3887      23.8873            0            0            0   -18688.179     -25561.9   -30502.637 -1.068481e-09  1.56477e-11 1.4158833e-11 3.835263e-09   -52.343351 
Loop time of 0.0392659 on 1 procs for 47 steps with 10 atoms

6.5% CPU use with 1 MPI tasks x no OpenMP threads

Minimization stats:
  Stopping criterion = energy tolerance
  Energy initial, next-to-last, final = 
         -52.293366958     -52.3433507761     -52.3433507761
  Force two-norm initial, final = 0.618448 1.54353e-13
  Force max component initial, final = 0.42242 8.13412e-14
  Final line search alpha, max atom move = 1 8.13412e-14
  Iterations, force evaluations = 47 93

MPI task timing breakdown:
Section |  min time  |  avg time  |  max time  |%varavg| %total
---------------------------------------------------------------
Pair    | 0.0017214  | 0.0017214  | 0.0017214  |   0.0 |  4.38
Neigh   | 0          | 0          | 0          |   0.0 |  0.00
Comm    | 0.0001893  | 0.0001893  | 0.0001893  |   0.0 |  0.48
Output  | 0.037247   | 0.037247   | 0.037247   |   0.0 | 94.86
Modify  | 0          | 0          | 0          |   0.0 |  0.00
Other   |            | 0.0001082  |            |       |  0.28

Nlocal:    10 ave 10 max 10 min
Histogram: 1 0 0 0 0 0 0 0 0 0
Nghost:    357 ave 357 max 357 min
Histogram: 1 0 0 0 0 0 0 0 0 0
Neighs:    320 ave 320 max 320 min
Histogram: 1 0 0 0 0 0 0 0 0 0

Total # of neighbors = 320
Ave neighs/atom = 32
Neighbor list builds = 0
Dangerous builds = 0

# ---- define output variables ----
variable natoms equal "count(all)"
variable tot_energy equal "c_eatoms"
variable a11 equal "xhi-xlo"
variable a22 equal "yhi-ylo"
variable a33 equal "zhi-zlo"
variable tilt_xy equal "xy"
variable tilt_xz equal "xz"
variable tilt_yz equal "yz"
variable tot_press equal "press"
variable press_xx equal "pxx"
variable press_yy equal "pyy"
variable press_zz equal "pzz"
variable press_xy equal "pxy"
variable press_xz equal "pxz"
variable press_yz equal "pyz"

# ---- output ----
print "pypospack:output_section:begin"
pypospack:output_section:begin
print "tot_energy = ${tot_energy}"
tot_energy = -52.343350776143
print "num_atoms = ${natoms}"
num_atoms = 10
print "a11 = ${a11}"
a11 = 3.337
print "a22 = ${a22}"
a22 = 2.3887
print "a33 = ${a33}"
a33 = 23.8873
print "a12 = ${tilt_xy}"
a12 = 0
print "a13 = ${tilt_xz}"
a13 = 0
print "a23 = ${tilt_yz}"
a23 = 0
print "tot_press = ${tot_press}"
tot_press = -18688.1789854307
print "pxx = ${press_xx}"
pxx = -25561.9001315826
print "pyy = ${press_yy}"
pyy = -30502.6368247084
print "pzz = ${press_zz}"
pzz = -1.06848102551104e-09
print "pxy = ${press_xy}"
pxy = 1.56477002643147e-11
print "pxz = ${press_xz}"
pxz = 1.41588332615534e-11
print "pyz = ${press_yz}"
pyz = 3.83526301217178e-09
print "pypospack:output_section:done"
pypospack:output_section:done
print "pypospack:lammps_sim:done"
pypospack:lammps_sim:done
Total wall time: 0:00:00
