LAMMPS (11 Aug 2017)
Reading data file ...
  triclinic box = (0 0 0) to (3.6 6.2354 5.8788) with tilt (0 0 0)
  1 by 1 by 1 MPI processor grid
  reading atoms ...
  4 atoms
4 atoms in group Ni
Neighbor list info ...
  update every 1 steps, delay 0 steps, check yes
  max neighbors/atom: 2000, page size: 100000
  master list distance cutoff = 11
  ghost atom cutoff = 11
  binsize = 5.5, bins = 1 2 2
  1 neighbor lists, perpetual/occasional/extra = 1 0 0
  (1) pair eam/alloy, perpetual
      attributes: half, newton on
      pair build: half/bin/newton/tri
      stencil: half/bin/3d/newton/tri
      bin: standard
Setting up cg style minimization ...
  Unit style    : metal
  Current step  : 0
WARNING: Energy due to 3 extra global DOFs will be included in minimizer energies
Per MPI rank memory allocation (min/avg/max) = 4.231 | 4.231 | 4.231 Mbytes
Step PotEng Xhi Xlo Yhi Ylo Zhi Xy Xz Yz Press Pxx Pyy Pzz Pxy Pxz Pyz c_eatoms 
       0   -6.3484384          3.6            0       6.2354            0       5.8788            0            0            0   -124011.88   -123962.87   -123962.55   -124110.23 1.723573e-11 -1.0825465e-11 -3.0060682e-11   -6.3484384 
      10   -6.6609555    3.5820214  0.017978567    6.2042602    0.0311398     5.849406            0            0            0   -131773.88   -131722.01   -131721.71   -131877.93 8.5759898e-13 6.0670162e-12 4.8849757e-11   -6.6609555 
      20   -6.9862529     3.564043  0.035957035    6.1731206  0.062279438     5.820012            0            0            0   -139896.47   -139841.78   -139841.51   -140006.11 -4.7874728e-12 -6.6612802e-13 1.9064582e-11   -6.9862529 
      30   -7.3244687    3.5460645  0.053935463     6.141981  0.093419019     5.790618            0            0            0   -148377.99   -148320.59   -148320.35   -148493.02 -1.0679392e-11 7.0703503e-12 -7.6182864e-13   -7.3244687 
      40   -7.6756923    3.5280861  0.071913915    6.1108414   0.12455865     5.761224            0            0            0   -157210.47   -157150.11   -157149.92   -157331.39 -2.0590136e-11 5.3508626e-12 -4.7430223e-12   -7.6756923 
      50   -8.0399484     3.510108  0.089892022    6.0797023    0.1556977      5.73183            0            0            0   -166380.22   -166315.29   -166315.16    -166510.2 -4.5567034e-12 -2.6607961e-11 -5.5176257e-11   -8.0399484 
      60   -8.4171919    3.4921304   0.10786956    6.0485642   0.18683577     5.702436            0            0            0   -175870.28   -175800.62   -175800.55   -176009.69 -3.8197573e-12 -1.413001e-12 -2.3833095e-12   -8.4171919 
      70   -8.8072942    3.4741535   0.12584655    6.0174271    0.2179729     5.673042            0            0            0   -185650.46   -185575.88   -185575.89   -185799.61 -2.3059311e-11 5.1878816e-12 -1.2183356e-11   -8.8072942 
      80   -9.2100365     3.456177   0.14382304    5.9862908   0.24910919     5.643648            0            0            0    -195687.9   -195609.28   -195609.38   -195845.04 7.0511441e-12 2.2843677e-11 -5.4423936e-11   -9.2100365 
      90   -9.6251021    3.4382006   0.16179945    5.9551547   0.28024534     5.614254            0            0            0   -205936.72   -205855.02   -205855.21   -206099.92 -2.3191239e-11 1.8669823e-11 2.4258512e-11   -9.6251021 
     100   -10.052043    3.4202241   0.17977588    5.9240184   0.31138156      5.58486            0            0            0   -216335.81   -216251.37   -216251.68   -216504.39 8.4029399e-12 5.2769546e-12 -4.7317942e-12   -10.052043 
     110   -10.490272    3.4022476   0.19775242     5.892882   0.34251798     5.555466            0            0            0   -226815.59   -226729.09   -226729.54   -226988.13 2.2574692e-14 1.2422031e-11 8.0451653e-11   -10.490272 
     120   -10.939059    3.3842707   0.21572929     5.861745   0.37365497     5.526072            0            0            0   -237291.13    -237203.8    -237204.4   -237465.19 -1.6622492e-11 -8.3802772e-13 1.1761811e-10   -10.939059 
     130   -11.397494    3.3662932   0.23370677    5.8306069   0.40479306     5.496678            0            0            0   -247649.12   -247563.53   -247564.29   -247819.53 4.6573791e-11 -2.8128037e-11 -2.1905047e-10   -11.397494 
     140   -11.864472    3.3483147   0.25168532     5.799467     0.435933     5.467284            0            0            0   -257758.42   -257675.73   -257676.69   -257922.84 -2.2002129e-11 -3.9793023e-11 -4.8250083e-10   -11.864472 
     150   -12.338655    3.3303351   0.26966486    5.7683253   0.46707469      5.43789            0            0            0   -267461.29   -267381.86   -267383.03   -267618.97 9.6328881e-12 -2.4966331e-12 1.2873573e-10   -12.338655 
     160   -12.818449    3.3123546   0.28764543    5.7371818   0.49821818     5.408496            0            0            0   -276560.36   -276484.95   -276486.36   -276709.77 2.2396762e-11 -2.362087e-11 -1.184512e-11   -12.818449 
     170   -13.301987    3.2943728   0.30562724    5.7060361   0.52936385     5.379102            0            0            0   -284838.11   -284770.28   -284771.94   -284972.09 1.0924225e-11 2.3970105e-11 -1.4463719e-11   -13.301987 
     180   -13.787093    3.2763891   0.32361089    5.6748873   0.56051274     5.349708            0            0            0   -292017.68   -291960.24   -291962.19   -292130.59 2.6500995e-12 3.3112971e-11 1.0462599e-10   -13.787093 
     190   -14.271234    3.2584034   0.34159663    5.6437347   0.59166527     5.320314            0            0            0   -297788.42   -297742.37   -297744.63   -297878.27 8.0071343e-12 9.5488078e-11 -7.0075731e-11   -14.271234 
     200   -14.751488    3.2404158   0.35958424    5.6125789   0.62282108      5.29092            0            0            0   -301781.34    -301746.3    -301748.9   -301848.81 -8.4760602e-13 -4.3580246e-11 -1.0972307e-10   -14.751488 
     210   -15.224498     3.222426   0.37757404    5.5814193   0.65398071     5.261526            0            0            0   -303562.64   -303542.55   -303545.52   -303599.85 5.1074557e-11 -8.5449631e-12 -1.7447892e-11   -15.224498 
     220   -15.686428    3.2044335   0.39556645    5.5502551   0.68514491     5.232132            0            0            0   -302610.04   -302606.28   -302609.64   -302614.19 -3.7336942e-11 8.709337e-12 8.2990879e-11   -15.686428 
     230   -16.132896    3.1864381   0.41356188    5.5190856   0.71631439     5.202738            0            0            0   -298270.27   -298285.76   -298289.53   -298235.51 6.3279932e-11 -2.1954699e-11 8.5643625e-11   -16.132896 
     240   -16.558931    3.1684391   0.43156094    5.4879098    0.7474902    5.1733451            0            0            0   -289940.58   -289985.95   -289990.14   -289845.65 1.4364094e-10 -6.3121745e-11 -2.2158408e-10   -16.558931 
     250   -16.958812    3.1504394   0.44956064    5.4567328    0.7786672    5.1439615            0            0            0      -276718   -276797.21   -276801.84   -276554.97 -1.045886e-10 -2.0315918e-11  6.73766e-11   -16.958812 
     260   -17.326165    3.1324397   0.46756029    5.4255558    0.8098442      5.11459            0            0            0   -257749.94   -257861.86   -257866.91   -257521.04 4.8647769e-11 -7.138182e-11 -2.9796191e-11   -17.326165 
     270   -17.653829    3.1144401   0.48555987    5.3943788    0.8410212     5.085234            0            0            0    -231841.3   -231988.26    -231993.7   -231541.94 7.4643615e-13 -9.7363001e-11 -1.4695409e-10   -17.653829 
     280   -17.933777    3.0964406   0.50355937    5.3632018    0.8721982    5.0558992            0            0            0   -197673.75   -197854.18   -197859.94   -197307.13 1.1718467e-11 -3.1786374e-11 -1.7303614e-10   -17.933777 
     290   -18.157019    3.0784413   0.52155873    5.3320248    0.9033752    5.0265961            0            0            0   -153977.01   -154188.47    -154194.4   -153548.15 -1.7915127e-11 -6.6739821e-11 -1.2817125e-10   -18.157019 
     300   -18.313531    3.0604422   0.53955784    5.3008478    0.9345522    4.9973514            0            0            0    -98870.29    -99101.34   -99107.135   -98402.394 3.9896202e-11 2.7001351e-11 -2.0459026e-10   -18.313531 
     310   -18.392208    3.0424438   0.55755625    5.2696708    0.9657292    4.9682724            0            0            0   -30635.113   -30841.612   -30846.327   -30217.401 -1.5679529e-10 6.7140797e-11 2.450548e-10   -18.392208 
     320    -18.39925    3.0352909   0.56470911    5.2572782   0.97812181    4.9573449            0            0            0    1.4902849   0.27371775    3.3795229   0.81761396 -1.0898357e-10 2.1296115e-11 -1.6704891e-10    -18.39925 
     330    -18.39925     3.035289   0.56471099    5.2572833   0.97811668    4.9573447            0            0            0 -2.9885086e-07 -3.4506744e-07 -2.5223705e-07 -2.9924808e-07 -3.9516834e-11 1.0889095e-10 -2.8582052e-10    -18.39925 
     340    -18.39925     3.035289   0.56471099    5.2572833   0.97811668    4.9573447            0            0            0 -2.4153927e-09 -8.447414e-09 -7.3531512e-10 1.9365511e-09 1.3086073e-10 4.1054003e-11 -8.838093e-11    -18.39925 
     350    -18.39925     3.035289   0.56471099    5.2572833   0.97811668    4.9573447            0            0            0 -1.2671893e-09 -7.7440501e-10 -1.3525959e-09 -1.6745671e-09 1.3672151e-10 7.4649006e-11 2.2850636e-10    -18.39925 
     358    -18.39925     3.035289   0.56471099    5.2572833   0.97811668    4.9573447            0            0            0 -3.9363944e-10 -3.433188e-10 1.5941629e-10 -9.9701581e-10 8.3828346e-11 1.9416909e-11 -3.6928518e-11    -18.39925 
Loop time of 0.028434 on 1 procs for 358 steps with 4 atoms

93.8% CPU use with 1 MPI tasks x no OpenMP threads

Minimization stats:
  Stopping criterion = energy tolerance
  Energy initial, next-to-last, final = 
         -6.3484384043     -18.3992496943     -18.3992496943
  Force two-norm initial, final = 17.6917 4.43656e-14
  Force max component initial, final = 10.2224 3.86757e-14
  Final line search alpha, max atom move = 1 3.86757e-14
  Iterations, force evaluations = 358 403

MPI task timing breakdown:
Section |  min time  |  avg time  |  max time  |%varavg| %total
---------------------------------------------------------------
Pair    | 0.01975    | 0.01975    | 0.01975    |   0.0 | 69.46
Neigh   | 0.00023508 | 0.00023508 | 0.00023508 |   0.0 |  0.83
Comm    | 0.0019951  | 0.0019951  | 0.0019951  |   0.0 |  7.02
Output  | 0.00049138 | 0.00049138 | 0.00049138 |   0.0 |  1.73
Modify  | 0          | 0          | 0          |   0.0 |  0.00
Other   |            | 0.005962   |            |       | 20.97

Nlocal:    4 ave 4 max 4 min
Histogram: 1 0 0 0 0 0 0 0 0 0
Nghost:    1424 ave 1424 max 1424 min
Histogram: 1 0 0 0 0 0 0 0 0 0
Neighs:    848 ave 848 max 848 min
Histogram: 1 0 0 0 0 0 0 0 0 0

Total # of neighbors = 848
Ave neighs/atom = 212
Neighbor list builds = 5
Dangerous builds = 0
pypospack:output_section:begin
tot_energy = -18.3992496942672
num_atoms = 4
a11 = 2.4705780137919
a22 = 4.27916664395019
a33 = 4.0358894748574
a12 = 0
a13 = 0
a23 = 0
tot_press = -3.93639440477618e-10
pxx = -3.43318801348476e-10
pyy = 1.5941628765108e-10
pzz = -9.97015807735458e-10
pxy = 8.38283463626912e-11
pxz = 1.94169085662987e-11
pyz = -3.69285182889785e-11
pypospack:output_section:done
pypospack:lammps_sim:done
Total wall time: 0:00:00
