LAMMPS (11 Aug 2017)
# ---- initialize simulations
clear
units metal
dimension 3
boundary p p p
atom_style atomic
atom_modify map array
# ---- create atoms
read_data /home/sullberg/repos/pypospack/examples/Ni__eam__born_exp_rose/01_preconditioning_3.5NN/rank_25/Ni_fcc_110_s.lmps_min_pos/lammps.structure
  triclinic box = (0 0 0) to (3.5227 2.5217 25.2169) with tilt (0 0 0)
  1 by 1 by 1 MPI processor grid
  reading atoms ...
  10 atoms
# ---- define interatomic potential
include potential.mod
mass 1 58.6934

group Ni type 1
10 atoms in group Ni

pair_style eam/alloy
pair_coeff * * /home/sullberg/repos/pypospack/examples/Ni__eam__born_exp_rose/01_preconditioning_3.5NN/rank_25/Ni_fcc_110_s.lmps_min_pos/Ni.eam.alloy Ni

neighbor 1.0 bin
neigh_modify every 1 delay 0 check yes
# ---- define settings
compute eng all pe/atom
compute eatoms all reduce sum c_eng

# ---- run minimization
reset_timestep 0
thermo 1
thermo_style custom step pe lx ly lz xy xz yz press pxx pyy pzz pxy pxz pyz c_eatoms
min_style cg
minimize 1e-20 1e-20 1000 100000
Neighbor list info ...
  update every 1 steps, delay 0 steps, check yes
  max neighbors/atom: 2000, page size: 100000
  master list distance cutoff = 11
  ghost atom cutoff = 11
  binsize = 5.5, bins = 1 1 5
  1 neighbor lists, perpetual/occasional/extra = 1 0 0
  (1) pair eam/alloy, perpetual
      attributes: half, newton on
      pair build: half/bin/newton/tri
      stencil: half/bin/3d/newton/tri
      bin: standard
Per MPI rank memory allocation (min/avg/max) = 4.341 | 4.341 | 4.341 Mbytes
Step PotEng Lx Ly Lz Xy Xz Yz Press Pxx Pyy Pzz Pxy Pxz Pyz c_eatoms 
       0   -43.123022       3.5227       2.5217      25.2169            0            0            0   -59959.417   -61028.259   -67594.115   -51255.879 0.0001500212   -0.5028048  -0.10981833   -43.123022 
       1   -43.398508       3.5227       2.5217      25.2169            0            0            0   -53091.687   -55009.629   -59689.841    -44575.59 0.00013329534  -0.31821141 -0.048844565   -43.398508 
       2   -43.596357       3.5227       2.5217      25.2169            0            0            0    -43837.36   -46157.721   -49785.191   -35569.168 0.00012476784 -0.082729677   0.01797233   -43.596357 
       3   -43.701629       3.5227       2.5217      25.2169            0            0            0   -32479.309   -34923.156   -38226.062   -24288.708 0.00010549288   0.12135401  0.071046098   -43.701629 
       4   -43.742376       3.5227       2.5217      25.2169            0            0            0   -21479.686   -23864.888   -27294.592    -13279.58 2.6318712e-05   0.12739479  0.080859662   -43.742376 
       5   -43.771071       3.5227       2.5217      25.2169            0            0            0   -19366.027    -21524.93   -25135.584   -11437.567 -7.2587266e-06 -0.031244538  0.040141731   -43.771071 
       6   -43.781416       3.5227       2.5217      25.2169            0            0            0   -9907.0665   -11770.033   -15961.282   -1989.8843 1.6360316e-06  0.024601749 -0.024746841   -43.781416 
       7   -43.783862       3.5227       2.5217      25.2169            0            0            0   -8241.9781   -10074.706   -14454.387   -196.84174 -6.3333726e-07  0.078226989 -0.041925269   -43.783862 
       8   -43.784355       3.5227       2.5217      25.2169            0            0            0   -8143.5772   -10069.381   -14434.786     73.43485 8.8756488e-07   0.04213869   -0.0200752   -43.784355 
       9   -43.784404       3.5227       2.5217      25.2169            0            0            0   -8359.3409   -10312.197   -14666.804   -99.020959 6.7624902e-07  0.047392205  -0.01218883   -43.784404 
      10   -43.784419       3.5227       2.5217      25.2169            0            0            0    -8256.981   -10222.507   -14575.449    27.013312 5.8864526e-07  0.050762795 -0.0080287052   -43.784419 
      11   -43.784422       3.5227       2.5217      25.2169            0            0            0   -8277.5702   -10252.433    -14599.17    18.892467 5.0201663e-07  0.047483223 -0.0063422694   -43.784422 
      12   -43.784422       3.5227       2.5217      25.2169            0            0            0   -8280.1273   -10254.817   -14601.153    15.587734 4.345589e-07  0.045065636 -0.0067079624   -43.784422 
      13   -43.784422       3.5227       2.5217      25.2169            0            0            0   -8293.6058   -10268.189   -14613.772    1.1427872 3.3989321e-07  0.042105348 -0.0071307308   -43.784422 
      14   -43.784422       3.5227       2.5217      25.2169            0            0            0   -8294.7388   -10269.313   -14614.868 -0.034945316 3.0120372e-07  0.041330541 -0.007102353   -43.784422 
      15   -43.784422       3.5227       2.5217      25.2169            0            0            0   -8294.8534   -10269.433   -14614.984   -0.1428695 2.9062855e-07  0.040677734 -0.0071011341   -43.784422 
      16   -43.784422       3.5227       2.5217      25.2169            0            0            0    -8294.797   -10269.382   -14614.935 -0.074295986 2.6550896e-07  0.039243984 -0.0071096591   -43.784422 
      17   -43.784422       3.5227       2.5217      25.2169            0            0            0   -8294.7421   -10269.331   -14614.887 -0.0090967306 2.2276064e-07  0.037040837 -0.0071605917   -43.784422 
      18   -43.784422       3.5227       2.5217      25.2169            0            0            0   -8294.7057   -10269.293   -14614.851  0.026983478 1.9005036e-07  0.034875202 -0.007258071   -43.784422 
      19   -43.784422       3.5227       2.5217      25.2169            0            0            0   -8294.7073   -10269.294   -14614.852  0.024222683 1.5525498e-07  0.032311122 -0.0073766169   -43.784422 
      20   -43.784422       3.5227       2.5217      25.2169            0            0            0   -8294.7067   -10269.291   -14614.851  0.021834457 8.5574946e-08  0.026210498 -0.0076598255   -43.784422 
      21   -43.784422       3.5227       2.5217      25.2169            0            0            0   -8294.7207   -10269.307   -14614.865  0.010186217 9.1164729e-08  0.024616808 -0.0077444757   -43.784422 
      22   -43.784422       3.5227       2.5217      25.2169            0            0            0   -8294.7405   -10269.328   -14614.884 -0.009145739 9.5305508e-08  0.023559319 -0.0078056982   -43.784422 
      23   -43.784422       3.5227       2.5217      25.2169            0            0            0   -8294.7632   -10269.352   -14614.906 -0.031641679 1.1247414e-07  0.018866724 -0.0081028089   -43.784422 
      24   -43.784422       3.5227       2.5217      25.2169            0            0            0    -8294.748   -10269.336   -14614.891  -0.01727117 1.1537021e-07  0.017163329 -0.0082399499   -43.784422 
      25   -43.784422       3.5227       2.5217      25.2169            0            0            0   -8294.7354   -10269.321   -14614.878 -0.007637964 1.1014748e-07   0.01231541 -0.008668996   -43.784422 
      26   -43.784422       3.5227       2.5217      25.2169            0            0            0   -8294.7368   -10269.322    -14614.88 -0.0087747993 9.7031636e-08 0.0090563136 -0.008895775   -43.784422 
      27   -43.784422       3.5227       2.5217      25.2169            0            0            0   -8294.7206   -10269.306   -14614.864 0.0084226358 8.1134898e-08 0.0067456151 -0.0090585992   -43.784422 
      28   -43.784422       3.5227       2.5217      25.2169            0            0            0    -8294.713     -10269.3   -14614.858  0.018637092 3.7932211e-08 0.0037162759 -0.0093698475   -43.784422 
      29   -43.784422       3.5227       2.5217      25.2169            0            0            0   -8294.7241   -10269.312   -14614.869 0.0079996681 2.1523947e-08 0.0026714909 -0.0094989069   -43.784422 
      30   -43.784422       3.5227       2.5217      25.2169            0            0            0   -8294.7203   -10269.308   -14614.865  0.011291344 2.067477e-08 0.0025516584 -0.009528433   -43.784422 
      31   -43.784422       3.5227       2.5217      25.2169            0            0            0   -8294.7296   -10269.316   -14614.873 0.00085422101 1.8401503e-08 0.0023548247 -0.0096041657   -43.784422 
      32   -43.784422       3.5227       2.5217      25.2169            0            0            0   -8294.7348   -10269.321   -14614.878 -0.0061423753 1.3202103e-08 0.0022271637 -0.0097744111   -43.784422 
      33   -43.784422       3.5227       2.5217      25.2169            0            0            0   -8294.7348   -10269.321   -14614.878 -0.0061423753 1.3202103e-08 0.0022271637 -0.0097744111   -43.784422 
Loop time of 0.0077939 on 1 procs for 33 steps with 10 atoms

100.0% CPU use with 1 MPI tasks x no OpenMP threads

Minimization stats:
  Stopping criterion = linesearch alpha is zero
  Energy initial, next-to-last, final = 
        -43.1230216347     -43.7844223515     -43.7844223515
  Force two-norm initial, final = 1.93668 2.9691e-07
  Force max component initial, final = 1.22778 1.74554e-07
  Final line search alpha, max atom move = 0.5 8.7277e-08
  Iterations, force evaluations = 33 57

MPI task timing breakdown:
Section |  min time  |  avg time  |  max time  |%varavg| %total
---------------------------------------------------------------
Pair    | 0.0067589  | 0.0067589  | 0.0067589  |   0.0 | 86.72
Neigh   | 8.2016e-05 | 8.2016e-05 | 8.2016e-05 |   0.0 |  1.05
Comm    | 0.00041175 | 0.00041175 | 0.00041175 |   0.0 |  5.28
Output  | 0.00041342 | 0.00041342 | 0.00041342 |   0.0 |  5.30
Modify  | 0          | 0          | 0          |   0.0 |  0.00
Other   |            | 0.0001278  |            |       |  1.64

Nlocal:    10 ave 10 max 10 min
Histogram: 1 0 0 0 0 0 0 0 0 0
Nghost:    1420 ave 1420 max 1420 min
Histogram: 1 0 0 0 0 0 0 0 0 0
Neighs:    1766 ave 1766 max 1766 min
Histogram: 1 0 0 0 0 0 0 0 0 0

Total # of neighbors = 1766
Ave neighs/atom = 176.6
Neighbor list builds = 1
Dangerous builds = 0

# ---- define output variables ----
variable natoms equal "count(all)"
variable tot_energy equal "c_eatoms"
variable a11 equal "xhi-xlo"
variable a22 equal "yhi-ylo"
variable a33 equal "zhi-zlo"
variable tilt_xy equal "xy"
variable tilt_xz equal "xz"
variable tilt_yz equal "yz"
variable tot_press equal "press"
variable press_xx equal "pxx"
variable press_yy equal "pyy"
variable press_zz equal "pzz"
variable press_xy equal "pxy"
variable press_xz equal "pxz"
variable press_yz equal "pyz"

# ---- output ----
print "pypospack:output_section:begin"
pypospack:output_section:begin
print "tot_energy = ${tot_energy}"
tot_energy = -43.7844223514503
print "num_atoms = ${natoms}"
num_atoms = 10
print "a11 = ${a11}"
a11 = 3.5227
print "a22 = ${a22}"
a22 = 2.5217
print "a33 = ${a33}"
a33 = 25.2169
print "a12 = ${tilt_xy}"
a12 = 0
print "a13 = ${tilt_xz}"
a13 = 0
print "a23 = ${tilt_yz}"
a23 = 0
print "tot_press = ${tot_press}"
tot_press = -8294.73482144942
print "pxx = ${press_xx}"
pxx = -10269.3206678873
print "pyy = ${press_yy}"
pyy = -14614.8776540856
print "pzz = ${press_zz}"
pzz = -0.00614237530796356
print "pxy = ${press_xy}"
pxy = 1.32021025839205e-08
print "pxz = ${press_xz}"
pxz = 0.00222716369386435
print "pyz = ${press_yz}"
pyz = -0.00977441112687629
print "pypospack:output_section:done"
pypospack:output_section:done
print "pypospack:lammps_sim:done"
pypospack:lammps_sim:done
Total wall time: 0:00:00
