# ['Ni']

8 atoms
1 atom types

    0.0000     4.8791 xlo xhi
    0.0000     4.8791 ylo yhi
    0.0000     4.8791 zlo zhi

    0.0000     0.0000     0.0000 xy xz yz

Atoms

1 1    -0.0000    -0.0000     0.0000
2 1     1.2198     1.2198     1.2198
3 1     2.4395     2.4395     0.0000
4 1     3.6593     3.6593     1.2198
5 1     2.4395    -0.0000     2.4395
6 1     3.6593     1.2198     3.6593
7 1     0.0000     2.4395     2.4395
8 1     1.2198     3.6593     3.6593
