LAMMPS (11 Aug 2017)
# ---- initialize simulations
clear
units metal
dimension 3
boundary p p p
atom_style atomic
atom_modify map array
# ---- create atoms
read_data /ufrc/phillpot/eragasa/pareto_optimization_3.5NN/rank_0/Ni_fcc_vac.lmps_min_pos/lammps.structure
  triclinic box = (0 0 0) to (10.1389 10.1389 10.1389) with tilt (0 -0 -0)
  1 by 1 by 1 MPI processor grid
  reading atoms ...
  107 atoms
# ---- define interatomic potential
include potential.mod
mass 1 58.6934

group Ni type 1
107 atoms in group Ni

pair_style eam/alloy
pair_coeff * * /ufrc/phillpot/eragasa/pareto_optimization_3.5NN/rank_0/Ni_fcc_vac.lmps_min_pos/Ni.eam.alloy Ni

neighbor 1.0 bin
neigh_modify every 1 delay 0 check yes
# ---- define settings
compute eng all pe/atom
compute eatoms all reduce sum c_eng

# ---- run minimization
reset_timestep 0
thermo 1
thermo_style custom step pe lx ly lz xy xz yz press pxx pyy pzz pxy pxz pyz c_eatoms
min_style cg
minimize 1e-20 1e-20 1000 100000
Neighbor list info ...
  update every 1 steps, delay 0 steps, check yes
  max neighbors/atom: 2000, page size: 100000
  master list distance cutoff = 5.64464
  ghost atom cutoff = 5.64464
  binsize = 2.82232, bins = 4 4 4
  1 neighbor lists, perpetual/occasional/extra = 1 0 0
  (1) pair eam/alloy, perpetual
      attributes: half, newton on
      pair build: half/bin/newton/tri
      stencil: half/bin/3d/newton/tri
      bin: standard
Per MPI rank memory allocation (min/avg/max) = 4.229 | 4.229 | 4.229 Mbytes
Step PotEng Lx Ly Lz Xy Xz Yz Press Pxx Pyy Pzz Pxy Pxz Pyz c_eatoms 
       0   -401.40794      10.1389      10.1389      10.1389            0           -0           -0   -3487.1204   -3487.1204   -3487.1204   -3487.1204 1.3453303e-08 1.3451362e-08 1.3449911e-08   -401.40794 
       1   -401.43097      10.1389      10.1389      10.1389            0           -0           -0   -4244.0402   -4244.0402   -4244.0402   -4244.0402 -4.6691276e-06 -4.6691102e-06 -4.6691222e-06   -401.43097 
       2   -401.43559      10.1389      10.1389      10.1389            0           -0           -0   -4346.1141   -4346.1141   -4346.1141   -4346.1141 -3.6530974e-05 -3.6530967e-05 -3.6530965e-05   -401.43559 
       3   -401.43669      10.1389      10.1389      10.1389            0           -0           -0   -4476.7682   -4476.7682   -4476.7682   -4476.7682 -1.6664665e-05 -1.6664649e-05 -1.6664657e-05   -401.43669 
       4   -401.43672      10.1389      10.1389      10.1389            0           -0           -0   -4475.6315   -4475.6315   -4475.6315   -4475.6315 -1.5529343e-05 -1.5529355e-05 -1.5529352e-05   -401.43672 
       5   -401.43673      10.1389      10.1389      10.1389            0           -0           -0   -4475.5423   -4475.5423   -4475.5423   -4475.5423 -4.2029908e-06 -4.2029852e-06 -4.203006e-06   -401.43673 
       6   -401.43673      10.1389      10.1389      10.1389            0           -0           -0   -4475.8927   -4475.8927   -4475.8927   -4475.8927 -4.2510096e-06 -4.2510279e-06 -4.2510534e-06   -401.43673 
       7   -401.43673      10.1389      10.1389      10.1389            0           -0           -0   -4477.2491   -4477.2491   -4477.2491   -4477.2491 -2.8836692e-06 -2.8836783e-06 -2.8836762e-06   -401.43673 
       8   -401.43673      10.1389      10.1389      10.1389            0           -0           -0    -4477.589    -4477.589    -4477.589    -4477.589 -1.418206e-06 -1.4182158e-06 -1.4182196e-06   -401.43673 
       9   -401.43673      10.1389      10.1389      10.1389            0           -0           -0   -4477.5558   -4477.5558   -4477.5558   -4477.5558 -8.0631802e-07 -8.0630703e-07 -8.062985e-07   -401.43673 
      10   -401.43673      10.1389      10.1389      10.1389            0           -0           -0   -4477.5384   -4477.5384   -4477.5384   -4477.5384 -7.0913617e-07 -7.0912609e-07 -7.0911081e-07   -401.43673 
      11   -401.43673      10.1389      10.1389      10.1389            0           -0           -0   -4477.5414   -4477.5414   -4477.5414   -4477.5414 -3.8365145e-07 -3.8362904e-07 -3.8365641e-07   -401.43673 
      12   -401.43673      10.1389      10.1389      10.1389            0           -0           -0   -4477.5415   -4477.5415   -4477.5415   -4477.5415 -3.1935706e-07 -3.193662e-07 -3.1935267e-07   -401.43673 
      13   -401.43673      10.1389      10.1389      10.1389            0           -0           -0   -4477.5416   -4477.5416   -4477.5416   -4477.5416 -2.0268936e-07 -2.026918e-07 -2.0267295e-07   -401.43673 
      14   -401.43673      10.1389      10.1389      10.1389            0           -0           -0   -4477.5416   -4477.5416   -4477.5416   -4477.5416 -6.5259755e-08 -6.5256405e-08 -6.5247211e-08   -401.43673 
      15   -401.43673      10.1389      10.1389      10.1389            0           -0           -0   -4477.5417   -4477.5417   -4477.5417   -4477.5417 1.6646706e-08 1.6662472e-08 1.665876e-08   -401.43673 
      16   -401.43673      10.1389      10.1389      10.1389            0           -0           -0   -4477.5417   -4477.5417   -4477.5417   -4477.5417 2.7978508e-08 2.7977314e-08 2.7979404e-08   -401.43673 
      17   -401.43673      10.1389      10.1389      10.1389            0           -0           -0   -4477.5416   -4477.5416   -4477.5416   -4477.5416 2.0295448e-08 2.0299053e-08 2.0275576e-08   -401.43673 
      18   -401.43673      10.1389      10.1389      10.1389            0           -0           -0   -4477.5416   -4477.5416   -4477.5416   -4477.5416 5.6630743e-09 5.6562584e-09 5.6565357e-09   -401.43673 
      19   -401.43673      10.1389      10.1389      10.1389            0           -0           -0   -4477.5416   -4477.5416   -4477.5416   -4477.5416 5.435384e-09  5.43372e-09 5.443448e-09   -401.43673 
      20   -401.43673      10.1389      10.1389      10.1389            0           -0           -0   -4477.5416   -4477.5416   -4477.5416   -4477.5416 4.8318222e-09 4.8582115e-09 4.8373902e-09   -401.43673 
      21   -401.43673      10.1389      10.1389      10.1389            0           -0           -0   -4477.5416   -4477.5416   -4477.5416   -4477.5416 3.0859475e-09 3.0897555e-09 3.1064701e-09   -401.43673 
      22   -401.43673      10.1389      10.1389      10.1389            0           -0           -0   -4477.5416   -4477.5416   -4477.5416   -4477.5416 2.1534795e-09 2.1311222e-09 2.1454368e-09   -401.43673 
      23   -401.43673      10.1389      10.1389      10.1389            0           -0           -0   -4477.5416   -4477.5416   -4477.5416   -4477.5416 5.677005e-10 5.5478319e-10 5.9379113e-10   -401.43673 
      24   -401.43673      10.1389      10.1389      10.1389            0           -0           -0   -4477.5416   -4477.5416   -4477.5416   -4477.5416 3.5949814e-10 3.5544481e-10 3.5479415e-10   -401.43673 
      25   -401.43673      10.1389      10.1389      10.1389            0           -0           -0   -4477.5416   -4477.5416   -4477.5416   -4477.5416 2.6520494e-10 2.6748761e-10 2.5458096e-10   -401.43673 
      26   -401.43673      10.1389      10.1389      10.1389            0           -0           -0   -4477.5416   -4477.5416   -4477.5416   -4477.5416 1.6236776e-10 1.9537038e-10 1.7665041e-10   -401.43673 
      27   -401.43673      10.1389      10.1389      10.1389            0           -0           -0   -4477.5416   -4477.5416   -4477.5416   -4477.5416 1.558611e-10 1.5375977e-10 1.4525845e-10   -401.43673 
      28   -401.43673      10.1389      10.1389      10.1389            0           -0           -0   -4477.5416   -4477.5416   -4477.5416   -4477.5416 7.7621219e-11 8.1557214e-11 9.9295854e-11   -401.43673 
      29   -401.43673      10.1389      10.1389      10.1389            0           -0           -0   -4477.5416   -4477.5416   -4477.5416   -4477.5416 9.7098524e-11 9.3450529e-11 9.1295866e-11   -401.43673 
      30   -401.43673      10.1389      10.1389      10.1389            0           -0           -0   -4477.5416   -4477.5416   -4477.5416   -4477.5416 2.3935965e-11 4.2015938e-11 5.1893257e-11   -401.43673 
      31   -401.43673      10.1389      10.1389      10.1389            0           -0           -0   -4477.5416   -4477.5416   -4477.5416   -4477.5416 4.1877272e-11 4.296527e-11 4.9173261e-11   -401.43673 
      32   -401.43673      10.1389      10.1389      10.1389            0           -0           -0   -4477.5416   -4477.5416   -4477.5416   -4477.5416 1.7514641e-11 3.3333284e-11 3.7578611e-11   -401.43673 
      33   -401.43673      10.1389      10.1389      10.1389            0           -0           -0   -4477.5416   -4477.5416   -4477.5416   -4477.5416 6.1653243e-12 1.9413305e-12 -3.2853285e-12   -401.43673 
      34   -401.43673      10.1389      10.1389      10.1389            0           -0           -0   -4477.5416   -4477.5416   -4477.5416   -4477.5416 1.4207979e-11 8.159988e-12 -9.0026534e-12   -401.43673 
      35   -401.43673      10.1389      10.1389      10.1389            0           -0           -0   -4477.5416   -4477.5416   -4477.5416   -4477.5416 1.7215975e-11 4.7039931e-12 -2.3167966e-11   -401.43673 
      36   -401.43673      10.1389      10.1389      10.1389            0           -0           -0   -4477.5416   -4477.5416   -4477.5416   -4477.5416 1.1189317e-11 -4.1173273e-12 -2.0981303e-11   -401.43673 
Loop time of 0.0460711 on 1 procs for 36 steps with 107 atoms

38.0% CPU use with 1 MPI tasks x no OpenMP threads

Minimization stats:
  Stopping criterion = energy tolerance
  Energy initial, next-to-last, final = 
        -401.407943709     -401.436731344     -401.436731344
  Force two-norm initial, final = 0.545266 3.92203e-14
  Force max component initial, final = 0.106832 9.58955e-15
  Final line search alpha, max atom move = 1 9.58955e-15
  Iterations, force evaluations = 36 72

MPI task timing breakdown:
Section |  min time  |  avg time  |  max time  |%varavg| %total
---------------------------------------------------------------
Pair    | 0.016126   | 0.016126   | 0.016126   |   0.0 | 35.00
Neigh   | 0          | 0          | 0          |   0.0 |  0.00
Comm    | 0.00035977 | 0.00035977 | 0.00035977 |   0.0 |  0.78
Output  | 0.029295   | 0.029295   | 0.029295   |   0.0 | 63.59
Modify  | 0          | 0          | 0          |   0.0 |  0.00
Other   |            | 0.0002909  |            |       |  0.63

Nlocal:    107 ave 107 max 107 min
Histogram: 1 0 0 0 0 0 0 0 0 0
Nghost:    983 ave 983 max 983 min
Histogram: 1 0 0 0 0 0 0 0 0 0
Neighs:    4134 ave 4134 max 4134 min
Histogram: 1 0 0 0 0 0 0 0 0 0

Total # of neighbors = 4134
Ave neighs/atom = 38.6355
Neighbor list builds = 0
Dangerous builds = 0

# ---- define output variables ----
variable natoms equal "count(all)"
variable tot_energy equal "c_eatoms"
variable a11 equal "xhi-xlo"
variable a22 equal "yhi-ylo"
variable a33 equal "zhi-zlo"
variable tilt_xy equal "xy"
variable tilt_xz equal "xz"
variable tilt_yz equal "yz"
variable tot_press equal "press"
variable press_xx equal "pxx"
variable press_yy equal "pyy"
variable press_zz equal "pzz"
variable press_xy equal "pxy"
variable press_xz equal "pxz"
variable press_yz equal "pyz"

# ---- output ----
print "pypospack:output_section:begin"
pypospack:output_section:begin
print "tot_energy = ${tot_energy}"
tot_energy = -401.436731343574
print "num_atoms = ${natoms}"
num_atoms = 107
print "a11 = ${a11}"
a11 = 10.1389
print "a22 = ${a22}"
a22 = 10.1389
print "a33 = ${a33}"
a33 = 10.1389
print "a12 = ${tilt_xy}"
a12 = 0
print "a13 = ${tilt_xz}"
a13 = -0
print "a23 = ${tilt_yz}"
a23 = -0
print "tot_press = ${tot_press}"
tot_press = -4477.54161968384
print "pxx = ${press_xx}"
pxx = -4477.54161968383
print "pyy = ${press_yy}"
pyy = -4477.54161968385
print "pzz = ${press_zz}"
pzz = -4477.54161968386
print "pxy = ${press_xy}"
pxy = 1.11893168977452e-11
print "pxz = ${press_xz}"
pxz = -4.11732728553827e-12
print "pyz = ${press_yz}"
pyz = -2.09813025146471e-11
print "pypospack:output_section:done"
pypospack:output_section:done
print "pypospack:lammps_sim:done"
pypospack:lammps_sim:done
Total wall time: 0:00:00
