# ['Ni']

20 atoms
1 atom types

    0.0000     3.5227 xlo xhi
    0.0000     3.5227 ylo yhi
    0.0000    35.2269 zlo zhi

    0.0000    -0.0000     0.0000 xy xz yz

Atoms

1 1     0.0000     0.0000     0.0000
2 1     1.7613     1.7613     0.0000
3 1     1.7613     0.0000     1.7613
4 1     0.0000     1.7613     1.7613
5 1     0.0000     0.0000     3.5227
6 1     1.7613     1.7613     3.5227
7 1     1.7613     0.0000     5.2840
8 1     0.0000     1.7613     5.2840
9 1     0.0000     0.0000     7.0454
10 1     1.7613     1.7613     7.0454
11 1     1.7613     0.0000     8.8067
12 1     0.0000     1.7613     8.8067
13 1     0.0000     0.0000    10.5681
14 1     1.7613     1.7613    10.5681
15 1     1.7613     0.0000    12.3294
16 1     0.0000     1.7613    12.3294
17 1     0.0000     0.0000    14.0908
18 1     1.7613     1.7613    14.0908
19 1     1.7613     0.0000    15.8521
20 1     0.0000     1.7613    15.8521
