LAMMPS (11 Aug 2017)
# ---- initialize simulations
clear
units metal
dimension 3
boundary p p p
atom_style atomic
atom_modify map array
# ---- create atoms
read_data /home/sullberg/repos/pypospack/examples/Ni__eam__born_exp_rose/01_preconditioning_3.5NN/rank_25/Ni_fcc_100_s.lmps_min_pos/lammps.structure
  triclinic box = (0 0 0) to (3.5227 3.5227 35.2269) with tilt (0 -0 0)
  1 by 1 by 1 MPI processor grid
  reading atoms ...
  20 atoms
# ---- define interatomic potential
include potential.mod
mass 1 58.6934

group Ni type 1
20 atoms in group Ni

pair_style eam/alloy
pair_coeff * * /home/sullberg/repos/pypospack/examples/Ni__eam__born_exp_rose/01_preconditioning_3.5NN/rank_25/Ni_fcc_100_s.lmps_min_pos/Ni.eam.alloy Ni

neighbor 1.0 bin
neigh_modify every 1 delay 0 check yes
# ---- define settings
compute eng all pe/atom
compute eatoms all reduce sum c_eng

# ---- run minimization
reset_timestep 0
thermo 1
thermo_style custom step pe lx ly lz xy xz yz press pxx pyy pzz pxy pxz pyz c_eatoms
min_style cg
minimize 1e-20 1e-20 1000 100000
Neighbor list info ...
  update every 1 steps, delay 0 steps, check yes
  max neighbors/atom: 2000, page size: 100000
  master list distance cutoff = 11
  ghost atom cutoff = 11
  binsize = 5.5, bins = 1 1 7
  1 neighbor lists, perpetual/occasional/extra = 1 0 0
  (1) pair eam/alloy, perpetual
      attributes: half, newton on
      pair build: half/bin/newton/tri
      stencil: half/bin/3d/newton/tri
      bin: standard
Per MPI rank memory allocation (min/avg/max) = 4.357 | 4.357 | 4.357 Mbytes
Step PotEng Lx Ly Lz Xy Xz Yz Press Pxx Pyy Pzz Pxy Pxz Pyz c_eatoms 
       0   -87.602716       3.5227       3.5227      35.2269            0           -0            0   -29370.745   -33354.527   -33354.527   -21403.182 4.7043046e-12 -4.1923597e-12 -6.8273549e-12   -87.602716 
       1   -87.964429       3.5227       3.5227      35.2269            0           -0            0    -20079.78   -23335.883   -23335.883   -13567.572 -1.3432427e-12 1.0080167e-12 2.5238048e-12   -87.964429 
       2   -88.032024       3.5227       3.5227      35.2269            0           -0            0   -12260.525    -14741.81    -14741.81   -7297.9566 -2.3479434e-13 9.5506246e-13 -7.3016201e-13   -88.032024 
       3   -88.038524       3.5227       3.5227      35.2269            0           -0            0   -9792.3214   -12202.213   -12202.213   -4972.5385 7.0839864e-13 -1.3682764e-12 2.2199158e-14   -88.038524 
       4   -88.042074       3.5227       3.5227      35.2269            0           -0            0   -7439.4277   -9848.6936   -9848.6936    -2620.896 -3.3609586e-12 -3.9401966e-12 -2.6497629e-12   -88.042074 
       5   -88.043536       3.5227       3.5227      35.2269            0           -0            0   -6098.1454   -8510.7633   -8510.7633   -1272.9095 6.954717e-13 -1.2772258e-12 -2.5704399e-12   -88.043536 
       6   -88.043826       3.5227       3.5227      35.2269            0           -0            0   -5682.3161   -8140.3831   -8140.3831   -766.18219 -3.6358485e-13 3.0468877e-12 -3.1428953e-12   -88.043826 
       7   -88.043986       3.5227       3.5227      35.2269            0           -0            0    -4982.922   -7408.1071   -7408.1071   -132.55159 -1.5533854e-12 -3.0442564e-13 3.7793945e-13   -88.043986 
       8   -88.044007       3.5227       3.5227      35.2269            0           -0            0   -4884.7049   -7309.2901   -7309.2901   -35.534501 4.6155421e-12 -2.2370972e-12 4.1642359e-12   -88.044007 
       9   -88.044007       3.5227       3.5227      35.2269            0           -0            0   -4880.6388   -7305.8747   -7305.8747   -30.166911 -2.533727e-12 5.0975311e-13 3.1869506e-12   -88.044007 
      10   -88.044007       3.5227       3.5227      35.2269            0           -0            0   -4869.9415   -7294.5081   -7294.5081   -20.808313 1.8231002e-12 2.9670992e-12 1.2965394e-13   -88.044007 
      11   -88.044007       3.5227       3.5227      35.2269            0           -0            0   -4860.4257   -7285.5484   -7285.5484   -10.180074 1.7495262e-12 -6.3240789e-12 -1.4107925e-12   -88.044007 
      12   -88.044007       3.5227       3.5227      35.2269            0           -0            0   -4852.2221   -7277.2259   -7277.2259   -2.2145608 -3.8105399e-12 -5.0801854e-12 -2.1624098e-12   -88.044007 
      13   -88.044007       3.5227       3.5227      35.2269            0           -0            0   -4850.4017   -7275.3278   -7275.3278  -0.54959584 1.9082615e-12 2.1734055e-12 2.8205019e-12   -88.044007 
      14   -88.044007       3.5227       3.5227      35.2269            0           -0            0   -4850.5576   -7275.5127   -7275.5127  -0.64740094 3.7101792e-12 -2.2604212e-13 -4.0961937e-12   -88.044007 
      15   -88.044007       3.5227       3.5227      35.2269            0           -0            0   -4850.3826   -7275.3307   -7275.3307  -0.48626796 1.6924734e-12 -1.3534878e-12 4.1190006e-12   -88.044007 
      16   -88.044007       3.5227       3.5227      35.2269            0           -0            0   -4850.1002   -7275.0534   -7275.0534   -0.1938974 -1.8051238e-12 -4.6439863e-13 1.189397e-12   -88.044007 
      17   -88.044007       3.5227       3.5227      35.2269            0           -0            0   -4849.9365   -7274.8887   -7274.8887 -0.032022587 -3.2638917e-12  2.60116e-12 -4.1118646e-12   -88.044007 
      18   -88.044007       3.5227       3.5227      35.2269            0           -0            0   -4849.9109   -7274.8608   -7274.8608 -0.011214353 2.7564668e-12 6.5435207e-13 -1.1399147e-12   -88.044007 
      19   -88.044007       3.5227       3.5227      35.2269            0           -0            0   -4849.9147   -7274.8653   -7274.8653 -0.013491357 1.7372473e-12 -2.6546994e-12 -1.4574171e-12   -88.044007 
      20   -88.044007       3.5227       3.5227      35.2269            0           -0            0   -4849.9114    -7274.862    -7274.862 -0.010073626 4.0340069e-12 -9.8787089e-13 -2.2919756e-12   -88.044007 
      21   -88.044007       3.5227       3.5227      35.2269            0           -0            0   -4849.9045   -7274.8551   -7274.8551 -0.0032749925 4.0729305e-12 -2.0241177e-12 7.6547375e-12   -88.044007 
      22   -88.044007       3.5227       3.5227      35.2269            0           -0            0   -4849.9026   -7274.8533   -7274.8533 -0.0012500217 -6.5068704e-12 1.2826929e-12 6.3347634e-12   -88.044007 
      23   -88.044007       3.5227       3.5227      35.2269            0           -0            0   -4849.9015   -7274.8521   -7274.8521 -0.00031855031 1.1133938e-12 -1.8728659e-12 2.9635714e-12   -88.044007 
      24   -88.044007       3.5227       3.5227      35.2269            0           -0            0   -4849.9015   -7274.8521   -7274.8521 -0.00026499749 3.1140057e-13 -4.1201056e-12 1.3874354e-12   -88.044007 
      25   -88.044007       3.5227       3.5227      35.2269            0           -0            0   -4849.9014   -7274.8521   -7274.8521 -0.00021896583 -1.8126863e-12 -2.741351e-12 -7.8850746e-14   -88.044007 
      26   -88.044007       3.5227       3.5227      35.2269            0           -0            0   -4849.9013   -7274.8519   -7274.8519 -0.00010113161 -3.676478e-12 1.3375375e-12 4.1433158e-12   -88.044007 
      27   -88.044007       3.5227       3.5227      35.2269            0           -0            0   -4849.9013   -7274.8519   -7274.8519 -5.2502404e-05 4.1685088e-12 -1.4748499e-12 -3.5865281e-12   -88.044007 
      28   -88.044007       3.5227       3.5227      35.2269            0           -0            0   -4849.9012   -7274.8518   -7274.8518 -7.2047163e-06 -3.3474062e-12 -5.0347937e-12 1.6349207e-14   -88.044007 
      29   -88.044007       3.5227       3.5227      35.2269            0           -0            0   -4849.9012   -7274.8518   -7274.8518 -5.3471089e-06 -2.6972936e-12 4.2948926e-13 -5.16086e-13   -88.044007 
      30   -88.044007       3.5227       3.5227      35.2269            0           -0            0   -4849.9012   -7274.8518   -7274.8518 -5.3473172e-06 -7.9546842e-13 -2.704427e-12 4.2601441e-12   -88.044007 
      31   -88.044007       3.5227       3.5227      35.2269            0           -0            0   -4849.9012   -7274.8518   -7274.8518 -3.5684348e-06 2.825086e-12 2.9120359e-13 1.8709658e-12   -88.044007 
      32   -88.044007       3.5227       3.5227      35.2269            0           -0            0   -4849.9012   -7274.8518   -7274.8518 -9.4309727e-07 -1.0072797e-12 -1.8175667e-12 -3.9227495e-12   -88.044007 
      33   -88.044007       3.5227       3.5227      35.2269            0           -0            0   -4849.9012   -7274.8518   -7274.8518 -2.8041974e-07 -4.0581161e-13 4.0378919e-12 1.1685222e-12   -88.044007 
      34   -88.044007       3.5227       3.5227      35.2269            0           -0            0   -4849.9012   -7274.8518   -7274.8518 -1.5843034e-07 1.9394767e-12 -2.2742323e-12 -3.8055767e-12   -88.044007 
      35   -88.044007       3.5227       3.5227      35.2269            0           -0            0   -4849.9012   -7274.8518   -7274.8518 -1.6185373e-07 1.5679887e-13 1.7271132e-12 -3.3324931e-13   -88.044007 
      36   -88.044007       3.5227       3.5227      35.2269            0           -0            0   -4849.9012   -7274.8518   -7274.8518 -7.623467e-08 2.5426368e-12 -5.8425278e-12 1.5440138e-12   -88.044007 
      37   -88.044007       3.5227       3.5227      35.2269            0           -0            0   -4849.9012   -7274.8518   -7274.8518 -1.5041026e-08 2.2011906e-12 2.4512169e-12 -2.9935778e-12   -88.044007 
      38   -88.044007       3.5227       3.5227      35.2269            0           -0            0   -4849.9012   -7274.8518   -7274.8518 -8.8345503e-09 3.8143545e-13 2.0847181e-12 1.7348103e-12   -88.044007 
      39   -88.044007       3.5227       3.5227      35.2269            0           -0            0   -4849.9012   -7274.8518   -7274.8518 -5.3548669e-09 3.2633011e-12 1.6760237e-12 2.9504275e-12   -88.044007 
      40   -88.044007       3.5227       3.5227      35.2269            0           -0            0   -4849.9012   -7274.8518   -7274.8518 -5.1687269e-09 -3.5514858e-12 1.5188565e-12 -9.1143328e-13   -88.044007 
      41   -88.044007       3.5227       3.5227      35.2269            0           -0            0   -4849.9012   -7274.8518   -7274.8518 -2.0839405e-09 -1.5300337e-12 6.2440595e-13 1.9775746e-13   -88.044007 
      42   -88.044007       3.5227       3.5227      35.2269            0           -0            0   -4849.9012   -7274.8518   -7274.8518 -9.16784e-10 -1.8859226e-12 -3.7876543e-13 2.534287e-12   -88.044007 
      43   -88.044007       3.5227       3.5227      35.2269            0           -0            0   -4849.9012   -7274.8518   -7274.8518 -7.0705115e-10 7.6025385e-13 -6.0515934e-12 -2.154994e-13   -88.044007 
      44   -88.044007       3.5227       3.5227      35.2269            0           -0            0   -4849.9012   -7274.8518   -7274.8518 -4.6667855e-10 1.6820494e-12 2.2931369e-12 2.3576154e-12   -88.044007 
      45   -88.044007       3.5227       3.5227      35.2269            0           -0            0   -4849.9012   -7274.8518   -7274.8518 -3.0890547e-10 -5.6083085e-13 -1.7089894e-12 -2.3180293e-12   -88.044007 
      46   -88.044007       3.5227       3.5227      35.2269            0           -0            0   -4849.9012   -7274.8518   -7274.8518 -5.5778224e-11 -1.5642021e-12 5.530996e-13 1.1894133e-12   -88.044007 
      47   -88.044007       3.5227       3.5227      35.2269            0           -0            0   -4849.9012   -7274.8518   -7274.8518 -4.1252993e-11 -7.5761584e-13 1.0726657e-14 5.0936009e-12   -88.044007 
Loop time of 0.0320361 on 1 procs for 47 steps with 20 atoms

77.1% CPU use with 1 MPI tasks x no OpenMP threads

Minimization stats:
  Stopping criterion = energy tolerance
  Energy initial, next-to-last, final = 
        -87.6027157251     -88.0440071602     -88.0440071602
  Force two-norm initial, final = 1.85291 8.7245e-15
  Force max component initial, final = 0.704922 4.58314e-15
  Final line search alpha, max atom move = 1 4.58314e-15
  Iterations, force evaluations = 47 91

MPI task timing breakdown:
Section |  min time  |  avg time  |  max time  |%varavg| %total
---------------------------------------------------------------
Pair    | 0.030266   | 0.030266   | 0.030266   |   0.0 | 94.47
Neigh   | 0          | 0          | 0          |   0.0 |  0.00
Comm    | 0.00081778 | 0.00081778 | 0.00081778 |   0.0 |  2.55
Output  | 0.00069475 | 0.00069475 | 0.00069475 |   0.0 |  2.17
Modify  | 0          | 0          | 0          |   0.0 |  0.00
Other   |            | 0.0002575  |            |       |  0.80

Nlocal:    20 ave 20 max 20 min
Histogram: 1 0 0 0 0 0 0 0 0 0
Nghost:    1893 ave 1893 max 1893 min
Histogram: 1 0 0 0 0 0 0 0 0 0
Neighs:    4044 ave 4044 max 4044 min
Histogram: 1 0 0 0 0 0 0 0 0 0

Total # of neighbors = 4044
Ave neighs/atom = 202.2
Neighbor list builds = 0
Dangerous builds = 0

# ---- define output variables ----
variable natoms equal "count(all)"
variable tot_energy equal "c_eatoms"
variable a11 equal "xhi-xlo"
variable a22 equal "yhi-ylo"
variable a33 equal "zhi-zlo"
variable tilt_xy equal "xy"
variable tilt_xz equal "xz"
variable tilt_yz equal "yz"
variable tot_press equal "press"
variable press_xx equal "pxx"
variable press_yy equal "pyy"
variable press_zz equal "pzz"
variable press_xy equal "pxy"
variable press_xz equal "pxz"
variable press_yz equal "pyz"

# ---- output ----
print "pypospack:output_section:begin"
pypospack:output_section:begin
print "tot_energy = ${tot_energy}"
tot_energy = -88.0440071601774
print "num_atoms = ${natoms}"
num_atoms = 20
print "a11 = ${a11}"
a11 = 3.5227
print "a22 = ${a22}"
a22 = 3.5227
print "a33 = ${a33}"
a33 = 35.2269
print "a12 = ${tilt_xy}"
a12 = 0
print "a13 = ${tilt_xz}"
a13 = -0
print "a23 = ${tilt_yz}"
a23 = 0
print "tot_press = ${tot_press}"
tot_press = -4849.90122270396
print "pxx = ${press_xx}"
pxx = -7274.85183405592
print "pyy = ${press_yy}"
pyy = -7274.85183405593
print "pzz = ${press_zz}"
pzz = -4.12529926369633e-11
print "pxy = ${press_xy}"
pxy = -7.5761584006375e-13
print "pxz = ${press_xz}"
pxz = 1.07266569403812e-14
print "pyz = ${press_yz}"
pyz = 5.09360089550274e-12
print "pypospack:output_section:done"
pypospack:output_section:done
print "pypospack:lammps_sim:done"
pypospack:lammps_sim:done
Total wall time: 0:00:00
