LAMMPS (11 Aug 2017)
# ---- initialize simulations
clear
units metal
dimension 3
boundary p p p
atom_style atomic
atom_modify map array
# ---- create atoms
read_data /home/sullberg/repos/pypospack/examples/Ni__eam__born_exp_rose/01_preconditioning_3.5NN/rank_1/Ni_fcc_vac.lmps_min_pos/lammps.structure
  triclinic box = (0 0 0) to (10.5481 10.5481 10.5481) with tilt (0 -0 -0)
  1 by 1 by 1 MPI processor grid
  reading atoms ...
  107 atoms
# ---- define interatomic potential
include potential.mod
mass 1 58.6934

group Ni type 1
107 atoms in group Ni

pair_style eam/alloy
pair_coeff * * /home/sullberg/repos/pypospack/examples/Ni__eam__born_exp_rose/01_preconditioning_3.5NN/rank_1/Ni_fcc_vac.lmps_min_pos/Ni.eam.alloy Ni

neighbor 1.0 bin
neigh_modify every 1 delay 0 check yes
# ---- define settings
compute eng all pe/atom
compute eatoms all reduce sum c_eng

# ---- run minimization
reset_timestep 0
thermo 1
thermo_style custom step pe lx ly lz xy xz yz press pxx pyy pzz pxy pxz pyz c_eatoms
min_style cg
minimize 1e-20 1e-20 1000 100000
Neighbor list info ...
  update every 1 steps, delay 0 steps, check yes
  max neighbors/atom: 2000, page size: 100000
  master list distance cutoff = 11
  ghost atom cutoff = 11
  binsize = 5.5, bins = 2 2 2
  1 neighbor lists, perpetual/occasional/extra = 1 0 0
  (1) pair eam/alloy, perpetual
      attributes: half, newton on
      pair build: half/bin/newton/tri
      stencil: half/bin/3d/newton/tri
      bin: standard
Per MPI rank memory allocation (min/avg/max) = 4.384 | 4.384 | 4.384 Mbytes
Step PotEng Lx Ly Lz Xy Xz Yz Press Pxx Pyy Pzz Pxy Pxz Pyz c_eatoms 
       0   -481.02706      10.5481      10.5481      10.5481            0           -0           -0   -8274.1735   -8274.1735   -8274.1735   -8274.1735 -2.5224476e-06 -2.5224714e-06 -2.5224803e-06   -481.02706 
       1    -481.1717      10.5481      10.5481      10.5481            0           -0           -0   -10584.819   -10584.819   -10584.819   -10584.819 -2.005467e-05 -2.0054683e-05 -2.0054677e-05    -481.1717 
       2     -481.186      10.5481      10.5481      10.5481            0           -0           -0    -10730.14    -10730.14    -10730.14    -10730.14 2.1644946e-05 2.1644924e-05 2.1644929e-05     -481.186 
       3   -481.18809      10.5481      10.5481      10.5481            0           -0           -0   -10897.058   -10897.058   -10897.058   -10897.058 -1.6755017e-05 -1.6754976e-05 -1.6754972e-05   -481.18809 
       4   -481.18828      10.5481      10.5481      10.5481            0           -0           -0   -10915.295   -10915.295   -10915.295   -10915.295 6.0265329e-06 6.0265319e-06 6.0265518e-06   -481.18828 
       5   -481.18831      10.5481      10.5481      10.5481            0           -0           -0   -10907.788   -10907.788   -10907.788   -10907.788 -3.5453966e-06 -3.545408e-06 -3.5454126e-06   -481.18831 
       6   -481.18832      10.5481      10.5481      10.5481            0           -0           -0   -10904.983   -10904.983   -10904.983   -10904.983 8.9400241e-07 8.9398732e-07 8.9398645e-07   -481.18832 
       7   -481.18832      10.5481      10.5481      10.5481            0           -0           -0   -10906.424   -10906.424   -10906.424   -10906.424 -1.7091983e-06 -1.7091901e-06 -1.7092078e-06   -481.18832 
       8   -481.18832      10.5481      10.5481      10.5481            0           -0           -0   -10906.626   -10906.626   -10906.626   -10906.626 -3.9832609e-07 -3.9830744e-07 -3.9831154e-07   -481.18832 
       9   -481.18832      10.5481      10.5481      10.5481            0           -0           -0   -10906.567   -10906.567   -10906.567   -10906.567 -3.0464836e-07 -3.0467021e-07 -3.0469832e-07   -481.18832 
      10   -481.18832      10.5481      10.5481      10.5481            0           -0           -0   -10906.522   -10906.522   -10906.522   -10906.522 -1.6271473e-07 -1.6271028e-07 -1.6268366e-07   -481.18832 
      11   -481.18832      10.5481      10.5481      10.5481            0           -0           -0   -10906.514   -10906.514   -10906.514   -10906.514 -1.5307907e-07 -1.5306581e-07 -1.5306121e-07   -481.18832 
      12   -481.18832      10.5481      10.5481      10.5481            0           -0           -0   -10906.514   -10906.514   -10906.514   -10906.514 -1.2382138e-07 -1.2377564e-07 -1.2375249e-07   -481.18832 
      13   -481.18832      10.5481      10.5481      10.5481            0           -0           -0   -10906.515   -10906.515   -10906.515   -10906.515 -9.1991659e-08 -9.2022583e-08 -9.2030573e-08   -481.18832 
      14   -481.18832      10.5481      10.5481      10.5481            0           -0           -0   -10906.514   -10906.514   -10906.514   -10906.514 -5.5320713e-08 -5.5319989e-08 -5.5301004e-08   -481.18832 
      15   -481.18832      10.5481      10.5481      10.5481            0           -0           -0   -10906.514   -10906.514   -10906.514   -10906.514 -3.9887849e-08 -3.9913293e-08 -3.991233e-08   -481.18832 
      16   -481.18832      10.5481      10.5481      10.5481            0           -0           -0   -10906.515   -10906.515   -10906.515   -10906.515 -1.0971074e-08 -1.1027883e-08 -1.0970341e-08   -481.18832 
      17   -481.18832      10.5481      10.5481      10.5481            0           -0           -0   -10906.515   -10906.515   -10906.515   -10906.515 9.7491062e-09 9.7601938e-09 9.7273862e-09   -481.18832 
      18   -481.18832      10.5481      10.5481      10.5481            0           -0           -0   -10906.514   -10906.514   -10906.514   -10906.514 1.1005762e-08 1.0995156e-08 1.1049966e-08   -481.18832 
      19   -481.18832      10.5481      10.5481      10.5481            0           -0           -0   -10906.514   -10906.514   -10906.514   -10906.514 1.0832302e-08 1.0848405e-08 1.082031e-08   -481.18832 
      20   -481.18832      10.5481      10.5481      10.5481            0           -0           -0   -10906.514   -10906.514   -10906.514   -10906.514 2.8616085e-09 2.8671716e-09 2.8586258e-09   -481.18832 
      21   -481.18832      10.5481      10.5481      10.5481            0           -0           -0   -10906.514   -10906.514   -10906.514   -10906.514 2.7658353e-09 2.7608545e-09 2.7626592e-09   -481.18832 
      22   -481.18832      10.5481      10.5481      10.5481            0           -0           -0   -10906.514   -10906.514   -10906.514   -10906.514 1.8893575e-09 1.9041024e-09 1.8829934e-09   -481.18832 
      23   -481.18832      10.5481      10.5481      10.5481            0           -0           -0   -10906.514   -10906.514   -10906.514   -10906.514 1.8592055e-09 1.8469377e-09 1.8290329e-09   -481.18832 
      24   -481.18832      10.5481      10.5481      10.5481            0           -0           -0   -10906.514   -10906.514   -10906.514   -10906.514 1.5957161e-09 1.6321637e-09 1.6468902e-09   -481.18832 
      25   -481.18832      10.5481      10.5481      10.5481            0           -0           -0   -10906.514   -10906.514   -10906.514   -10906.514 1.2698109e-09 1.259842e-09 1.2795088e-09   -481.18832 
      26   -481.18832      10.5481      10.5481      10.5481            0           -0           -0   -10906.514   -10906.514   -10906.514   -10906.514 9.7229311e-10 9.4611863e-10 9.4349533e-10   -481.18832 
      27   -481.18832      10.5481      10.5481      10.5481            0           -0           -0   -10906.514   -10906.514   -10906.514   -10906.514 5.9374421e-10 6.0515724e-10 6.1027207e-10   -481.18832 
      28   -481.18832      10.5481      10.5481      10.5481            0           -0           -0   -10906.514   -10906.514   -10906.514   -10906.514 3.1077639e-10 3.0302783e-10 3.1632131e-10   -481.18832 
      29   -481.18832      10.5481      10.5481      10.5481            0           -0           -0   -10906.514   -10906.514   -10906.514   -10906.514 1.471595e-10 1.6126571e-10 1.3745603e-10   -481.18832 
      30   -481.18832      10.5481      10.5481      10.5481            0           -0           -0   -10906.514   -10906.514   -10906.514   -10906.514 1.0671191e-10 1.1087023e-10 1.2285796e-10   -481.18832 
      31   -481.18832      10.5481      10.5481      10.5481            0           -0           -0   -10906.514   -10906.514   -10906.514   -10906.514 1.1858496e-10 1.0678984e-10 1.0918964e-10   -481.18832 
      32   -481.18832      10.5481      10.5481      10.5481            0           -0           -0   -10906.514   -10906.514   -10906.514   -10906.514 4.3973279e-11 1.0202752e-10 8.5835011e-11   -481.18832 
      33   -481.18832      10.5481      10.5481      10.5481            0           -0           -0   -10906.514   -10906.514   -10906.514   -10906.514 6.9432436e-11 6.6223169e-11 8.3717561e-11   -481.18832 
      34   -481.18832      10.5481      10.5481      10.5481            0           -0           -0   -10906.514   -10906.514   -10906.514   -10906.514 8.4208144e-11 5.6647145e-11 8.0718965e-11   -481.18832 
      35   -481.18832      10.5481      10.5481      10.5481            0           -0           -0   -10906.514   -10906.514   -10906.514   -10906.514 5.9486879e-11 6.5295441e-11 5.2592634e-11   -481.18832 
      36   -481.18832      10.5481      10.5481      10.5481            0           -0           -0   -10906.514   -10906.514   -10906.514   -10906.514 1.1646387e-11 3.3906273e-11 4.6827158e-11   -481.18832 
      37   -481.18832      10.5481      10.5481      10.5481            0           -0           -0   -10906.514   -10906.514   -10906.514   -10906.514 7.5466507e-12 3.1674154e-11 4.6415184e-11   -481.18832 
      38   -481.18832      10.5481      10.5481      10.5481            0           -0           -0   -10906.514   -10906.514   -10906.514   -10906.514 -6.9214327e-12 2.1615058e-11 2.5626174e-11   -481.18832 
      39   -481.18832      10.5481      10.5481      10.5481            0           -0           -0   -10906.514   -10906.514   -10906.514   -10906.514 6.4919662e-12 3.5116262e-11 8.8323471e-12   -481.18832 
      40   -481.18832      10.5481      10.5481      10.5481            0           -0           -0   -10906.514   -10906.514   -10906.514   -10906.514 -4.750752e-12 3.8353373e-12 2.2133256e-11   -481.18832 
      41   -481.18832      10.5481      10.5481      10.5481            0           -0           -0   -10906.514   -10906.514   -10906.514   -10906.514 -7.8497262e-12 8.874045e-12 2.2206962e-11   -481.18832 
      42   -481.18832      10.5481      10.5481      10.5481            0           -0           -0   -10906.514   -10906.514   -10906.514   -10906.514 -7.9278958e-12 2.7573332e-11 3.3370683e-11   -481.18832 
      43   -481.18832      10.5481      10.5481      10.5481            0           -0           -0   -10906.514   -10906.514   -10906.514   -10906.514 -3.6690553e-11 4.1231577e-11 3.0104454e-11   -481.18832 
      44   -481.18832      10.5481      10.5481      10.5481            0           -0           -0   -10906.514   -10906.514   -10906.514   -10906.514 -2.5624786e-12 4.1507435e-11 2.4725075e-11   -481.18832 
Loop time of 0.39756 on 1 procs for 44 steps with 107 atoms

40.5% CPU use with 1 MPI tasks x no OpenMP threads

Minimization stats:
  Stopping criterion = energy tolerance
  Energy initial, next-to-last, final = 
        -481.027061834     -481.188319066     -481.188319066
  Force two-norm initial, final = 0.939651 2.93159e-14
  Force max component initial, final = 0.184108 5.28744e-15
  Final line search alpha, max atom move = 1 5.28744e-15
  Iterations, force evaluations = 44 88

MPI task timing breakdown:
Section |  min time  |  avg time  |  max time  |%varavg| %total
---------------------------------------------------------------
Pair    | 0.3917     | 0.3917     | 0.3917     |   0.0 | 98.53
Neigh   | 0          | 0          | 0          |   0.0 |  0.00
Comm    | 0.0039728  | 0.0039728  | 0.0039728  |   0.0 |  1.00
Output  | 0.0012236  | 0.0012236  | 0.0012236  |   0.0 |  0.31
Modify  | 0          | 0          | 0          |   0.0 |  0.00
Other   |            | 0.000659   |            |       |  0.17

Nlocal:    107 ave 107 max 107 min
Histogram: 1 0 0 0 0 0 0 0 0 0
Nghost:    3259 ave 3259 max 3259 min
Histogram: 1 0 0 0 0 0 0 0 0 0
Neighs:    28093 ave 28093 max 28093 min
Histogram: 1 0 0 0 0 0 0 0 0 0

Total # of neighbors = 28093
Ave neighs/atom = 262.551
Neighbor list builds = 0
Dangerous builds = 0

# ---- define output variables ----
variable natoms equal "count(all)"
variable tot_energy equal "c_eatoms"
variable a11 equal "xhi-xlo"
variable a22 equal "yhi-ylo"
variable a33 equal "zhi-zlo"
variable tilt_xy equal "xy"
variable tilt_xz equal "xz"
variable tilt_yz equal "yz"
variable tot_press equal "press"
variable press_xx equal "pxx"
variable press_yy equal "pyy"
variable press_zz equal "pzz"
variable press_xy equal "pxy"
variable press_xz equal "pxz"
variable press_yz equal "pyz"

# ---- output ----
print "pypospack:output_section:begin"
pypospack:output_section:begin
print "tot_energy = ${tot_energy}"
tot_energy = -481.188319066
print "num_atoms = ${natoms}"
num_atoms = 107
print "a11 = ${a11}"
a11 = 10.5481
print "a22 = ${a22}"
a22 = 10.5481
print "a33 = ${a33}"
a33 = 10.5481
print "a12 = ${tilt_xy}"
a12 = 0
print "a13 = ${tilt_xz}"
a13 = -0
print "a23 = ${tilt_yz}"
a23 = -0
print "tot_press = ${tot_press}"
tot_press = -10906.514461481
print "pxx = ${press_xx}"
pxx = -10906.5144614811
print "pyy = ${press_yy}"
pyy = -10906.5144614811
print "pzz = ${press_zz}"
pzz = -10906.514461481
print "pxy = ${press_xy}"
pxy = -2.5624786137208e-12
print "pxz = ${press_xz}"
pxz = 4.1507434955233e-11
print "pyz = ${press_yz}"
pyz = 2.47250746462979e-11
print "pypospack:output_section:done"
pypospack:output_section:done
print "pypospack:lammps_sim:done"
pypospack:lammps_sim:done
Total wall time: 0:00:00
