# ['Ni']

10 atoms
1 atom types

    0.0000     3.2472 xlo xhi
    0.0000     2.3245 ylo yhi
    0.0000    23.2447 zlo zhi

    0.0000     0.0000     0.0000 xy xz yz

Atoms

1 1     0.0000     0.0000     0.0000
2 1     1.6236     1.1622     1.1622
3 1     0.0000     0.0000     2.3245
4 1     1.6236     1.1622     3.4867
5 1     0.0000     0.0000     4.6489
6 1     1.6236     1.1622     5.8112
7 1     0.0000     0.0000     6.9734
8 1     1.6236     1.1622     8.1356
9 1     0.0000     0.0000     9.2979
10 1     1.6236     1.1622    10.4601
