<?xml version="1.0" encoding="ISO-8859-1"?>
<modeling>
 <generator>
  <i name="program" type="string">vasp </i>
  <i name="version" type="string">5.4.1  </i>
  <i name="subversion" type="string">24Jun15 (build Jun 05 2017 10:38:15) complex                          parallel </i>
  <i name="platform" type="string">IFC91_ompi </i>
  <i name="date" type="string">2017 10 21 </i>
  <i name="time" type="string">22:23:26 </i>
 </generator>
 <incar>
  <i type="string" name="SYSTEM"> automatically generated by pyflamestk</i>
  <i type="int" name="ISTART">     0</i>
  <i type="string" name="PREC">high                   ! avoid wrap aro</i>
  <i type="string" name="ALGO"> Normal                 ! blocked Davids</i>
  <i type="int" name="ISPIN">     1</i>
  <i type="int" name="ICHARG">     0</i>
  <i type="int" name="NELM">    40</i>
  <i name="EDIFF">      0.00000100</i>
  <i name="ENCUT">    550.00000000</i>
  <i type="logical" name="LREAL"> F  </i>
  <i type="int" name="ISMEAR">     0</i>
  <i name="SIGMA">      0.05000000</i>
  <i type="logical" name="LWAVE"> F  </i>
  <i type="logical" name="LCHARG"> F  </i>
  <i type="logical" name="LVTOT"> F  </i>
  <v type="int" name="KPOINT_BSE">    -1     0     0     0</v>
  <i type="int" name="NELM">    40</i>
 </incar>
 <kpoints>
  <generation param="Monkhorst-Pack">
   <v type="int" name="divisions">       4        4        4 </v>
   <v name="usershift">      0.00000000       0.00000000       0.00000000 </v>
   <v name="genvec1">      0.25000000      -0.00000000      -0.00000000 </v>
   <v name="genvec2">      0.00000000       0.25000000       0.00000000 </v>
   <v name="genvec3">      0.00000000       0.00000000       0.25000000 </v>
   <v name="shift">      0.50000000       0.50000000       0.50000000 </v>
  </generation>
  <varray name="kpointlist" >
   <v>       0.12500000       0.12500000       0.12500000 </v>
   <v>       0.37500000       0.12500000       0.12500000 </v>
   <v>      -0.37500000       0.12500000       0.12500000 </v>
   <v>      -0.12500000       0.12500000       0.12500000 </v>
   <v>       0.37500000       0.37500000       0.12500000 </v>
   <v>      -0.37500000       0.37500000       0.12500000 </v>
   <v>      -0.12500000       0.37500000       0.12500000 </v>
   <v>      -0.37500000      -0.37500000       0.12500000 </v>
   <v>       0.37500000       0.37500000       0.37500000 </v>
   <v>      -0.37500000       0.37500000       0.37500000 </v>
  </varray>
  <varray name="weights" >
   <v>       0.03125000 </v>
   <v>       0.09375000 </v>
   <v>       0.09375000 </v>
   <v>       0.09375000 </v>
   <v>       0.09375000 </v>
   <v>       0.18750000 </v>
   <v>       0.18750000 </v>
   <v>       0.09375000 </v>
   <v>       0.03125000 </v>
   <v>       0.09375000 </v>
  </varray>
 </kpoints>
 <parameters>
  <separator name="general" >
   <i type="string" name="SYSTEM">automatically generated by pyflamestk</i>
   <i type="logical" name="LCOMPAT"> F  </i>
  </separator>
  <separator name="electronic" >
   <i type="string" name="PREC">high</i>
   <i name="ENMAX">    550.00000000</i>
   <i name="ENAUG">    888.80400000</i>
   <i name="EDIFF">      0.00000100</i>
   <i type="int" name="IALGO">    38</i>
   <i type="int" name="IWAVPR">    10</i>
   <i type="int" name="NBANDS">    16</i>
   <i name="NELECT">      8.00000000</i>
   <i type="int" name="TURBO">     0</i>
   <i type="int" name="IRESTART">     0</i>
   <i type="int" name="NREBOOT">     0</i>
   <i type="int" name="NMIN">     0</i>
   <i name="EREF">      0.00000000</i>
   <separator name="electronic smearing" >
    <i type="int" name="ISMEAR">     0</i>
    <i name="SIGMA">      0.05000000</i>
    <i name="KSPACING">      0.50000000</i>
    <i type="logical" name="KGAMMA"> T  </i>
   </separator>
   <separator name="electronic projectors" >
    <i type="logical" name="LREAL"> F  </i>
    <v name="ROPT">      0.00000000      0.00000000</v>
    <i type="int" name="LMAXPAW">  -100</i>
    <i type="int" name="LMAXMIX">     2</i>
    <i type="logical" name="NLSPLINE"> F  </i>
   </separator>
   <separator name="electronic startup" >
    <i type="int" name="ISTART">     0</i>
    <i type="int" name="ICHARG">     0</i>
    <i type="int" name="INIWAV">     1</i>
   </separator>
   <separator name="electronic spin" >
    <i type="int" name="ISPIN">     1</i>
    <i type="logical" name="LNONCOLLINEAR"> F  </i>
    <v name="MAGMOM">      1.00000000      1.00000000</v>
    <i name="NUPDOWN">     -1.00000000</i>
    <i type="logical" name="LSORBIT"> F  </i>
    <v name="SAXIS">      0.00000000      0.00000000      1.00000000</v>
    <i type="logical" name="LSPIRAL"> F  </i>
    <v name="QSPIRAL">      0.00000000      0.00000000      0.00000000</v>
    <i type="logical" name="LZEROZ"> F  </i>
   </separator>
   <separator name="electronic exchange-correlation" >
    <i type="logical" name="LASPH"> F  </i>
    <i type="logical" name="LMETAGGA"> F  </i>
   </separator>
   <separator name="electronic convergence" >
    <i type="int" name="NELM">    40</i>
    <i type="int" name="NELMDL">    -5</i>
    <i type="int" name="NELMIN">     2</i>
    <i name="ENINI">    550.00000000</i>
    <separator name="electronic convergence detail" >
     <i type="logical" name="LDIAG"> T  </i>
     <i type="logical" name="LSUBROT"> F  </i>
     <i name="WEIMIN">      0.00000000</i>
     <i name="EBREAK">      0.00000002</i>
     <i name="DEPER">      0.30000000</i>
     <i type="int" name="NRMM">     4</i>
     <i name="TIME">      0.40000000</i>
    </separator>
   </separator>
   <separator name="electronic mixer" >
    <i name="AMIX">      0.40000000</i>
    <i name="BMIX">      1.00000000</i>
    <i name="AMIN">      0.10000000</i>
    <i name="AMIX_MAG">      1.60000000</i>
    <i name="BMIX_MAG">      1.00000000</i>
    <separator name="electronic mixer details" >
     <i type="int" name="IMIX">     4</i>
     <i type="logical" name="MIXFIRST"> F  </i>
     <i type="int" name="MAXMIX">   -45</i>
     <i name="WC">    100.00000000</i>
     <i type="int" name="INIMIX">     1</i>
     <i type="int" name="MIXPRE">     1</i>
     <i type="int" name="MREMOVE">     5</i>
    </separator>
   </separator>
   <separator name="electronic dipolcorrection" >
    <i type="logical" name="LDIPOL"> F  </i>
    <i type="logical" name="LMONO"> F  </i>
    <i type="int" name="IDIPOL">     0</i>
    <i name="EPSILON">      1.00000000</i>
    <v name="DIPOL">   -100.00000000   -100.00000000   -100.00000000</v>
    <i name="EFIELD">      0.00000000</i>
   </separator>
  </separator>
  <separator name="grids" >
   <i type="int" name="NGX">    24</i>
   <i type="int" name="NGY">    24</i>
   <i type="int" name="NGZ">    24</i>
   <i type="int" name="NGXF">    40</i>
   <i type="int" name="NGYF">    40</i>
   <i type="int" name="NGZF">    40</i>
   <i type="logical" name="ADDGRID"> F  </i>
  </separator>
  <separator name="ionic" >
   <i type="int" name="NSW">     0</i>
   <i type="int" name="IBRION">    -1</i>
   <i type="int" name="ISIF">     2</i>
   <i name="PSTRESS">      0.00000000</i>
   <i name="EDIFFG">      0.00001000</i>
   <i type="int" name="NFREE">     0</i>
   <i name="POTIM">      0.50000000</i>
   <i name="SMASS">     -3.00000000</i>
   <i name="SCALEE">      1.00000000</i>
  </separator>
  <separator name="ionic md" >
   <i name="TEBEG">      0.00010000</i>
   <i name="TEEND">      0.00010000</i>
   <i type="int" name="NBLOCK">     1</i>
   <i type="int" name="KBLOCK">     1</i>
   <i type="int" name="NPACO">   256</i>
   <i name="APACO">     16.00000000</i>
  </separator>
  <separator name="symmetry" >
   <i type="int" name="ISYM">     2</i>
   <i name="SYMPREC">      0.00001000</i>
  </separator>
  <separator name="dos" >
   <i type="logical" name="LORBIT"> F  </i>
   <v name="RWIGS">     -1.00000000     -1.00000000</v>
   <i type="int" name="NEDOS">   301</i>
   <i name="EMIN">     10.00000000</i>
   <i name="EMAX">    -10.00000000</i>
   <i name="EFERMI">      0.00000000</i>
  </separator>
  <separator name="writing" >
   <i type="int" name="NWRITE">     2</i>
   <i type="logical" name="LWAVE"> F  </i>
   <i type="logical" name="LCHARG"> F  </i>
   <i type="logical" name="LPARD"> F  </i>
   <i type="logical" name="LVTOT"> F  </i>
   <i type="logical" name="LVHAR"> F  </i>
   <i type="logical" name="LELF"> F  </i>
   <i type="logical" name="LOPTICS"> F  </i>
   <v name="STM">      0.00000000      0.00000000      0.00000000      0.00000000      0.00000000      0.00000000      0.00000000</v>
  </separator>
  <separator name="performance" >
   <i type="int" name="NPAR">    16</i>
   <i type="int" name="NSIM">     4</i>
   <i type="int" name="NBLK">    -1</i>
   <i type="logical" name="LPLANE"> T  </i>
   <i type="logical" name="LSCALAPACK"> T  </i>
   <i type="logical" name="LSCAAWARE"> F  </i>
   <i type="logical" name="LSCALU"> F  </i>
   <i type="logical" name="LASYNC"> F  </i>
   <i type="logical" name="LORBITALREAL"> F  </i>
  </separator>
  <separator name="miscellaneous" >
   <i type="int" name="IDIOT">     3</i>
   <i type="logical" name="LMUSIC"> F  </i>
   <v name="POMASS">     24.30500000     16.00000000</v>
   <v name="DARWINR">      0.00000000      0.00000000</v>
   <v name="DARWINV">      1.00000000      1.00000000</v>
   <i type="logical" name="LCORR"> T  </i>
  </separator>
  <i type="logical" name="GGA_COMPAT"> T  </i>
  <i type="logical" name="LBERRY"> F  </i>
  <i type="int" name="ICORELEVEL">     0</i>
  <i type="logical" name="LDAU"> F  </i>
  <i type="int" name="I_CONSTRAINED_M">     0</i>
  <separator name="electronic exchange-correlation" >
   <i type="string" name="GGA">--</i>
   <i type="int" name="VOSKOWN">     0</i>
   <i type="logical" name="LHFCALC"> F  </i>
   <i type="string" name="PRECFOCK"></i>
   <i type="logical" name="LSYMGRAD"> F  </i>
   <i type="logical" name="LHFONE"> F  </i>
   <i type="logical" name="LRHFCALC"> F  </i>
   <i type="logical" name="LTHOMAS"> F  </i>
   <i type="logical" name="LMODELHF"> F  </i>
   <i name="ENCUT4O">     -1.00000000</i>
   <i type="int" name="EXXOEP">     0</i>
   <i type="int" name="FOURORBIT">     0</i>
   <i name="AEXX">      0.00000000</i>
   <i name="HFALPHA">      0.00000000</i>
   <i name="MCALPHA">      0.00000000</i>
   <i name="ALDAX">      1.00000000</i>
   <i name="AGGAX">      1.00000000</i>
   <i name="ALDAC">      1.00000000</i>
   <i name="AGGAC">      1.00000000</i>
   <i type="int" name="NKREDX">     1</i>
   <i type="int" name="NKREDY">     1</i>
   <i type="int" name="NKREDZ">     1</i>
   <i type="logical" name="SHIFTRED"> F  </i>
   <i type="logical" name="ODDONLY"> F  </i>
   <i type="logical" name="EVENONLY"> F  </i>
   <i type="int" name="LMAXFOCK">     0</i>
   <i type="int" name="NMAXFOCKAE">     0</i>
   <i type="logical" name="LFOCKAEDFT"> F  </i>
   <i name="HFSCREEN">      0.00000000</i>
   <i name="HFSCREENC">      0.00000000</i>
   <i type="int" name="NBANDSGWLOW">     0</i>
  </separator>
  <separator name="vdW DFT" >
   <i type="logical" name="LUSE_VDW"> F  </i>
   <i name="Zab_VDW">     -0.84910000</i>
   <i name="PARAM1">      0.12340000</i>
   <i name="PARAM2">      1.00000000</i>
   <i name="PARAM3">      0.00000000</i>
  </separator>
  <separator name="model GW" >
   <i type="int" name="MODEL_GW">     0</i>
   <i name="MODEL_EPS0">      5.78381065</i>
   <i name="MODEL_ALPHA">      1.00000000</i>
  </separator>
  <separator name="linear response parameters" >
   <i type="logical" name="LEPSILON"> F  </i>
   <i type="logical" name="LRPA"> F  </i>
   <i type="logical" name="LNABLA"> F  </i>
   <i type="logical" name="LVEL"> F  </i>
   <i type="int" name="KINTER">     0</i>
   <i name="CSHIFT">      0.10000000</i>
   <i name="OMEGAMAX">     -1.00000000</i>
   <i name="DEG_THRESHOLD">      0.00200000</i>
  </separator>
  <separator name="orbital magnetization" >
   <i type="logical" name="NUCIND"> F  </i>
   <v name="MAGPOS">      0.00000000      0.00000000      0.00000000</v>
   <i type="logical" name="LNICSALL"> T  </i>
   <i type="logical" name="ORBITALMAG"> F  </i>
   <i type="logical" name="LMAGBLOCH"> F  </i>
   <i type="logical" name="LCHIMAG"> F  </i>
   <i type="logical" name="LGAUGE"> T  </i>
   <i type="int" name="MAGATOM">     0</i>
   <v name="MAGDIPOL">      0.00000000      0.00000000      0.00000000</v>
   <v name="AVECCONST">      0.00000000      0.00000000      0.00000000</v>
  </separator>
  <separator name="response functions" >
   <i type="logical" name="LADDER"> F  </i>
   <i type="logical" name="LFXC"> F  </i>
   <i type="logical" name="LHARTREE"> T  </i>
   <i type="int" name="IBSE">     0</i>
   <v type="int" name="KPOINT">    -1     0     0     0</v>
   <i type="logical" name="LTCTE"> F  </i>
   <i type="logical" name="LTETE"> F  </i>
   <i type="logical" name="LTRIPLET"> F  </i>
   <i type="logical" name="LFXCEPS"> F  </i>
   <i type="logical" name="LFXHEG"> F  </i>
   <i type="int" name="NATURALO">     0</i>
   <i type="logical" name="L2ORDER"> F  </i>
   <i type="logical" name="LUSEW"> F  </i>
   <i name="ENCUTGW">     -2.00000000</i>
   <i name="ENCUTGWSOFT">     -2.00000000</i>
   <i name="ENCUTLF">     -1.00000000</i>
   <i type="int" name="LMAXMP2">    -1</i>
   <i name="SCISSOR">      0.00000000</i>
   <i type="int" name="NOMEGA">     0</i>
   <i type="int" name="NOMEGAR">     0</i>
   <i type="int" name="NBANDSGW">    -1</i>
   <i type="int" name="NBANDSO">    -1</i>
   <i type="int" name="NBANDSV">    -1</i>
   <i type="int" name="NELM">    40</i>
   <i type="int" name="NELMHF">     1</i>
   <i type="int" name="DIM">     3</i>
   <i type="int" name="ANTIRES">     0</i>
   <i name="OMEGAMAX">    -30.00000000</i>
   <i name="OMEGAMIN">    -30.00000000</i>
   <i name="OMEGATL">   -200.00000000</i>
   <i type="int" name="OMEGAGRID">     0</i>
   <i name="CSHIFT">     -0.10000000</i>
   <i type="logical" name="SELFENERGY"> F  </i>
   <i type="logical" name="LSPECTRAL"> F  </i>
   <i type="logical" name="LSPECTRALGW"> F  </i>
   <i type="logical" name="LSINGLES"> F  </i>
   <i type="logical" name="LFERMIGW"> F  </i>
   <i type="logical" name="ODDONLYGW"> F  </i>
   <i type="logical" name="EVENONLYGW"> F  </i>
   <i type="int" name="NKREDLFX">     1</i>
   <i type="int" name="NKREDLFY">     1</i>
   <i type="int" name="NKREDLFZ">     1</i>
   <i type="int" name="MAXMEM">  1800</i>
   <i type="int" name="TELESCOPE">     0</i>
   <i type="int" name="TAUPAR">     1</i>
   <i type="int" name="OMEGAPAR">    -1</i>
   <i name="LAMBDA">      1.00000000</i>
  </separator>
  <separator name="External order field" >
   <i name="OFIELD_KAPPA">      0.00000000</i>
   <v name="OFIELD_K">      0.00000000      0.00000000      0.00000000</v>
   <i name="OFIELD_Q6_NEAR">      0.00000000</i>
   <i name="OFIELD_Q6_FAR">      0.00000000</i>
   <i name="OFIELD_A">      0.00000000</i>
  </separator>
 </parameters>
 <atominfo>
  <atoms>       2 </atoms>
  <types>       2 </types>
  <array name="atoms" >
   <dimension dim="1">ion</dimension>
   <field type="string">element</field>
   <field type="int">atomtype</field>
   <set>
    <rc><c>Mg</c><c>   1</c></rc>
    <rc><c>O </c><c>   2</c></rc>
   </set>
  </array>
  <array name="atomtypes" >
   <dimension dim="1">type</dimension>
   <field type="int">atomspertype</field>
   <field type="string">element</field>
   <field>mass</field>
   <field>valence</field>
   <field type="string">pseudopotential</field>
   <set>
    <rc><c>   1</c><c>Mg</c><c>     24.30500000</c><c>      2.00000000</c><c>  PAW_PBE Mg 13Apr2007                  </c></rc>
    <rc><c>   1</c><c>O </c><c>     16.00000000</c><c>      6.00000000</c><c>  PAW_PBE O_h 06Feb2004                 </c></rc>
   </set>
  </array>
 </atominfo>
 <structure name="initialpos" >
  <crystal>
   <varray name="basis" >
    <v>       3.00978800       0.00000000       0.00000000 </v>
    <v>       1.50489400       2.60655300       0.00000000 </v>
    <v>       1.50489400       0.86885100       2.45748200 </v>
   </varray>
   <i name="volume">     19.27936883 </i>
   <varray name="rec_basis" >
    <v>       0.33224931      -0.19182422      -0.13564019 </v>
    <v>       0.00000000       0.38364844      -0.13564019 </v>
    <v>       0.00000000       0.00000000       0.40692058 </v>
   </varray>
  </crystal>
  <varray name="positions" >
   <v>       0.00000000       0.00000000       0.00000000 </v>
   <v>       0.50000000       0.50000000       0.50000000 </v>
  </varray>
 </structure>
 <calculation>
  <scstep>
   <time name="dav">    0.06    0.06</time>
   <time name="total">    0.08    0.08</time>
   <energy>
    <i name="alphaZ">     15.79325893 </i>
    <i name="ewald">   -354.45312954 </i>
    <i name="hartreedc">    -23.44142898 </i>
    <i name="XCdc">    -31.07521684 </i>
    <i name="pawpsdc"> 132038.69889041 </i>
    <i name="pawaedc">-131985.02691181 </i>
    <i name="eentropy">     -0.00000000 </i>
    <i name="bandstr">   -389.65589714 </i>
    <i name="atom">    454.27946546 </i>
    <i name="e_fr_energy">   -274.88096951 </i>
    <i name="e_wo_entrp">   -274.88096951 </i>
    <i name="e_0_energy">   -274.88096951 </i>
   </energy>
  </scstep>
  <scstep>
   <time name="dav">    0.05    0.05</time>
   <time name="total">    0.05    0.05</time>
   <energy>
    <i name="e_fr_energy">   -288.87046575 </i>
    <i name="e_wo_entrp">   -288.87046575 </i>
    <i name="e_0_energy">   -288.87046575 </i>
   </energy>
  </scstep>
  <scstep>
   <time name="dav">    0.06    0.06</time>
   <time name="total">    0.06    0.06</time>
   <energy>
    <i name="e_fr_energy">   -288.94395703 </i>
    <i name="e_wo_entrp">   -288.94395703 </i>
    <i name="e_0_energy">   -288.94395703 </i>
   </energy>
  </scstep>
  <scstep>
   <time name="dav">    0.06    0.06</time>
   <time name="total">    0.06    0.07</time>
   <energy>
    <i name="e_fr_energy">   -288.94413932 </i>
    <i name="e_wo_entrp">   -288.94413932 </i>
    <i name="e_0_energy">   -288.94413932 </i>
   </energy>
  </scstep>
  <scstep>
   <time name="dav">    0.06    0.06</time>
   <time name="total">    0.07    0.08</time>
   <energy>
    <i name="e_fr_energy">   -288.94413935 </i>
    <i name="e_wo_entrp">   -288.94413935 </i>
    <i name="e_0_energy">   -288.94413935 </i>
   </energy>
  </scstep>
  <scstep>
   <time name="dav">    0.04    0.04</time>
   <time name="total">    0.05    0.05</time>
   <energy>
    <i name="e_fr_energy">    -64.70150484 </i>
    <i name="e_wo_entrp">    -64.70150484 </i>
    <i name="e_0_energy">    -64.70150484 </i>
   </energy>
  </scstep>
  <scstep>
   <time name="dav">    0.06    0.06</time>
   <time name="total">    0.07    0.08</time>
   <energy>
    <i name="e_fr_energy">    -23.07677920 </i>
    <i name="e_wo_entrp">    -23.07677920 </i>
    <i name="e_0_energy">    -23.07677920 </i>
   </energy>
  </scstep>
  <scstep>
   <time name="dav">    0.04    0.04</time>
   <time name="total">    0.05    0.05</time>
   <energy>
    <i name="e_fr_energy">    -21.47962735 </i>
    <i name="e_wo_entrp">    -21.47962735 </i>
    <i name="e_0_energy">    -21.47962735 </i>
   </energy>
  </scstep>
  <scstep>
   <time name="dav">    0.04    0.04</time>
   <time name="total">    0.05    0.05</time>
   <energy>
    <i name="e_fr_energy">    -11.76682726 </i>
    <i name="e_wo_entrp">    -11.76682726 </i>
    <i name="e_0_energy">    -11.76682726 </i>
   </energy>
  </scstep>
  <scstep>
   <time name="dav">    0.05    0.05</time>
   <time name="total">    0.06    0.07</time>
   <energy>
    <i name="e_fr_energy">    -11.75659047 </i>
    <i name="e_wo_entrp">    -11.75659047 </i>
    <i name="e_0_energy">    -11.75659047 </i>
   </energy>
  </scstep>
  <scstep>
   <time name="dav">    0.04    0.04</time>
   <time name="total">    0.05    0.06</time>
   <energy>
    <i name="e_fr_energy">    -11.72051015 </i>
    <i name="e_wo_entrp">    -11.72051015 </i>
    <i name="e_0_energy">    -11.72051015 </i>
   </energy>
  </scstep>
  <scstep>
   <time name="dav">    0.05    0.05</time>
   <time name="total">    0.06    0.06</time>
   <energy>
    <i name="e_fr_energy">    -11.71092022 </i>
    <i name="e_wo_entrp">    -11.71092022 </i>
    <i name="e_0_energy">    -11.71092022 </i>
   </energy>
  </scstep>
  <scstep>
   <time name="dav">    0.04    0.04</time>
   <time name="total">    0.05    0.06</time>
   <energy>
    <i name="e_fr_energy">    -11.71086511 </i>
    <i name="e_wo_entrp">    -11.71086511 </i>
    <i name="e_0_energy">    -11.71086511 </i>
   </energy>
  </scstep>
  <scstep>
   <time name="dav">    0.05    0.05</time>
   <time name="total">    0.06    0.06</time>
   <energy>
    <i name="e_fr_energy">    -11.71081409 </i>
    <i name="e_wo_entrp">    -11.71081409 </i>
    <i name="e_0_energy">    -11.71081409 </i>
   </energy>
  </scstep>
  <scstep>
   <time name="dav">    0.05    0.05</time>
   <time name="total">    0.06    0.06</time>
   <energy>
    <i name="alphaZ">     15.79325893 </i>
    <i name="ewald">   -354.45312954 </i>
    <i name="hartreedc">   -140.48790391 </i>
    <i name="XCdc">    -20.73504592 </i>
    <i name="pawpsdc">   2215.95509509 </i>
    <i name="pawaedc">  -2165.32570334 </i>
    <i name="eentropy">     -0.00000000 </i>
    <i name="bandstr">    -16.73685112 </i>
    <i name="atom">    454.27946546 </i>
    <i name="e_fr_energy">    -11.71081436 </i>
    <i name="e_wo_entrp">    -11.71081436 </i>
    <i name="e_0_energy">    -11.71081436 </i>
   </energy>
  </scstep>
  <structure>
   <crystal>
    <varray name="basis" >
     <v>       3.00978800       0.00000000       0.00000000 </v>
     <v>       1.50489400       2.60655300       0.00000000 </v>
     <v>       1.50489400       0.86885100       2.45748200 </v>
    </varray>
    <i name="volume">     19.27936883 </i>
    <varray name="rec_basis" >
     <v>       0.33224931      -0.19182422      -0.13564019 </v>
     <v>       0.00000000       0.38364844      -0.13564019 </v>
     <v>       0.00000000       0.00000000       0.40692058 </v>
    </varray>
   </crystal>
   <varray name="positions" >
    <v>       0.00000000       0.00000000       0.00000000 </v>
    <v>       0.50000000       0.50000000       0.50000000 </v>
   </varray>
  </structure>
  <varray name="forces" >
   <v>      -0.00000000      -0.00000000       0.00000000 </v>
   <v>       0.00000000       0.00000000      -0.00000000 </v>
  </varray>
  <varray name="stress" >
   <v>    -473.40690468      -0.00000000       0.00000000 </v>
   <v>      -0.00000000    -473.40695263      -0.00000000 </v>
   <v>       0.00000000      -0.00000000    -473.40705443 </v>
  </varray>
  <energy>
   <i name="e_fr_energy">    -11.71081436 </i>
   <i name="e_wo_entrp">    -11.71081436 </i>
   <i name="e_0_energy">     -0.00000000 </i>
  </energy>
  <time name="totalsc">    0.96    1.00</time>
  <eigenvalues>
   <array>
    <dimension dim="1">band</dimension>
    <dimension dim="2">kpoint</dimension>
    <dimension dim="3">spin</dimension>
    <field>eigene</field>
    <field>occ</field>
    <set>
     <set comment="spin 1">
      <set comment="kpoint 1">
       <r>  -13.7781    1.0000 </r>
       <r>    2.4323    1.0000 </r>
       <r>    3.3345    1.0000 </r>
       <r>    3.3345    1.0000 </r>
       <r>    8.6353    0.0000 </r>
       <r>   17.3173    0.0000 </r>
       <r>   19.3236    0.0000 </r>
       <r>   19.3236    0.0000 </r>
       <r>   23.5408    0.0000 </r>
       <r>   23.5408    0.0000 </r>
       <r>   24.8715    0.0000 </r>
       <r>   27.2748    0.0000 </r>
       <r>   28.7231    0.0000 </r>
       <r>   28.7231    0.0000 </r>
       <r>   38.9790    0.0000 </r>
       <r>   40.9521    0.0000 </r>
      </set>
      <set comment="kpoint 2">
       <r>  -13.1434    1.0000 </r>
       <r>    0.2729    1.0000 </r>
       <r>    2.4498    1.0000 </r>
       <r>    3.0039    1.0000 </r>
       <r>   11.0917    0.0000 </r>
       <r>   15.2799    0.0000 </r>
       <r>   18.6366    0.0000 </r>
       <r>   20.2994    0.0000 </r>
       <r>   22.1258    0.0000 </r>
       <r>   24.3530    0.0000 </r>
       <r>   26.4303    0.0000 </r>
       <r>   31.0965    0.0000 </r>
       <r>   32.4046    0.0000 </r>
       <r>   33.2140    0.0000 </r>
       <r>   35.5751    0.0000 </r>
       <r>   38.9011    0.0000 </r>
      </set>
      <set comment="kpoint 3">
       <r>  -12.7214    1.0000 </r>
       <r>   -0.8452    1.0000 </r>
       <r>    2.2799    1.0000 </r>
       <r>    2.6479    1.0000 </r>
       <r>   11.6947    0.0000 </r>
       <r>   15.5012    0.0000 </r>
       <r>   17.9224    0.0000 </r>
       <r>   19.7347    0.0000 </r>
       <r>   23.7124    0.0000 </r>
       <r>   25.9834    0.0000 </r>
       <r>   26.0344    0.0000 </r>
       <r>   32.2771    0.0000 </r>
       <r>   32.9289    0.0000 </r>
       <r>   33.2608    0.0000 </r>
       <r>   35.8337    0.0000 </r>
       <r>   37.5206    0.0000 </r>
      </set>
      <set comment="kpoint 4">
       <r>  -13.4244    1.0000 </r>
       <r>    1.1299    1.0000 </r>
       <r>    2.9288    1.0000 </r>
       <r>    2.9426    1.0000 </r>
       <r>   10.2414    0.0000 </r>
       <r>   15.5063    0.0000 </r>
       <r>   19.4319    0.0000 </r>
       <r>   19.9245    0.0000 </r>
       <r>   21.0835    0.0000 </r>
       <r>   24.9230    0.0000 </r>
       <r>   26.8854    0.0000 </r>
       <r>   29.9789    0.0000 </r>
       <r>   30.2723    0.0000 </r>
       <r>   31.0299    0.0000 </r>
       <r>   37.2098    0.0000 </r>
       <r>   39.0173    0.0000 </r>
      </set>
      <set comment="kpoint 5">
       <r>  -12.9148    1.0000 </r>
       <r>    0.0867    1.0000 </r>
       <r>    2.2464    1.0000 </r>
       <r>    2.4747    1.0000 </r>
       <r>   12.2093    0.0000 </r>
       <r>   13.9177    0.0000 </r>
       <r>   17.1857    0.0000 </r>
       <r>   20.8188    0.0000 </r>
       <r>   21.2753    0.0000 </r>
       <r>   27.1036    0.0000 </r>
       <r>   30.1632    0.0000 </r>
       <r>   30.4254    0.0000 </r>
       <r>   32.3430    0.0000 </r>
       <r>   34.8361    0.0000 </r>
       <r>   36.4913    0.0000 </r>
       <r>   37.8868    0.0000 </r>
      </set>
      <set comment="kpoint 6">
       <r>  -12.5167    1.0000 </r>
       <r>   -0.0091    1.0000 </r>
       <r>    0.9957    1.0000 </r>
       <r>    2.0701    1.0000 </r>
       <r>   13.7759    0.0000 </r>
       <r>   14.8263    0.0000 </r>
       <r>   15.6084    0.0000 </r>
       <r>   19.5526    0.0000 </r>
       <r>   23.0213    0.0000 </r>
       <r>   26.4612    0.0000 </r>
       <r>   29.9909    0.0000 </r>
       <r>   31.4719    0.0000 </r>
       <r>   32.6837    0.0000 </r>
       <r>   36.3510    0.0000 </r>
       <r>   38.8962    0.0000 </r>
       <r>   41.1092    0.0000 </r>
      </set>
      <set comment="kpoint 7">
       <r>  -12.7644    1.0000 </r>
       <r>   -0.2220    1.0000 </r>
       <r>    1.7413    1.0000 </r>
       <r>    2.5677    1.0000 </r>
       <r>   12.5832    0.0000 </r>
       <r>   14.8420    0.0000 </r>
       <r>   16.9532    0.0000 </r>
       <r>   20.1463    0.0000 </r>
       <r>   22.7161    0.0000 </r>
       <r>   25.3731    0.0000 </r>
       <r>   28.8770    0.0000 </r>
       <r>   31.6967    0.0000 </r>
       <r>   32.2685    0.0000 </r>
       <r>   34.9028    0.0000 </r>
       <r>   35.5527    0.0000 </r>
       <r>   41.0161    0.0000 </r>
      </set>
      <set comment="kpoint 8">
       <r>  -12.5516    1.0000 </r>
       <r>   -0.3782    1.0000 </r>
       <r>    1.7319    1.0000 </r>
       <r>    2.1877    1.0000 </r>
       <r>   12.8545    0.0000 </r>
       <r>   13.4947    0.0000 </r>
       <r>   16.0825    0.0000 </r>
       <r>   21.5170    0.0000 </r>
       <r>   21.5470    0.0000 </r>
       <r>   28.9004    0.0000 </r>
       <r>   29.4186    0.0000 </r>
       <r>   31.9713    0.0000 </r>
       <r>   32.6748    0.0000 </r>
       <r>   37.8066    0.0000 </r>
       <r>   38.1773    0.0000 </r>
       <r>   41.1038    0.0000 </r>
      </set>
      <set comment="kpoint 9">
       <r>  -12.9504    1.0000 </r>
       <r>   -0.5963    1.0000 </r>
       <r>    2.8610    1.0000 </r>
       <r>    2.8610    1.0000 </r>
       <r>   10.8876    0.0000 </r>
       <r>   15.4795    0.0000 </r>
       <r>   19.5331    0.0000 </r>
       <r>   19.5331    0.0000 </r>
       <r>   24.0832    0.0000 </r>
       <r>   24.4705    0.0000 </r>
       <r>   24.4705    0.0000 </r>
       <r>   31.8882    0.0000 </r>
       <r>   33.2828    0.0000 </r>
       <r>   33.2828    0.0000 </r>
       <r>   36.8486    0.0000 </r>
       <r>   36.8486    0.0000 </r>
      </set>
      <set comment="kpoint 10">
       <r>  -12.5977    1.0000 </r>
       <r>   -0.2560    1.0000 </r>
       <r>    1.0994    1.0000 </r>
       <r>    2.5288    1.0000 </r>
       <r>   13.0741    0.0000 </r>
       <r>   15.3082    0.0000 </r>
       <r>   16.1538    0.0000 </r>
       <r>   20.4537    0.0000 </r>
       <r>   22.4937    0.0000 </r>
       <r>   25.5598    0.0000 </r>
       <r>   29.0945    0.0000 </r>
       <r>   31.6697    0.0000 </r>
       <r>   32.1102    0.0000 </r>
       <r>   35.3964    0.0000 </r>
       <r>   37.2410    0.0000 </r>
       <r>   40.1237    0.0000 </r>
      </set>
     </set>
    </set>
   </array>
  </eigenvalues>
  <separator name="orbital magnetization" >
   <v name="MAGDIPOLOUT">      0.00000000      0.00000000      0.00000000</v>
  </separator>
  <dos>
   <i name="efermi">      3.62805583 </i>
   <total>
    <array>
     <dimension dim="1">gridpoints</dimension>
     <dimension dim="2">spin</dimension>
     <field>energy</field>
     <field>total</field>
     <field>integrated</field>
     <set>
      <set comment="spin 1">
       <r>   -16.5224     0.0000     0.0000 </r>
       <r>   -16.3212     0.0000     0.0000 </r>
       <r>   -16.1199     0.0000     0.0000 </r>
       <r>   -15.9187     0.0000     0.0000 </r>
       <r>   -15.7174     0.0000     0.0000 </r>
       <r>   -15.5162     0.0000     0.0000 </r>
       <r>   -15.3149     0.0000     0.0000 </r>
       <r>   -15.1137     0.0000     0.0000 </r>
       <r>   -14.9124     0.0000     0.0000 </r>
       <r>   -14.7111     0.0000     0.0000 </r>
       <r>   -14.5099     0.0000     0.0000 </r>
       <r>   -14.3086     0.0000     0.0000 </r>
       <r>   -14.1074     0.0000     0.0000 </r>
       <r>   -13.9061     0.0000     0.0000 </r>
       <r>   -13.7049     0.3045     0.0613 </r>
       <r>   -13.5036     0.0177     0.0649 </r>
       <r>   -13.3024     0.9197     0.2499 </r>
       <r>   -13.1011     0.8240     0.4158 </r>
       <r>   -12.8999     1.0132     0.6197 </r>
       <r>   -12.6986     2.8333     1.1899 </r>
       <r>   -12.4974     3.4203     1.8783 </r>
       <r>   -12.2961     0.6049     2.0000 </r>
       <r>   -12.0949     0.0000     2.0000 </r>
       <r>   -11.8936     0.0000     2.0000 </r>
       <r>   -11.6923     0.0000     2.0000 </r>
       <r>   -11.4911     0.0000     2.0000 </r>
       <r>   -11.2898     0.0000     2.0000 </r>
       <r>   -11.0886     0.0000     2.0000 </r>
       <r>   -10.8873     0.0000     2.0000 </r>
       <r>   -10.6861     0.0000     2.0000 </r>
       <r>   -10.4848     0.0000     2.0000 </r>
       <r>   -10.2836     0.0000     2.0000 </r>
       <r>   -10.0823     0.0000     2.0000 </r>
       <r>    -9.8811     0.0000     2.0000 </r>
       <r>    -9.6798     0.0000     2.0000 </r>
       <r>    -9.4786     0.0000     2.0000 </r>
       <r>    -9.2773     0.0000     2.0000 </r>
       <r>    -9.0761     0.0000     2.0000 </r>
       <r>    -8.8748     0.0000     2.0000 </r>
       <r>    -8.6736     0.0000     2.0000 </r>
       <r>    -8.4723     0.0000     2.0000 </r>
       <r>    -8.2710     0.0000     2.0000 </r>
       <r>    -8.0698     0.0000     2.0000 </r>
       <r>    -7.8685     0.0000     2.0000 </r>
       <r>    -7.6673     0.0000     2.0000 </r>
       <r>    -7.4660     0.0000     2.0000 </r>
       <r>    -7.2648     0.0000     2.0000 </r>
       <r>    -7.0635     0.0000     2.0000 </r>
       <r>    -6.8623     0.0000     2.0000 </r>
       <r>    -6.6610     0.0000     2.0000 </r>
       <r>    -6.4598     0.0000     2.0000 </r>
       <r>    -6.2585     0.0000     2.0000 </r>
       <r>    -6.0573     0.0000     2.0000 </r>
       <r>    -5.8560     0.0000     2.0000 </r>
       <r>    -5.6548     0.0000     2.0000 </r>
       <r>    -5.4535     0.0000     2.0000 </r>
       <r>    -5.2522     0.0000     2.0000 </r>
       <r>    -5.0510     0.0000     2.0000 </r>
       <r>    -4.8497     0.0000     2.0000 </r>
       <r>    -4.6485     0.0000     2.0000 </r>
       <r>    -4.4472     0.0000     2.0000 </r>
       <r>    -4.2460     0.0000     2.0000 </r>
       <r>    -4.0447     0.0000     2.0000 </r>
       <r>    -3.8435     0.0000     2.0000 </r>
       <r>    -3.6422     0.0000     2.0000 </r>
       <r>    -3.4410     0.0000     2.0000 </r>
       <r>    -3.2397     0.0000     2.0000 </r>
       <r>    -3.0385     0.0000     2.0000 </r>
       <r>    -2.8372     0.0000     2.0000 </r>
       <r>    -2.6360     0.0000     2.0000 </r>
       <r>    -2.4347     0.0000     2.0000 </r>
       <r>    -2.2334     0.0000     2.0000 </r>
       <r>    -2.0322     0.0000     2.0000 </r>
       <r>    -1.8309     0.0000     2.0000 </r>
       <r>    -1.6297     0.0000     2.0000 </r>
       <r>    -1.4284     0.0000     2.0000 </r>
       <r>    -1.2272     0.0000     2.0000 </r>
       <r>    -1.0259     0.0000     2.0000 </r>
       <r>    -0.8247     0.6704     2.1349 </r>
       <r>    -0.6234     0.3301     2.2014 </r>
       <r>    -0.4222     0.3411     2.2700 </r>
       <r>    -0.2209     2.5688     2.7870 </r>
       <r>    -0.0197     1.7719     3.1436 </r>
       <r>     0.1816     2.0828     3.5627 </r>
       <r>     0.3828     0.9296     3.7498 </r>
       <r>     0.5841     0.0009     3.7500 </r>
       <r>     0.7854     0.0000     3.7500 </r>
       <r>     0.9866     0.7426     3.8994 </r>
       <r>     1.1879     2.9312     4.4894 </r>
       <r>     1.3891     0.0529     4.5000 </r>
       <r>     1.5904     0.0000     4.5000 </r>
       <r>     1.7916     2.6086     5.0250 </r>
       <r>     1.9929     0.2133     5.0679 </r>
       <r>     2.1941     2.4407     5.5591 </r>
       <r>     2.3954     2.3055     6.0231 </r>
       <r>     2.5966     4.5115     6.9311 </r>
       <r>     2.7979     1.2973     7.1922 </r>
       <r>     2.9991     2.8037     7.7564 </r>
       <r>     3.2004     0.5892     7.8750 </r>
       <r>     3.4016     0.6032     7.9964 </r>
       <r>     3.6029     0.0178     8.0000 </r>
       <r>     3.8042     0.0000     8.0000 </r>
       <r>     4.0054     0.0000     8.0000 </r>
       <r>     4.2067     0.0000     8.0000 </r>
       <r>     4.4079     0.0000     8.0000 </r>
       <r>     4.6092     0.0000     8.0000 </r>
       <r>     4.8104     0.0000     8.0000 </r>
       <r>     5.0117     0.0000     8.0000 </r>
       <r>     5.2129     0.0000     8.0000 </r>
       <r>     5.4142     0.0000     8.0000 </r>
       <r>     5.6154     0.0000     8.0000 </r>
       <r>     5.8167     0.0000     8.0000 </r>
       <r>     6.0179     0.0000     8.0000 </r>
       <r>     6.2192     0.0000     8.0000 </r>
       <r>     6.4204     0.0000     8.0000 </r>
       <r>     6.6217     0.0000     8.0000 </r>
       <r>     6.8230     0.0000     8.0000 </r>
       <r>     7.0242     0.0000     8.0000 </r>
       <r>     7.2255     0.0000     8.0000 </r>
       <r>     7.4267     0.0000     8.0000 </r>
       <r>     7.6280     0.0000     8.0000 </r>
       <r>     7.8292     0.0000     8.0000 </r>
       <r>     8.0305     0.0000     8.0000 </r>
       <r>     8.2317     0.0000     8.0000 </r>
       <r>     8.4330     0.0000     8.0000 </r>
       <r>     8.6342     0.1514     8.0305 </r>
       <r>     8.8355     0.1592     8.0625 </r>
       <r>     9.0367     0.0000     8.0625 </r>
       <r>     9.2380     0.0000     8.0625 </r>
       <r>     9.4392     0.0000     8.0625 </r>
       <r>     9.6405     0.0000     8.0625 </r>
       <r>     9.8418     0.0000     8.0625 </r>
       <r>    10.0430     0.0000     8.0625 </r>
       <r>    10.2443     0.4958     8.1623 </r>
       <r>    10.4455     0.4358     8.2500 </r>
       <r>    10.6468     0.0000     8.2500 </r>
       <r>    10.8480     0.0408     8.2582 </r>
       <r>    11.0493     0.3769     8.3341 </r>
       <r>    11.2505     0.8245     8.5000 </r>
       <r>    11.4518     0.0000     8.5000 </r>
       <r>    11.6530     0.1111     8.5224 </r>
       <r>    11.8543     0.8206     8.6875 </r>
       <r>    12.0555     0.0000     8.6875 </r>
       <r>    12.2568     0.8481     8.8582 </r>
       <r>    12.4580     0.0839     8.8751 </r>
       <r>    12.6593     1.8338     9.2441 </r>
       <r>    12.8605     0.5584     9.3565 </r>
       <r>    13.0618     0.7417     9.5058 </r>
       <r>    13.2631     0.5924     9.6250 </r>
       <r>    13.4643     0.1818     9.6616 </r>
       <r>    13.6656     0.7516     9.8128 </r>
       <r>    13.8668     1.9221    10.1997 </r>
       <r>    14.0681     0.8712    10.3750 </r>
       <r>    14.2693     0.0000    10.3750 </r>
       <r>    14.4706     0.0000    10.3750 </r>
       <r>    14.6718     0.0000    10.3750 </r>
       <r>    14.8731     3.1999    11.0190 </r>
       <r>    15.0743     0.5267    11.1250 </r>
       <r>    15.2756     0.5869    11.2431 </r>
       <r>    15.4768     1.8394    11.6133 </r>
       <r>    15.6781     3.4289    12.3034 </r>
       <r>    15.8793     0.0452    12.3125 </r>
       <r>    16.0806     0.4639    12.4059 </r>
       <r>    16.2819     1.3993    12.6875 </r>
       <r>    16.4831     0.0001    12.6875 </r>
       <r>    16.6844     0.0000    12.6875 </r>
       <r>    16.8856     0.0521    12.6980 </r>
       <r>    17.0869     1.8135    13.0630 </r>
       <r>    17.2881     0.9911    13.2624 </r>
       <r>    17.4894     0.2489    13.3125 </r>
       <r>    17.6906     0.0000    13.3125 </r>
       <r>    17.8919     0.1806    13.3488 </r>
       <r>    18.0931     0.7511    13.5000 </r>
       <r>    18.2944     0.0000    13.5000 </r>
       <r>    18.4956     0.0000    13.5000 </r>
       <r>    18.6969     0.8907    13.6793 </r>
       <r>    18.8981     0.0410    13.6875 </r>
       <r>    19.0994     0.0000    13.6875 </r>
       <r>    19.3007     0.1603    13.7198 </r>
       <r>    19.5019     1.6284    14.0475 </r>
       <r>    19.7032     2.4216    14.5348 </r>
       <r>    19.9044     1.0245    14.7410 </r>
       <r>    20.1057     0.8992    14.9220 </r>
       <r>    20.3069     2.1738    15.3595 </r>
       <r>    20.5082     1.2618    15.6134 </r>
       <r>    20.7094     0.0584    15.6252 </r>
       <r>    20.9107     0.9264    15.8116 </r>
       <r>    21.1119     0.7398    15.9605 </r>
       <r>    21.3132     0.9957    16.1609 </r>
       <r>    21.5144     0.7379    16.3094 </r>
       <r>    21.7157     1.2577    16.5625 </r>
       <r>    21.9169     0.0000    16.5625 </r>
       <r>    22.1182     0.3861    16.6402 </r>
       <r>    22.3195     0.5455    16.7500 </r>
       <r>    22.5207     0.7240    16.8957 </r>
       <r>    22.7220     1.2614    17.1496 </r>
       <r>    22.9232     0.8147    17.3135 </r>
       <r>    23.1245     1.8549    17.6868 </r>
       <r>    23.3257     0.0033    17.6875 </r>
       <r>    23.5270     0.2161    17.7310 </r>
       <r>    23.7282     1.0314    17.9386 </r>
       <r>    23.9295     0.3053    18.0000 </r>
       <r>    24.1307     0.2828    18.0569 </r>
       <r>    24.3320     0.2854    18.1143 </r>
       <r>    24.5332     1.2715    18.3702 </r>
       <r>    24.7345     0.0237    18.3750 </r>
       <r>    24.9357     0.8972    18.5556 </r>
       <r>    25.1370     0.3450    18.6250 </r>
       <r>    25.3383     0.3022    18.6858 </r>
       <r>    25.5395     1.8252    19.0531 </r>
       <r>    25.7408     0.6676    19.1875 </r>
       <r>    25.9420     0.1169    19.2110 </r>
       <r>    26.1433     1.7455    19.5623 </r>
       <r>    26.3445     0.0090    19.5641 </r>
       <r>    26.5458     2.7708    20.1217 </r>
       <r>    26.7470     0.0162    20.1250 </r>
       <r>    26.9483     0.8966    20.3055 </r>
       <r>    27.1495     0.8762    20.4818 </r>
       <r>    27.3508     0.3961    20.5615 </r>
       <r>    27.5520     0.0049    20.5625 </r>
       <r>    27.7533     0.0000    20.5625 </r>
       <r>    27.9545     0.0000    20.5625 </r>
       <r>    28.1558     0.0000    20.5625 </r>
       <r>    28.3571     0.0000    20.5625 </r>
       <r>    28.5583     0.0000    20.5625 </r>
       <r>    28.7596     0.5282    20.6688 </r>
       <r>    28.9608     2.8306    21.2385 </r>
       <r>    29.1621     0.9629    21.4323 </r>
       <r>    29.3633     0.0811    21.4486 </r>
       <r>    29.5646     0.8766    21.6250 </r>
       <r>    29.7658     0.0000    21.6250 </r>
       <r>    29.9671     0.8103    21.7881 </r>
       <r>    30.1683     2.5054    22.2923 </r>
       <r>    30.3696     1.3931    22.5727 </r>
       <r>    30.5708     0.8811    22.7500 </r>
       <r>    30.7721     0.0000    22.7500 </r>
       <r>    30.9733     0.0514    22.7603 </r>
       <r>    31.1746     1.7992    23.1224 </r>
       <r>    31.3759     0.0189    23.1262 </r>
       <r>    31.5771     1.8592    23.5004 </r>
       <r>    31.7784     2.7727    24.0584 </r>
       <r>    31.9796     0.8814    24.2358 </r>
       <r>    32.1809     1.3067    24.4988 </r>
       <r>    32.3821     3.8497    25.2736 </r>
       <r>    32.5834     0.8234    25.4393 </r>
       <r>    32.7846     2.7814    25.9990 </r>
       <r>    32.9859     0.8867    26.1775 </r>
       <r>    33.1871     0.2778    26.2334 </r>
       <r>    33.3884     2.2555    26.6873 </r>
       <r>    33.5896     0.0010    26.6875 </r>
       <r>    33.7909     0.0000    26.6875 </r>
       <r>    33.9921     0.0000    26.6875 </r>
       <r>    34.1934     0.0000    26.6875 </r>
       <r>    34.3946     0.0000    26.6875 </r>
       <r>    34.5959     0.0000    26.6875 </r>
       <r>    34.7972     0.1286    26.7134 </r>
       <r>    34.9984     2.6600    27.2487 </r>
       <r>    35.1997     0.0064    27.2500 </r>
       <r>    35.4009     0.5135    27.3533 </r>
       <r>    35.6022     2.8556    27.9280 </r>
       <r>    35.8034     0.5403    28.0368 </r>
       <r>    36.0047     0.7490    28.1875 </r>
       <r>    36.2059     0.0000    28.1875 </r>
       <r>    36.4072     1.7670    28.5431 </r>
       <r>    36.6084     1.0275    28.7499 </r>
       <r>    36.8097     0.0846    28.7669 </r>
       <r>    37.0109     0.5370    28.8750 </r>
       <r>    37.2122     0.6851    29.0129 </r>
       <r>    37.4134     1.1794    29.2502 </r>
       <r>    37.6147     0.9269    29.4368 </r>
       <r>    37.8160     0.5876    29.5550 </r>
       <r>    38.0172     1.2792    29.8125 </r>
       <r>    38.2185     0.8181    29.9771 </r>
       <r>    38.4197     0.1136    30.0000 </r>
       <r>    38.6210     0.0000    30.0000 </r>
       <r>    38.8222     0.0458    30.0092 </r>
       <r>    39.0235     3.5576    30.7252 </r>
       <r>    39.2247     0.4338    30.8125 </r>
       <r>    39.4260     0.0000    30.8125 </r>
       <r>    39.6272     0.0000    30.8125 </r>
       <r>    39.8285     0.0000    30.8125 </r>
       <r>    40.0297     0.0037    30.8132 </r>
       <r>    40.2310     0.9269    30.9998 </r>
       <r>    40.4322     0.0011    31.0000 </r>
       <r>    40.6335     0.0000    31.0000 </r>
       <r>    40.8348     0.0001    31.0000 </r>
       <r>    41.0360     1.6990    31.3420 </r>
       <r>    41.2373     3.2693    31.9999 </r>
       <r>    41.4385     0.0003    32.0000 </r>
       <r>    41.6398     0.0000    32.0000 </r>
       <r>    41.8410     0.0000    32.0000 </r>
       <r>    42.0423     0.0000    32.0000 </r>
       <r>    42.2435     0.0000    32.0000 </r>
       <r>    42.4448     0.0000    32.0000 </r>
       <r>    42.6460     0.0000    32.0000 </r>
       <r>    42.8473     0.0000    32.0000 </r>
       <r>    43.0485     0.0000    32.0000 </r>
       <r>    43.2498     0.0000    32.0000 </r>
       <r>    43.4510     0.0000    32.0000 </r>
       <r>    43.6523     0.0000    32.0000 </r>
       <r>    43.8536     0.0000    32.0000 </r>
      </set>
     </set>
    </array>
   </total>
  </dos>
 </calculation>
 <structure name="finalpos" >
  <crystal>
   <varray name="basis" >
    <v>       3.00978800       0.00000000       0.00000000 </v>
    <v>       1.50489400       2.60655300       0.00000000 </v>
    <v>       1.50489400       0.86885100       2.45748200 </v>
   </varray>
   <i name="volume">     19.27936883 </i>
   <varray name="rec_basis" >
    <v>       0.33224931      -0.19182422      -0.13564019 </v>
    <v>       0.00000000       0.38364844      -0.13564019 </v>
    <v>       0.00000000       0.00000000       0.40692058 </v>
   </varray>
  </crystal>
  <varray name="positions" >
   <v>       0.00000000       0.00000000       0.00000000 </v>
   <v>       0.50000000       0.50000000       0.50000000 </v>
  </varray>
 </structure>
</modeling>
