LAMMPS (10 Feb 2015)
Reading data file ...
  triclinic box = (0 0 0) to (4.2565 4.2565 4.2565) with tilt (0 0 0)
  1 by 1 by 1 MPI processor grid
  reading atoms ...
  8 atoms
4 atoms in group Mg
4 atoms in group O
Setting atom values ...
  4 settings made for charge
Setting atom values ...
  4 settings made for charge
PPPM initialization ...
  G vector (1/distance) = 0.352505
  grid = 8 8 8
  stencil order = 5
  estimated absolute RMS force accuracy = 3.81397e-05
  estimated relative force accuracy = 2.64865e-06
  using double precision FFTs
  3d grid and FFT values/proc = 3375 512
Neighbor list info ...
  1 neighbor list requests
  update every 1 steps, delay 0 steps, check yes
  master list distance cutoff = 11
Setting up minimization ...
Memory usage per processor = 4.06549 Mbytes
Step PotEng Lx Ly Lz Xy Xz Yz Press Pxx Pyy Pzz Pxy Pxz Pyz eatoms 
       0   -106.97328       4.2565       4.2565       4.2565            0            0            0    38192.574    38192.574    38192.574    38192.574 8.7875882e-11 -6.3416216e-11 -7.5192229e-11   -106.97328 
       9   -106.99342    4.2893301    4.2893301    4.2893301            0            0            0     -3.54441     -3.54441     -3.54441     -3.54441 -1.7895043e-11 -1.1181496e-10 -2.9549514e-11   -106.99342 
Loop time of 0.0101159 on 1 procs for 9 steps with 8 atoms

Minimization stats:
  Stopping criterion = linesearch alpha is zero
  Energy initial, next-to-last, final = 
        -106.973281584     -106.993416645     -106.993416645
  Force two-norm initial, final = 5.51503 0.00172663
  Force max component initial, final = 5.51503 0.00051974
  Final line search alpha, max atom move = 0.00390625 2.03024e-06
  Iterations, force evaluations = 9 26

Pair  time (%) = 0.00273085 (26.9957)
Kspce time (%) = 0.00167274 (16.5359)
Neigh time (%) = 0 (0)
Comm  time (%) = 0.000341415 (3.37505)
Outpt time (%) = 0 (0)
Other time (%) = 0.00537086 (53.0934)

Nlocal:    8 ave 8 max 8 min
Histogram: 1 0 0 0 0 0 0 0 0 0
Nghost:    2189 ave 2189 max 2189 min
Histogram: 1 0 0 0 0 0 0 0 0 0
Neighs:    2344 ave 2344 max 2344 min
Histogram: 1 0 0 0 0 0 0 0 0 0

Total # of neighbors = 2344
Ave neighs/atom = 293
Neighbor list builds = 0
Dangerous builds = 0
pypospack:output_section:begin
tot_energy = -106.993416644887
num_atoms = 8
xx = 4.28933011317114
yy = 4.28933011317114
zz = 4.28933011317114
xy = 0
xz = 0
yz = 0
tot_press = -3.54441004469774
pxx = -3.5444100447524
pyy = -3.54441004470836
pzz = -3.54441004463246
pxy = -1.78950429729069e-11
pxz = -1.1181495634962e-10
pyz = -2.95495135207349e-11
pypospack:output_section:done
pypospack:lammps_sim:done
PPPM initialization ...
  G vector (1/distance) = 0.352181
  grid = 8 8 8
  stencil order = 5
  estimated absolute RMS force accuracy = 3.87093e-05
  estimated relative force accuracy = 2.68821e-06
  using double precision FFTs
  3d grid and FFT values/proc = 3375 512
Setting up run ...
Memory usage per processor = 3.06549 Mbytes
Step Temp PotEng KinEng TotEng Press Lx Ly Lz Press Pxx Pyy Pzz Pxy Pxz Pyz Volume 
       0         1000   -106.99342   0.90482102    -106.0886    12241.957    4.2893301    4.2893301    4.2893301    12241.957    4115.8016    12136.662    20473.409    405.01545   -2294.5722    9784.5806    78.916609 
     100    208.38126   -106.16123   0.18854774   -105.97269    11505.011    4.2991657    4.2991657    4.2991657    11505.011    10047.956    9807.2024    14659.874   -4774.6525    3332.4207   -29693.818    79.460729 
     200    680.96693   -106.32758   0.61615319   -105.71142   -16860.201    4.3170736    4.3170736    4.3170736   -16860.201   -17749.501   -15079.035   -17752.066   -6557.6886   -639.94572   -4329.9717    80.457837 
     300    1198.3916   -106.60341    1.0843299   -105.51908    16720.589    4.2964473    4.2964473    4.2964473    16720.589    6362.8282        15214    28584.938    2652.1485   -3236.8306   -10516.402    79.310095 
     400    420.16378   -105.73727   0.38017302   -105.35709    6750.7274    4.2983715    4.2983715    4.2983715    6750.7274    11971.759    5808.1023    2472.3212   -12697.399    5049.3163   -41192.441    79.416703 
     500    1314.7336   -106.41945    1.1895986   -105.22985   -22248.795     4.321845     4.321845     4.321845   -22248.795   -35125.051   -10041.907   -21579.427   -286.70345   -3877.7481    18552.434     80.72491 
     600    855.18734   -105.95779   0.77379148     -105.184    12150.504    4.3026154    4.3026154    4.3026154    12150.504    13855.523    16792.923    5803.0665    660.04072   -623.94058   -34998.964    79.652166 
     700    818.62194   -105.91183   0.74070634   -105.17112   -2703.9709    4.3049447    4.3049447    4.3049447   -2703.9709   -15368.188    17115.082   -9858.8069   -18076.632    7477.1191   -3744.4465    79.781597 
     800    1302.7872   -106.34317    1.1787892   -105.16438   -8136.7551    4.3107308    4.3107308    4.3107308   -8136.7551   -16639.836   -847.84825    -6922.581    2080.0711   -6812.9628    16608.373    80.103724 
     900    759.68379   -105.86102   0.68737786   -105.17364     13928.44    4.3073042    4.3073042    4.3073042     13928.44   -685.96399    49003.142   -6531.8589   -14630.068    5410.7659   -29348.144    79.912852 
    1000    869.60707   -105.96962   0.78683875   -105.18278   -20667.936    4.3140467    4.3140467    4.3140467   -20667.936   -39136.676     7146.679   -30013.812   -20945.688     5317.691    12557.926     80.28872 
    1100    1448.5641   -106.48879    1.3106912    -105.1781    7916.6315    4.3009137    4.3009137    4.3009137    7916.6315    5221.6266    19598.681   -1070.4135    7739.6279   -8146.1944   -9150.8071    79.557691 
    1200    664.90341   -105.79274   0.60161858   -105.19112   -8845.3682    4.3174635    4.3174635    4.3174635   -8845.3682   -30746.921    9616.6592    -5405.843   -20739.369    14112.095   -14723.685    80.479641 
    1300    1033.6893    -106.1242   0.93530376   -105.18889   -12968.932    4.3101553    4.3101553    4.3101553   -12968.932   -27581.115    20238.461   -31564.141    2239.3921   -5910.0977    13673.378    80.071646 
    1400    1267.0687   -106.33155    1.1464703   -105.18508    1719.8697    4.3116462    4.3116462    4.3116462    1719.8697   -12315.788    1236.5682    16238.829   -2011.4645   -419.90087    15436.015    80.154763 
    1500    778.05753   -105.89284   0.70400281   -105.18884    9363.7904    4.3147626    4.3147626    4.3147626    9363.7904    -27260.76    68265.351   -12913.221   -17113.565     10415.54   -2469.7159    80.328698 
    1600    829.00204   -105.93954   0.75009846   -105.18944    2962.0846    4.3081216    4.3081216    4.3081216    2962.0846   -13964.627    33506.875   -10655.995     7864.966   -13196.107     32019.88    79.958355 
    1700    1416.7847   -106.46605    1.2819365   -105.18412   -8526.9879    4.3161742    4.3161742    4.3161742   -8526.9879   -29779.002   -4028.7799    8226.8184     -2115.79    8281.7945    -14438.24    80.407561 
    1800    779.11573   -105.89091   0.70496029   -105.18595    1555.9982    4.3143961    4.3143961    4.3143961    1555.9982   -21107.875    51234.883   -25459.014   -5461.7204   -4147.9674    8654.3735    80.308229 
    1900    801.85437   -105.91388   0.72553469   -105.18834    1960.5149     4.312518     4.312518     4.312518    1960.5149   -17960.727    12152.114    11690.158    14786.621   -8872.0681     15799.36    80.203398 
    2000    1455.9047   -106.49482    1.3173331   -105.17749   -7166.5001    4.3178562    4.3178562    4.3178562   -7166.5001   -31972.234    12582.925   -2110.1913    -1198.237    3105.1615   -2151.9833    80.501601 
    2100     639.2023   -105.76515   0.57836368   -105.18679    23242.206     4.306513     4.306513     4.306513    23242.206   -340.16276    65912.376     4154.403    367.60252   -10698.905    24285.316    79.868824 
    2200    1056.0269   -106.14321   0.95551533   -105.18769   -15827.124    4.3199816    4.3199816    4.3199816   -15827.124   -31877.187   -25745.872    10141.687    28423.859    -1997.213    17776.681    80.620537 
    2300    1269.9385   -106.32943     1.149067   -105.18037     6944.132    4.3140217    4.3140217    4.3140217     6944.132   -14464.412      35046.6     250.2079    -12715.59   -2156.8062   -10401.602    80.287325 
    2400    527.34531   -105.66715   0.47715311      -105.19    1361.0594      4.30929      4.30929      4.30929    1361.0594   -10937.091    15126.844    -106.5752    18787.982   -9574.7151    29964.502    80.023428 
    2500    1296.8728   -106.35697    1.1734377   -105.18353   -730.94579    4.3148428    4.3148428    4.3148428   -730.94579   -21787.866    13643.316    5951.7128    11210.227    1275.3041   -17792.482    80.333176 
    2600    987.73748   -106.07671   0.89372563   -105.18299   -618.59991    4.3172259    4.3172259    4.3172259   -618.59991   -13852.969    18721.069   -6723.8996   -13081.235    -7947.779    10974.958    80.466355 
    2700    539.17669   -105.67595    0.4878584    -105.1881   -13086.019    4.3136913    4.3136913    4.3136913   -13086.019   -28201.774    -17819.06    6762.7786    39863.089   -5888.3236    19783.717    80.268876 
    2800     1462.979   -106.49941    1.3237341   -105.17568    15696.833    4.3131748    4.3131748    4.3131748    15696.833   -21516.253    71335.961   -2729.2076   -10114.488   -268.64678   -9622.5199    80.240045 
    2900    925.98813   -106.03294   0.83785352   -105.19509   -12226.241    4.3136046    4.3136046    4.3136046   -12226.241   -17114.576     -12392.7   -7171.4466    16416.554   -7196.7575    21055.001    80.264037 
    3000    844.54546   -105.96856   0.76416248    -105.2044    1939.6434    4.3171584    4.3171584    4.3171584    1939.6434   -29862.483    41816.418   -6135.0051    23759.598    4873.6831    12116.469    80.462577 
    3100    1460.4716   -106.50694    1.3214654   -105.18548    8127.6701    4.3183816    4.3183816    4.3183816    8127.6701    -21789.69    56842.354   -10669.653    -14900.02   -2170.8343   -5989.2715    80.530992 
    3200    751.82354    -105.8685   0.68026574   -105.18824   -5861.3661    4.3097964    4.3097964    4.3097964   -5861.3661   -15420.155   -15740.777    13576.833    42299.653   -1142.8068    21942.604    80.051645 
    3300    1106.7294   -106.17836     1.001392   -105.17697   -12271.478    4.3261609    4.3261609    4.3261609   -12271.478   -14231.109    10681.306    -33264.63    -10518.49    4798.1227    3859.0543    80.966989 
    3400    1148.6626   -106.21621    1.0393341   -105.17687   -4384.7654      4.31332      4.31332      4.31332   -4384.7654   -32283.834    11609.561    7519.9773    20261.576   -1710.5171   -8576.3836    80.248151 
    3500    874.25004   -105.97674   0.79103981    -105.1857   -12802.404    4.3139892    4.3139892    4.3139892   -12802.404   -18252.752   -22429.977    2275.5158    26137.142    66.010889      35827.9    80.285506 
    3600    1348.2281     -106.396    1.2199051   -105.17609   -4049.5427    4.3234757    4.3234757    4.3234757   -4049.5427   -22967.219    25621.419   -14802.828   -8912.5823    4021.5657   -13446.264     80.81632 
    3700    535.30549   -105.66494   0.48435566   -105.18059    3586.6652    4.3192012    4.3192012    4.3192012    3586.6652   -32645.326    6489.2713     36916.05    37061.967   -977.69597   -139.64955    80.576853 
    3800    1301.3173   -106.34548    1.1774592   -105.16802    1916.1572    4.3103469    4.3103469    4.3103469    1916.1572     767.3954     2941.197    2039.8791   -9137.3145    5070.2097    24698.175    80.082322 
    3900    976.53187   -106.05451   0.88358655   -105.17093    14839.776    4.3197121    4.3197121    4.3197121    14839.776   -22140.247    30404.654    36254.922    16476.081   -3625.4259   -15341.193    80.605452 
    4000    782.10182   -105.88522   0.70766216   -105.17756   -14157.794    4.3228505    4.3228505    4.3228505   -14157.794   -25771.317   -6052.4986   -10649.565    16178.755   -1731.6815    33377.857    80.781265 
    4100    1394.3767   -106.43273    1.2616614   -105.17107    11213.149    4.3101304    4.3101304    4.3101304    11213.149    6103.3355    24753.566    2782.5464   -2175.3021    8486.6744    6888.7819     80.07026 
    4200    933.33811   -106.02906   0.84450394   -105.18455    15993.807    4.3100135    4.3100135    4.3100135    15993.807   -1848.5459     34240.23    15589.737    27077.537   -4359.5608   -1817.5982    80.063746 
    4300    762.01527   -105.87781   0.68948743   -105.18833   -24558.813    4.3285484    4.3285484    4.3285484   -24558.813   -13060.041   -15557.146   -45059.252   -2973.6803    4954.0566    40801.525    81.101118 
    4400     1434.275   -106.46854    1.2977622   -105.17077    13832.113     4.311193     4.311193     4.311193    13832.113   -11203.029    36437.958    16261.409    11744.874    5998.0374   -10668.563    80.129493 
    4500    625.00242   -105.74649   0.56551533   -105.18098    4236.2903    4.3084745    4.3084745    4.3084745    4236.2903    19699.826   -1956.8734   -5034.0818    8021.8077   -1079.8512    40315.192    79.978006 
    4600    970.54343    -106.0607   0.87816809   -105.18254   -10857.566    4.3235553    4.3235553    4.3235553   -10857.566   -6254.3249    7142.6961   -33461.069     -6072.19    10733.181    8564.3809    80.820785 
    4700    1351.6716    -106.3968    1.2230208   -105.17378   -3928.4713    4.3175415    4.3175415    4.3175415   -3928.4713   -17975.651    1658.0517    4532.1857    6948.9627   -3748.2083    4530.4468    80.484002 
    4800    487.34424   -105.62501   0.44095931   -105.18405    401.20708    4.3077507    4.3077507    4.3077507    401.20708    10245.416    15932.052   -24973.846    3458.9821    13082.102    39398.226    79.937704 
    4900    1389.6761   -106.43237    1.2574081   -105.17497   -10712.178    4.3169153    4.3169153    4.3169153   -10712.178   -16741.705    1717.0289   -17111.857   -7122.2183    11654.942   -10127.108    80.448988 
    5000    883.80055   -105.97559   0.79968131   -105.17591   -4689.1215    4.3215564    4.3215564    4.3215564   -4689.1215   -14942.415    17124.678   -16249.628    14254.722   -8410.2839    22905.261    80.708737 
    5100    877.91975   -105.96884   0.79436024   -105.17448   -11626.615    4.3152627    4.3152627    4.3152627   -11626.615   -8499.3711    13025.731   -39406.205   -7190.8127    20486.843    6741.4145    80.356628 
    5200    1238.5259   -106.28687    1.1206443   -105.16622    13847.074    4.3122714    4.3122714    4.3122714    13847.074   -4569.8886     23555.62    22555.492    6833.3271   -6003.5385   -13273.621    80.189639 
    5300     709.9236   -105.81952   0.64235379   -105.17717   -1147.5623    4.3214464    4.3214464    4.3214464   -1147.5623   -14174.581    23049.683   -12317.789    11695.249    729.60196    25807.991    80.702573 
    5400    1067.5735    -106.1436    0.9659629   -105.17764   -670.43307    4.3123979    4.3123979    4.3123979   -670.43307   -7239.6373    23347.039     -18118.7    3189.0561    19688.043    3588.3943    80.196699 
    5500    1049.0003   -106.12593   0.94915749   -105.17677    21911.739    4.3088977    4.3088977    4.3088977    21911.739    8609.2801    45313.289    11812.649     3163.358   -19361.337   -6226.1569    80.001575 
    5600    923.65013   -106.01852   0.83573805   -105.18279   -28301.325    4.3201174    4.3201174    4.3201174   -28301.325   -29796.238   -15771.331   -39336.407     19572.23    27276.697    29179.548     80.62814 
    5700    1169.1965   -106.23152    1.0579136   -105.17361     17989.82    4.3102946    4.3102946    4.3102946     17989.82   -5353.2985    48829.817    10492.941   -9384.0394   -795.83563   -9668.0223    80.079407 
    5800    828.73358    -105.9334   0.74985556   -105.18355    -11342.46    4.3187937    4.3187937    4.3187937    -11342.46   -21108.947    10416.325   -23334.758    10192.884   -229.17812    7855.3002     80.55405 
    5900    939.64554   -106.03955   0.85021103   -105.18934   -5698.2428      4.30767      4.30767      4.30767   -5698.2428   -18622.281    4234.5781   -2707.0258    4013.3796    28529.805    16589.908    79.933212 
    6000    1321.5107   -106.38114    1.1957306   -105.18541    9497.3068    4.3194689    4.3194689    4.3194689    9497.3068   -7218.6268    33043.132     2667.415    1987.2244    -19572.13   -10361.855    80.591836 
    6100    720.80405   -105.84461   0.65219865   -105.19241     -7461.62    4.3170397    4.3170397    4.3170397     -7461.62   -9522.5907    24536.233   -37398.503       9863.9    25266.937    3838.2727    80.455944 
    6200    1122.8364   -106.20386     1.015966   -105.18789    2965.3166    4.3089648    4.3089648    4.3089648    2965.3166    10447.463      719.128    -2270.641    15428.291    6681.0512    7908.5371    80.005314 
    6300    1312.4925   -106.36843    1.1875708   -105.18086    8085.4959    4.3165943    4.3165943    4.3165943    8085.4959   -16330.366    59184.484   -18597.631   -15946.687    1552.7553   -4391.8731    80.431045 
    6400    526.15309   -105.66679   0.47607437   -105.19071   -22387.745    4.3195603    4.3195603    4.3195603   -22387.745    -1606.215   -22296.073   -43260.947    22511.262    29066.651    15638.091    80.596952 
    6500    1403.8905   -106.44609    1.2702696   -105.17582    967.19051    4.3134426    4.3134426    4.3134426    967.19051    3399.1545   -4999.2854    4501.7024   -14591.511   -4095.4802    5307.4934    80.254994 
    6600    886.14083    -105.9865   0.80179884    -105.1847    9123.7816    4.3095574    4.3095574    4.3095574    9123.7816   -3911.9452     54260.68    -22977.39    -6324.508    19866.722    5374.0778    80.038329 
    6700    728.10777   -105.85106   0.65880721   -105.19225    10751.717    4.3112856    4.3112856    4.3112856    10751.717    7532.5566    27707.466   -2984.8711    12038.087    5873.9481    27607.796    80.134656 
    6800    1244.8614   -106.30712    1.1263767   -105.18075   -1078.5919    4.3268207    4.3268207    4.3268207   -1078.5919   -21131.771    23521.722   -5625.7269   -3653.8468     3543.495   -6425.0021    81.004045 
    6900    911.54948    -106.0043   0.82478913   -105.17951    12191.171    4.3073588    4.3073588    4.3073588    12191.171   -3868.3756    49278.635   -8836.7475    1109.4518    17830.045    15102.985    79.915894 
    7000    1003.4838   -106.08535   0.90797322   -105.17738    5165.1067    4.3058936    4.3058936    4.3058936    5165.1067    4701.0931   -10271.906    21066.133    17578.567   -1728.0898    4766.1587    79.834364 
    7100    913.32015    -106.0038   0.82639126   -105.17741   -9947.7954    4.3241271    4.3241271    4.3241271   -9947.7954     -34827.7    22858.604   -17874.291   -17254.543    13871.588   -13752.647    80.852853 
    7200    1019.7455   -106.09935   0.92268712   -105.17667    7179.0007    4.3160876    4.3160876    4.3160876    7179.0007    10304.811    20067.647   -8835.4556    6184.3646    7649.4143    15849.913     80.40272 
    7300    1179.3038   -106.24572    1.0670589   -105.17866   -9814.4737    4.3101774    4.3101774    4.3101774   -9814.4737   -17052.723   -14320.557    1929.8589   -683.27954   -1303.2966    13533.472    80.072879 
    7400    690.94878   -105.81288   0.62518498    -105.1877    18114.989    4.3106156    4.3106156    4.3106156    18114.989   -6645.4825     67467.85      -6477.4   -24035.697    18897.717    -3254.981    80.097304 
    7500     1349.158   -106.39812    1.2207465   -105.17737   -5470.4817     4.329352     4.329352     4.329352   -5470.4817   -8125.5392    12273.678   -20559.584    3266.3388   -6292.2377    27532.597    81.146296 
    7600    1058.5538   -106.13834   0.95780172   -105.18054   -17122.457    4.3190956    4.3190956    4.3190956   -17122.457   -41601.771    -1088.863   -8676.7356   -18051.255    16084.195   -10561.245    80.570944 
    7700    810.07532   -105.91174   0.73297318   -105.17877    21940.652    4.3000354    4.3000354    4.3000354    21940.652    20192.082    54902.762   -9272.8863   -4305.7647    3345.6896   -8238.3891    79.508961 
    7800    1173.7916   -106.24664    1.0620713   -105.18457   -3002.8875    4.3200974    4.3200974    4.3200974   -3002.8875   -19918.774    14863.256   -3953.1442    4776.9339   -2795.1054    10034.099    80.627023 
    7900    970.56488   -106.05958    0.8781875   -105.18139   -30607.496    4.3295889    4.3295889    4.3295889   -30607.496   -45882.339   -25218.232   -20721.918   -12967.483    13801.765   -9511.2734    81.159619 
    8000    833.37412   -105.92666   0.75405442   -105.17261    17291.536    4.3115102    4.3115102    4.3115102    17291.536    9056.9197    55092.697   -12275.008   -4725.4171   -12620.173   -2877.4279     80.14718 
    8100    1163.2819   -106.22552    1.0525619   -105.17296    12788.904    4.3080996    4.3080996    4.3080996    12788.904   -15038.603    36003.325    17401.989   -1437.6951    4200.8154    15290.862    79.957134 
    8200    912.86057   -106.00921   0.82597543   -105.18323    1034.3518    4.3217512    4.3217512    4.3217512    1034.3518   -1820.3328    3434.2617    1489.1265   -20408.316    3428.7675   -22485.063    80.719655 
    8300    861.46708   -105.95342   0.77947352   -105.17395    14113.727    4.3272626    4.3272626    4.3272626    14113.727    1578.9464    45003.371   -4241.1374    955.94331    -9170.693    5167.1544    81.028865 
    8400    1067.9492   -106.14023   0.96630285   -105.17393   -4966.5145    4.3133801    4.3133801    4.3133801   -4966.5145   -14365.855   -23938.445    23404.757   -15625.515    8027.8132   -10972.781    80.251505 
    8500    825.93648   -105.92949   0.74732468   -105.18216    1158.1848    4.3056639    4.3056639    4.3056639    1158.1848    14064.275   -5099.4057   -5490.3148    5722.5599     -9295.66   -29477.341    79.821591 
    8600    1150.5683   -106.22225    1.0410583   -105.18119   -471.46821    4.3290447    4.3290447    4.3290447   -471.46821    -26972.54    32008.608   -6450.4727   -9022.6472   -2416.3318    10081.383    81.129015 
    8700    875.74743   -105.97658   0.79239468   -105.18418   -14594.967    4.3195599    4.3195599    4.3195599   -14594.967   -9535.1215   -18152.701    -16097.08   -1249.1122   -650.94085   -24323.985    80.596928 
    8800    1154.3164   -106.22169    1.0444497   -105.17724   -1812.1574    4.3056372    4.3056372    4.3056372   -1812.1574   -10844.727    25661.653   -20253.398    5489.9282   -20766.546   -14523.492    79.820103 
    8900    1304.5919    -106.3559    1.1804221   -105.17548    10391.949    4.3175914    4.3175914    4.3175914    10391.949    -9326.585     48700.77   -8198.3394   -9010.6179    2491.1577   -1180.9968     80.48679 
    9000    631.65999   -105.75846   0.57153923   -105.18692   -33927.139    4.3259069    4.3259069    4.3259069   -33927.139   -19248.312    -36926.65   -45606.455   -4556.4046   -18492.876   -38543.325    80.952731 
    9100     1187.363    -106.2444     1.074351   -105.17004    2580.7646    4.3136622    4.3136622    4.3136622    2580.7646    2426.5907    13594.783   -8279.0794    3898.2194   -12588.306    13683.786    80.267254 
    9200    1030.8464   -106.10437   0.93273147   -105.17163    8427.1273    4.3116207    4.3116207    4.3116207    8427.1273    26305.699    13021.611   -14045.928   -11885.513     5511.575   -33037.372    80.153346 
    9300    801.08475   -105.90427   0.72483832   -105.17943   -15652.414    4.3184643    4.3184643    4.3184643   -15652.414   -17145.561    -17497.31    -12314.37    1368.4814   -22481.617   -5804.6978    80.535622 
    9400    1055.8116   -106.13165   0.95532051   -105.17632    12734.988    4.3218572    4.3218572    4.3218572    12734.988    5228.4231    36972.723   -3996.1822   -1636.0425    4655.6823    16818.566    80.725592 
    9500    1048.0264   -106.12737   0.94827629    -105.1791    3158.4035    4.3124222    4.3124222    4.3124222    3158.4035    8937.4004    25588.408   -25050.598    1034.7946   -11683.377   -19617.748    80.198053 
    9600    969.87797   -106.06176   0.87756597    -105.1842   -12446.045    4.3198235    4.3198235    4.3198235   -12446.045   -25919.845    4275.1194   -15693.409    5875.7959    -13738.68    12501.017    80.611686 
    9700    1053.4299   -106.12948   0.95316551   -105.17631    -16174.78    4.3245724    4.3245724    4.3245724    -16174.78   -18860.927    -3136.625   -26526.787    16351.803    4610.9541   -737.59612    80.877835 
    9800    1326.9856    -106.3682    1.2006845   -105.16751    1113.3322    4.3035367    4.3035367    4.3035367    1113.3322   -8655.5909    22686.829   -10691.241   -4255.8608   -18116.915   -19327.304     79.70334 
    9900    547.88082   -105.67724   0.49573408   -105.18151   -15507.059    4.3209698    4.3209698    4.3209698   -15507.059   -15767.337   -12331.397   -18422.444    4579.0108    3136.9056    20841.598    80.675878 
   10000    1317.4709   -106.36172    1.1920754   -105.16964   -7729.4374    4.3238872    4.3238872    4.3238872   -7729.4374   -4161.0107    6654.2168   -25681.518   -273.57657    6992.2115   -22936.107      80.8394 
   10100    845.77663   -105.93538   0.76527647    -105.1701    3925.4109    4.3153339    4.3153339    4.3153339    3925.4109    10798.516    2462.4963   -1484.7793   -8470.0972   -5365.0066    16711.903    80.360605 
   10200    645.08924   -105.76124    0.5836903   -105.17755   -9823.6829    4.3154657    4.3154657    4.3154657   -9823.6829   -10217.361   -743.89396   -18509.794    2798.1772    14141.638    6903.8851    80.367969 
   10300    1603.1938   -106.61502    1.4506034   -105.16442     2297.622    4.3181859    4.3181859    4.3181859     2297.622   -3082.9745    19475.794   -9499.9538    -317.3243    7511.1569    1086.2738    80.520043 
   10400    511.83084   -105.64378    0.4631153   -105.18066   -2874.6199    4.3239371    4.3239371    4.3239371   -2874.6199   -26952.902    17893.447    435.59554    -393.6222    1333.0513    16594.176    80.842195 
   10500    1061.2569    -106.1443   0.96024751   -105.18405   -21483.063    4.3143519    4.3143519    4.3143519   -21483.063   -49198.352   -1193.8836   -14056.953    6748.0453    22452.676    1475.8552    80.305759 
   10600    1421.5166     -106.464    1.2862181   -105.17779    17702.204    4.3043767    4.3043767    4.3043767    17702.204    15018.061    18827.379    19261.173   -158.95132   -8013.0209      590.971    79.750021 
   10700    552.79223   -105.68519   0.50017802   -105.18501   -39975.801    4.3366426    4.3366426    4.3366426   -39975.801   -58680.454   -43851.011   -17395.938    10469.776    12731.704    13181.032    81.556936 
   10800    1191.2007   -106.24923    1.0778235   -105.17141    2184.2518    4.3069094    4.3069094    4.3069094    2184.2518   -11806.544    12965.577    5393.7228    6191.7505    3078.2332   -9651.9068    79.890881 
   10900    895.19121   -105.98555   0.80998782   -105.17556    20349.381    4.3050485    4.3050485    4.3050485    20349.381    13217.733    22430.389     25400.02    8603.5806   -3226.7668    10172.618    79.787367 
   11000     1032.427   -106.11045   0.93416166   -105.17629   -13598.144    4.3252559    4.3252559    4.3252559   -13598.144   -22530.485   -19226.868    962.91993    7287.0468    15735.178    8066.3469    80.916191 
   11100    858.84086   -105.95155   0.77709725   -105.17446    16142.957    4.3181224    4.3181224    4.3181224    16142.957    1016.6712    22358.849     25053.35    782.39263   -11795.961   -9866.4635    80.516491 
   11200    1017.3823   -106.09469   0.92054887   -105.17414   -14407.536    4.3183707    4.3183707    4.3183707   -14407.536   -2317.4024   -24688.718   -16216.488    5504.1987    1936.5624    26528.049    80.530383 
   11300    1301.3585   -106.34625    1.1774965   -105.16875    27141.012    4.3024226    4.3024226    4.3024226    27141.012    10496.284    24457.772    46468.982    854.14922   -7362.5482   -7384.7521    79.641457 
   11400    727.82472   -105.84568    0.6585511   -105.18713   -16819.473    4.3270698    4.3270698    4.3270698   -16819.473   -7706.0078   -11103.199   -31649.214   -3083.1737   -12404.625   -2475.6212    81.018037 
   11500    1057.7616   -106.13217   0.95708494   -105.17509   -11700.667    4.3229167    4.3229167    4.3229167   -11700.667   -16005.454   -23010.652    3914.1046    1058.9685    394.21595    15476.877    80.784977 
   11600    1183.3115   -106.23226    1.0706851   -105.16158    39933.027    4.2985144    4.2985144    4.2985144    39933.027    24172.021     43890.76    51736.301    4367.7232   -8088.7532   -16108.382    79.424622 
   11700    675.28538   -105.78893    0.6110124   -105.17792   -28066.254    4.3261482    4.3261482    4.3261482   -28066.254     3976.153   -43789.337   -44385.579   -7718.2015   -3657.0129    12570.556    80.966281 
   11800    1189.7674   -106.24207    1.0765266   -105.16555   -6010.0237    4.3220672    4.3220672    4.3220672   -6010.0237   -23112.122    6890.8064   -1808.7553    11002.595     13986.54    8568.4472    80.737358 
   11900    1289.7435   -106.33416     1.166987   -105.16717    439.28919    4.3083891    4.3083891    4.3083891    439.28919    17488.969   -12858.477   -3312.6247   -5001.8322   -941.57797    1560.7861     79.97325 
   12000    669.54523   -105.78935   0.60581859   -105.18354    1312.7893    4.3101963    4.3101963    4.3101963    1312.7893     12081.06   -41.344672   -8101.3479    1140.3401   -701.91278    16148.401    80.073931 
   12100    1106.4464   -106.18445     1.001136   -105.18331   -3457.1621    4.3230358    4.3230358    4.3230358   -3457.1621   -27996.476    520.66679    17104.323    8182.4139    27957.674   -2952.5876    80.791656 
   12200    1165.3707   -106.23486    1.0544519   -105.18041    8941.8262    4.3149734    4.3149734    4.3149734    8941.8262    35958.252   -7984.4482   -1148.3248    734.47028   -13945.588    -4572.393    80.340468 
   12300    511.98622   -105.65314   0.46325589   -105.18988    6618.0944     4.308087     4.308087     4.308087    6618.0944   -10981.708    29205.788    1630.2036   -2391.2998     33680.64    9878.7945    79.956432 
   12400    1409.2988   -106.45965    1.2751631   -105.18449   -7138.1312    4.3219448    4.3219448    4.3219448   -7138.1312   -11417.845   -5430.8327   -4565.7156    8764.9348     6362.096   -11171.203    80.730499 
   12500    951.40585   -106.04594   0.86085201   -105.18509    5765.6538    4.3195951    4.3195951    4.3195951    5765.6538   -7842.9917    9521.0253    15618.928   -3503.3031    4194.1367    15841.236    80.598902 
   12600    684.91462   -105.80631   0.61972515   -105.18658    -16580.39    4.3111181    4.3111181    4.3111181    -16580.39   -41717.779    16179.892   -24203.283    9181.6654    34710.268    1336.7997    80.125316 
   12700    1304.7276   -106.35424     1.180545   -105.17369    13530.575    4.3166805    4.3166805    4.3166805    13530.575   -1183.6406    31312.333    10463.034   -1603.9996   -25679.803    4889.3003    80.435861 
   12800    1071.1358   -106.14719   0.96918619     -105.178   -16824.973    4.3197155    4.3197155    4.3197155   -16824.973   -26677.866    3150.6952   -26947.748    1696.6615    36717.017    17511.266    80.605643 
   12900    529.55992    -105.6602   0.47915695   -105.18104   -5927.6039    4.3186568    4.3186568    4.3186568   -5927.6039    -16577.58    38296.165   -39501.397    1676.7283   -9765.9619   -772.44512    80.546392 
   13000    1517.4028   -106.54101    1.3729779   -105.16803    1437.0725    4.3133678    4.3133678    4.3133678    1437.0725   -14045.619    8381.8095    9975.0269   -2031.6532   -6004.0418    15814.889    80.250817 
   13100    771.77111   -105.87754   0.69831471   -105.17923   -342.38857    4.3192158    4.3192158    4.3192158   -342.38857   -19264.736    32180.271     -13942.7    1821.5181    28279.814   -1911.7404    80.577668 
   13200    876.05381   -105.96905    0.7926719   -105.17638   -23854.031    4.3243343    4.3243343    4.3243343   -23854.031   -32783.765   -5927.9666   -32850.361    2424.3228   -39014.964    6076.4904    80.864478 
   13300    1286.6623   -106.32694     1.164199   -105.16274    19800.262    4.3112976    4.3112976    4.3112976    19800.262   -66.486514    39926.163     19541.11   -7071.6044    16894.681   -10458.399    80.135328 
   13400    695.63914   -105.80593   0.62942892    -105.1765    -5135.547    4.3182693    4.3182693    4.3182693    -5135.547    5534.2459    12031.239   -32972.126    2988.2135   -17023.774     1836.043    80.524711 
   13500    946.82567   -106.03686   0.85670777   -105.18015   -13138.117    4.3207761    4.3207761    4.3207761   -13138.117   -5496.6251   -10347.276    -23570.45   -7105.8461   -15927.671    -15506.44     80.66503 
   13600    1272.5978   -106.32335    1.1514732   -105.17188    30684.695    4.3099084    4.3099084    4.3099084    30684.695    23783.737    45126.127    23144.221    3920.4269    -353.2495   -3158.9598    80.057885 
   13700    778.78795   -105.89499   0.70466371   -105.19033   -35579.912    4.3204061    4.3204061    4.3204061   -35579.912     -31890.4   -27762.213   -47087.124    5815.0801   -24790.046    -5158.159    80.644308 
   13800    960.16466    -106.0549   0.86877716   -105.18613    1459.7576    4.3126629    4.3126629    4.3126629    1459.7576     10728.21    651.37103   -7000.3085   -180.40925    2908.1656   -6096.3546    80.211483 
   13900    1272.6112   -106.33207    1.1514854   -105.18059    8935.9321    4.3173208    4.3173208    4.3173208    8935.9321    12981.341   -1204.4981    15030.953    6808.8949   -3877.7206    7595.9726    80.471663 
   14000    762.24332   -105.87802   0.68969377   -105.18833   -23152.866    4.3214882    4.3214882    4.3214882   -23152.866   -8041.2874   -21458.933   -39958.379    10489.584   -18565.531   -16935.867    80.704917 
   14100    933.65447   -106.02195   0.84479018   -105.17716    37881.682    4.3064993    4.3064993    4.3064993    37881.682    46456.526    23025.425    44163.097   -4603.5849    11383.531    5787.1741     79.86806 
   14200    1236.5543   -106.29567    1.1188603   -105.17681   -14815.356    4.3202707    4.3202707    4.3202707   -14815.356   -26211.692   -15947.085   -2287.2903    18349.501   -4888.2011   -13904.386    80.636722 
   14300    797.00588   -105.89908   0.72114767   -105.17793    9693.9535    4.3165442    4.3165442    4.3165442    9693.9535    14303.073    -11296.47    26075.257    5975.3431   -5952.8704    -13514.15     80.42824 
   14400    1022.2945   -106.09908   0.92499357   -105.17409   -823.03549    4.3176285    4.3176285    4.3176285   -823.03549   -82.706657    6967.2385   -9353.6383   -243.08506    31817.881    2488.3887    80.488866 
   14500    1231.8322   -106.28179    1.1145877    -105.1672   -990.55083    4.3171481    4.3171481    4.3171481   -990.55083   -3816.3248   -18614.428      19459.1    17607.995   -8850.6607   -19414.545    80.462003 
   14600    770.31201   -105.87208   0.69699449   -105.17508    5052.4654    4.3123381    4.3123381    4.3123381    5052.4654    22868.275    12029.801    -19740.68   -8401.1701    15162.718   -1324.6727    80.193359 
   14700     1018.572    -106.1021   0.92162534   -105.18047   -14666.266    4.3164848    4.3164848    4.3164848   -14666.266   -28633.614   -11844.234   -3520.9498    19484.533    18227.917    1177.3405     80.42492 
   14800    1209.7361   -106.26639    1.0945946   -105.17179    8485.0998    4.3221625    4.3221625    4.3221625    8485.0998    3258.2568    13810.521    8386.5217    5483.3462   -10080.938   -5739.5445    80.742701 
   14900    779.52274   -105.88214   0.70532856   -105.17681   -19863.051     4.318304     4.318304     4.318304   -19863.051   -16405.501    -1117.037   -42066.615    980.65135    25984.167    7201.9831    80.526651 
   15000    968.10087   -106.05109   0.87595801   -105.17513    11050.195    4.3112237    4.3112237    4.3112237    11050.195    1248.3273    11557.127     20345.13    15451.647    837.90669    14410.464    80.131205 
   15100    1329.1349   -106.37433    1.2026292    -105.1717    1428.1719    4.3160083    4.3160083    4.3160083    1428.1719    12445.289    -3546.207   -4614.5666   -5998.2904    6290.9704    3328.5286    80.398292 
   15200    487.33142   -105.62761   0.44094771   -105.18666   -13736.299    4.3210324    4.3210324    4.3210324   -13736.299   -20136.128    3434.2719    -24507.04    11857.511    16398.912    15174.084    80.679382 
   15300    1394.1255   -106.43663    1.2614341    -105.1752   -9154.7748    4.3188603    4.3188603    4.3188603   -9154.7748   -9586.5714    -31620.39    13742.637    12084.819   -8330.3057    16586.019    80.557775 
   15400    1022.4615    -106.0998   0.92514461   -105.17465    14404.025    4.3098558    4.3098558    4.3098558    14404.025    5121.1482    31255.244    6835.6836   -804.80295    15082.168   -1652.6868    80.054956 
   15500    576.96235   -105.71048   0.52204766   -105.18843   -21869.412    4.3197011    4.3197011    4.3197011   -21869.412    -14274.38   -33612.725   -17721.132    25152.765    2538.1309    24474.316    80.604835 
   15600    1377.2163   -106.41798    1.2461342   -105.17184    10606.887    4.3215709    4.3215709    4.3215709    10606.887   -5284.7791    10134.108    26971.333    2836.0814   -575.49731   -11546.206     80.70955 
   15700    850.54188   -105.94971   0.76958817   -105.18012    11878.555     4.309481     4.309481     4.309481    11878.555    7738.6761    16477.173    11419.818    10738.233     14992.37     13129.49    80.034073 
   15800    732.87992   -105.85115   0.66312516   -105.18803   -11735.265    4.3172332    4.3172332    4.3172332   -11735.265   -14731.618   -31964.938     11490.76    23418.519   -2118.7037     9462.371    80.466765 
   15900    1340.3813   -106.38452    1.2128052   -105.17171     11856.57    4.3225086    4.3225086    4.3225086     11856.57    2530.8915    27762.052    5276.7669    -4106.196    754.83293   -16724.866    80.762098 
   16000    887.88887   -105.98214   0.80338051   -105.17876   -4853.0732    4.3137414    4.3137414    4.3137414   -4853.0732    4133.5622   -29277.328    10584.547    27380.605    4522.2203    32743.797    80.271673 
   16100    809.64343   -105.90963   0.73258239   -105.17705    6840.2244    4.3166287    4.3166287    4.3166287    6840.2244   -5270.4291    19139.017    6652.0849   -869.85111   -7488.9694   -6005.3516    80.432967 
   16200    1350.0932   -106.39401    1.2215927   -105.17242   -8406.0397    4.3194883    4.3194883    4.3194883   -8406.0397    -18851.22   -10589.866     4222.967    5628.4972    -3540.304    782.42177    80.592924 
   16300     720.3832   -105.83573   0.65181786   -105.18391    15292.655     4.307724     4.307724     4.307724    15292.655     5350.102   -1741.4374    42269.301    15326.975   -2694.3452    22515.428    79.936221 
   16400    979.17498    -106.0754    0.8859781   -105.18942   -10849.484    4.3243776    4.3243776    4.3243776   -10849.484   -32468.858    28801.857   -28881.452   -4350.2619   -11490.441   -13227.236    80.866908 
   16500    1284.2437   -106.34724    1.1620107   -105.18522   -5133.2404    4.3124125    4.3124125    4.3124125   -5133.2404    -32794.91   -6654.6105    24049.799    14062.362    7855.7664    -3262.433    80.197511 
   16600    909.07543   -106.00785   0.82255055    -105.1853    10724.443    4.3077494    4.3077494    4.3077494    10724.443   -80.602768    31045.716    1208.2157    7386.4865   -11979.878    23112.329    79.937635 
   16700    851.97728   -105.95577   0.77088695   -105.18489   -11105.389    4.3227415    4.3227415    4.3227415   -11105.389   -40276.222    34200.923   -27240.867    2421.6039   -609.01122   -14083.508    80.775157 
   16800    1123.7835   -106.19858    1.0168229   -105.18175    2383.7685    4.3110409    4.3110409    4.3110409    2383.7685   -26598.104   -3795.3012    37544.711    21897.913    6359.4177    14261.967    80.121013 
   16900    1002.6783   -106.09011   0.90724441   -105.18287   -9500.4275    4.3157363    4.3157363    4.3157363   -9500.4275     -23315.2    16931.115   -22117.197    -12027.68   -14180.685    4844.3884    80.383091 
   17000     800.2234   -105.90832   0.72405895   -105.18426    -12327.27    4.3154813    4.3154813    4.3154813    -12327.27   -41732.976    5518.9266   -767.75978    21539.658     15120.61   -2938.6038    80.368846 
   17100    1162.7696   -106.22906    1.0520984   -105.17697    -2554.731    4.3138643    4.3138643    4.3138643    -2554.731   -18225.297   -11303.514    21864.617   -535.89269    917.69781   -3777.2066    80.278535 
   17200    951.50295   -106.03913   0.86093987   -105.17819   -11346.028    4.3180719    4.3180719    4.3180719   -11346.028   -30520.426    9991.5259   -13509.183   -4944.0332   -5463.6458    11814.261     80.51367 
   17300    831.18215   -105.92714   0.75207108   -105.17507    4865.5171    4.3160785    4.3160785    4.3160785    4865.5171   -23011.267    4279.0466    33328.771    14139.761    17809.265   -17226.806    80.402214 
   17400    1352.0216   -106.39229    1.2233375   -105.16895   -12497.943    4.3188243    4.3188243    4.3188243   -12497.943   -27810.856   -16480.591    6797.6179   -15920.422   -13865.442   -3017.4949    80.555761 
   17500    709.46474   -105.82087   0.64193861   -105.17893    18221.177     4.307693     4.307693     4.307693    18221.177   -16829.419     35118.54    36374.411    5688.1675    8338.3062     6163.673    79.934495 
   17600    995.44698   -106.08442   0.90070134   -105.18371   -5879.1793    4.3175957    4.3175957    4.3175957   -5879.1793   -21528.375   -25993.121    29883.958   -6240.6465    3110.1791   -28915.025    80.487033 
   17700    1257.6718   -106.31122    1.1379679   -105.17325    2996.8663    4.3234461    4.3234461    4.3234461    2996.8663   -24204.884    3434.1447    29761.338   -15302.588   -3467.9634    4583.8453    80.814661 
   17800    859.82067   -105.95452   0.77798381   -105.17654    11331.138    4.3043435    4.3043435    4.3043435    11331.138    -1979.802   -2905.9863    38879.203    10302.618    11465.993   -6999.2381     79.74818 
   17900    693.94748   -105.81738   0.62789826   -105.18949   -16798.637    4.3158483    4.3158483    4.3158483   -16798.637   -17107.104   -26552.789   -6736.0168   -24664.507   -2042.3664   -20790.852    80.389351 
   18000    1541.6356   -106.56908    1.3949043   -105.17418    12644.846    4.3147501    4.3147501    4.3147501    12644.846    -4334.896   -11658.695    53928.129    3140.7935     77.21912    12908.204    80.327996 
   18100     557.3376   -105.69472   0.50429077   -105.19043   -17565.299    4.3204366    4.3204366    4.3204366   -17565.299   -24594.742    -7497.866   -20603.289   -9596.0364     6371.777   -18056.436    80.646013 
   18200    836.81973   -105.94696   0.75717207   -105.18979   -13314.673    4.3113849    4.3113849    4.3113849   -13314.673   -23924.894   -14988.604   -1030.5205   -18717.388   -8907.4767   -7400.5004    80.140193 
   18300    1432.5617   -106.47414     1.296212   -105.17793     29084.33    4.3085774    4.3085774    4.3085774     29084.33   -4304.0047    30111.119    61445.877    6750.9637   -2480.4092    2552.2505    79.983739 
   18400    689.67408   -105.81655    0.6240316   -105.19252   -24091.561    4.3226891    4.3226891    4.3226891   -24091.561    -34555.31   -13253.121   -24466.252   -25429.472    -4550.975   -24525.353    80.772218 
   18500    927.47681   -106.02316   0.83920051   -105.18396    13893.194    4.3129767    4.3129767    4.3129767    13893.194   -22804.254    28387.865    36095.971    1382.6604   -5578.9563   -2629.3192    80.228992 
   18600     1424.342   -106.46444    1.2887746   -105.17566    9202.5462    4.3141842    4.3141842    4.3141842    9202.5462   -19556.975    20129.379    27035.235    -9039.091    1363.2661   -2157.2485    80.296395 
   18700    795.09435   -105.90811   0.71941807   -105.18869   -3397.2018    4.3123856    4.3123856    4.3123856   -3397.2018   -34051.068    5249.5286    18609.933   -18253.483   -9568.7576   -16778.458    80.196013 
   18800    812.43729   -105.92846   0.73511034   -105.19335    9760.0207    4.3150275    4.3150275    4.3150275    9760.0207   -24382.627    37445.793    16216.896    8576.1432   -3916.8811    7731.9714    80.343491 
   18900    1462.1287   -106.50798    1.3229648   -105.18502   -12931.973    4.3171449    4.3171449    4.3171449   -12931.973   -30253.575   -20767.807    12225.462   -15973.157   -957.91602    17252.561    80.461827 
   19000    691.19379   -105.81598   0.62540667   -105.19057    16363.602    4.3045955    4.3045955    4.3045955    16363.602   -17794.365    38912.204    27972.966   -2847.5964   -13437.786   -19025.663    79.762186 
   19100    866.46256   -105.97723   0.78399353   -105.19324   -16173.472    4.3209699    4.3209699    4.3209699   -16173.472   -22366.772    982.76695    -27136.41    6989.3192    3645.8387    15998.338    80.675884 
   19200    1275.3249   -106.33423    1.1539408   -105.18029   -6828.9771    4.3192993    4.3192993    4.3192993   -6828.9771   -19785.183   -14546.889     13845.14   -16881.193   -4010.4411   -179.79733    80.582342 
   19300    889.29618   -105.98433   0.80465387   -105.17968    10163.055    4.3063479    4.3063479    4.3063479    10163.055   -16884.916    33893.596    13480.485    8350.1088   -5817.1091   -10585.767    79.859638 
   19400     779.4494   -105.89164    0.7052622   -105.18637   -31985.532     4.321558     4.321558     4.321558   -31985.532   -27307.842   -38006.949   -30641.804   -3751.1776    9632.5603    16075.699    80.708828 
   19500     1220.862   -106.28278    1.1046616   -105.17812    13398.237    4.3099133    4.3099133    4.3099133    13398.237   -11810.548    25182.223    26823.034   -15052.017   -5852.7114   -2120.4886    80.058162 
   19600    1015.3236   -106.10621    0.9186861   -105.18753   -10572.349    4.3162629    4.3162629    4.3162629   -10572.349   -21265.757   -6037.0139   -4414.2751    8137.7444    9357.6652    14272.876    80.412517 
   19700    703.50753   -105.82797    0.6365484   -105.19142   -13043.157    4.3149683    4.3149683    4.3149683   -13043.157    1905.0994   -13026.064   -28008.508   -8182.4015    2051.9134    23077.795    80.340184 
   19800    1197.0452   -106.26696    1.0831116   -105.18385    11878.824    4.3116056    4.3116056    4.3116056    11878.824   -13249.423    12359.587    36526.309   -12462.151    5908.6896   -12779.785    80.152503 
   19900    1146.5243   -106.22151    1.0373993   -105.18411   -14773.907    4.3187585    4.3187585    4.3187585   -14773.907   -2913.4345   -16177.695   -25230.592    3958.9982    6654.1322    27761.656    80.552078 
   20000    560.79485   -105.69761   0.50741897   -105.19019    9237.3801    4.3070273    4.3070273    4.3070273    9237.3801    14163.595    9910.3405    3638.2052   -9013.2108   -1520.4915   -5991.5945    79.897439 
   20100    1233.2456   -106.30329    1.1158665   -105.18743     5236.784    4.3156445    4.3156445    4.3156445     5236.784   -13210.148     9676.622    19243.878   -4196.8953    5741.9812   -14518.325    80.377963 
   20200    1196.5911   -106.26562    1.0827008   -105.18292   -6882.7206    4.3212398    4.3212398    4.3212398   -6882.7206    -1132.174    2779.1152   -22295.103    4970.4366   -5408.7232    8024.2303    80.691002 
   20300    536.08197   -105.67212   0.48505823   -105.18706    8652.0084    4.3068913    4.3068913    4.3068913    8652.0084     34055.52   -12246.661    4147.1669   -13405.103    1116.8312   -28773.652    79.889871 
   20400    1342.6866   -106.39547     1.214891   -105.18058   -8303.5734    4.3182589    4.3182589    4.3182589   -8303.5734   -33477.839    5139.0585    3428.0605    6328.9251    1204.5202    6481.1761    80.524128 
   20500     1062.811    -106.1415   0.96165372   -105.17984    9002.4068    4.3149108    4.3149108    4.3149108    9002.4068    36952.072     729.3691   -10674.221     1776.195   -343.94978   -14769.258    80.336976 
   20600    741.76535   -105.85891   0.67116488   -105.18774   -5669.9678    4.3121249    4.3121249    4.3121249   -5669.9678    4737.0264   -11742.002   -10004.928   -11507.426    2204.1386   -10341.669    80.181468 
   20700     1196.266   -106.26785    1.0824066   -105.18545   -5656.8149    4.3183608    4.3183608    4.3183608   -5656.8149   -19490.241     4891.641   -2371.8444    16311.874    5572.1862    4161.1224    80.529831 
   20800    1095.4179    -106.1752   0.99115711   -105.18405    24166.944    4.3066881    4.3066881    4.3066881    24166.944     46780.21    36575.771   -10855.148   -15597.801    436.61178   -16628.177    79.878569 
   20900    691.99413   -105.82022   0.62613083   -105.19409   -22050.576    4.3181826    4.3181826    4.3181826   -22050.576   -24339.649   -30294.282   -11517.797    4085.9299    6853.2044    1041.9559     80.51986 
   21000    1157.0563   -106.22815    1.0469288   -105.18122    9778.9121     4.316287     4.316287     4.316287    9778.9121   -195.30146    36927.621   -7395.5835    10367.158    5382.5937    1602.6003    80.413868 
   21100    1191.0431   -106.25934    1.0776808   -105.18166    3869.6748    4.3081091    4.3081091    4.3081091    3869.6748    13920.804    11694.336   -14006.116   -8547.5123    -6566.359   -10930.858    79.957662 
   21200    655.06199   -105.79168   0.59271386   -105.19896     -22139.6     4.315066     4.315066     4.315066     -22139.6   -28029.628    -33116.75   -5272.4229    5509.0575    10478.208    6512.0303    80.345644 
   21300    1291.3497   -106.35785    1.1684403   -105.18941    2805.4237    4.3158786    4.3158786    4.3158786    2805.4237    5456.5869    16627.865   -13668.181    10010.456   -12336.717    11053.305    80.391044 
   21400    993.27798    -106.0892   0.89873879   -105.19046    7253.5712    4.3099382    4.3099382    4.3099382    7253.5712    5693.0675     13752.13     2315.516   -8167.2778    2766.1628    -6677.503    80.059547 
   21500    651.01877    -105.7814   0.58905546   -105.19235   -28974.648     4.319853     4.319853     4.319853   -28974.648   -30540.184   -36519.253   -19864.507      21509.4    396.51836    31356.063    80.613336 
   21600    1329.7785   -106.37945    1.2032115   -105.17623    12822.587    4.3064185    4.3064185    4.3064185    12822.587    18966.501    19990.089    -488.8295    -2821.089   -15657.592   -798.88968    79.863563 
   21700    962.36808   -106.05421   0.87077086   -105.18344   -8942.3083    4.3170657    4.3170657    4.3170657   -8942.3083   -29684.474    4368.0233    -1510.474     10885.54    13205.938    8615.1176    80.457395 
   21800    781.74404   -105.89537   0.70733843   -105.18803   -25825.643    4.3165273    4.3165273    4.3165273   -25825.643   -21977.287    -34708.81   -20790.831    8431.9455   -16370.956    13677.872      80.4273 
   21900     1195.659   -106.26387    1.0818574   -105.18201    20845.385    4.3041074    4.3041074    4.3041074    20845.385    5000.2668    50473.857    7062.0301   -4425.3336   -730.35107   -9144.4923    79.735056 
   22000    1111.1711   -106.19237     1.005411   -105.18696   -12404.112    4.3189002    4.3189002    4.3189002   -12404.112   -28555.629   -18381.724    9725.0181    3786.5373    6159.6149    9519.8271    80.560007 
   22100    583.35779   -105.71987   0.52783439   -105.19204   -4051.1099    4.3158817    4.3158817    4.3158817   -4051.1099   -14684.274    22812.912   -20281.968   -156.44456   -22410.606    4181.8334    80.391218 
   22200     1399.151   -106.44262    1.2659813   -105.17664    12909.305    4.3113248    4.3113248    4.3113248    12909.305    23214.214    13791.738    1721.9632   -290.12109    10270.972   -5112.9374    80.136842 
   22300    928.19909    -106.0275   0.83985405   -105.18764    615.81515    4.3121164    4.3121164    4.3121164    615.81515   -21543.271    37398.071   -14007.354    6190.9769   -12840.247    7861.2102    80.180993 
   22400    758.47132   -105.87952   0.68628079   -105.19324   -3402.5095    4.3122663    4.3122663    4.3122663   -3402.5095    24944.964   -10604.817   -24547.675    6207.3301   -20626.846    402.56465    80.189355 
   22500    1322.1827   -106.37371    1.1963387   -105.17737    15018.197    4.3198393    4.3198393    4.3198393    15018.197      4733.38     45129.52   -4808.3086    1471.6082    3761.0771   -5076.9304     80.61257 
   22600    914.03524   -106.01327   0.82703829   -105.18623   -14631.634    4.3160322    4.3160322    4.3160322   -14631.634   -14124.819   -10720.455   -19049.628    10907.966   -24629.118    5057.1744    80.399626 
   22700    745.75622   -105.85889    0.6747759   -105.18412    14511.283    4.3064783    4.3064783    4.3064783    14511.283    17334.483    19289.317    6910.0504   -4214.3171   -2236.5726      199.115    79.866895 
   22800    1259.9878   -106.32067    1.1400635   -105.18061   -277.28218    4.3159601    4.3159601    4.3159601   -277.28218   -6696.8977    7174.0333   -1308.9821   -5283.1225   -422.25446   -7568.2145    80.395598 
   22900    858.74536   -105.95685   0.77701085   -105.17984   -2500.1639    4.3224575    4.3224575    4.3224575   -2500.1639   -13593.714    6453.9587    -360.7367    87.063464   -11952.682    777.09881    80.759236 
   23000    908.84844   -105.99597   0.82234517   -105.17363   -5482.3521    4.3181301    4.3181301    4.3181301   -5482.3521    -2795.461   -7778.0632   -5873.5321   -8497.9053    11254.625   -6592.1175    80.516926 
   23100    1178.4022   -106.23475     1.066243   -105.16851    398.31665    4.3068027    4.3068027    4.3068027    398.31665   -9667.9638    30965.464   -20102.551   -223.32284   -16274.195    1080.8172    79.884943 
   23200    1092.7024    -106.1614   0.98870007    -105.1727   -877.59732    4.3167114    4.3167114    4.3167114   -877.59732    16078.157   -3634.3496   -15076.599   -2716.9931    -98.57649    6737.2968     80.43759 
   23300    697.50946   -105.80717   0.63112122   -105.17605   -28066.193    4.3300606    4.3300606    4.3300606   -28066.193   -35410.826   -11311.374   -37476.379   -4275.9475    -10569.66   -5210.9378    81.186145 
   23400    1457.7501   -106.49034    1.3190029   -105.17133    7080.6652    4.3031783    4.3031783    4.3031783    7080.6652   -1064.3554    17232.088    5074.2627    2357.7203    -15273.99   -2930.2883    79.683431 
   23500      778.679   -105.89106   0.70456512    -105.1865    32292.853    4.2990983    4.2990983    4.2990983    32292.853    33907.503    39378.811    23592.246   -4256.5868   -1064.8686    450.92288    79.456995 
   23600    719.98889   -105.84239   0.65146108   -105.19093   -26734.125    4.3305013    4.3305013    4.3305013   -26734.125   -44882.405    -30359.76   -4960.2092    2993.7799   -25928.697   -6918.0288    81.210938 
   23700    1191.4417   -106.24762    1.0780415   -105.16958    9228.0747     4.322597     4.322597     4.322597    9228.0747   -5737.6476    26348.775    7073.0969    6244.7834    5444.9125    7323.4319    80.767053 
   23800      1021.58   -106.09669   0.92434702   -105.17234   -3557.0833    4.2988593    4.2988593    4.2988593   -3557.0833    9020.1332    1237.3123   -20928.695   -2235.0428   -17016.328   -5312.1181    79.443742 
   23900    779.50371   -105.89224   0.70531134   -105.18693    3784.0119    4.3093032    4.3093032    4.3093032    3784.0119   -26811.504    38884.518   -720.97825    8791.9709   -9330.0394   -5591.1012    80.024164 
   24000    1399.6549     -106.443    1.2664372   -105.17657   -21519.418    4.3292061    4.3292061    4.3292061   -21519.418    -9320.694   -28188.565   -27048.995   -3377.7118    7912.3105    5568.4314    81.138088 
   24100    712.08531    -105.8217   0.64430975   -105.17739   -10331.061    4.3193961    4.3193961    4.3193961   -10331.061   -23932.322    16458.915   -23519.775    3942.0815   -21923.015   -14341.365    80.587763 
   24200    1240.1828   -106.28982    1.1221434   -105.16768    8880.5819    4.3003081    4.3003081    4.3003081    8880.5819   -11812.545    5232.9528    33221.338    4494.4009    10700.085    3023.5194    79.524093 
   24300     1041.895   -106.11988   0.94272845   -105.17715    10737.274     4.311362     4.311362     4.311362    10737.274    4690.6114     36022.34   -8501.1302    1816.2321    -11176.82    3819.3102    80.138915 
   24400    830.15453   -105.93486   0.75114127   -105.18372   -30470.375    4.3278264    4.3278264    4.3278264   -30470.375   -34491.466   -50783.496   -6136.1641    12681.852   -13324.903   -8188.7834    81.060542 
   24500    1094.1195   -106.16957   0.98998233   -105.17958    14686.928    4.3079685    4.3079685    4.3079685    14686.928   -7574.1001    26216.012    25418.871   -4216.3323    2816.3044   -1285.0868     79.94983 
   24600    1118.5666   -106.19049    1.0121026   -105.17839    21448.012    4.2988685    4.2988685    4.2988685    21448.012     35747.67    22800.325    5796.0419   -3255.8141   -19612.502   -10326.383    79.444254 
   24700    592.69106   -105.72601   0.53627932   -105.18973   -8238.4857    4.3220422    4.3220422    4.3220422   -8238.4857   -20267.983   -16040.684     11593.21    760.00742    257.45891   -4797.5612    80.735957 
   24800    1170.9518   -106.23698    1.0595018   -105.17748   -12705.305    4.3214661    4.3214661    4.3214661   -12705.305   -21103.811    -26983.84    9971.7366    -8795.734   -8838.5451    3659.3283    80.703678 
   24900    1100.5023   -106.16802   0.99575761   -105.17226    35962.032    4.2974896    4.2974896    4.2974896    35962.032    23633.702    54959.641    29292.752    11075.176    -12195.91    1709.7406    79.367831 
   25000    826.07467   -105.93601   0.74744972   -105.18856   -23908.373    4.3155268    4.3155268    4.3155268   -23908.373   -32568.227   -50336.706    11179.813   -4182.6859    4951.6653    4313.2862    80.371383 
   25100    1026.4803   -106.11059   0.92878094   -105.18181    1268.6912    4.3192187    4.3192187    4.3192187    1268.6912   -12001.384    23964.572   -8157.1142   -8332.5368   -14748.961    3415.8669    80.577831 
   25200    1297.5446   -106.34825    1.1740456   -105.17421      5059.14    4.3092698    4.3092698    4.3092698      5059.14    8521.4319   -11887.865    18543.853    6729.1455    6383.7198   -35.859132    80.022304 
   25300    396.30879   -105.54644   0.35858852   -105.18785   -8868.8627    4.3120423    4.3120423    4.3120423   -8868.8627   -16643.414   -7784.4946   -2178.6791   -3427.8011   -5824.9614    3332.4574    80.176858 
   25400    1442.1601   -106.48565    1.3048968   -105.18075   -1095.1444    4.3106559    4.3106559    4.3106559   -1095.1444    21518.271   -5245.8344    -19557.87   -2114.5484   -7439.8362    -4.131566    80.099546 
   25500    957.65383   -106.05166   0.86650531   -105.18516    158.15964    4.3179018    4.3179018    4.3179018    158.15964   -8275.5869    12728.585   -3978.5195    6003.7136    5104.3709   -414.96129    80.504153 
   25600    715.64611   -105.83523   0.64753164    -105.1877   -22414.768    4.3108532    4.3108532    4.3108532   -22414.768   -21788.612   -41373.348   -4082.3454   -13166.495    -15745.39    2774.8154    80.110547 
   25700    1191.9573   -106.26008     1.078508   -105.18157    19965.917     4.308738     4.308738     4.308738    19965.917    31677.018     40550.96   -12330.227    3153.1441    5625.1018   -5248.5377    79.992684 
   25800    1321.6954   -106.37913    1.1958978   -105.18324   -10342.395    4.3166131    4.3166131    4.3166131   -10342.395   -7642.0483   -22154.461   -1230.6748   -4196.9333   -7636.6335    300.95974    80.432095 
   25900    364.23594   -105.52476   0.32956834   -105.19519    5568.3833    4.3082952    4.3082952    4.3082952    5568.3833    23200.214    81.603434   -6576.6676   -6594.1645   -10095.265   -5150.9286    79.968024 
   26000    1409.8332   -106.45885    1.2756467   -105.18321    2625.7805    4.3131009    4.3131009    4.3131009    2625.7805    23594.404   -4175.6765   -11541.386    3153.4547    10388.893   -4206.6431    80.235924 
   26100    1011.0785   -106.10563   0.91484504   -105.19079    3393.6035    4.3109602    4.3109602    4.3109602    3393.6035    5798.2468    20954.781   -16572.217   -9750.1831   -12943.415    4790.4848    80.116511 
   26200    609.88907    -105.7499   0.55184044   -105.19806   -1991.2282    4.3045507    4.3045507    4.3045507   -1991.2282    14575.839   -21086.982     537.4585   -2266.2249    2950.5947   -2175.6885    79.759692 
   26300    1396.4513   -106.44364    1.2635384   -105.18011   -7028.2329    4.3189272    4.3189272    4.3189272   -7028.2329   -18537.148   -4547.2812     1999.731    13801.073    3137.3263    1195.9522    80.561522 
   26400    970.55605    -106.0582   0.87817951   -105.18002   -5566.1192     4.310182     4.310182     4.310182   -5566.1192    12301.764    3471.8126   -32471.934   -8205.4889   -11482.155   -6841.5308    80.073136 
   26500    609.34299   -105.73551   0.55134634   -105.18416   -1662.5846    4.3045753    4.3045753    4.3045753   -1662.5846    -4481.988   -6267.7796    5762.0137    4982.0055    7917.6038   -7788.6881    79.761062 
   26600    1380.0909   -106.42834    1.2487352   -105.17961   -8875.2022    4.3152754    4.3152754    4.3152754   -8875.2022   -11704.307   -17215.764    2294.4652    11135.266   -9067.2378   -4125.3472    80.357341 
   26700    1046.3057   -106.13151   0.94671939   -105.18479     3791.807    4.3149663    4.3149663    4.3149663     3791.807    18407.092    22427.009    -29458.68    1377.7607    5630.9578     -2950.32    80.340075 
   26800    576.08517   -105.71697   0.52125397   -105.19571   -23585.453    4.3113006    4.3113006    4.3113006   -23585.453   -34495.478   -36133.392   -127.48862     27946.14    70.043906   -3508.2209    80.135493 
   26900     1269.869   -106.33303    1.1490042   -105.18403    19399.104    4.3032251    4.3032251    4.3032251    19399.104    7901.2766    45097.848    5198.1868    -11489.78   -5177.1028    8155.9965    79.686032 
   27000    1096.5454   -106.17954   0.99217736   -105.18736   -17291.341    4.3194664    4.3194664    4.3194664   -17291.341   -11704.872   -22446.998   -17722.153    14567.897    16574.396    -7497.829    80.591697 
   27100    616.59056   -105.74825    0.5579041   -105.19035   -9527.6641    4.3136028    4.3136028    4.3136028   -9527.6641   -25986.623   -5119.9662    2523.5973     3422.192   -9404.6036    -2237.871    80.263935 
   27200    1321.0528   -106.37279    1.1953164   -105.17747    10720.262    4.3029654    4.3029654    4.3029654    10720.262    23086.927    16388.622   -7314.7642   -8722.9406    15292.183    5852.4897    79.671604 
   27300    897.00653   -105.99332   0.81163036   -105.18168   -749.77076    4.3161607    4.3161607    4.3161607   -749.77076    -13034.37    19830.219   -9045.1618    14912.219    8922.9981   -14561.622     80.40681 
   27400      816.712    -105.9246   0.73897818   -105.18563   -20418.546    4.3143418    4.3143418    4.3143418   -20418.546   -12142.586   -37933.734   -11179.319   -10292.275    132.51624    8479.5983    80.305194 
   27500    977.14783   -106.06926   0.88414389   -105.18511    14515.079    4.3078329    4.3078329    4.3078329    14515.079    11894.469    53512.502   -21861.733   -7767.8805    26598.282    9968.8399    79.942281 
   27600    1432.1948   -106.47854      1.29588   -105.18266   -1441.1555    4.3100029    4.3100029    4.3100029   -1441.1555   -6641.5308   -15544.967    17863.031    11773.053    -6189.772   -1752.8005    80.063152 
   27700    307.49966   -105.47577   0.27823215   -105.19754   -10311.477    4.3175814    4.3175814    4.3175814   -10311.477   -5191.5963    4678.7214   -30421.557   -8922.3866    22451.093    12761.424    80.486235 
   27800    1313.5637   -106.36915      1.18854   -105.18061    3524.3829    4.3174175    4.3174175    4.3174175    3524.3829    6038.0268    8466.2372   -3931.1152    2848.7142    5493.4818     1532.699    80.477067 
   27900    1309.2621   -106.36722    1.1846479   -105.18257    10617.063      4.30462      4.30462      4.30462    10617.063    11140.323    20843.944    -133.0782    7139.7141   -865.52593   -2725.4834    79.763545 
   28000    385.93587   -105.55029   0.34920288   -105.20108   -13707.328    4.3088342    4.3088342    4.3088342   -13707.328   -1538.0405   -11392.303    -28191.64   -15904.898    24218.747    16743.582    79.998042 
   28100     1532.075   -106.57243    1.3862537   -105.18618   -2854.8453    4.3187173    4.3187173    4.3187173   -2854.8453   -10392.242    3984.1756   -2156.4692     6197.209   -15497.736   -3107.0715    80.549775 
   28200    922.41314   -106.02642   0.83461879    -105.1918    2937.7068    4.3099071    4.3099071    4.3099071    2937.7068    15452.721    20415.519    -27055.12   -7277.0829     23015.84    9279.0569    80.057813 
   28300    784.81837   -105.90244   0.71012015   -105.19232   -7280.2472    4.3055552    4.3055552    4.3055552   -7280.2472    306.06277    -14786.58   -7360.2244   -12329.342    2800.1201    3221.7511    79.815544 
   28400    1153.1347   -106.22716    1.0433805   -105.18378     3308.774      4.31622      4.31622      4.31622     3308.774    -2590.712    13367.066   -850.03242    14854.104    96.872236   -2692.7754    80.410124 
   28500    1230.1363   -106.29393    1.1130532   -105.18087    1290.4941     4.310754     4.310754     4.310754    1290.4941    30913.611   -4975.7284     -22066.4   -10394.959    22245.814    11781.208    80.105017 
   28600    528.90676   -105.66862   0.47856595   -105.19005   -13512.587    4.3148611    4.3148611    4.3148611   -13512.587   -28315.616    -13569.36    1347.2153    7141.9001   -6393.8884   -6520.8542    80.334199 
   28700    1252.6346   -106.31552    1.1334101   -105.18211    928.16987    4.3080294    4.3080294    4.3080294    928.16987     14819.77   -15974.798    3939.5375    19505.771    13174.399   -1397.7593    79.953223 
   28800    1186.8463   -106.25693    1.0738835   -105.18305    6969.6395    4.3128315    4.3128315    4.3128315    6969.6395    1295.2839    36200.147   -16586.513   -9071.5094    4041.6888   -1089.8769    80.220889 
   28900    490.65702   -105.64233   0.44395678   -105.19837   -30324.162    4.3163981    4.3163981    4.3163981   -30324.162   -34165.593   -58759.201    1952.3086    16646.499   -7572.2807   -7051.6988    80.420077 
   29000    1348.8568   -106.40586    1.2204739   -105.18538    21685.948    4.3026809    4.3026809    4.3026809    21685.948    37286.037    30616.423   -2844.6169    573.76876    8043.9059    -4013.247      79.6558 
   29100       1072.7   -106.16077   0.97060154   -105.19017   -12415.003    4.3175022    4.3175022    4.3175022   -12415.003   -14719.354   -21143.413   -1382.2432    9923.7992   -7563.0943    1456.7994    80.481803 
   29200    585.12289   -105.72419   0.52943148   -105.19476    143.37949    4.3088681    4.3088681    4.3088681    143.37949    -229.1094   -21746.527    22405.775    12204.614   -3568.6724   -2536.6643     79.99993 
   29300    1312.2159   -106.36909    1.1873205   -105.18177    10882.968    4.3150709    4.3150709    4.3150709    10882.968    39584.211   -1261.5478   -5673.7586    -5208.489    4818.2494    6843.3412    80.345917 
   29400    1103.7147   -106.18524   0.99866426   -105.18658   -4443.5956    4.3098314    4.3098314    4.3098314   -4443.5956   -14375.681   -16081.545    17126.439    13879.563   -5703.6691   -946.28914    80.053593 
   29500    560.72923    -105.6993   0.50735959   -105.19194    21739.915    4.3042618    4.3042618    4.3042618    21739.915    41862.387   -3580.5586    26937.918   -4821.1628    2041.5081   -10235.031    79.743638 
   29600    1183.3642   -106.25531    1.0707328   -105.18457   -11751.766    4.3231832    4.3231832    4.3231832   -11751.766    3025.7762   -20485.122   -17795.951    1229.1947   -1332.0672    12960.085    80.799918 
   29700    1184.4603   -106.25135    1.0717246   -105.17963    23767.596     4.304493     4.304493     4.304493    23767.596    9896.2661    21352.598    40053.924    5848.0826   -1966.3393   -9983.4739     79.75649 
   29800    832.00422   -105.93952    0.7528149   -105.18671    1695.3987    4.3056569    4.3056569    4.3056569    1695.3987    39762.441   -39079.284    4403.0384   -12197.109   -1144.3971    16508.551    79.821199 
   29900    983.53409   -106.07238   0.88992231   -105.18246     -22080.9     4.323499     4.323499     4.323499     -22080.9   -12394.664   -15982.742   -37865.293    1260.7628   -4003.4109    6885.8538    80.817629 
   30000    1252.1333   -106.30727    1.1329565   -105.17432    25400.867    4.3048292    4.3048292    4.3048292    25400.867    13509.013    18758.998     43934.59   -4489.9413    -3826.757   -6131.9477    79.775176 
   30100    909.28226   -106.00695    0.8227377   -105.18421   -6503.4605    4.3117525    4.3117525    4.3117525   -6503.4605    14492.421   -33820.621   -182.18129   -6192.2083   -1136.7612    15296.352    80.160695 
   30200    688.78377   -105.80776   0.62322603   -105.18454   -4169.7656    4.3142242    4.3142242    4.3142242   -4169.7656   -19890.824    12795.438    -5413.911    2045.1056   -2455.5065   -14330.133     80.29863 
   30300    1297.7817   -106.34986    1.1742602    -105.1756    7253.9866    4.3101314    4.3101314    4.3101314    7253.9866   -3437.2898   -7069.0132    32268.263   -5924.7883   -3617.9597    8954.1846    80.070311 
   30400     1280.652   -106.33689    1.1587609   -105.17813   -9354.8609     4.314356     4.314356     4.314356   -9354.8609   -4584.2959    -18885.28   -4595.0062    211.65085    859.46559    11779.769    80.305988 
   30500    390.91079   -105.54568    0.3537043   -105.19198    5001.1253    4.3088608    4.3088608    4.3088608    5001.1253   -29086.839    43665.196    425.01922    -4336.804   -7510.7349   -12059.995    79.999521 
   30600    1477.9147   -106.51856    1.3372483   -105.18131     9170.023    4.3149486    4.3149486    4.3149486     9170.023    10502.662   -7825.2245    24832.631   -2139.0798    1626.7353    985.50752    80.339082 
   30700     1119.994    -106.1982    1.0133941   -105.18481    1440.7936    4.3133066    4.3133066    4.3133066    1440.7936   -28781.254     13484.77    19618.865    3319.9338   -8361.2948   -4599.1331    80.247402 
   30800    424.51604   -105.57823   0.38411103   -105.19412   -6414.7188    4.3062956    4.3062956    4.3062956   -6414.7188   -13002.667    18048.874   -24290.363   -5780.0686   -3522.6121   -17917.452    79.856728 
   30900    1411.3445   -106.45921    1.2770142    -105.1822    261.16033    4.3108143    4.3108143    4.3108143    261.16033    16207.465   -21615.489    6191.5052    1737.2714    3429.2569    2938.1418    80.108381 
   31000    1122.3556   -106.19965     1.015531   -105.18412   -7255.0694    4.3163552    4.3163552    4.3163552   -7255.0694   -38618.556    20366.269    -3512.921   -1539.8562   -6882.4578   -372.64957    80.417681 
   31100    607.31563   -105.73874   0.54951194   -105.18923   -22818.351    4.3132617    4.3132617    4.3132617   -22818.351   -2798.0194   -25146.718   -40510.316   -5818.5491    2585.1791   -17050.281    80.244899 
   31200    1167.1561   -106.23894    1.0560674   -105.18287    5801.9244    4.3048819    4.3048819    4.3048819    5801.9244    19467.041   -14698.944    12637.677    46.682715   -419.16048    23374.914    79.778105 
   31300    1134.3584   -106.20963    1.0263913   -105.18324   -2715.4375    4.3158403    4.3158403    4.3158403   -2715.4375   -30218.215    12081.394    9990.5082   -8152.5638   -377.46853   -12806.782    80.388901 
   31400    612.16855   -105.74504   0.55390297   -105.19114   -26755.642    4.3151317    4.3151317    4.3151317   -26755.642    5270.1626   -45485.281   -40051.809   -3427.8221    -222.2401     15423.43    80.349314 
   31500      1246.29   -106.30998    1.1276694   -105.18231    16293.825    4.3110864    4.3110864    4.3110864    16293.825    11675.177    6040.0033    31166.296   -3530.8981     -5239.98    7916.9884    80.123548 
   31600    1214.2613   -106.28293    1.0986891   -105.18424   -4382.7744    4.3114602    4.3114602    4.3114602   -4382.7744   -5409.6489   -11655.696    3917.0213   -3310.3682    1162.2335   -1599.8606    80.144392 
   31700      452.218   -105.60385   0.40917635   -105.19468    -1213.271    4.3089163    4.3089163    4.3089163    -1213.271    17238.709   -29389.124    8510.6026   -1315.7074   -1306.6236    18471.156    80.002615 
   31800    1380.1383    -106.4294    1.2487781   -105.18062    6600.8971    4.3189349    4.3189349    4.3189349    6600.8971   -6157.2349     9021.232    16938.694   -1658.2729   -4032.2979   -3632.9976     80.56195 
   31900    959.07497   -106.05262   0.86779118   -105.18483    17875.832    4.3048603    4.3048603    4.3048603    17875.832    14399.028   -6259.0105    45487.477    -3823.458    4448.6723    15664.064    79.776904 
   32000    809.57386   -105.92272   0.73251944    -105.1902   -11496.559    4.3091069    4.3091069    4.3091069   -11496.559    677.67626   -11241.548   -23925.806    1633.4751   -5353.1132    1995.4991    80.013229 
   32100    1116.8961   -106.19079    1.0105911   -105.18019    283.68827    4.3184311    4.3184311    4.3184311    283.68827   -25439.825    6420.4885    19870.402   -1857.2117    1300.2008   -3565.8188    80.533759 
   32200    1120.0761   -106.19031    1.0134684   -105.17684   -128.99838    4.3129962    4.3129962    4.3129962   -128.99838    1708.8683   -22694.068    20598.204   -4224.6676    571.75224    16383.105    80.230083 
   32300    763.25433   -105.87361   0.69060856     -105.183   -16284.635     4.312638     4.312638     4.312638   -16284.635   -20690.543    2423.9395   -30587.302    3466.2082   -7202.4534   -5937.8883    80.210092 
   32400    1039.9902   -106.12272   0.94100498   -105.18171    7378.3155    4.3056613    4.3056613    4.3056613    7378.3155   -22834.629    6364.0357    38605.539   -10054.352    7086.3291    2715.3319    79.821446 
   32500    1131.8923   -106.20549      1.02416   -105.18133   -1307.5897    4.3186091    4.3186091    4.3186091   -1307.5897   -12037.265   -3176.2285    11290.724   -3807.6791   -17.529456   -973.85359    80.543721 
   32600    799.37973   -105.90945   0.72329558   -105.18616   -10497.623    4.3103327    4.3103327    4.3103327   -10497.623   -36258.923    13659.029   -8892.9738    2974.2989    2622.6717   -12655.553    80.081533 
   32700    876.17558   -105.98003   0.79278208   -105.18724    5263.7696    4.3093944    4.3093944    4.3093944    5263.7696    -35713.42    339.18235    51165.547   -14174.289    7896.7885    6618.0218    80.029245 
   32800     1500.804   -106.53742     1.357959   -105.17946    346.07182    4.3124301    4.3124301    4.3124301    346.07182   -9071.6297    -3302.942    13412.787   -2606.1575   -1100.3793   -4564.3302    80.198495 
   32900    787.17447   -105.90379     0.712252   -105.19154   -5065.2553    4.3094839    4.3094839    4.3094839   -5065.2553   -48255.893    18484.052    14576.075   -1107.5113    8838.5574    6589.1649    80.034231 
   33000    687.81057   -105.81616   0.62234545   -105.19381    -8381.049    4.3184575    4.3184575    4.3184575    -8381.049   -49661.013    414.02667    24103.839   -11604.283    2843.2506   -6804.9774    80.535236 
   33100    1433.2806   -106.47589    1.2968624   -105.17903    20410.465    4.3034125    4.3034125    4.3034125    20410.465   -5393.6799    21198.682    45426.394    7629.6965    3726.3513   -1170.7477    79.696441 
   33200    804.87986   -105.92032   0.72827221   -105.19205   -12702.253    4.3115588    4.3115588    4.3115588   -12702.253   -57406.564    35375.456   -16075.651   -10951.448    5854.1147    -4907.877    80.149889 
   33300    672.04317   -105.80237   0.60807878    -105.1943   -17936.658     4.314086     4.314086     4.314086   -17936.658   -44308.581   -18524.646    9023.2534   -4991.2408   -4698.9553    7445.8452    80.290913 
   33400    1514.5283   -106.55412    1.3703771   -105.18374    8366.4849    4.3091655    4.3091655    4.3091655    8366.4849   -16935.961    30946.313    11089.102    8995.5377    3877.5668   -11825.701    80.016496 
   33500     1026.764   -106.12021   0.92903769   -105.19117   -10140.402    4.3162395    4.3162395    4.3162395   -10140.402   -39861.938    10495.935   -1055.2017   -11064.099    2645.5445    1518.8476    80.411211 
   33600    515.04417   -105.66144   0.46602279   -105.19542    11114.664    4.3011391    4.3011391    4.3011391    11114.664   -37180.348    27571.534    42952.806    15909.888   -2173.2776   -7736.5958    79.570201 
   33700    1365.3073   -106.42323    1.2353587   -105.18787    13614.887    4.3156802    4.3156802    4.3156802    13614.887   -22523.412    40462.848    22905.225   -781.86068    2959.9559   -5997.0847    80.379956 
   33800    1080.0078   -106.16834   0.97721375   -105.19113    7049.9031    4.3145398    4.3145398    4.3145398    7049.9031   -39392.259    45094.075    15447.893    8458.4508    623.41762    4649.9213    80.316253 
   33900    593.68457   -105.73156   0.53717827   -105.19438   -7278.0701     4.309553     4.309553     4.309553   -7278.0701   -43997.428     757.8874    21405.331   -1526.6674    1741.1331   -1609.9654    80.038081 
   34000    1342.9838   -106.39672      1.21516   -105.18156    9902.3292    4.3122055    4.3122055    4.3122055    9902.3292   -15354.421    37201.338     7860.071   -10359.124   -1712.8257    4400.7069    80.185961 
   34100     1007.804   -106.09935   0.91188222   -105.18747    -4200.368    4.3164723    4.3164723    4.3164723    -4200.368   -47062.644    30591.184    3870.3562    10718.098     -1420.72    3147.2612    80.424225 
   34200    597.45349   -105.73196   0.54058848   -105.19137   -26539.591    4.3167897    4.3167897    4.3167897   -26539.591   -66388.009   -11109.519   -2121.2453   -17652.548    2382.3492   -8873.6742    80.441966 
   34300    1534.0564   -106.56376    1.3880465   -105.17571    7615.4762    4.3011263    4.3011263    4.3011263    7615.4762    3549.5007    15053.015    4243.9133    4852.3585    724.50446   -1171.9775    79.569492 
   34400    918.53732   -106.01718   0.83111187   -105.18607    -19209.33    4.3184348    4.3184348    4.3184348    -19209.33   -63607.312   -17803.387    23782.709    -9066.845    1783.7327    2043.5577    80.533971 
   34500    624.59212    -105.7555   0.56514407   -105.19035   -7923.2158     4.314678     4.314678     4.314678   -7923.2158   -53128.264    32002.801   -2644.1849   -10234.971    5681.6273    1255.5491    80.323969 
   34600    1222.7742   -106.28722    1.1063918   -105.18083    21787.983    4.3078538    4.3078538    4.3078538    21787.983     730.8386     33326.92    31306.191   -1693.4448    2545.0782    12532.556    79.943444 
   34700    998.72635   -106.09086   0.90366859   -105.18719    8454.7814    4.3136708    4.3136708    4.3136708    8454.7814   -42108.033    41956.091    25516.286   -11180.767    6024.3509    1821.7401     80.26773 
   34800    684.07609   -105.80688   0.61896642   -105.18791   -26626.106    4.3222453    4.3222453    4.3222453   -26626.106   -50889.241    -9655.197   -19333.879     3758.209    5793.6309   -4994.2507    80.747341 
   34900    1447.1825   -106.48417    1.3094411   -105.17473     9108.398    4.3118514    4.3118514    4.3118514     9108.398     3398.948    22963.948    962.29781    924.28571     658.1398   -612.20848    80.166212 
   35000    1014.9813   -106.09853   0.91837643   -105.18015    1317.7209    4.3070118    4.3070118    4.3070118    1317.7209   -30989.316    46349.396   -11406.917     1730.542     857.2801   -6594.2362    79.896579 
   35100    539.98748    -105.6803   0.48859202   -105.19171   -21868.693    4.3202048    4.3202048    4.3202048   -21868.693    -44938.15   -17255.012    -3412.916    10190.384   -1157.8709    6011.5021    80.633034 
   35200    1337.5488   -106.39108    1.2102423   -105.18084    13734.437    4.3089107    4.3089107    4.3089107    13734.437   -9430.3403    13736.477    36897.173    -4198.554   -2039.3332     946.9662    80.002301 
[...]
   91200    915.10849   -105.98562   0.82800939   -105.15761    11107.105    4.2927867    4.2927867    4.2927867    11107.105    68390.126   -14051.879   -21016.932   -1523.2017    1889.4383   -52955.828    79.107547 
   91300    903.75471   -105.98459   0.81773626   -105.16686   -12415.325     4.316843     4.316843     4.316843   -12415.325   -20976.273    2721.4091    -18991.11    13406.974   -17868.741     -2105.15    80.444945 
   91400    1054.0921   -106.11188   0.95376465   -105.15811   -10532.934    4.3223846    4.3223846    4.3223846   -10532.934    26152.859   -24277.574   -33474.088   -17079.872    2948.9917   -24918.004    80.755147 
   91500    875.64876   -105.95254    0.7923054   -105.16023    1623.7101    4.3037116    4.3037116    4.3037116    1623.7101    33304.905    798.84209   -29232.617    6457.9331   -6153.9085   -28600.277    79.713061 
   91600    1159.4512   -106.20944    1.0490958   -105.16034   -13087.771    4.3059981    4.3059981    4.3059981   -13087.771   -17035.772   -10712.264   -11515.277    6349.8671     -20038.6    2606.5834    79.840176 
   91700    833.49671   -105.92546   0.75416534   -105.17129   -190.98244    4.3180662    4.3180662    4.3180662   -190.98244    71958.254   -35583.699   -36947.503   -11698.112    4765.0831   -41964.174     80.51335 
   91800     1214.307   -106.26322    1.0987305   -105.16449   -10593.896    4.3152494    4.3152494    4.3152494   -10593.896    -10031.46   -2586.6105   -19163.616    10524.313   -19581.709    9772.9845    80.355889 
   91900    760.28581   -105.85431   0.68792258   -105.16639    6949.7613    4.3049495    4.3049495    4.3049495    6949.7613    52722.642   -17409.574   -14463.785    -5082.508   -2952.6237   -32130.669    79.781865 
   92000    1200.4209   -106.24497    1.0861661   -105.15881    2513.1894    4.3168678    4.3168678    4.3168678    2513.1894     3907.626    16868.988   -13237.046   -6284.2925    4509.7489   -3824.6751    80.446334 
   92100    822.50389   -105.90752   0.74421881    -105.1633   -9768.4358    4.3172065    4.3172065    4.3172065   -9768.4358   -15734.528    2048.9253   -15619.704      23888.9   -10474.726   -6633.2955     80.46527 
   92200    1115.3679   -106.16727    1.0092083   -105.15806    12813.594    4.3109281    4.3109281    4.3109281    12813.594    42043.372    4378.4685   -7981.0592   -4700.0698    10423.838   -21458.308    80.114724 
   92300    990.75321   -106.05997   0.89645432   -105.16352    3437.3754    4.3070532    4.3070532    4.3070532    3437.3754   -6677.1173    10221.856    6767.3874    13659.651     7706.256    8045.2841    79.898882 
   92400    903.95627   -105.98968   0.81791863   -105.17176   -3096.3041    4.3137603    4.3137603    4.3137603   -3096.3041    23899.575   -24651.584   -8536.9034    8089.3065   -8547.9133   -17601.168     80.27273 
   92500    1285.3031   -106.32037    1.1629693    -105.1574   -13618.481    4.3241378    4.3241378    4.3241378   -13618.481   -26734.341    4524.1921   -18645.295   -7242.7883    23605.141    2153.1457    80.853453 
   92600    766.85438    -105.8563   0.69386596   -105.16243     8441.671    4.3049613    4.3049613    4.3049613     8441.671   -4103.7454    21912.968    7515.7904    11661.446   -15406.131    5217.2046    79.782519 
   92700    1074.1155   -106.13316   0.97188224   -105.16128    11981.983    4.3048489    4.3048489    4.3048489    11981.983    4077.5054    33300.058   -1431.6128    5742.2892    17687.973   -19500.003    79.776271 
   92800     976.3723   -106.04658   0.88344218   -105.16314   -11888.056    4.3235631    4.3235631    4.3235631   -11888.056   -39968.141    23070.354   -18766.379   -1073.6783    10570.744    11925.244     80.82122 
   92900    973.68873   -106.04064   0.88101402   -105.15962    8495.9897    4.3128768    4.3128768    4.3128768    8495.9897    16724.252    3271.1495    5492.5675    19316.243   -14549.068   -13082.196    80.223417 
   93000    1013.5399   -106.07756   0.91707223   -105.16048    3281.2353    4.3037684    4.3037684    4.3037684    3281.2353    -17310.45    32445.633   -5291.4778   -7243.6513    44761.957   -6172.9411    79.716219 
   93100    1124.9541   -106.17828    1.0178821    -105.1604    5150.7815    4.3154327    4.3154327    4.3154327    5150.7815   -1646.7543    7222.5807    9876.5181    5278.0191   -29581.604    4142.4685    80.366129 
   93200    871.99701   -105.95149   0.78900122   -105.16249   -5162.4094    4.3157469    4.3157469    4.3157469   -5162.4094   -1431.7242    146.11402   -14201.618    2939.3213    36436.387   -5595.4173    80.383685 
   93300     1150.327   -106.20039    1.0408401   -105.15955    4457.4957    4.3095932    4.3095932    4.3095932    4457.4957   -18262.685    29434.421    2200.7507   -2347.8976    3868.3034   -2279.8265    80.040321 
   93400    1026.1186   -106.09032   0.92845371   -105.16186    10597.757    4.3098109    4.3098109    4.3098109    10597.757    10693.363    29325.527   -8225.6191     3682.678   -11583.427   -1294.4724    80.052453 
   93500    702.11831   -105.80865    0.6352914   -105.17336   -1633.5331    4.3129015    4.3129015    4.3129015   -1633.5331   -3751.5062    15748.469   -16897.562    8594.4417    50359.641    -7052.389    80.224796 
   93600    1324.4675   -106.35838    1.1984061   -105.15998     18371.19     4.314563     4.314563     4.314563     18371.19    12786.328    32201.894    10125.347   -1454.3376   -25199.441   -12227.161    80.317546 
   93700    529.59076   -105.65015   0.47918485   -105.17097    5747.7999    4.3112648    4.3112648    4.3112648    5747.7999   -6333.9326    42451.474   -18874.142    6807.5209    48734.578   -550.35209    80.133497 
   93800    1289.4844   -106.32508    1.1667526   -105.15832   -3465.6456    4.3190024    4.3190024    4.3190024   -3465.6456    11195.557   -6484.3435    -15108.15    4948.2348   -1616.1908   -11083.799    80.565728 
   93900    972.97891   -106.04342   0.88037176   -105.16305    9141.0934    4.3097002    4.3097002    4.3097002    9141.0934   -9262.5192    45877.356   -9191.5569   -4400.1963    24273.763    5157.5786    80.046286 
   94000    843.46851   -105.93422   0.76318804   -105.17103   -15264.369    4.3048064    4.3048064    4.3048064   -15264.369   -13899.927   -134.25982    -31758.92    10087.789     28523.01   -7988.0138    79.773907 
   94100    1225.0847   -106.27556    1.1084824   -105.16708   -1845.4417     4.314519     4.314519     4.314519   -1845.4417    16349.982   -11415.601   -10470.706   -4058.6106   -2455.4286   -5752.5641    80.315091 
   94200    924.24326    -106.0052   0.83627473   -105.16893    -17430.55    4.3180736    4.3180736    4.3180736    -17430.55   -50450.721    22939.363   -24780.294    1979.5409    45769.532   -344.38025    80.513765 
   94300    1115.5885   -106.17322    1.0094079   -105.16381    2379.9482    4.3078947    4.3078947    4.3078947    2379.9482    23229.578   -106.30861   -15983.425    4793.0199   -17013.903   -9388.0007    79.945725 
   94400    727.12141   -105.82943   0.65791473   -105.17152    9564.7107    4.3039207    4.3039207    4.3039207    9564.7107    -18498.62    45341.369    1851.3831    3728.6666    35466.744    5630.1542     79.72468 
   94500     1106.502   -106.17256    1.0011863   -105.17138   -13367.301    4.3186178    4.3186178    4.3186178   -13367.301    -26617.03    16197.832   -29682.705   -11830.487    7158.8683   -1539.3245    80.544206 
   94600    937.65684   -106.01731   0.84841162    -105.1689     -1042.51    4.3126983    4.3126983    4.3126983     -1042.51   -4037.6456    5252.4354   -4342.3199    10042.705    2168.1148   -12280.171    80.213459 
   94700    1002.8817   -106.07488    0.9074284   -105.16745   -7001.7855    4.3056842    4.3056842    4.3056842   -7001.7855   -25552.935    11866.866   -7319.2871   -17728.398    34925.335    7166.6822    79.822717 
   94800    1167.2722   -106.22207    1.0561725    -105.1659   -2263.4003    4.3096846    4.3096846    4.3096846   -2263.4003     156.8223   -7643.8827    696.85951   -11572.544   -16192.547   -12079.847    80.045415 
   94900    808.94961   -105.90098   0.73195461   -105.16903   -6447.9691    4.3167723    4.3167723    4.3167723   -6447.9691   -16608.615   -1449.3454   -1285.9472    16209.426    25390.564    953.41586    80.440991 
   95000    980.51747   -106.05275   0.88719281   -105.16556   -538.79308    4.3118384    4.3118384    4.3118384   -538.79308   -30725.985     21572.97    7536.6362   -35477.289    1553.9912    3268.8659    80.165487 
   95100    1092.3519   -106.15154   0.98838295   -105.16316    12334.795    4.3057422    4.3057422    4.3057422    12334.795    9033.5127    30871.214   -2900.3413    30132.181   -3089.8404   -6165.6422    79.825945 
   95200    753.75679   -105.85498   0.68201499   -105.17297    -14081.24     4.313293     4.313293     4.313293    -14081.24   -42184.223   -4638.8299     4579.332   -23808.905    23710.117    4870.7041    80.246645 
   95300    1233.2881   -106.28386     1.115905   -105.16796   -2270.2787    4.3109231    4.3109231    4.3109231   -2270.2787   -20902.118    968.15039    13123.131   -24809.359   -9038.1688   -5193.2766    80.114444 
   95400     1083.428   -106.15198   0.98030844   -105.17167    246.51287     4.307007     4.307007     4.307007    246.51287   -23377.318    34842.421   -10725.565    20153.132    19362.133   -1418.2892    79.896313 
   95500    548.88659   -105.67937   0.49664412   -105.18273   -7875.0177    4.3113653    4.3113653    4.3113653   -7875.0177   -43000.764   -2766.9911    22142.702   -49810.528    6366.8092    6090.3403    80.139104 
   95600    1640.0015   -106.64478    1.4839078   -105.16087   -195.78916     4.320299     4.320299     4.320299   -195.78916   -15746.584    31732.111   -16572.894    21707.452    2515.5552    5066.5628    80.638309 
   95700    558.72841   -105.68227   0.50554921   -105.17672   -26101.295    4.3141331    4.3141331    4.3141331   -26101.295   -50849.057   -23727.186   -3727.6423   -40158.178    16787.541    4433.0155    80.293543 
   95800    1078.2036   -106.14625   0.97558126   -105.17067     15877.09      4.29974      4.29974      4.29974     15877.09   -11070.017    50172.454    8528.8331    -21214.91   -4643.5854    6033.4668    79.492576 
   95900    1151.5729   -106.21352    1.0419673   -105.17155     3659.381    4.3148452    4.3148452    4.3148452     3659.381   -15899.843     34286.96   -7408.9737   -7538.7814     4777.743   -3810.2781    80.333308 
   96000     771.0127   -105.87212   0.69762849    -105.1745   -24242.618    4.3205525    4.3205525    4.3205525   -24242.618   -57697.605   -15455.466      425.216   -50816.285    6484.6145    238.43118    80.652505 
   96100    1418.2199   -106.44381    1.2832351   -105.16058    10424.577    4.3086521    4.3086521    4.3086521    10424.577    14751.419    36739.969   -20217.658    21595.965   -6326.1434   -3875.3468    79.987899 
   96200    562.36373   -105.68318   0.50883852   -105.17434    453.23988    4.3011231    4.3011231    4.3011231    453.23988   -45775.672    31639.389    15496.003   -59597.432    8059.0394   -5296.7262    79.569315 
   96300    1338.6754    -106.3876    1.2112616   -105.17634   -3288.8905    4.3128061    4.3128061    4.3128061   -3288.8905   -4126.0392    1759.3819   -7500.0141     3143.062    5652.7998    7388.9356    80.219473 
   96400    942.61272    -106.0272    0.8528958   -105.17431   -12345.411    4.3228436    4.3228436    4.3228436   -12345.411   -32183.924    17332.433   -22184.741   -18681.338   -7343.6945   -1931.9734    80.780878 
   96500    823.53164    -105.9204   0.74514873   -105.17526   -15728.152    4.3106377    4.3106377    4.3106377   -15728.152    -35238.99   -6687.6234   -5257.8438   -36953.383    25163.952    4212.6526    80.098533 
   96600    1505.4264   -106.51938    1.3621414   -105.15724    27457.611    4.2989438    4.2989438    4.2989438    27457.611    19130.764    61906.884     1335.184    12574.704    -4194.033    1244.5279    79.448427 
   96700    509.27825   -105.64203   0.46080567   -105.18123   -28994.233    4.3208902    4.3208902    4.3208902   -28994.233   -51502.673   -22005.717   -13474.308   -55756.825    11877.985   -7408.9295    80.671421 
   96800    1312.4657   -106.35603    1.1875466   -105.16848    745.02768    4.3169216    4.3169216    4.3169216    745.02768    4604.8924    15966.354   -18336.163    1886.5843    19430.567   -2694.3193    80.449342 
   96900     1128.587   -106.19241    1.0211692   -105.17124    14854.694    4.2983602    4.2983602    4.2983602    14854.694    16216.229    11708.739    16639.116   -25145.464   -12066.268   -3807.7125    79.416073 
   97000    524.52035   -105.66023   0.47459704   -105.18564   -11808.185    4.3089335    4.3089335    4.3089335   -11808.185   -19091.025   -6148.3423   -10185.188   -23320.478    26898.928   -2328.6926    80.003569 
   97100    1475.4737   -106.49761    1.3350396   -105.16257    3063.4118    4.3246992    4.3246992    4.3246992    3063.4118   -9188.6864    27435.842   -9056.9205    11790.744   -7447.3587    -910.0729    80.884951 
   97200    618.11613   -105.73292   0.55928447   -105.17363   -20496.281    4.3151811    4.3151811    4.3151811   -20496.281   -33937.137   -24805.156   -2746.5499   -37365.675    16451.065    399.24653    80.352075 
   97300    1057.4432    -106.1224   0.95679681    -105.1656    10764.144    4.2953961    4.2953961    4.2953961    10764.144   -1304.8517    43409.145   -9811.8603    1279.2782     26785.13   -9279.4059    79.251893 
   97400    1116.4476   -106.18054    1.0101852   -105.17035    8339.8194    4.3120631    4.3120631    4.3120631    8339.8194    3225.3154   -1788.8738    23583.016   -10875.465   -7231.9801    -606.6701    80.178018 
   97500    667.45458   -105.78237   0.60392693   -105.17844   -33054.957    4.3220446    4.3220446    4.3220446   -33054.957   -47461.347   -7525.4225   -44178.103   -24459.014    47961.046   -8993.6049    80.736092 
   97600    1273.0237   -106.31496    1.1518586    -105.1631    26007.124     4.303358     4.303358     4.303358    26007.124    12110.709    57342.885    8567.7785    16723.337   -4219.1888   -7671.7897    79.693411 
   97700    854.50217   -105.94752   0.77317152   -105.17435   -8554.2907    4.3066985    4.3066985    4.3066985   -8554.2907   -35917.326    18089.989   -7835.5352   -26174.837    23543.003    4273.0312    79.879144 
   97800    917.16089   -106.00415   0.82986644   -105.17429   -6933.8613    4.3202247    4.3202247    4.3202247   -6933.8613   -41348.214    42326.068   -21779.438   -7662.2473    24128.951   -3058.1929    80.634149 
   97900    1451.9062   -106.47399    1.3137152   -105.16028    -1737.804     4.316796     4.316796     4.316796    -1737.804   -9320.0968    8780.9607   -4674.2761   -8132.5211   -2924.7326    12000.831    80.442318 
   98000    505.75792   -105.62894    0.4576204   -105.17132   -6527.4578     4.307835     4.307835     4.307835   -6527.4578   -47156.319    29827.563    -2253.617   -24855.468    48077.328    2303.5837    79.942399 
   98100    1625.6645   -106.62725    1.4709354   -105.15631    6197.0664    4.3152512    4.3152512    4.3152512    6197.0664    12414.411    7237.4377   -1060.6495   -1926.3524   -9824.4406    8306.2112    80.355989 
   98200    562.99477   -105.68335    0.5094095   -105.17394   -2602.2836    4.3133002    4.3133002    4.3133002   -2602.2836   -35007.237    15822.168    11378.218   -10710.785    42580.622   -3053.2003    80.247049 
   98300    1062.2247   -106.13135    0.9611232   -105.17023    13899.065    4.3076953    4.3076953    4.3076953    13899.065   -8394.8428    36712.971    13379.068   -16001.917    11939.182    3510.6912    79.934624 
   98400    1226.1399    -106.2765    1.1094371   -105.16706    2.6853554    4.3148075    4.3148075    4.3148075    2.6853554   -18147.571     16354.08    1801.5475    9948.7985    4719.2788   -14908.845    80.331205 
   98500    512.91962   -105.64326   0.46410045   -105.17916   -9318.2503    4.3108664    4.3108664    4.3108664   -9318.2503   -45733.955    30406.531   -12627.328   -30658.433    41284.799    5540.6154    80.111286 
   98600    1602.1739   -106.61656    1.4496806   -105.16688    6374.9442    4.3093199    4.3093199    4.3093199    6374.9442    9451.1674    3509.8527    6163.8124     4833.501   -21567.934   -5924.0699    80.025096 
   98700     678.1442   -105.79282   0.61359912   -105.17922   -7390.1663    4.3098111    4.3098111    4.3098111   -7390.1663   -33651.856    22704.477    -11223.12   -11926.875      31888.2   -7896.3375    80.052465 
   98800    922.09347   -106.01552   0.83432955   -105.18119   -3859.1354    4.3139453    4.3139453    4.3139453   -3859.1354    7020.1531   -15870.172   -2727.3877   -23055.013    9642.2026      7830.72    80.283058 
   98900    1416.9761   -106.45082    1.2821097   -105.16871    8778.4378    4.3133146    4.3133146    4.3133146    8778.4378    1284.1071    12234.632    12816.574     9131.883    8596.2286   -6052.4631    80.247849 
   99000    423.16723   -105.56969   0.38289061    -105.1868    -2951.805     4.304439     4.304439     4.304439    -2951.805   -3205.1098   -2373.3653   -3276.9398   -33725.997    28832.342    4044.0055    79.753483 
   99100    1289.3431   -106.33777    1.1666247   -105.17115    4906.2016     4.314209     4.314209     4.314209    4906.2016    8369.9998   -3751.7026    10100.307    821.94318   -8058.4453    14921.301    80.297781 
   99200    1132.8562   -106.19609    1.0250321   -105.17106   -11207.383    4.3143712    4.3143712    4.3143712   -11207.383   -13505.486   -6841.3601   -13275.303   -15164.567    23542.982   -6074.5879    80.306836 
   99300    634.91122   -105.75065   0.57448101   -105.17617   -9967.8482     4.309696     4.309696     4.309696   -9967.8482    -9906.198   -29775.577    9778.2299   -30757.612    5661.2355    19038.581    80.046049 
   99400    1431.4146   -106.45714    1.2951741   -105.16196     5190.345    4.3073834    4.3073834    4.3073834     5190.345    14232.368   -669.29101    2007.9584    17453.076   -2842.6307    12060.195    79.917259 
   99500    635.58498   -105.75206   0.57509065   -105.17697   -12338.068     4.312328     4.312328     4.312328   -12338.068   -23962.299   -18671.618     5619.712   -41692.959    22041.805   -2598.7742    80.192799 
   99600     1031.463   -106.10358   0.93328942   -105.17029   -5261.1726    4.3180581    4.3180581    4.3180581   -5261.1726   -1598.0548   -12975.783   -1209.6796     5170.935    413.46024    27424.661    80.512896 
   99700     1125.232   -106.18585    1.0181335   -105.16771   -1589.7062    4.3047382    4.3047382    4.3047382   -1589.7062   -18483.917    2344.1054    11370.693   -16108.747   -2932.5087   -6319.2715    79.770116 
   99800    694.92188   -105.80371   0.62877992   -105.17493   -21555.741    4.3105671    4.3105671    4.3105671   -21555.741   -35273.971   -21700.514   -7692.7384   -34595.683    20801.056    16104.652    80.094601 
   99900    1358.1148   -106.39248    1.2288508   -105.16363   -1031.4021      4.31331      4.31331      4.31331   -1031.4021    5745.5693    3216.8303   -12056.606    13696.596   -14032.258    15163.114    80.247591 
  100000    784.64474    -105.8813   0.70996305   -105.17134   -18235.738    4.3100656    4.3100656    4.3100656   -18235.738   -51722.496   -11730.154    8745.4372   -49778.307    15785.587   -6634.9461    80.066649 
Loop time of 22.5357 on 1 procs for 100000 steps with 8 atoms

Pair  time (%) = 7.25861 (32.2094)
Kspce time (%) = 5.36309 (23.7982)
Neigh time (%) = 0 (0)
Comm  time (%) = 1.08025 (4.79352)
Outpt time (%) = 0.0248561 (0.110297)
Other time (%) = 8.80885 (39.0885)

Nlocal:    8 ave 8 max 8 min
Histogram: 1 0 0 0 0 0 0 0 0 0
Nghost:    2189 ave 2189 max 2189 min
Histogram: 1 0 0 0 0 0 0 0 0 0
Neighs:    2344 ave 2344 max 2344 min
Histogram: 1 0 0 0 0 0 0 0 0 0

Total # of neighbors = 2344
Ave neighs/atom = 293
Neighbor list builds = 0
Dangerous builds = 0
seeds:9421037
