LAMMPS (10 Feb 2015)
# ---- initialize simulations
clear
units metal
dimension 3
boundary p p p
atom_style charge
atom_modify map array
# ---- create atoms
read_data /Users/eugeneragasa/pyflamestk_git/pypospack/tests/tests_integration/workflow/WorkflowLammpsThermalExpansion/param_5861/MgO_NaCl_unit.npt.T1400/lammps.structure
  triclinic box = (0 0 0) to (4.2565 4.2565 4.2565) with tilt (0 0 0)
  1 by 1 by 1 MPI processor grid
  reading atoms ...
  8 atoms
# ---- define interatomic potential
include potential.mod
mass 1 24.305
mass 2 15.999

group Mg type 1
4 atoms in group Mg
group O type 2
4 atoms in group O

set group Mg charge 1.63577302612
  4 settings made for charge
set group O charge -1.63577302612
  4 settings made for charge

variable R_cut equal 10.0

pair_style buck/coul/long ${R_cut}
pair_style buck/coul/long 10
pair_coeff 1 1 0.0 0.5 0.0 ${R_cut}
pair_coeff 1 1 0.0 0.5 0.0 10
pair_coeff 1 2 1558.72850733 0.278190610155 0.0 ${R_cut}
pair_coeff 1 2 1558.72850733 0.278190610155 0.0 10
pair_coeff 2 2 26609.5495557 0.148782776904 9.00084075824 ${R_cut}
pair_coeff 2 2 26609.5495557 0.148782776904 9.00084075824 10

kspace_style pppm 1.0e-5

neighbor 1.0 bin
neigh_modify every 1 delay 0 check yes
# ---- define settings
compute eng all pe/atom
compute eatoms all reduce sum c_eng
# ---- run minimization
reset_timestep 0
fix 1 all box/relax iso 0.0 vmax 0.001
thermo 10
thermo_style custom step pe lx ly lz xy xz yz press pxx pyy pzz pxy pxz pyz c_eatoms
min_style cg
minimize 1e-25 1e-25 5000 10000
PPPM initialization ...
  G vector (1/distance) = 0.352653
  grid = 8 8 8
  stencil order = 5
  estimated absolute RMS force accuracy = 3.87471e-05
  estimated relative force accuracy = 2.69083e-06
  using double precision FFTs
  3d grid and FFT values/proc = 3375 512
Neighbor list info ...
  1 neighbor list requests
  update every 1 steps, delay 0 steps, check yes
  master list distance cutoff = 11
Memory usage per processor = 4.06549 Mbytes
Step PotEng Lx Ly Lz Xy Xz Yz Press Pxx Pyy Pzz Pxy Pxz Pyz eatoms 
       0   -109.00108       4.2565       4.2565       4.2565            0            0            0    61252.417    61252.417    61252.417    61252.417 -3.6848803e-11 -3.3369169e-11 3.6549969e-10   -109.00108 
      10    -109.0509     4.299065     4.299065     4.299065            0            0            0    8703.9294    8703.9294    8703.9294    8703.9294 1.5032756e-10 -1.0327816e-11 -1.1009458e-10    -109.0509 
      15   -109.05203    4.3066964    4.3066964    4.3066964            0            0            0 0.0034250328 0.0034250327  0.003425033 0.0034250328 -1.8553982e-10 4.3823803e-11 -1.4551403e-10   -109.05203 
Loop time of 0.00837398 on 1 procs for 15 steps with 8 atoms

Minimization stats:
  Stopping criterion = linesearch alpha is zero
  Energy initial, next-to-last, final = 
        -109.001077098     -109.052033723     -109.052033723
  Force two-norm initial, final = 8.84488 3.43431e-05
  Force max component initial, final = 8.84488 7.26821e-06
  Final line search alpha, max atom move = 0.5 3.63411e-06
  Iterations, force evaluations = 15 22

Pair  time (%) = 0.00224829 (26.8485)
Kspce time (%) = 0.00153518 (18.3327)
Neigh time (%) = 0 (0)
Comm  time (%) = 0.000297546 (3.55323)
Outpt time (%) = 2.69413e-05 (0.321727)
Other time (%) = 0.00426602 (50.9438)

Nlocal:    8 ave 8 max 8 min
Histogram: 1 0 0 0 0 0 0 0 0 0
Nghost:    2189 ave 2189 max 2189 min
Histogram: 1 0 0 0 0 0 0 0 0 0
Neighs:    2344 ave 2344 max 2344 min
Histogram: 1 0 0 0 0 0 0 0 0 0

Total # of neighbors = 2344
Ave neighs/atom = 293
Neighbor list builds = 0
Dangerous builds = 0
unfix 1
# ---- define output variables ----
variable natoms equal "count(all)"
variable tot_energy equal "c_eatoms"
variable length_x equal "lx"
variable length_y equal "ly"
variable length_z equal "lz"
variable tilt_xy equal "xy"
variable tilt_xz equal "xz"
variable tilt_yz equal "yz"
variable tot_press equal "press"
variable press_xx equal "pxx"
variable press_yy equal "pyy"
variable press_zz equal "pzz"
variable press_xy equal "pxy"
variable press_xz equal "pxz"
variable press_yz equal "pyz"

# ---- output ----
print "pypospack:output_section:begin"
pypospack:output_section:begin
print "tot_energy = ${tot_energy}"
tot_energy = -109.052033723467
print "num_atoms = ${natoms}"
num_atoms = 8
print "xx = ${length_x}"
xx = 4.30669636930156
print "yy = ${length_y}"
yy = 4.30669636930156
print "zz = ${length_z}"
zz = 4.30669636930156
print "xy = ${tilt_xy}"
xy = 0
print "xz = ${tilt_xz}"
xz = 0
print "yz = ${tilt_yz}"
yz = 0
print "tot_press = ${tot_press}"
tot_press = 0.00342503281246904
print "pxx = ${press_xx}"
pxx = 0.00342503266517326
print "pyy = ${press_yy}"
pyy = 0.00342503296687446
print "pzz = ${press_zz}"
pzz = 0.00342503280535941
print "pxy = ${press_xy}"
pxy = -1.85539817051957e-10
print "pxz = ${press_xz}"
pxz = 4.38238030577261e-11
print "pyz = ${press_yz}"
pyz = -1.45514027090344e-10
print "pypospack:output_section:done"
pypospack:output_section:done
print "pypospack:lammps_sim:done"
pypospack:lammps_sim:done
#------------------------------------------------------------------------------
# RUN THERMOSTAT
# running using an NPT Nose-Hoover style thermostat
#------------------------------------------------------------------------------
variable tempdamp equal 0.1
variable pressdamp equal 1.0
# set initial velocities
velocity all create 1400 3113449 mom yes dist gaussian loop all
# fix for Nose-Hoover style thermostat
fix 20 all npt temp 1400 1400 0.1 aniso 0.0 0.0 1.0 drag 1.0 couple xyz
variable boxx equal lx
variable boxy equal ly
variable boxz equal lz
variable boxp equal press
variable boxt equal temp
# calculate averages every 10000 steps
reset_timestep 0
fix 21 all ave/time 10 10 100 v_boxx v_boxy v_boxz v_boxp v_boxt file lattice.out
thermo_style custom step temp pe ke etotal press lx ly lz press pxx pyy pzz pxy pxz pyz vol
thermo_modify flush yes
thermo 100
run 100000
PPPM initialization ...
  G vector (1/distance) = 0.352152
  grid = 8 8 8
  stencil order = 5
  estimated absolute RMS force accuracy = 3.96483e-05
  estimated relative force accuracy = 2.75342e-06
  using double precision FFTs
  3d grid and FFT values/proc = 3375 512
Memory usage per processor = 3.06549 Mbytes
Step Temp PotEng KinEng TotEng Press Lx Ly Lz Press Pxx Pyy Pzz Pxy Pxz Pyz Volume 
       0         1400   -109.05204    1.2667494   -107.78529    16937.127    4.3066964    4.3066964    4.3066964    16937.127    11048.403    22011.092    17751.886    4448.6487    3021.1586   -5054.7029    79.879026 
     100    303.67862   -107.91175    0.2747748   -107.63698    6874.6647    4.3434317    4.3434317    4.3434317    6874.6647   -9886.1503    45305.213   -14795.068   -3470.4012   -4585.8291    19939.291    81.940569 
     200    1124.9772   -108.29024     1.017903   -107.27234   -37140.864    4.3775294    4.3775294    4.3775294   -37140.864   -46414.229    -4939.891   -60068.473    1116.9732    2886.7442   -3531.3949    83.885559 
     300    1169.4991   -108.02997    1.0581874   -106.97178   -11834.928    4.3813888    4.3813888    4.3813888   -11834.928   -43649.971    33027.944   -24882.758    6538.6727    5250.3234    951.74142    84.107628 
     400    1319.9505   -107.91361    1.1943189   -106.71929    -29851.68    4.3749873    4.3749873    4.3749873    -29851.68   -33607.252   -36503.359   -19444.427    253.92882   -889.38542    3503.5468    83.739504 
     500    1250.4271   -107.68373    1.1314127   -106.55232     40225.93    4.3691816    4.3691816    4.3691816     40225.93      21861.7    111964.21   -13148.118    1024.2486    6623.6591   -11332.634    83.406575 
     600    1475.1941   -107.82972    1.3347866   -106.49494   -51306.784    4.3964122    4.3964122    4.3964122   -51306.784   -42607.226   -46361.502   -64951.623      2248.66    11652.802    7172.6686    84.975793 
     700     1536.466   -107.83826    1.3902267   -106.44804   -5307.2998    4.3947591    4.3947591    4.3947591   -5307.2998   -22688.601     7857.595   -1090.8937   -3379.1733   -2564.2423    -12847.33    84.879974 
     800    1360.4203    -107.6705    1.2309369   -106.43956    13583.588    4.3773917    4.3773917    4.3773917    13583.588   -20505.647    93522.268   -32265.857    5477.3652    18890.962   -6930.2674    83.877644 
     900    1311.4799   -107.64732    1.1866545   -106.46066    1772.2483     4.383005     4.383005     4.383005    1772.2483    15803.604    12515.773   -23002.632   -16761.961   -6314.3874    17458.123    84.200736 
    1000    1640.7005   -107.94006    1.4845403   -106.45552    7017.8621    4.3825299    4.3825299    4.3825299    7017.8621   -5185.7253    37378.609   -11139.298   -2805.7349    11878.985   -2361.7585    84.173362 
    1100     1188.744   -107.54613    1.0756006   -106.47053    15047.598    4.3846862    4.3846862    4.3846862    15047.598     14457.99    23354.927    7329.8759   -40.699178    8527.3094     8138.099    84.297667 
    1200    1675.4199   -107.96864    1.5159552   -106.45268   -9709.8987     4.384334     4.384334     4.384334   -9709.8987   -47961.015     51923.56   -33092.241   -1610.2797    4919.4393    6170.8081    84.277355 
    1300    1437.5911   -107.75464    1.3007626   -106.45388   -10853.518    4.3693441    4.3693441    4.3693441   -10853.518   -28491.719    36121.977   -40190.813    3817.7743    4797.4861   -4772.7092    83.415882 
    1400    1490.7394    -107.8325    1.3488524   -106.48365    799.84239    4.3845393    4.3845393    4.3845393    799.84239   -11835.766    55931.649   -41696.355   -10313.538    9239.8752    -146.2873    84.289196 
    1500     1494.347   -107.82793    1.3521166   -106.47581   -22721.483    4.3947252    4.3947252    4.3947252   -22721.483   -46158.691   -6884.3865   -15121.373    6748.7123    14238.991   -11450.463    84.878007 
    1600    1485.6338   -107.80277    1.3442327   -106.45854    13190.507    4.3752836    4.3752836    4.3752836    13190.507   -10455.871    61525.612    -11498.22    19456.633   -9405.3065   -6118.5551    83.756521 
    1700    900.93959   -107.28154   0.81518908   -106.46635    35036.715    4.3793175    4.3793175    4.3793175    35036.715    15122.742    69576.473     20410.93   -12957.719    15736.182     3643.804    83.988397 
    1800    1535.6508   -107.84865    1.3894891   -106.45916     -16839.7    4.3902174    4.3902174    4.3902174     -16839.7   -29416.792   -2273.7072   -18828.599    25114.823    2157.7762   -3541.5906    84.617088 
    1900    1554.3028   -107.85948    1.4063658   -106.45311    3198.0739    4.3834569    4.3834569    4.3834569    3198.0739   -17441.276    5321.4184    21714.079   -12489.992     3477.822    15300.267    84.226784 
    2000    953.29574    -107.3219   0.86256202   -106.45934    4567.7603    4.3806375    4.3806375    4.3806375    4567.7603   -1854.8144    48141.175    -32583.08   -163.03697    17884.093    8476.8607     84.06437 
    2100    1849.6293   -108.12284    1.6735835   -106.44926   -8612.9614    4.3686214    4.3686214    4.3686214   -8612.9614    20056.708   -3447.4591   -42448.133   -8003.7241   -7294.0276    10354.513    83.374496 
    2200     1482.762   -107.81313    1.3416342    -106.4715   -10442.253     4.386101     4.386101     4.386101   -10442.253   -41653.959    46120.401   -35793.201    1458.0932    24915.157    7227.3039    84.379294 
    2300    1138.4526   -107.48803    1.0300959   -106.45794   -13818.153    4.3952789    4.3952789    4.3952789   -13818.153    5148.7176    10048.837   -56652.015   -16780.679    -1882.553    24171.036     84.91009 
    2400    1622.3269   -107.91369    1.4679155   -106.44577   -8299.3234    4.3662645    4.3662645    4.3662645   -8299.3234   -5912.6512    29978.847   -48964.166    12259.385    11805.144    1192.0205    83.239626 
    2500    1770.5563   -108.07104    1.6020366     -106.469   -5504.8013    4.3576224    4.3576224    4.3576224   -5504.8013   -19332.066    43710.739   -40893.077    4505.3499    11578.994    10092.596    82.746338 
    2600     1459.803   -107.83487    1.3208605   -106.51401   -4026.4897    4.3867096    4.3867096    4.3867096   -4026.4897   -4903.4153    44863.338   -52039.392   -1443.8653   -3543.3381   -4063.3966    84.414425 
    2700    1324.5563   -107.68365    1.1984864   -106.48516   -41376.686    4.4078181    4.4078181    4.4078181   -41376.686   -53044.981   -14344.179   -56740.899   -16140.948        19527    8166.6723    85.638881 
    2800    1934.2133    -108.2014    1.7501168   -106.45128   -33767.117    4.3722287    4.3722287    4.3722287   -33767.117   -39779.039   -5828.0614    -55694.25   -3505.0967   -25810.233    10964.991    83.581203 
    2900    1439.6275   -107.77263    1.3026052   -106.47002    29893.521    4.3557088    4.3557088    4.3557088    29893.521    42893.914    37884.009    8902.6401    392.99574    7854.7072    13547.964    82.637375 
    3000    1587.1996   -107.92743    1.4361316    -106.4913   -12036.573     4.382736     4.382736     4.382736   -12036.573   -30470.382    12786.149   -18425.487    6732.1711   -540.56119   -3957.6391    84.185236 
    3100    1115.7963   -107.48317     1.009596   -106.47358   -7893.3075    4.3975436    4.3975436    4.3975436   -7893.3075   -8933.3138    2083.3895   -16829.998    13161.821   -3120.1564    6901.6389    85.041411 
    3200    957.81381   -107.31819   0.86665006   -106.45154    7203.5303    4.3868813    4.3868813    4.3868813    7203.5303   -43962.778    43971.498     21601.87   -526.36393     1256.545   -1125.2541    84.424336 
    3300    1509.9366   -107.80323    1.3662224   -106.43701    5686.1935    4.3603843    4.3603843    4.3603843    5686.1935    9815.3813   -17105.924    24349.123    3211.6677   -25398.308   -3309.9608    82.903772 
    3400    1367.6622   -107.71333    1.2374895   -106.47584    122.52771    4.3722195    4.3722195    4.3722195    122.52771    3822.6613   -20741.223    17286.145    -2117.416    2331.9658    10592.324    83.580676 
    3500    1053.6294   -107.42606   0.95334605   -106.47271   -490.41948    4.3983004    4.3983004    4.3983004   -490.41948    21998.495    9256.9891   -32726.743   -21207.447   -709.66044    918.96314    85.085323 
    3600    1546.8068   -107.84843    1.3995833   -106.44885   -20162.587    4.3895488    4.3895488    4.3895488   -20162.587    32462.965   -45671.135   -47279.589   -14237.646     2260.853   -730.58608    84.578437 
    3700    1165.0631   -107.50498    1.0541736   -106.45081    10903.652     4.374047     4.374047     4.374047    10903.652    28882.574    15267.034   -11438.654    5870.2605    19635.773    26153.371    83.685522 
    3800     1843.725    -108.1254    1.6682412   -106.45716   -26907.139    4.3685612    4.3685612    4.3685612   -26907.139   -35778.888   -9637.5545   -35304.974    -16887.44    524.77325   -6692.9707    83.371052 
    3900    1388.7096    -107.7371    1.2565336   -106.48056   -13269.853    4.3844956    4.3844956    4.3844956   -13269.853    8246.0141   -19381.638   -28673.936    9010.4475    4547.9671    7703.7688    84.286671 
    4000    1434.2836   -107.76074      1.29777   -106.46297   -20306.122    4.3911161    4.3911161    4.3911161   -20306.122   -23784.452   -9916.1021   -27217.812    5756.3897    14354.388    20445.403    84.669066 
    4100    1606.8799   -107.90287    1.4539387   -106.44894    -2497.425    4.3637574    4.3637574    4.3637574    -2497.425   -1025.6822    8882.9501   -15349.543     6494.981   -2673.3453   -7565.7945     83.09632 
    4200    929.21022   -107.32139   0.84076893   -106.48062    26733.238    4.3628829    4.3628829    4.3628829    26733.238    27406.695    58068.008   -5274.9899    17488.972    2356.0639    9087.5139    83.046375 
    4300    1912.1492   -108.21888    1.7301528   -106.48873   -30145.475    4.3859907    4.3859907    4.3859907   -30145.475   -477.47622   -32090.565   -57868.385   -2618.0295   -5647.2293   -2260.2824     84.37293 
    4400    1380.8051   -107.73278    1.2493815   -106.48339   -20463.474    4.3950007    4.3950007    4.3950007   -20463.474    1831.1776   -19348.915   -43872.685    6383.3501   -5937.3773   -5819.9712    84.893972 
    4500    1079.3391   -107.45084   0.97660871   -106.47424   -17126.053    4.3792063    4.3792063    4.3792063   -17126.053       -19780    8068.0308   -39666.189    6955.0496     7707.932   -3832.4988    83.982001 
    4600    2062.0345   -108.32737    1.8657721    -106.4616    5758.5639    4.3630492    4.3630492    4.3630492    5758.5639    31801.518   -8748.8525   -5776.9737   -15577.865   -22772.885    7041.7191    83.055872 
    4700    1297.2667   -107.66449    1.1737942   -106.49069   -9025.1678    4.3907107    4.3907107    4.3907107   -9025.1678    21785.066   -348.32209   -48512.247     6259.489    9447.7011    8033.1793    84.645614 
    4800    1023.3024    -107.4059   0.92590554      -106.48   -1926.4889     4.390659     4.390659     4.390659   -1926.4889    39433.676    -10659.25   -34553.893    -2668.141   -8884.7567    3307.5459    84.642625 
    4900    1857.0575   -108.14804    1.6803046   -106.46774    10442.389     4.367562     4.367562     4.367562    10442.389    27405.285    -8548.463    12470.344   -1426.1989    6965.0732    3587.7714    83.313857 
    5000    1261.2738   -107.62902    1.1412271   -106.48779    28487.941    4.3629361    4.3629361    4.3629361    28487.941    37282.744    82999.195   -34818.118    21488.611    26.599039    15721.296    83.049414 
    5100    1202.1787   -107.60163    1.0877565   -106.51387   -17733.553    4.3880658    4.3880658    4.3880658   -17733.553   -59068.503     61735.26   -55867.416     962.5363   -3740.1132   -5875.6969    84.492742 
    5200    1603.1115    -107.9349     1.450529   -106.48437   -29020.682    4.4026718    4.4026718    4.4026718   -29020.682   -20527.759     -12802.1   -53732.188   -8387.6469    15575.966   -5329.8775     85.33927 
    5300    1605.7681   -107.91071    1.4529327   -106.45778   -25103.723    4.3785402    4.3785402    4.3785402   -25103.723   -41790.813   -12475.124   -21045.233   -494.85845   -22851.272   -6476.9383    83.943686 
    5400    1738.6028   -108.02305    1.5731243   -106.44993   -1477.9768    4.3626314    4.3626314    4.3626314   -1477.9768    3218.0633    314.30784   -7966.3015   -27007.153    8873.3804   -10438.351     83.03201 
    5500    1842.1166   -108.13935    1.6667858   -106.47257    -52534.77    4.3969974    4.3969974    4.3969974    -52534.77   -39111.245   -45579.901   -72913.164    599.95603    8120.1956   -14044.153    85.009726 
    5600    1578.0466   -107.85461    1.4278497   -106.42676   -51198.472    4.4266692    4.4266692    4.4266692   -51198.472   -89347.045   -7210.6206   -57037.751   -16444.155   -3656.3448   -15611.307    86.742354 
    5700    1831.2836   -108.03444    1.6569839   -106.37745   -27795.468    4.3970515    4.3970515    4.3970515   -27795.468   -12676.695   -69121.554   -1588.1556    -8288.382   -1817.9222    8314.4331    85.012866 
    5800    1925.9468   -108.10796    1.7426372   -106.36532      6513.66    4.3584842    4.3584842    4.3584842      6513.66   -719.10848    30389.679   -10129.591    492.89255    8103.0881   -11165.857    82.795444 
    5900    1601.7229   -107.89401    1.4492726   -106.44474   -25631.018     4.382651     4.382651     4.382651   -25631.018   -12100.035   -11122.145   -53670.875   -14923.337    4402.3282    3062.1681    84.180341 
    6000    1597.2017   -107.89637    1.4451816   -106.45119   -41909.643    4.4095771    4.4095771    4.4095771   -41909.643   -37865.334    -62074.52   -25789.073    13514.156    16275.021   -3042.9974    85.741449 
    6100    1878.8982   -108.12358    1.7000665   -106.42351   -35737.655    4.3965971    4.3965971    4.3965971   -35737.655   -58590.291   -41782.806   -6839.8681   -4239.1198    5901.9167    7065.3169    84.986514 
    6200    1501.2289   -107.77874    1.3583435    -106.4204    1974.8583    4.3759958    4.3759958    4.3759958    1974.8583     -28507.8   -54858.889    89291.264   -7362.2453    1689.6569    8715.6126    83.797431 
    6300    1472.3221   -107.77942    1.3321879   -106.44723   -17682.568    4.3725137    4.3725137    4.3725137   -17682.568    -28868.65   -25159.865    980.81321    10097.561   -6837.2887    420.66132    83.597547 
    6400    1502.3404   -107.82391    1.3593491   -106.46456   -14234.487    4.3760363    4.3760363    4.3760363   -14234.487   -32841.605    -7590.684   -2271.1729   -12992.729   -33578.114    21214.595    83.799754 
    6500    1731.3179   -108.02456    1.5665328   -106.45803   -800.28099    4.3803396    4.3803396    4.3803396   -800.28099   -10547.224   -27871.355    36017.736    4994.4903     14306.62   -2769.4029     84.04722 
    6600    922.41447   -107.29521      0.83462   -106.46059    14671.416    4.3926973    4.3926973    4.3926973    14671.416   -25752.509   -22065.129    91831.885   -13553.665   -28621.587     21473.34     84.76056 
    6700     1307.525   -107.63722    1.1830761   -106.45414   -2837.7246    4.3757735    4.3757735    4.3757735   -2837.7246   -15358.704   -9065.9675    15911.498    11967.547     670.1003   -6504.8631    83.784655 
    6800    1143.8774   -107.49808    1.0350043   -106.46308    7556.7372    4.3635574    4.3635574    4.3635574    7556.7372    40825.191   -14072.851   -4082.1285    1511.6789   -9369.4256   -9962.1193    83.084894 
    6900    1825.7742    -108.1214    1.6519989    -106.4694   -18218.346    4.3700379    4.3700379    4.3700379   -18218.346   -49378.719   -17196.792    11920.473   -12748.325   -24753.618    12733.241    83.455621 
    7000    947.72567   -107.34059    0.8575221   -106.48307    17898.934    4.3818519    4.3818519    4.3818519    17898.934   -2146.5643   -21029.031    76872.397    21155.566    11931.155   -44117.652    84.134299 
    7100    1530.7557   -107.85639    1.3850599   -106.47133   -5791.7448    4.3801831    4.3801831    4.3801831   -5791.7448    13159.052   -24825.354   -5708.9316   -10828.999    -8469.511    -10288.01    84.038211 
    7200    1166.8721   -107.52442    1.0558104   -106.46861   -9864.2732    4.3725082    4.3725082    4.3725082   -9864.2732   -44942.286    -23631.11    38980.577    23208.636   -5787.2322    -5147.435    83.597231 
    7300    1406.2118   -107.74535      1.27237   -106.47298    15703.513    4.3727452    4.3727452    4.3727452    15703.513     82269.79   -40375.085    5215.8352   -12343.165    4380.9725   -26339.352    83.610829 
    7400    1394.4274    -107.7438    1.2617072   -106.48209    20621.373    4.3700853    4.3700853    4.3700853    20621.373   -10739.098    20759.141    51844.074    3872.8508    1612.4639    12495.584    83.458338 
    7500    1313.7131   -107.67777    1.1886752   -106.48909    25950.669    4.3681942    4.3681942    4.3681942    25950.669    55828.258   -4849.9707     26873.72    22845.164    1810.2881   -2827.9249    83.350039 
    7600    1694.7153    -108.0097     1.533414   -106.47629    3076.0502    4.3809037    4.3809037    4.3809037    3076.0502    23251.499   -23608.168    9584.8193   -9120.9432   -9591.3453     8326.078    84.079696 
    7700    1087.7779   -107.45689   0.98424427   -106.47265    1552.0543    4.3722003    4.3722003    4.3722003    1552.0543   -5509.0289    341.55667    9823.6352     13683.84    3198.6258    6346.6658    83.579571 
    7800    1249.5916   -107.60527    1.1306567   -106.47461    10515.936    4.3637783    4.3637783    4.3637783    10515.936    52614.651   -16396.397   -4670.4467   -1309.2717   -9138.7301   -7508.2675    83.097512 
    7900     1936.672   -108.22926    1.7523415   -106.47692   -2514.6282    4.3661699    4.3661699    4.3661699   -2514.6282     1602.102   -40228.947     31082.96   -2271.6835   -14858.813    2936.5413    83.234218 
    8000    1208.9132   -107.58207    1.0938501   -106.48822    18808.475    4.3719282    4.3719282    4.3719282    18808.475    20370.607    12359.705    23695.113    20360.641    3355.5673   -3548.5437    83.563972 
    8100    1427.0502    -107.7579     1.291225   -106.46667   -4024.7655    4.3895889    4.3895889    4.3895889   -4024.7655    49799.147   -22280.285   -39593.158   -13282.921    3335.5485   -5933.3037    84.580755 
    8200    1619.9317   -107.91696    1.4657483   -106.45121    -28960.15    4.3771271    4.3771271    4.3771271    -28960.15    4296.1647   -49427.741   -41748.875     24478.19   -1453.8838   -469.38883    83.862435 
    8300    1406.7947   -107.72581    1.2728974   -106.45291    9732.7949    4.3505381    4.3505381    4.3505381    9732.7949    57501.513    13017.393   -41320.521    8825.7591    5717.1611   -14085.627    82.343427 
    8400    1590.7603   -107.92263    1.4393534   -106.48328    22861.519    4.3696375    4.3696375    4.3696375    22861.519    37244.593   -14372.942    45712.906    8269.6357    4746.0526     1576.371    83.432688 
    8500    1153.8007   -107.52657    1.0439832   -106.48259   -31478.862    4.3892856    4.3892856    4.3892856   -31478.862   -7916.6811   -63656.919   -22862.986    11483.301     3050.499   -14847.693    84.563222 
    8600    1105.4776   -107.46131    1.0002594   -106.46105    20225.583    4.3742299    4.3742299    4.3742299    20225.583    59277.541    3848.8048   -2449.5974   -1223.8022   -7613.3199   -3857.3951    83.696023 
    8700    1717.6033   -108.02329    1.5541236   -106.46917   -12203.676    4.3612143    4.3612143    4.3612143   -12203.676    -10062.28   -26309.403   -239.34511   -6486.5629   -2146.9712   -14040.515    82.951123 
    8800    1418.3661   -107.77062    1.2833674   -106.48726   -15495.133    4.3521153    4.3521153    4.3521153   -15495.133    3169.6245   -24164.454   -25490.569    10577.094     20066.53    -12295.83    82.433013 
    8900    1278.0478   -107.65494    1.1564045   -106.49853    31027.722    4.3624978    4.3624978    4.3624978    31027.722    24067.542    36926.079    32089.546    -8007.268   -12244.306   -5960.2096    83.024384 
    9000    1294.2662   -107.66509    1.1710793   -106.49402   -28387.991    4.3827164    4.3827164    4.3827164   -28387.991   -4132.6037    -54827.97     -26203.4   -2401.7626    3155.5208   -6280.1561    84.184109 
    9100    1240.1021   -107.58957    1.1220705    -106.4675    12217.695    4.3768336    4.3768336    4.3768336    12217.695    11476.626   -4068.3153    29244.774   -2054.6003   -14171.634    11486.156    83.845568 
    9200    1757.5528   -108.04584    1.5902707   -106.45557   -10782.679    4.3688799    4.3688799    4.3688799   -10782.679   -20330.875   -920.06708   -11097.096   -5509.9795   -7392.1711    11501.532    83.389297 
    9300    1166.9423   -107.51719    1.0558739   -106.46131   -690.50066    4.3746567    4.3746567    4.3746567   -690.50066   -1106.0834    11706.071    -12671.49    16294.341    3595.3096    4258.5722    83.720525 
    9400    1531.1703   -107.83721     1.385435   -106.45177   -8026.3435    4.3865684    4.3865684    4.3865684   -8026.3435   -8405.6882    -5382.025   -10291.317   -5543.7684    2322.3409   -3666.4875    84.406271 
    9500    1321.7012   -107.63387     1.195903   -106.43796       -20529    4.3867633    4.3867633    4.3867633       -20529    21253.487   -24652.396    -58188.09    6404.9873    12820.385   -18741.613    84.417522 
    9600    1469.0813   -107.75941    1.3292556   -106.43016     5072.847    4.3596011    4.3596011    4.3596011     5072.847   -37567.285    67064.061   -14278.235    13393.671    16769.542    10481.449    82.859109 
    9700    1427.5583   -107.74916    1.2916848   -106.45747    8278.7259     4.355679     4.355679     4.355679    8278.7259    41972.581   -6153.0348   -10983.369   -19591.082   -3170.5762   -21996.252    82.635678 
    9800    1466.0069   -107.80632    1.3264739   -106.47984   -31436.732    4.3743476    4.3743476    4.3743476   -31436.732   -37289.975   -31819.824   -25200.398    2072.6535    17741.021   -17726.032    83.702777 
    9900     1638.137   -107.94774    1.4822208   -106.46552   -836.67522    4.3746876    4.3746876    4.3746876   -836.67522    41769.236   -8977.5246   -35301.737   -8791.7442   -10113.038    11538.024    83.722295 
   10000    1173.9343   -107.53248    1.0622004   -106.47028   -21342.666    4.3717363    4.3717363    4.3717363   -21342.666   -31330.612   -29922.782   -2774.6047    -11833.19   -5962.4372   -20453.329    83.552969 
   10100    1321.2035   -107.66429    1.1954527   -106.46884   -7074.5093    4.3623595    4.3623595    4.3623595   -7074.5093   -1109.6761    -16669.44   -3444.4115    4568.8673    6245.5868    6454.0173    83.016486 
   10200    1626.9223    -107.9498    1.4720735   -106.47773   -9723.6583    4.3721517    4.3721517    4.3721517   -9723.6583    19398.305   -36628.889   -11940.391   -13631.634    1650.6251    1766.1516    83.576789 
   10300    1271.4108   -107.62458    1.1503992   -106.47418   -25161.831    4.3862351    4.3862351    4.3862351   -25161.831   -11644.042   -57314.273   -6527.1763    10286.572    15710.216   -31465.391     84.38703 
   10400    1902.0818   -108.17839    1.7210435   -106.45735    9527.5617    4.3527987    4.3527987    4.3527987    9527.5617    13678.072    -19061.21    33965.823   -10130.327    10182.977    8295.2669    82.471851 
   10500    933.61768   -107.32068    0.8447569   -106.47592    55060.212    4.3471452    4.3471452    4.3471452    55060.212    74093.294    5967.2233    85120.119   -6821.3127   -7078.1586   -24243.851     82.15092 
   10600    1557.5201   -107.89053     1.409277   -106.48125   -25552.822    4.3882115    4.3882115    4.3882115   -25552.822   -1354.7586   -54399.757   -20903.952     3764.993    2964.0536   -8688.8887    84.501159 
   10700    1496.7104   -107.80926     1.354255     -106.455    -8609.362    4.3865962    4.3865962    4.3865962    -8609.362     6979.017   -57693.952    24886.849   -16425.063     15691.32    32.712634    84.407877 
   10800    1081.0407   -107.43053   0.97814838   -106.45238     18161.01    4.3587735    4.3587735    4.3587735     18161.01    55754.276    -24881.49    23610.244   -12352.713   -1172.1911   -18742.582    82.811932 
   10900    1713.2764   -108.01367    1.5502085   -106.46346    14248.198    4.3550486    4.3550486    4.3550486    14248.198   -18626.069   -361.53134    61732.194    5753.9415    16734.085    11394.737    82.599807 
   11000    1049.2685   -107.44179   0.94940021   -106.49239    -1112.707    4.3753893    4.3753893    4.3753893    -1112.707   -821.07399   -27831.054    25314.007   -17292.547   -2947.1768   -5340.8493    83.762588 
   11100    1644.5377   -107.96096    1.4880123   -106.47295   -1168.2307    4.3749867    4.3749867    4.3749867   -1168.2307    -33757.01   -988.79738    31241.115    12852.361   -10234.909   -9335.1868    83.739471 
   11200    1744.3629    -108.0332    1.5783362   -106.45486   -11797.451    4.3735259    4.3735259    4.3735259   -11797.451     1208.241   -21101.324   -15499.271   -2744.2354    5131.0942   -13371.164    83.655619 
   11300    916.50281   -107.29117     0.829271    -106.4619   -5347.4945    4.3710887    4.3710887    4.3710887   -5347.4945   -24128.287   -24602.009    32687.812   -8159.1185   -24002.021   -23784.596    83.515842 
   11400    1418.1275   -107.74568    1.2831515   -106.46252    10260.248    4.3630667    4.3630667    4.3630667    10260.248   -53190.885    45226.425    38745.203    8161.9703   -13636.611    1477.7458    83.056868 
   11500    1790.4159   -108.08919    1.6200059   -106.46919   -8720.0217    4.3662861    4.3662861    4.3662861   -8720.0217    13316.401   -28222.225   -11254.241   -6744.5421   -4797.3053   -20475.208    83.240864 
   11600    1060.9226   -107.43677   0.95994505   -106.47682   -1509.5445    4.3784836    4.3784836    4.3784836   -1509.5445   -10586.298    31736.344    -25678.68   -842.44971   -12619.773    -4985.758    83.940431 
   11700    1729.4257   -108.01797    1.5648207   -106.45315   -9513.7628     4.383622     4.383622     4.383622   -9513.7628   -47498.741   -2128.0161    21085.469   -3374.5889   -7373.1493   -11235.089    84.236304 
   11800    858.39872    -107.2397    0.7766972     -106.463     20931.39    4.3678235    4.3678235    4.3678235     20931.39    23537.071    6443.6892    32813.411    8479.2692    115.83735   -36775.585    83.328824 
   11900     1552.469   -107.87359    1.4047066   -106.46888     13817.09    4.3599951    4.3599951    4.3599951     13817.09   -5387.8522   -19436.998    66276.121   -17863.902   -845.94508    1217.3576    82.881575 
   12000    1701.8467   -108.02606    1.5398666   -106.48619   -11600.233     4.366324     4.366324     4.366324   -11600.233   -12716.625   -21209.579   -874.49423    3047.2463   -3933.7161    3512.6417     83.24303 
   12100    1274.9333   -107.64528    1.1535864   -106.49169   -24156.954    4.3689847    4.3689847    4.3689847   -24156.954   -30262.203    2531.3521   -44740.012   -2746.9932   -17992.789   -15842.561    83.395301 
   12200    1712.2492   -108.03276    1.5492791   -106.48348    -2077.678    4.3822888    4.3822888    4.3822888    -2077.678   -51542.983   -18836.539    64146.487   -849.07974    2.9635555    9948.4719    84.159468 
   12300    1013.3487   -107.37889   0.91689917   -106.46199   -37162.591    4.3958337    4.3958337    4.3958337   -37162.591   -61081.354    1008.8173   -51415.238    1806.5724   -27485.881    -35553.72    84.942249 
   12400    1336.2124   -107.66261    1.2090331   -106.45357    7702.1733    4.3486822    4.3486822    4.3486822    7702.1733   -2419.5699    12118.866    13407.224    9034.6196   -13566.723   -15255.388    82.238089 
   12500    1313.5601    -107.6422    1.1885368   -106.45367    47626.788    4.3328865    4.3328865    4.3328865    47626.788    2617.9636    101392.56    38869.845    -7498.125    8347.0375    2622.6103    81.345204 
   12600    1515.3484   -107.86733    1.3711191   -106.49621   -41394.994    4.3786337    4.3786337    4.3786337   -41394.994   -54149.161   -25136.997   -44898.824      15138.7   -27654.156   -29492.967    83.949063 
   12700    1646.5474   -107.95064    1.4898307   -106.46081   -14788.082    4.3921969    4.3921969    4.3921969   -14788.082   -36862.092    8246.6657   -15748.821   -1096.4573    8808.2113    5261.8568    84.731601 
   12800    1088.7499    -107.4529   0.98512382   -106.46778    21601.273    4.3563638    4.3563638    4.3563638    21601.273   -5485.8204    65393.438    4896.2032    6377.4217   -7300.8426   -10080.716     82.67466 
   12900    1582.1367   -107.91374    1.4315506   -106.48219    12614.102    4.3494943    4.3494943    4.3494943    12614.102    -12846.72     27413.01    23276.016   -15897.279    -14243.62   -31169.563    82.284173 
   13000    1626.7524   -107.96667    1.4719197   -106.49475    4703.3915    4.3743209    4.3743209    4.3743209    4703.3915   -43003.745    53155.512    3958.4074    3567.1387    2235.2786    3551.4966    83.701246 
   13100    1409.0688   -107.75492    1.2749551   -106.47997   -25114.109    4.3839293    4.3839293    4.3839293   -25114.109    -16495.93   -8468.4848   -50377.911   -3839.5452   -14810.274   -12811.848    84.254021 
   13200    1371.9004   -107.70093    1.2413243    -106.4596   -7818.2968    4.3840248    4.3840248    4.3840248   -7818.2968   -25255.951   -11626.211    13427.272   -8681.0582    4590.2917   -877.91589    84.259524 
   13300    1551.0549   -107.86024    1.4034271   -106.45682   -11063.566    4.3687932    4.3687932    4.3687932   -11063.566   -15852.764    10463.279   -27801.214    1828.3966   -15549.384    15033.023    83.384335 
   13400    1595.4577   -107.91071    1.4436037   -106.46711     6019.767    4.3680929    4.3680929    4.3680929     6019.767    15557.759    9020.7137   -6519.1715   -1758.2799   -7207.9519   -25638.163    83.344239 
   13500    1049.3423   -107.41902   0.94946692   -106.46955   -7619.7366    4.3790226    4.3790226    4.3790226   -7619.7366   -31099.149    24155.324   -15915.385   -71.346556   -16946.392    8937.9962    83.971429 
   13600    1285.8861   -107.62392    1.1634967   -106.46042   -8240.1129    4.3597297    4.3597297    4.3597297   -8240.1129   -11848.037    21325.592   -34197.894    6784.0821   -11142.257   -11360.566    82.866441 
   13700    1470.6227   -107.80344    1.3306503   -106.47279    31256.204    4.3663069    4.3663069    4.3663069    31256.204    19246.035    43302.466    31220.111   -3309.9321    7612.5003    -15202.72    83.242052 
   13800    1027.3925   -107.40986   0.92960635   -106.48025   -23920.713    4.3912511    4.3912511    4.3912511   -23920.713   -14984.567   -3298.4613   -53479.111   -397.45927   -16082.902    8523.8901    84.676876 
   13900    1614.9303   -107.90684    1.4612229   -106.44562    4180.7997    4.3806714    4.3806714    4.3806714    4180.7997    25019.794    17783.913   -30261.307    -25930.06    9767.5251    -18182.16    84.066319 
   14000    1174.1056    -107.5037    1.0623554   -106.44134    9505.0655    4.3738147    4.3738147    4.3738147    9505.0655    10250.818    12965.033    5299.3461   -3862.7451   -31717.791   -4702.3414    83.672191 
   14100     1097.191   -107.44618   0.99276145   -106.45342   -3638.0161    4.3774015    4.3774015    4.3774015   -3638.0161    19924.106   -9844.2778   -20993.877   -16115.671   -18254.555    2903.5004     83.87821 
   14200    1648.6819   -107.93768     1.491762   -106.44592   -677.92176    4.3872187    4.3872187    4.3872187   -677.92176    18329.678    29253.214   -49616.657   -21848.103   -6706.6005   -8104.9225    84.443817 
   14300    852.90311   -107.23426   0.77172466   -106.46253   -4526.7866    4.3866182    4.3866182    4.3866182   -4526.7866    3817.5182    29182.046   -46579.924   -1439.2857   -22806.682    5176.2323    84.409145 
   14400    1621.7776   -107.90402    1.4674184    -106.4366    18057.604    4.3647265    4.3647265    4.3647265    18057.604    3187.5803    28271.103    22714.127   -21434.201   -3251.6029   -5186.9138    83.151697 
   14500    1211.2508   -107.54976    1.0959652   -106.45379    4946.4558    4.3595981    4.3595981    4.3595981    4946.4558   -3606.8428    29502.169   -11055.959    4942.2943   -21909.199    6922.6945    82.858938 
   14600    1302.7761    -107.6468    1.1787792   -106.46803   -14553.192    4.3809352    4.3809352    4.3809352   -14553.192   -21282.554   -20558.982   -1818.0398   -6132.0166    3186.6478   -9328.6427    84.081506 
   14700    1588.9922   -107.89596    1.4377535   -106.45821    11391.019    4.3768613    4.3768613    4.3768613    11391.019   -5296.5783    41532.501    -2062.866     11345.78   -5126.9993    -4261.727    83.847157 
   14800    1218.9471    -107.5663     1.102929   -106.46337    4115.3517    4.3614719    4.3614719    4.3614719    4115.3517   -11257.447     47427.42   -23823.917   -4433.6521   -3274.4362    1359.7471    82.965823 
   14900    1852.2205   -108.14558    1.6759281   -106.46965    3638.5299     4.361927     4.361927     4.361927    3638.5299    -16152.34    4009.9653    23057.964     5437.754    6463.5204    3286.4448      82.9918 
   15000    913.39212    -107.3223   0.82645638   -106.49584    10527.038     4.378911     4.378911     4.378911    10527.038   -7269.9456    29311.363    9539.6971   -3668.9772    -19132.36   -4029.3926    83.965014 
   15100    1620.2717   -107.93278    1.4660558   -106.46673   -36326.125    4.3858315    4.3858315    4.3858315   -36326.125   -53288.993   -40485.567   -15203.815    5680.9255    12312.967    18990.549    84.363743 
   15200     1178.601   -107.52251    1.0664229   -106.45609    27864.134    4.3563918    4.3563918    4.3563918    27864.134   -23533.919    56776.229    50350.093   -10750.544   -17625.483    -8884.303    82.676255 
   15300    1329.8368   -107.68177    1.2032643    -106.4785    19575.258     4.347517     4.347517     4.347517    19575.258   -11437.587    60233.242    9930.1196    1634.2282    -17344.45    8738.1597    82.172002 
   15400    1834.7457    -108.1638    1.6601165   -106.50368    -41796.29    4.3859609    4.3859609    4.3859609    -41796.29   -43473.528   -62111.995   -19803.346    7185.0481    4688.7532     6003.189    84.371207 
   15500    1137.9803   -107.50067    1.0296685     -106.471   -20408.271    4.3958173    4.3958173    4.3958173   -20408.271    -27645.21   -14094.152   -19485.453    85.775258   -17992.834   -12979.973      84.9413 
   15600    1573.5563   -107.87455    1.4237869   -106.45076   -11261.131    4.3513253    4.3513253    4.3513253   -11261.131    -26454.78    -16195.35    8866.7358   -7340.2939    5546.5952   -2215.8726    82.388129 
   15700    1337.7671   -107.67417    1.2104398   -106.46373    26080.388    4.3353959    4.3353959    4.3353959    26080.388    14382.816    9187.8273    54670.521    28556.851   -12110.749    4876.9317    81.486619 
   15800    1414.5027   -107.78956    1.2798718   -106.50969    13837.286     4.362638     4.362638     4.362638    13837.286    13760.742    29918.877   -2167.7601   -18703.222   -1729.8281   -15693.325    83.032389 
   15900    1273.3505   -107.65063    1.1521543   -106.49847   -33440.637     4.398039     4.398039     4.398039   -33440.637   -11757.307   -47047.101   -41517.503    29748.485    15650.572    10233.093    85.070158 
   16000    1738.4236   -108.03396    1.5729622     -106.461   -25766.411    4.3743693    4.3743693    4.3743693   -25766.411   -22635.181   -42435.202    -12228.85    6504.7721    -17716.13    4629.2879    83.704025 
   16100    1347.2741   -107.65458    1.2190419   -106.43554    24580.845    4.3357184    4.3357184    4.3357184    24580.845   -1764.6882    34916.297    40590.927    5161.9222    22286.531   -10527.078    81.504802 
   16200    1321.4092   -107.68629    1.1956388   -106.49065   -10912.825    4.3578474    4.3578474    4.3578474   -10912.825   -41899.526   -46712.525    55873.578    13187.374   -2318.8909    12045.426    82.759158 
   16300    1625.7087   -107.95014    1.4709754   -106.47916   -7726.2842    4.3898819    4.3898819    4.3898819   -7726.2842   -28983.693   -15394.185    21199.026   -5109.7314    5537.3668   -1578.2695    84.597694 
   16400    1255.8742   -107.60526    1.1363414   -106.46892   -22547.417    4.3803484    4.3803484    4.3803484   -22547.417   -35988.493   -63307.991    31654.235    14206.293     10848.04    3434.5952    84.047728 
   16500    1637.5922   -107.94874    1.4817278   -106.46702   -1931.8697    4.3597889    4.3597889    4.3597889   -1931.8697   -29341.037   -23659.259    47204.686   -10172.179    17511.406    3414.7368    82.869818 
   16600    1719.0244   -108.03018    1.5554094   -106.47477    20125.898    4.3671515    4.3671515    4.3671515    20125.898    17188.973    -34743.62    77932.339    10043.113   -6190.9548   -8626.4462    83.290365 
   16700     948.4397   -107.34149   0.85816817   -106.48332   -5289.6149    4.3902443    4.3902443    4.3902443   -5289.6149   -25536.011    -59159.15    68826.316   -12159.949     -544.044    391.63724    84.618645 
   16800    1456.0596   -107.76547    1.3174733     -106.448    7503.3627    4.3903583    4.3903583    4.3903583    7503.3627    37083.753   -31295.637    16721.971    6403.6795   -19556.229    2055.1514    84.625236 
   16900    1279.0324   -107.59776    1.1572954   -106.44046    16959.429    4.3680606    4.3680606    4.3680606    16959.429    77710.416   -64128.218    37296.091   -5321.9904    -19425.26   -8652.1321    83.342391 
   17000    974.25263   -107.33956   0.88152426   -106.45804    13507.058    4.3590465    4.3590465    4.3590465    13507.058    33438.787   -53828.036    60910.422   -25956.504    -3156.154     14562.59     82.82749 
   17100    1876.7923   -108.16963    1.6981611   -106.47146   -6592.5748    4.3740027    4.3740027    4.3740027   -6592.5748   -10764.037    7816.3245   -16830.012    2950.5556    -5838.396   -9267.6734    83.682979 
   17200    829.53174   -107.23269   0.75057776   -106.48211   -17054.478    4.3817844    4.3817844    4.3817844   -17054.478   -15551.008   -73150.232    37537.804   -22399.227    15462.066   -9142.3523    84.130413 
   17300    1513.0252   -107.82622     1.369017    -106.4572     10285.05    4.3554744    4.3554744    4.3554744     10285.05    57498.919   -32793.762    6149.9945   -4260.2995     12746.16   -3316.0114    82.624035 
   17400    1589.7281   -107.91448    1.4384194   -106.47606    2083.7063    4.3609684    4.3609684    4.3609684    2083.7063    20860.851   -1635.9901   -12973.742    9096.5569   -7491.0677   -5555.2678    82.937097 
   17500    1191.6229   -107.55812    1.0782054   -106.47991    -19982.74     4.386345     4.386345     4.386345    -19982.74   -39042.325   -53210.738    32304.843   -5049.3284   -3871.0919   -9508.2262    84.393379 
   17600    1817.1132   -108.09684    1.6441622   -106.45268   -15879.034    4.3872348    4.3872348    4.3872348   -15879.034   -3018.6658   -18972.079   -25646.358    8651.2789   -1351.1243   -537.04488    84.444747 
   17700    1426.9044   -107.75126    1.2910931   -106.46017   -16000.959    4.3566581    4.3566581    4.3566581   -16000.959   -36205.989   -37665.547    25868.658    -16817.78   -15958.779     2211.028    82.691419 
   17800    1327.0041   -107.66716    1.2007012   -106.46646    42463.029    4.3409626    4.3409626    4.3409626    42463.029    59347.597    44145.814    23895.677    2935.0185    4276.1019   -6304.5821     81.80091 
   17900     1784.928   -108.10455    1.6150404   -106.48951    -25429.59    4.3861914    4.3861914    4.3861914    -25429.59    -20770.69    2204.0165   -57722.097    4921.0223   -3827.2616    6921.0722     84.38451 
   18000    1219.8831   -107.56383    1.1037758   -106.46006   -46617.126    4.3911337    4.3911337    4.3911337   -46617.126   -66779.486   -50650.189   -22421.702   -3679.8884   -8039.8435    3908.4385    84.670082 
   18100    1938.8703   -108.17755    1.7543306   -106.42322    12662.833    4.3552161    4.3552161    4.3552161    12662.833     22984.81    19468.526   -4464.8378    18973.142   -629.27587   -4962.3452    82.609336 
   18200    1390.5549   -107.71113    1.2582033   -106.45292   -22982.119    4.3638685    4.3638685    4.3638685   -22982.119   -37389.376   -9119.0621   -22437.918   -9100.0898   -8133.2545   -18518.618    83.102668 
   18300     1441.404   -107.77184    1.3042126   -106.46762   -10473.516    4.3724193    4.3724193    4.3724193   -10473.516   -29220.788   -20397.481    18197.722    9420.6821   -3311.0104     2945.767    83.592134 
   18400    1542.9957   -107.85728     1.396135   -106.46115   -8411.4668    4.3845014    4.3845014    4.3845014   -8411.4668   -21900.612   -18267.604    14933.815   -6241.9117    3737.4371     -6507.84     84.28701 
   18500    949.49729   -107.31466    0.8591251   -106.45554    -15689.88    4.3802268    4.3802268    4.3802268    -15689.88   -60474.251   -29916.632    43321.243   -4502.8546   -14585.852    2241.7683    84.040723 
   18600    1530.9839   -107.81463    1.3852664   -106.42936    39873.614    4.3566678    4.3566678    4.3566678    39873.614    3412.7097     49416.53    66791.602    3857.1383    10636.537    5007.3979     82.69197 
   18700    1283.4345   -107.62878    1.1612785    -106.4675   -7181.5202    4.3677091    4.3677091    4.3677091   -7181.5202   -48550.283   -44899.467    71905.189   -16882.819    6063.4075   -28530.368    83.322276 
   18800    1513.8353    -107.8385      1.36975   -106.46875   -7544.4375    4.3831698    4.3831698    4.3831698   -7544.4375   -41913.037     14554.91    4724.8153   -5541.9647   -2219.3067    8499.0694    84.210238 
   18900    1483.7765   -107.80754    1.3425522   -106.46499   -20634.873    4.3788308    4.3788308    4.3788308   -20634.873   -6919.5909   -30910.358   -24074.672   -5031.8691    20665.812   -6144.9289    83.960398 
   19000    1334.7316   -107.67302    1.2076932   -106.46533   -4356.3401    4.3772981    4.3772981    4.3772981   -4356.3401    -29609.41   -19744.049    36284.439   -4315.4938    4089.6175    -8180.387    83.872264 
   19100     1385.511   -107.70762    1.2536395   -106.45398    21130.967    4.3708988    4.3708988    4.3708988    21130.967   -7611.6476    28282.709    42721.841    5081.3354    3761.7216    14167.857    83.504957 
   19200    1478.8026   -107.80239    1.3380517   -106.46434   -18297.617    4.3597582    4.3597582    4.3597582   -18297.617   -34961.168   -47616.089    27684.407   -4755.0735    17016.099   -11175.495    82.868065 
   19300    1159.5261   -107.53113    1.0491636   -106.48196    17658.089    4.3663082    4.3663082    4.3663082    17658.089    46640.324    26353.776   -20019.834   -16954.914   -25031.508   -7665.5421    83.242123 
   19400    1148.0243   -107.52711    1.0387565   -106.48836   -14709.839    4.3788845    4.3788845    4.3788845   -14709.839    16979.945   -39486.733   -21622.729    7946.5718    6875.7735    13311.824    83.963487 
   19500    1717.1743     -108.012    1.5537354   -106.45827   -28284.185    4.3809231    4.3809231    4.3809231   -28284.185    5551.9364    -43699.62   -46704.871   -19692.255    2611.3778   -9644.2146    84.080808 
   19600    1543.9815   -107.85362    1.3970269   -106.45659    16515.589    4.3667404    4.3667404    4.3667404    16515.589    57530.435     9235.043    -17218.71     11108.18     926.1852    9879.7338    83.266849 
   19700    1429.0715   -107.75591    1.2930539   -106.46286   -19402.254    4.3596401    4.3596401    4.3596401   -19402.254    -13505.15   -38632.332    -6069.281   -6382.4617    13141.546    4582.9208    82.861332 
   19800    1742.4764   -108.04108    1.5766293   -106.46445   -344.55837    4.3686191    4.3686191    4.3686191   -344.55837    51297.832   -25560.108   -26771.399   -2471.4031    9434.5701   -3801.2834    83.374363 
   19900    1385.3936   -107.72276    1.2535333   -106.46923    43.523611    4.3746041    4.3746041    4.3746041    43.523611    43665.958   -14521.454   -29013.933    8821.1876    12719.412    21253.284    83.717506 
   20000    1568.2152   -107.88131    1.4189541   -106.46236   -3553.6333     4.379434     4.379434     4.379434   -3553.6333    21184.886   -42737.333    10891.547   -23857.132   -4072.0455   -5465.9567    83.995098 
   20100    1559.3733   -107.86828    1.4109537   -106.45733   -33340.365    4.3747543    4.3747543    4.3747543   -33340.365   -27256.422   -17446.699   -55317.975    7833.6402   -14311.861    37191.976    83.726128 
   20200    1423.8178   -107.73968    1.2883003   -106.45138    43292.799    4.3418398    4.3418398    4.3418398    43292.799    107699.01    9710.8216    12468.566   -12996.561    1197.9966   -3528.9429     81.85051 
   20300    1536.7775   -107.87529    1.3905086   -106.48478    6450.9412    4.3642112    4.3642112    4.3642112    6450.9412     6500.507   -14868.255    27720.572   -2093.9915   -7493.5633    13412.287    83.122246 
   20400    1206.3223   -107.55761    1.0915057   -106.46611   -27930.234     4.386917     4.386917     4.386917   -27930.234   -12257.297   -11993.061   -59540.343    158.18914   -7380.5677    36394.757    84.426397 
   20500    1829.5934   -108.10473    1.6554546   -106.44928    15096.386    4.3525176    4.3525176    4.3525176    15096.386    25525.821    5685.0827    14078.255   -4305.3914   -11192.542   -8956.5291    82.455878 
   20600    886.41337   -107.26631   0.80204545   -106.46426    28036.487    4.3443664    4.3443664    4.3443664    28036.487    36346.769    36508.548    11254.143      5175.37    8968.1985    40626.257    81.993482 
   20700    1761.8771   -108.07557    1.5941834   -106.48138   -17546.978    4.3675223    4.3675223    4.3675223   -17546.978   -26800.041     8648.079   -34488.971    3550.4646   -25443.696    4663.4348    83.311582 
   20800    1558.6648    -107.8751    1.4103127   -106.46479   -14371.126    4.3869527    4.3869527    4.3869527   -14371.126   -23639.118   -52098.903    32624.642   -1693.5055    1074.6904    11735.838     84.42846 
   20900    988.63898   -107.35633   0.89454133   -106.46179   -16350.942    4.3720538    4.3720538    4.3720538   -16350.942   -23723.512   -212.98855   -25116.327    22198.183   -12377.476    30076.232    83.571172 
   21000    1659.6688   -107.94508    1.5017032   -106.44338    18841.115    4.3370246    4.3370246    4.3370246    18841.115   -24649.396    4387.5068    76785.234   -16921.862   -6463.1922   -6829.6422    81.578489 
   21100    1424.8535   -107.77743    1.2892374    -106.4882   -6659.2452    4.3545648    4.3545648    4.3545648   -6659.2452   -9683.1102   -12349.475    2054.8499    2632.4404   -341.71966    20321.674    82.572277 
   21200    1381.4807   -107.74122    1.2499928   -106.49123   -14726.972    4.3765437    4.3765437    4.3765437   -14726.972   -51569.944    -40336.63    47725.659    9049.3168   -18996.431    1785.0526    83.828907 
   21300    1549.4231   -107.87431    1.4019505   -106.47236   -9551.7636    4.3806742    4.3806742    4.3806742   -9551.7636   -65948.082   -6709.9749    44002.766   -13706.299      9147.72   -12699.952    84.066478 
   21400     1569.014   -107.88573    1.4196769   -106.46606    9072.5332    4.3477096    4.3477096    4.3477096    9072.5332    -14553.63    30868.737    10902.493     6166.236   -9898.0464    13610.349    82.182921 
   21500    1506.8075   -107.84419     1.363391    -106.4808    15672.362    4.3382125    4.3382125    4.3382125    15672.362   -41805.529    39066.799    49755.815    -15520.87   -3522.9823    173.54923    81.645542 
   21600    1308.7012   -107.67756    1.1841403   -106.49342   -12720.181     4.368121     4.368121     4.368121   -12720.181   -38716.182    4314.7165   -3759.0777   -6389.8162    22331.152   -18142.852    83.345848 
   21700    1639.7679   -107.96228    1.4836964   -106.47858    -11588.23    4.3712524    4.3712524    4.3712524    -11588.23   -41271.093    9505.1973   -2998.7933    7857.9508   -8151.3735    16160.862    83.525222 
   21800    1375.9956   -107.71809    1.2450298   -106.47306   -10219.033    4.3760063    4.3760063    4.3760063   -10219.033   -37950.263   -1296.9896    8590.1547   -10733.603    10977.311    1488.2267    83.798031 
   21900      973.004    -107.3471   0.88039447   -106.46671      17762.3     4.351856     4.351856     4.351856      17762.3    14754.509   -1255.0035    39787.395    4173.2829    19042.159   -12602.329    82.418283 
   22000    1503.0086   -107.83146    1.3599538    -106.4715    -3693.856    4.3536161    4.3536161    4.3536161    -3693.856   -5437.6319    6215.8653   -11859.801   -2965.2835   -24439.695    15342.499    82.518322 
   22100    1392.1853    -107.7329    1.2596785   -106.47323   -17149.036    4.3766821    4.3766821    4.3766821   -17149.036   -17252.328    9121.0498   -43315.829   -7479.6473    12712.475   -17412.354    83.836862 
   22200    1163.4939   -107.51864    1.0527537   -106.46588    230.72724    4.3745478    4.3745478    4.3745478    230.72724   -5232.9612   -17461.409    23386.552    3814.9688   -12979.771    -27298.41    83.714272 
   22300    1681.5504   -107.97057    1.5215021   -106.44906    9464.5023    4.3512899    4.3512899    4.3512899    9464.5023    30235.202    21511.821   -23353.516   -9984.2131   -25050.738    -3762.058    82.386121 
   22400    963.70629   -107.33675    0.8719817   -106.46477     20283.76    4.3446126    4.3446126    4.3446126     20283.76    13103.862    -30944.51    78691.929     11543.09    15558.895   -29172.283    82.007427 
   22500    1671.3878   -107.98422    1.5123068   -106.47191   -17889.575     4.371696     4.371696     4.371696   -17889.575    -15730.04   -28399.624   -9539.0605    684.04781   -17342.847   -1567.4891    83.550655 
   22600    1464.1406   -107.78912    1.3247852   -106.46434   -7801.2403    4.3675204    4.3675204    4.3675204   -7801.2403   -21878.325   -37970.853    36445.456   -150.91459   -5600.5751   -17935.974    83.311478 
   22700    1253.6945   -107.60515    1.1343692   -106.47079   -12145.065    4.3481868    4.3481868    4.3481868   -12145.065    36144.392   -24027.848   -48551.739    13755.851    22544.946   -34058.097    82.209986 
   22800    1490.3918   -107.82425    1.3485378   -106.47571    18723.326    4.3494619    4.3494619    4.3494619    18723.326     27082.44    -13061.14    42148.679     8792.226   -14871.767     9808.403     82.28233 
   22900    1224.7974    -107.5999    1.1082225   -106.49168   -22599.232    4.3745361    4.3745361    4.3745361   -22599.232    22004.673   -61524.144   -28278.224    5149.5391   -8337.9939   -31084.518    83.713601 
   23000    1373.3138    -107.7113    1.2426032   -106.46869    1419.9442    4.3683225    4.3683225    4.3683225    1419.9442   -1141.6456   -19740.052     25141.53    18494.792    7974.4543    14522.246    83.357384 
   23100     1521.631   -107.83134    1.3768037   -106.45453    21578.677    4.3321524    4.3321524    4.3321524    21578.677     57899.37    16582.099    -9745.438     1520.923   -5239.9808   -25918.562    81.303861 
   23200    1001.9267   -107.39981   0.90656432   -106.49324    6285.6184    4.3481014    4.3481014    4.3481014    6285.6184    18876.814   -28671.562    28651.604     14219.57    11741.794    -28149.68    82.205144 
   23300    1634.9393   -107.96489    1.4793274   -106.48556   -7288.2368    4.3703939    4.3703939    4.3703939   -7288.2368   -25403.999     -2729.62    6268.9082    5717.9421    28095.091    9326.6891    83.476024 
   23400    953.03472    -107.3428   0.86232584   -106.48048    8302.2527     4.370628     4.370628     4.370628    8302.2527    21515.576    8180.4575   -4789.2754   -54.722716   -8151.1921   -24126.716    83.489437 
   23500    1801.3344   -108.09505    1.6298852   -106.46517   -8989.0701    4.3493221    4.3493221    4.3493221   -8989.0701   -7421.8957   -1737.5692   -17807.745    15716.585   -1936.0939    1306.6353    82.274398 
   23600    1108.7486   -107.48139     1.003219   -106.47817    31190.276    4.3313018    4.3313018    4.3313018    31190.276    47367.173    22678.123    23525.532   -5291.3117    12880.337   -14255.593    81.255983 
   23700    1272.2358   -107.65344    1.1511457   -106.50229    11898.319    4.3479663    4.3479663    4.3479663    11898.319    35154.055    12108.912    -11568.01     8061.268   -19739.721   -19261.166    82.197479 
   23800    1604.0337   -107.93586    1.4513634   -106.48449   -28211.002    4.3758666    4.3758666    4.3758666   -28211.002    -46444.02   -40142.422    1953.4376    1383.1317   -4486.3485    5742.0075    83.790007 
   23900    1447.1108   -107.78403    1.3093763   -106.47465     -7025.11    4.3528106    4.3528106    4.3528106     -7025.11    22366.391   -4293.3591   -39148.362   -4875.7399    14826.491   -30520.147    82.472532 
   24000    1584.6686   -107.90031    1.4338415   -106.46647    19609.799    4.3341009    4.3341009    4.3341009    19609.799    4759.7222    5938.8313    48130.845    10654.768   -14793.398    5636.1392    81.413615 
   24100    1250.9124   -107.62289    1.1318518   -106.49104   -16079.556    4.3548498    4.3548498    4.3548498   -16079.556   -20358.009    -6640.911   -21239.749    3836.6451   -8445.5447   -12409.427    82.588493 
   24200    1370.7301   -107.72768    1.2402654   -106.48741   -6484.8954    4.3694399    4.3694399    4.3694399   -6484.8954    2924.5685   -41847.155      19467.9    3467.3187    3742.4438   -15647.136    83.421371 
   24300    1899.5641   -108.19093    1.7187655   -106.47216   -21717.649    4.3678268    4.3678268    4.3678268   -21717.649   -47638.244    1051.7788   -18566.482   -2965.2487    -37000.64    5490.4298    83.329013 
   24400    1280.1649   -107.63117    1.1583201   -106.47285    8547.7631    4.3443478    4.3443478    4.3443478    8547.7631    5764.8378   -6627.9607    26506.412    299.42584    7739.5258   -24639.158     81.99243 
   24500    1495.4568   -107.84021    1.3531208   -106.48709    15508.245    4.3486091    4.3486091    4.3486091    15508.245      13229.3    26544.821    6750.6151    -9027.163    4242.2412    3585.7077     82.23394 
   24600    1083.5993   -107.46919   0.98046344   -106.48872   -5882.3638    4.3662785    4.3662785    4.3662785   -5882.3638   -30143.836   -9654.3678    22151.112    2288.4424   -21433.672     5328.985    83.240427 
   24700    1433.7065   -107.78309    1.2972478   -106.48585   -21194.251    4.3558934    4.3558934    4.3558934   -21194.251    12692.484    -37113.66   -39161.577    5586.6144    10352.083   -26955.963     82.64788 
   24800    1691.0993   -108.00518    1.5301422   -106.47503    20817.644    4.3449951    4.3449951    4.3449951    20817.644    -7331.811    40001.469    29783.275   -12909.459    -20924.78   -2355.5377    82.029085 
   24900    1101.0731   -107.49493   0.99627409   -106.49866    9537.5028    4.3628906    4.3628906    4.3628906    9537.5028   -22194.771    33053.009     17754.27    13850.842   -27075.158   -13743.949    83.046811 
   25000     1461.635   -107.81633    1.3225181   -106.49381   -15610.676    4.3689698    4.3689698    4.3689698   -15610.676    6493.0605    -47405.97   -5919.1194   -8541.2921   -6294.1169   -26995.576    83.394445 
   25100    1222.0214   -107.59169    1.1057106   -106.48598    12841.484    4.3581679    4.3581679    4.3581679    12841.484    12778.883    41480.444   -15734.876   -9781.3741   -24578.338    5368.2657    82.777416 
   25200    1750.3187   -108.06842    1.5837251   -106.48469    -18123.74    4.3493014    4.3493014    4.3493014    -18123.74     16618.37   -37889.219   -33100.369    4251.3665   -13373.668   -34168.735    82.273226 
   25300    1146.2498   -107.53083    1.0371509   -106.49368    21165.491    4.3508883    4.3508883    4.3508883    21165.491    19882.746   -9630.3074    53244.036    7407.7234    14578.815    5824.5523    82.363309 
   25400    1498.1084   -107.84381    1.3555199   -106.48829   -7337.6106    4.3547932    4.3547932    4.3547932   -7337.6106   -3758.1484   -1641.5318   -16613.151   -12528.614   -15680.205    8584.7779    82.585275 
   25500    967.70837   -107.36831   0.87560287    -106.4927   -850.41527    4.3611808    4.3611808    4.3611808   -850.41527    588.96563   -46657.178    43516.967    15995.967    8471.3611   -22349.836    82.949211 
   25600    1394.6868   -107.74508     1.261942   -106.48314    3145.3096    4.3563437    4.3563437    4.3563437    3145.3096    32269.676   -36242.359    13408.611   -1136.6289    10932.131      13153.1    82.673517 
   25700    1567.1187   -107.89547    1.4179619   -106.47751    6493.2697    4.3534392    4.3534392    4.3534392    6493.2697    17178.516    566.35706    1734.9363   -13219.235   -15884.997    -6433.604    82.508263 
   25800    1135.2272   -107.50584    1.0271774   -106.47867   -6835.1318    4.3614151    4.3614151    4.3614151   -6835.1318    41641.613   -66691.689    4544.6809    29256.912   -601.68903   -18995.621    82.962584 
   25900    1582.0817   -107.90775    1.4315007   -106.47625   -11850.368    4.3572456    4.3572456    4.3572456   -11850.368   -4271.8579   -13080.547     -18198.7   -26028.573   -3587.0522    22123.107    82.724874 
   26000    1277.5786   -107.63992      1.15598   -106.48394    -25287.39    4.3558385    4.3558385    4.3558385    -25287.39   -4412.8931   -46834.089   -24615.189    25973.124   -3852.8675   -15691.601    82.644754 
   26100    1322.4888   -107.68237    1.1966156   -106.48576   -17507.633    4.3583336    4.3583336    4.3583336   -17507.633   -17210.432   -37523.938    2211.4722    24721.131    4379.4883   -7217.5328     82.78686 
   26200    1898.3624   -108.19468    1.7176782   -106.47701   -26007.717    4.3550094    4.3550094    4.3550094   -26007.717   -26759.347   -25150.564   -26113.241   -12323.507    15774.831    16370.446    82.597576 
   26300    1003.7735   -107.40278   0.90823537   -106.49455    9775.3091    4.3491073    4.3491073    4.3491073    9775.3091    23327.353   -11301.707    17300.281    40908.273    2908.0773   -8546.3679    82.262207 
   26400    1651.2574   -107.98669    1.4940924    -106.4926    12566.891    4.3564639    4.3564639    4.3564639    12566.891   -7624.8333   -915.01011    46240.517    3256.3709    20591.429   -16710.111    82.680359 
   26500    1446.2326   -107.79424    1.3085816   -106.48566    2576.5593    4.3668957    4.3668957    4.3668957    2576.5593    3622.5358   -14194.477    18301.619      19092.6   -2421.2367    6310.5822    83.275731 
   26600    650.44408   -107.06804   0.58853547    -106.4795    9526.7219    4.3628953    4.3628953    4.3628953    9526.7219   -20117.761   -15733.131    64431.057    17487.215    16103.008   -3595.3375    83.047082 
   26700    2018.5117   -108.28871    1.8263918   -106.46232   -16798.208    4.3434625    4.3434625    4.3434625   -16798.208   -23370.433   -8548.7407   -18475.451    754.34134    19802.236   -5199.5483    81.942317 
   26800    1294.7721   -107.65519     1.171537   -106.48366    29320.683    4.3437399    4.3437399    4.3437399    29320.683    31763.069   -26035.126    82234.107    31040.572   -15259.014    13249.202    81.958016 
   26900     1190.303   -107.56478    1.0770111   -106.48776   -27842.337    4.3771373    4.3771373    4.3771373   -27842.337   -27319.484    -15214.19   -40993.337   -12904.867      24977.7   -9623.8646    83.863021 
   27000      1522.15   -107.84136    1.3772733   -106.46409   -19706.481     4.365179     4.365179     4.365179   -19706.481   -35042.804     -21378.6   -2698.0383    2856.7861    5546.2949   -8299.3797    83.177559 
   27100    1355.7967   -107.68571    1.2267534   -106.45896    13156.122    4.3370424    4.3370424    4.3370424    13156.122   -20660.812    15248.109    44881.068    23548.836   -9691.4522    5650.0337    81.579494 
   27200    1026.2038   -107.41807   0.92853075   -106.48954    1483.1867    4.3488019    4.3488019    4.3488019    1483.1867    24086.884   -9074.2416   -10563.082   -10264.344    31809.966   -28999.519    82.244883 
   27300    1833.0286   -108.15286    1.6585628    -106.4943   -20900.243     4.366274     4.366274     4.366274   -20900.243   -19077.496   -44167.487    544.25362    16256.323    72.445148    8849.7356    83.240171 
   27400    1323.6933   -107.68892    1.1977055   -106.49121   -2848.2593    4.3602854    4.3602854    4.3602854   -2848.2593   -12806.043   -26080.472    30341.737    11954.784    6674.7305   -1257.6561    82.898134 
   27500     1057.516   -107.44345   0.95686269   -106.48659     8116.578    4.3376134    4.3376134    4.3376134     8116.578    13921.543     15180.52   -4752.3291   -8854.7869    27888.083    -17121.97    81.611717 
   27600    1766.1761   -108.08897    1.5980732    -106.4909    1130.8331    4.3523714    4.3523714    4.3523714    1130.8331   -30509.346   -20229.527    54131.372    25281.516   -11705.223   -222.69912    82.447565 
   27700    1524.0615   -107.86247    1.3790029   -106.48346   -36157.209    4.3719413    4.3719413    4.3719413   -36157.209   -27304.724   -42139.002   -39027.901   -3415.2511    11871.921   -21535.041    83.564722 
   27800     1420.542   -107.75225    1.2853363   -106.46692    7849.6207    4.3574922    4.3574922    4.3574922    7849.6207    11844.753   -18284.555    29988.664   -1167.7141    19797.397   -12122.544    82.738923 
   27900    1663.9304    -107.9685    1.5055592   -106.46294   -18661.951    4.3579809    4.3579809    4.3579809   -18661.951   -45210.264    -13837.75    3062.1615    10293.582    -12331.94   -900.24503    82.766765 
   28000    1053.2372   -107.42871   0.95299115   -106.47572    9981.8968     4.351268     4.351268     4.351268    9981.8968    36135.605   -27123.184     20933.27   -8737.5525    18456.137   -13698.311    82.384876 
   28100    1791.0181   -108.10504    1.6205508   -106.48449   -6317.8138    4.3544524    4.3544524    4.3544524   -6317.8138    4773.2863   -38169.942    14443.214    7565.9882    768.49247    8086.1126    82.565884 
   28200    1499.4288   -107.83922    1.3567147    -106.4825   -22603.411     4.371776     4.371776     4.371776   -22603.411    21937.706   -36796.224   -52951.715    7330.8599   -17802.583    4476.9439    83.555242 
   28300    1389.2585   -107.71859    1.2570303   -106.46156   -8455.7154    4.3695872    4.3695872    4.3695872   -8455.7154    8493.5789   -34061.059    200.33373   -6404.8982    23344.526   -5390.4452    83.429808 
   28400    1646.0615   -107.93483     1.489391   -106.44544    -1331.131    4.3535301    4.3535301    4.3535301    -1331.131    -13626.15    21949.974   -12317.217    11404.254   -23354.229    6630.8504    82.513432 
   28500    1586.6359   -107.89461    1.4356216   -106.45899    10051.199    4.3537512    4.3537512    4.3537512    10051.199    37512.395   -8975.3103    1616.5124    10227.887    6734.5854     14780.13    82.526005 
   28600    1438.1081   -107.77333    1.3012304    -106.4721   -27314.641    4.3642703    4.3642703    4.3642703   -27314.641   -18330.758   -42415.762   -21197.405   -31161.818     385.7886   -11092.864    83.125622 
   28700    1383.4813   -107.72529     1.251803   -106.47348     24172.35    4.3506747    4.3506747    4.3506747     24172.35    54956.986     3188.295    14371.769    7381.8963   -19362.526    15403.376    82.351184 
   28800    1557.8163   -107.89328    1.4095449   -106.48374   -14228.699    4.3589418    4.3589418    4.3589418   -14228.699   -18081.037   -40680.254    16075.195   -14456.329    11984.389    7453.4438    82.821525 
   28900    947.67582   -107.34729   0.85747699   -106.48982    6579.2222    4.3564856    4.3564856    4.3564856    6579.2222    49579.158   -26207.901   -3633.5908   -29969.757    5245.1373    -15037.99    82.681597 
   29000     1836.405   -108.14956    1.6616178   -106.48794    -1717.507    4.3486291    4.3486291    4.3486291    -1717.507   -10634.034   -1458.9114     6940.424    7900.0427   -7873.8763    16836.689    82.235078 
   29100    931.85432   -107.34202   0.84316137   -106.49886    13808.604    4.3522301    4.3522301    4.3522301    13808.604    53209.776   -41760.005    29976.042   -24794.784   -3132.5266    -21924.37    82.439535 
   29200    1559.0544    -107.9082    1.4106652   -106.49754   -16724.207    4.3524307    4.3524307    4.3524307   -16724.207    -33131.34   -42388.814    25347.535   -18631.569   -1660.2203   -1229.8562    82.450937 
   29300    1396.5749   -107.75681    1.2636503   -106.49316    5049.9555    4.3601636    4.3601636    4.3601636    5049.9555    49889.226   -31923.652   -2815.7071    10297.311   -14230.834   -3205.9422    82.891185 
   29400      1476.76   -107.82762    1.3362035   -106.49142   -15612.542    4.3503244    4.3503244    4.3503244   -15612.542   -10038.116   -63134.844    26335.336   -18553.415    -1715.081   -27897.241    82.331289 
   29500    1445.7615   -107.80199    1.3081554   -106.49383    13420.162    4.3464868    4.3464868    4.3464868    13420.162     35251.32   -284.41971    5293.5862   -1054.9598   -22128.542    7280.6374      82.1136 
   29600     1550.863   -107.89707    1.4032535   -106.49381   -10596.912    4.3592267    4.3592267    4.3592267   -10596.912     6613.351   -58295.765    19891.678   -9435.0648   -16327.035   -9946.2169    82.837766 
   29700    1469.1624    -107.8183     1.329329   -106.48897   -24901.195    4.3600455    4.3600455    4.3600455   -24901.195   -10143.731   -70249.842    5689.9875   -18614.259   -4150.6925   -8772.4723    82.884449 
   29800    1224.9112   -107.60118    1.1083254   -106.49285    27735.201    4.3460402    4.3460402    4.3460402    27735.201    25381.432    11177.713    46646.456    7031.4624    -21738.68     12559.12    82.088294 
   29900    1891.3794   -108.20133    1.7113598   -106.48997    8064.0386    4.3391345    4.3391345    4.3391345    8064.0386     14457.35    -31907.51    41642.276    -37286.23     8214.172   -12641.535    81.697609 
   30000    1111.4531   -107.51043    1.0056661   -106.50477    45.276601    4.3628841    4.3628841    4.3628841    45.276601    25509.001   -36119.275    10746.104    2975.3856   -15755.418     8510.802    83.046443 
   30100    1275.1253   -107.64462    1.1537601   -106.49086   -29660.034    4.3628288    4.3628288    4.3628288   -29660.034   -29299.788    -24381.58   -35298.733   -4242.7497   -21119.054    16251.938    83.043281 
   30200    1537.5719   -107.86682    1.3912274   -106.47559     10721.97    4.3394085    4.3394085    4.3394085     10721.97    27930.329   -15146.567    19382.147   -27584.998    15762.336   -10618.486    81.713087 
   30300    1385.5668   -107.74846      1.25369   -106.49477    6286.1729    4.3426014    4.3426014    4.3426014    6286.1729   -9904.0199   -16.125127    28778.664    21369.002   -34060.003    10947.576    81.893587 
   30400    1293.2088   -107.67679    1.1701225   -106.50667   -19914.108    4.3568245    4.3568245    4.3568245   -19914.108   -10332.516    -24697.29   -24712.518   -13899.638   -3249.3483    3391.6294    82.700891 
   30500    1371.4371    -107.7386    1.2409051   -106.49769    3773.8383    4.3640211    4.3640211    4.3640211    3773.8383    -27076.07   -15042.694    53440.279   -19537.259    1343.3496   -8713.9515    83.111386 
   30600    1575.2329   -107.91746    1.4253038   -106.49215    -24124.97    4.3524715    4.3524715    4.3524715    -24124.97   -23401.388   -9334.0453   -39639.477    12677.523   -45073.162    4741.1205    82.453253 
   30700    889.31515   -107.29848   0.80467104    -106.4938     10982.89    4.3327629    4.3327629    4.3327629     10982.89    32558.282   -8862.5372    9252.9251    -41920.51    2790.0484   -3652.4613    81.338242 
   30800    1386.0965   -107.75629    1.2541692   -106.50212    22386.508    4.3465008    4.3465008    4.3465008    22386.508   -471.45342    13295.889    54335.089   -8004.3491    4109.7907   -4061.7582    82.114394 
   30900    1443.0256   -107.80695    1.3056799   -106.50127   -20090.994    4.3672257    4.3672257    4.3672257   -20090.994   -6723.8265    -12713.56   -40835.597   -16772.404   -26189.911    12361.245    83.294612 
   31000    1182.5561   -107.56307    1.0700016   -106.49307    -6672.162    4.3529837    4.3529837    4.3529837    -6672.162   -40772.961    13232.949    7523.5255   -33320.871    36089.548   -11263.045     82.48237 
   31100    1445.6344   -107.78167    1.3080404   -106.47363    25147.975    4.3343667    4.3343667    4.3343667    25147.975     1633.441    61506.371    12304.112      4044.52    19017.474    14505.219    81.428597 
   31200    1365.4155   -107.71945    1.2354566   -106.48399   -1294.7563    4.3467959    4.3467959    4.3467959   -1294.7563   -18459.204     14616.99   -42.054642   -21972.468   -7193.5562    21973.004    82.131122 
   31300    851.57345   -107.25711   0.77052155   -106.48659   -11760.102    4.3665848    4.3665848    4.3665848   -11760.102   -79003.947    17047.574    26676.068   -12683.665    47481.725    7381.3017    83.257947 
   31400    2020.8177   -108.28705    1.8284783   -106.45857   -7308.5672    4.3572036    4.3572036    4.3572036   -7308.5672   -29905.864    3992.8343    3987.3285    2450.2335   -22721.242    20366.811    82.722485 
   31500    945.08219   -107.32751   0.85513022   -106.47238    6394.7027    4.3481038    4.3481038    4.3481038    6394.7027   -49787.445    74680.148   -5708.5955   -19784.799    38071.304    2471.8463    82.205279 
   31600    1450.9309   -107.77985    1.3128328   -106.46701    318.32572    4.3517298    4.3517298    4.3517298    318.32572   -22983.952      15812.4    8126.5301    1619.9327    22328.283    10993.896    82.411109 
   31700     1297.727   -107.64591    1.1742107    -106.4717   -4166.9869    4.3555255    4.3555255    4.3555255   -4166.9869   -13008.888    20534.975   -20027.048    7174.9886    1562.5857    1321.9535    82.626943 
   31800    1344.3666   -107.68502    1.2164111   -106.46861   -17803.686     4.364359     4.364359     4.364359   -17803.686   -54349.501    7219.3732    -6280.929   -10693.408    33914.101    7682.4772    83.130691 
   31900    1511.6285    -107.8359    1.3677532   -106.46815    5050.9196     4.346966     4.346966     4.346966    5050.9196    35206.063   -10022.716   -10030.589    27712.131   -8287.1803   -10781.099    82.140762 
   32000     1162.552   -107.53487    1.0519015   -106.48297    11820.226    4.3390673    4.3390673    4.3390673    11820.226   -21227.537    71194.459   -14506.244   -474.02182    30977.901    21212.961    81.693809 
   32100    1651.2977   -107.97919    1.4941288   -106.48507   -1337.4118    4.3631329    4.3631329    4.3631329   -1337.4118   -8045.5495   -7999.7303    12033.044    4545.5475    5156.4932   -7381.2054    83.060648 
   32200    1339.3831   -107.68446     1.211902   -106.47256   -3495.2706     4.361184     4.361184     4.361184   -3495.2706    9251.7643   -21683.516    1945.9396    9659.3569    4943.8602    4931.5886    82.949397 
   32300    1386.1154   -107.72181    1.2541864   -106.46763    6314.7843    4.3483692    4.3483692    4.3483692    6314.7843   -25152.968    36357.795    7739.5259    1975.4843    40360.036    12015.541    82.220336 
   32400    1672.7032   -107.97687     1.513497   -106.46337     2703.693    4.3491482    4.3491482    4.3491482     2703.693    7128.1705   -560.17084    1543.0795    16570.996    -14782.54    -6508.405    82.264532 
   32500    1027.4498   -107.41043   0.92965822   -106.48077    -18252.52    4.3501056    4.3501056    4.3501056    -18252.52   -14208.636   -3353.9345   -37194.989   -4639.7165    35265.797     13151.92    82.318872 
   32600     1735.777   -108.05075    1.5705675   -106.48019    -2274.323    4.3589167    4.3589167    4.3589167    -2274.323    15447.402    13491.508   -35761.879   -6086.7261    12539.704   -11857.315    82.820093 
   32700    1415.7865   -107.76074    1.2810334   -106.47971   -17837.573    4.3675616    4.3675616    4.3675616   -17837.573   -7076.3296   -21834.164   -24602.227    7285.7999   -21646.835    7397.1413    83.313832 
   32800    1307.8456    -107.6635    1.1833662   -106.48013   -9329.0868    4.3481918    4.3481918    4.3481918   -9329.0868    11768.158   -8645.3449   -31110.073   -5474.4499    47795.886    8384.4804    82.210271 
   32900    1349.5737     -107.694    1.2211226   -106.47287    39754.293    4.3331745    4.3331745    4.3331745    39754.293    7803.2673    58081.247    53378.365   -16966.127   -17172.806   -3895.2489    81.361422 
   33000    1275.8924   -107.65165    1.1544542   -106.49719   -17663.856    4.3536514    4.3536514    4.3536514   -17663.856   -13369.144   -14073.506   -25548.918    13608.756   -829.52368    10069.966    82.520331 
   33100    1512.8023   -107.85155    1.3688153   -106.48273   -4634.8309    4.3652964    4.3652964    4.3652964   -4634.8309    990.01427    11504.155   -26398.662   -16532.741    19778.802     3312.997     83.18427 
   33200    1586.4058   -107.90962    1.4354133   -106.47421   -10038.243    4.3575852    4.3575852    4.3575852   -10038.243   -42415.065    11247.319    1053.0152   -5773.0232   -15386.479    1422.7959    82.744218 
   33300    1171.8765   -107.53561    1.0603385   -106.47527    11537.363    4.3407886    4.3407886    4.3407886    11537.363    34758.975   -2521.9651    2375.0771    43103.209    13241.106    16439.395    81.791076 
   33400    1408.9515   -107.76137    1.2748489   -106.48652    9129.1315    4.3362725    4.3362725    4.3362725    9129.1315   -18664.033    42262.711    3788.7167   -33014.596    -8065.148     591.8819    81.536057 
   33500    1083.4263    -107.4862   0.98030691    -106.5059   -26883.021    4.3553518    4.3553518    4.3553518   -26883.021   -39281.687   -41889.683    522.30569    22156.784   -13629.069    7873.8722    82.617055 
   33600     1659.262      -107.99    1.5013351   -106.48866    3704.0697    4.3557564    4.3557564    4.3557564    3704.0697    10970.858    2411.5444   -2270.1935    12046.976   -2144.5653    12768.768    82.640082 
[...]
   91300    1528.0174   -107.85783    1.3825822   -106.47524   -30440.179    4.3670249    4.3670249    4.3670249   -30440.179   -49200.209   -32934.624   -9185.7049   -9366.6026    11435.501   -17588.455    83.283126 
   91400    1386.9516   -107.71315     1.254943    -106.4582   -23838.054    4.3625095    4.3625095    4.3625095   -23838.054   -30332.793    3573.8728   -44755.242   -13567.249   -35691.648    6342.4139    83.025053 
   91500    1574.0898   -107.87357    1.4242695    -106.4493    9289.1617    4.3444439    4.3444439    4.3444439    9289.1617   -19603.652    46796.342    674.79534    22167.643   -4103.4826   -12672.469    81.997873 
   91600    881.06726   -107.26451   0.79720818    -106.4673     27355.97    4.3338629    4.3338629    4.3338629     27355.97    22026.697    52405.933    7635.2793   -31901.114    1048.1239   -26009.023    81.400207 
   91700    1521.9349   -107.85872    1.3770786   -106.48164   -13175.073    4.3512861    4.3512861    4.3512861   -13175.073   -22123.897    17680.702   -35082.023    2733.9418   -34175.748     13167.81    82.385904 
   91800    1839.3228    -108.1354    1.6642579   -106.47115   -27598.585    4.3622336    4.3622336    4.3622336   -27598.585   -28882.283   -24652.562    -29260.91    7599.5775    22052.071   -30209.911    83.009299 
   91900    849.29106   -107.25906    0.7684564    -106.4906   -5406.2457    4.3385528    4.3385528    4.3385528   -5406.2457    -13474.74    17226.802   -19970.799   -34487.468   -33954.884     1069.212    81.664753 
   92000    1884.9551   -108.18349     1.705547   -106.47794    23771.461    4.3323134    4.3323134    4.3323134    23771.461    5255.9757     62393.46    3664.9488   -1307.6421     7766.863    12943.425    81.312925 
   92100    1077.7085   -107.47164   0.97513334    -106.4965   -7817.4453    4.3559103    4.3559103    4.3559103   -7817.4453    -34476.32    65518.981   -54494.997   -7493.2356   -9190.7085   -8347.0818    82.648845 
   92200      1070.69   -107.46077   0.96878278   -106.49199   -24149.677    4.3600558    4.3600558    4.3600558   -24149.677   -27697.762   -12912.542   -31838.725   -20576.796   -21843.206   -3854.7631    82.885038 
   92300    1803.8295   -108.09769    1.6321428   -106.46555   -6533.7094    4.3465948    4.3465948    4.3465948   -6533.7094   -3241.0264    19381.945   -35742.047    15275.106    3351.1548     7030.002    82.119723 
   92400    1272.5185   -107.62228    1.1514015   -106.47088   -37417.437    4.3515732    4.3515732    4.3515732   -37417.437   -29795.738   -3696.5601   -78760.014   -1841.2761   -41884.138   -14243.373    82.402214 
   92500    1916.3366   -108.19385    1.7339416   -106.45991   -24440.502     4.359492     4.359492     4.359492   -24440.502   -32892.088   -15937.462   -24491.956   -6151.1159     10513.35   -830.71691    82.852889 
   92600    930.14613   -107.32711   0.84161577   -106.48549    -5845.584    4.3452565    4.3452565    4.3452565    -5845.584   -46667.782    93494.605   -64363.575    8859.7779   -46270.561   -1182.9664    82.043893 
   92700     1483.615   -107.82523    1.3424061   -106.48283    17704.667    4.3390826    4.3390826    4.3390826    17704.667    43875.054    53221.546     -43982.6   -16212.269    20407.045   -21958.496    81.694673 
   92800    1437.8521    -107.7865    1.3009988    -106.4855    7785.4392    4.3466859    4.3466859    4.3466859    7785.4392   -10793.868    64991.618   -30841.432   -16544.925   -32894.052   -3887.0226    82.124887 
   92900    1242.1732   -107.61613    1.1239444   -106.49219   -9449.3009    4.3526153    4.3526153    4.3526153   -9449.3009    13523.661     10894.09   -52765.654    8076.6592    957.46411   -8704.8259     82.46143 
   93000    1718.0534   -108.03436    1.5545308   -106.47982   -10597.634    4.3554588    4.3554588    4.3554588   -10597.634    7925.7616    1854.4776   -41573.141    2765.9211    7647.8782   -15113.341    82.623148 
   93100    1455.9473   -107.79698    1.3173717   -106.47961    19516.798    4.3366771    4.3366771    4.3366771    19516.798    16788.055    64875.339   -23112.999    8032.2789   -17563.662    1542.3524    81.558881 
   93200    998.46014   -107.39784   0.90342771   -106.49441    19355.645    4.3319019    4.3319019    4.3319019    19355.645   -633.82454    88042.716   -29341.956     20561.13    38088.375   -6210.9676    81.289757 
   93300    1908.2592   -108.21905     1.726633   -106.49241   -3617.6525    4.3524302    4.3524302    4.3524302   -3617.6525   -4976.3871    15360.905   -21237.476    2166.5681   -12469.576   -4533.0777    82.450906 
   93400    1281.8191   -107.65329    1.1598169   -106.49347    -26109.17    4.3557165    4.3557165    4.3557165    -26109.17   -11922.858    13864.888   -80269.539   -4764.1279    50486.084    10660.443    82.637812 
   93500    1436.3078    -107.7785    1.2996015   -106.47889   -1127.8618    4.3398287    4.3398287    4.3398287   -1127.8618   -23026.021    23860.107   -4217.6717     18606.18   -6943.5858   -4930.0479    81.736826 
   93600    1204.2614   -107.57403     1.089641   -106.48439   -2809.0796    4.3416538    4.3416538    4.3416538   -2809.0796   -24217.502    54221.363     -38431.1   -14955.617    24718.659    5228.4909    81.839993 
   93700     1765.789    -108.0805     1.597723   -106.48278    7821.1205    4.3400134    4.3400134    4.3400134    7821.1205    16079.193    41138.285   -33754.117    6785.9041    113.96586    14153.026    81.747263 
   93800    959.23326   -107.36857   0.86793441   -106.50064   -20267.307    4.3557814    4.3557814    4.3557814   -20267.307   -32425.528    -35311.22    6934.8262    10188.592    222.72026   -6860.4992    82.641508 
   93900    2053.5435    -108.3303    1.8580893   -106.47221   -15130.845    4.3549388    4.3549388    4.3549388   -15130.845    237.34162   -13788.233   -31841.643    -6783.708    202.22383    8744.3456    82.593555 
   94000    1239.9494   -107.60395    1.1219323   -106.48202    21511.797    4.3339439    4.3339439    4.3339439    21511.797   -480.17141    61180.701     3834.862    21214.044    -29236.04    11185.421     81.40477 
   94100    935.60597   -107.34254   0.84655594   -106.49599    20313.944    4.3422308    4.3422308    4.3422308    20313.944   -14062.965    39582.601    35422.197    -4509.918    11364.977     4643.262    81.872623 
   94200    1850.9569    -108.1565    1.6747847   -106.48172   -18820.533    4.3620643    4.3620643    4.3620643   -18820.533   -7139.7599   -7012.1161   -42309.723   -3957.5964   -33537.393    6891.2113    82.999637 
   94300    1272.1209    -107.6335    1.1510418   -106.48246   -8940.2412    4.3538819    4.3538819    4.3538819   -8940.2412   -25701.316   -10609.773    9490.3655    22898.305   -2182.6541    1032.0328    82.533435 
   94400     1221.769   -107.58594    1.1054822   -106.48046    10988.146     4.341664     4.341664     4.341664    10988.146   -8782.1069    36080.692    5665.8545   -20065.252   -7460.1606   -16655.956    81.840568 
   94500    1663.2856   -107.97677    1.5049758   -106.47179     21077.99    4.3444896    4.3444896    4.3444896     21077.99    34564.777    56471.888   -27802.697   -959.89065   -5924.3065    1593.2412    82.000462 
   94600    992.27448   -107.38416    0.8978308   -106.48633   -17747.725    4.3563852    4.3563852    4.3563852   -17747.725    963.67889   -65391.893    11185.039   -3889.1695    1188.0322   -5048.2993    82.675878 
   94700    1850.9732   -108.15047    1.6747994   -106.47567   -8147.0903    4.3547649    4.3547649    4.3547649   -8147.0903    15738.617    -21841.53   -18338.358   -11491.268   -10207.039   -6793.3349     82.58366 
   94800    1706.6537   -108.02422    1.5442161      -106.48    9807.4446    4.3371437    4.3371437    4.3371437    9807.4446    4511.7151    16268.478    8642.1407    13535.993    10601.907   -523.94921    81.585209 
   94900    497.80939    -106.9564    0.4504284   -106.50597     8965.781    4.3414384    4.3414384    4.3414384     8965.781   -21285.411   -864.47259    49047.226    -16870.61   -6056.3322   -13053.565    81.827808 
   95000    2149.2472   -108.42357     1.944684   -106.47888   -3515.8103    4.3572036    4.3572036    4.3572036   -3515.8103    15730.415   -11398.676   -14879.171   -3466.2084    5918.8114   -6558.4493    82.722483 
   95100    1145.4624   -107.52595    1.0364384   -106.48951   -13537.191    4.3545934    4.3545934    4.3545934   -13537.191    7060.2147   -48541.804    870.01556   -3041.8746    6892.8752    10248.582    82.573906 
   95200    1254.9997   -107.62643    1.1355501   -106.49088   -16485.165     4.335631     4.335631     4.335631   -16485.165   -29653.302   -51307.321    31505.129   -4221.6906     366.9955   -7008.7969    81.499873 
   95300    1753.6641    -108.0726    1.5867522   -106.48585    20556.802    4.3363053    4.3363053    4.3363053    20556.802    58585.492    21413.037   -18328.123   -2211.2766   -16794.918   -8679.7009    81.537907 
   95400    1198.7488   -107.58216    1.0846531   -106.49751   -2966.4363    4.3537461    4.3537461    4.3537461   -2966.4363   -12811.617   -9944.4499    13856.758    -9213.814    2256.7461    5544.0249    82.525717 
   95500     975.7559   -107.37295   0.88288444   -106.49006     447.3245    4.3555494    4.3555494    4.3555494     447.3245    9664.4591   -4256.0163   -4066.4694   -3738.2795   -5296.3779   -14839.692      82.6283 
   95600    1890.6652   -108.17472    1.7107136     -106.464    16683.078    4.3461578    4.3461578    4.3461578    16683.078    56089.933    9351.3153   -15392.014   -4935.0246   -15735.242   -2979.6771    82.094957 
   95700    1224.3331   -107.59606    1.1078023   -106.48826   -7975.4133    4.3348654    4.3348654    4.3348654   -7975.4133   -25492.629   -32676.869    34243.258    8946.8793    8013.8208   -1113.7132     81.45671 
   95800    1261.0132   -107.64224    1.1409913   -106.50125    10009.514    4.3345203    4.3345203    4.3345203    10009.514    61652.276   -33139.752    1516.0192    13673.431   -10370.899   -16274.685    81.437255 
   95900    1933.5665   -108.24343    1.7495316    -106.4939   -11166.793    4.3566244    4.3566244    4.3566244   -11166.793    1830.1676    916.47395   -36247.021    1345.3225     19670.05    12617.161    82.689496 
   96000    1096.1173   -107.47329   0.99178999    -106.4815   -10746.723    4.3660885    4.3660885    4.3660885   -10746.723    21105.374   -64723.141    11377.598    12567.654   -7261.0363   -13618.487    83.229558 
   96100    1243.0112   -107.60213    1.1247027   -106.47742   -26741.447    4.3429006    4.3429006    4.3429006   -26741.447   -15032.505   -35660.208   -29531.629    16737.777    14946.796   -7365.5984    81.910519 
   96200    1421.0572    -107.7602    1.2858024    -106.4744    34011.074    4.3137603    4.3137603    4.3137603    34011.074    16648.475     52527.53    32857.218   -9431.8311    27649.144    20868.275    80.272732 
   96300    1809.8694   -108.13585    1.6376079   -106.49824   -1889.0291    4.3391208    4.3391208    4.3391208   -1889.0291    1138.3855   -18970.175    12164.703    9554.4134   -19317.316   -12093.898    81.696833 
   96400    767.98171   -107.20103   0.69488599   -106.50614   -24003.566    4.3671831    4.3671831    4.3671831   -24003.566   -59965.273    1171.1251    -13216.55   -8964.8414    46863.261   -3744.9372    83.292173 
   96500    1799.5397   -108.11341    1.6282613   -106.48515   -16086.017    4.3540932    4.3540932    4.3540932   -16086.017    4125.3251   -24852.239   -27531.137   -1740.9388     6326.497    20693.857    82.545456 
   96600    1557.4713   -107.88897    1.4092328   -106.47973    12835.148    4.3180181    4.3180181    4.3180181    12835.148    11629.902    14008.343      12867.2     7970.728    10978.483   -18008.523    80.510658 
   96700     633.7892    -107.0876   0.57346578   -106.51413    11831.965    4.3244369    4.3244369    4.3244369    11831.965    26695.594     23641.07   -14840.768   -8313.1092    45508.127    10587.284    80.870232 
   96800    2204.8365   -108.48952    1.9949824   -106.49453   -8662.9585    4.3565729    4.3565729    4.3565729   -8662.9585    8376.9276   -31335.724   -3030.0787   -11672.678    -17233.12    9072.3486    82.686565 
   96900     1108.949   -107.50955    1.0034003   -106.50615   -18428.972      4.35292      4.35292      4.35292   -18428.972     7341.603   -2481.0715   -60147.448    5256.7606    44631.828   -9287.3405     82.47875 
   97000    1199.6483   -107.57842     1.085467   -106.49295    7031.2722    4.3272089    4.3272089    4.3272089    7031.2722    201.13941   -11595.473     32488.15   -11503.529    12422.022    14101.013    81.025848 
   97100    1808.2108    -108.1245    1.6361071    -106.4884     11439.29     4.327244     4.327244     4.327244     11439.29    33716.092   -19353.135    19954.914   -5636.6605    4213.3415     7297.609    81.027819 
   97200    1229.1444   -107.62111    1.1121557   -106.50895    10068.483    4.3431569    4.3431569    4.3431569    10068.483   -5416.1107    14149.081    21472.478    7962.6921    32088.372    -3116.722    81.925023 
   97300    1368.7176   -107.73615    1.2384444    -106.4977    -38719.94    4.3642317    4.3642317    4.3642317    -38719.94   -30538.394   -71354.862   -14266.564   -5457.5092   -15612.434    16287.655    83.123417 
   97400    1549.0967   -107.89309    1.4016553   -106.49143   -4451.0001    4.3347867    4.3347867    4.3347867   -4451.0001   -3053.5637   -31777.527    21478.091    12312.761    16214.394    5053.3827    81.452268 
   97500    1447.9989   -107.79488    1.3101798    -106.4847    38310.677    4.3171159    4.3171159    4.3171159    38310.677    36702.614    41075.174    37154.241    -5637.488   -5094.7088   -494.06715    80.460204 
   97600    1007.9209   -107.42278   0.91198798    -106.5108   -15987.495    4.3430407    4.3430407    4.3430407   -15987.495   -16358.021   -63080.239    31475.777    13308.284   -16000.985    4619.3767    81.918443 
   97700    1593.0659   -107.92941    1.4414395   -106.48797   -7319.1568     4.361568     4.361568     4.361568   -7319.1568    5434.2211   -54412.938    27021.246    3729.5157    11268.054   -4606.5955    82.971312 
   97800    1636.3721    -107.9699    1.4806239   -106.48927   -829.05491    4.3467919    4.3467919    4.3467919   -829.05491    2134.7589   -14416.294    9794.3703     1965.945   -7108.4925   -10866.026    82.130892 
   97900    746.04574   -107.16841   0.67503786   -106.49337    6966.2593    4.3250266    4.3250266    4.3250266    6966.2593   -5099.3035   -34963.184    60961.266     25445.62   -15249.479    7718.9438     80.90332 
   98000    1947.6564   -108.25252    1.7622804   -106.49024    6580.3973    4.3370896    4.3370896    4.3370896    6580.3973    20545.125   -14324.936    13521.003   -20028.202    19648.004   -14271.696    81.582155 
   98100    1259.7647   -107.63064    1.1398615   -106.49078   -23636.962    4.3596733    4.3596733    4.3596733   -23636.962    -10084.91   -42454.125   -18371.851    27070.928   -17535.971   -12740.784    82.863229 
   98200    1193.9903   -107.56571    1.0803475   -106.48537   -22288.739    4.3495438    4.3495438    4.3495438   -22288.739   -36193.319   -40507.406    9834.5082    3914.0492   -8147.0707    4561.9077    82.286983 
   98300    1493.6863   -107.83258    1.3515188   -106.48106      15552.6    4.3267604    4.3267604    4.3267604      15552.6    18025.913    5297.5499    23334.336   -14378.105    38059.728   -12786.064    81.000656 
   98400    1542.5147   -107.88957    1.3956997   -106.49387    11740.614    4.3235688    4.3235688    4.3235688    11740.614    17122.926   -21387.905    39486.819    29555.762   -14675.728   -11964.552     80.82154 
   98500    1173.5733   -107.57086    1.0618738   -106.50899   -13265.231     4.349196     4.349196     4.349196   -13265.231   -45982.275   -28540.667    34727.248   -1355.0381    4249.3359    2555.9706    82.267241 
   98600    1179.7615   -107.56664     1.067473   -106.49917   -37775.525    4.3562389    4.3562389    4.3562389   -37775.525   -29229.488   -15719.495   -68377.592    -4452.992    41067.565     -20510.7     82.66755 
   98700    1968.3734   -108.26228    1.7810256   -106.48125    -3081.366    4.3325111    4.3325111    4.3325111    -3081.366    17140.828   -25906.423   -478.50284    18483.676   -12240.461   -13281.613     81.32406 
   98800    1006.2568    -107.4119   0.91048226   -106.50142    5415.8898    4.3239058    4.3239058    4.3239058    5415.8898   -40335.772    30362.608    26220.834   -15039.554    43027.933   -379.12759    80.840441 
   98900    1301.1008   -107.68746    1.1772633    -106.5102   -20006.591    4.3425968    4.3425968    4.3425968   -20006.591    -637.4807   -26128.406   -33253.886    7099.8516    23210.019   -34365.955    81.893329 
   99000    1628.0264    -107.9646    1.4730725   -106.49153   -7379.5333     4.358382     4.358382     4.358382   -7379.5333   -395.16215   -18101.574   -3641.8635    6139.8829    1386.5563    11456.847    82.789618 
   99100    1405.0304    -107.7615     1.271301    -106.4902   -24437.366    4.3406838    4.3406838    4.3406838   -24437.366   -25670.753    -242.4665   -47398.879   -11286.688    47146.153    -15457.46     81.78515 
   99200    965.43738   -107.36064   0.87354803    -106.4871    14455.134    4.3192272    4.3192272    4.3192272    14455.134     72068.89     5228.971    -33932.46    5977.2777   -21074.292   -34022.467     80.57831 
   99300    1626.2476   -107.96115     1.471463   -106.48969   -3629.1115    4.3387834    4.3387834    4.3387834   -3629.1115     37102.03   -11075.624   -36913.741   -13504.039   -5112.9827    44377.447    81.677777 
   99400    1348.0746   -107.70475    1.2197662   -106.48499   -19539.558    4.3566852    4.3566852    4.3566852   -19539.558    7256.0138   -27260.191   -38614.498   -6901.1177    11474.584   -50232.758    82.692959 
   99500    1094.9592   -107.47442    0.9907421   -106.48368   -7594.7063    4.3447329    4.3447329    4.3447329   -7594.7063    32262.941   -10067.501   -44979.559   -3205.9307   -25171.669    210.39549    82.014235 
   99600    1424.2813   -107.76849    1.2887197   -106.47977    19444.079    4.3229727    4.3229727    4.3229727    19444.079     42605.28    23703.673   -7976.7143   -5750.8148   -12601.818    37228.388    80.788118 
   99700    1416.0737   -107.77152    1.2812932   -106.49022    20205.958    4.3305854    4.3305854    4.3305854    20205.958      75733.9   -3974.3203   -11141.706   -9293.9732     6814.037   -56774.126    81.215671 
   99800    1115.9311   -107.50561    1.0097179   -106.49589   -27166.837    4.3577348    4.3577348    4.3577348   -27166.837    32903.051   -50255.806   -64147.756    4601.9701   -4888.7319    49672.611    82.752743 
   99900      1513.72   -107.84244    1.3696456    -106.4728   -9381.3018    4.3496335    4.3496335    4.3496335   -9381.3018    11868.459   -21049.222   -18963.142   -18790.016   -13984.651   -2905.7688    82.292069 
  100000    1642.4442   -107.95082    1.4861181    -106.4647    2923.2054    4.3263956    4.3263956    4.3263956    2923.2054    60273.436   -20350.033   -31153.787    3404.2974    17009.528    2095.1597    80.980171 
Loop time of 22.362 on 1 procs for 100000 steps with 8 atoms

Pair  time (%) = 7.09211 (31.715)
Kspce time (%) = 5.36095 (23.9735)
Neigh time (%) = 0.136466 (0.610259)
Comm  time (%) = 1.03495 (4.62819)
Outpt time (%) = 0.0246472 (0.110219)
Other time (%) = 8.71285 (38.9628)

Nlocal:    8 ave 8 max 8 min
Histogram: 1 0 0 0 0 0 0 0 0 0
Nghost:    2147 ave 2147 max 2147 min
Histogram: 1 0 0 0 0 0 0 0 0 0
Neighs:    2179 ave 2179 max 2179 min
Histogram: 1 0 0 0 0 0 0 0 0 0

Total # of neighbors = 2179
Ave neighs/atom = 272.375
Neighbor list builds = 1555
Dangerous builds = 0
unfix 20
unfix 21
print "seeds:3113449"
seeds:3113449
