LAMMPS (11 Aug 2017)
Reading data file ...
  triclinic box = (0 0 0) to (2.322 2.322 2.322) with tilt (-0 -0 0)
  1 by 1 by 1 MPI processor grid
  reading atoms ...
  1 atoms
1 atoms in group Ni
Neighbor list info ...
  update every 1 steps, delay 0 steps, check yes
  max neighbors/atom: 2000, page size: 100000
  master list distance cutoff = 5.64464
  ghost atom cutoff = 5.64464
  binsize = 2.82232, bins = 1 1 1
  1 neighbor lists, perpetual/occasional/extra = 1 0 0
  (1) pair eam/alloy, perpetual
      attributes: half, newton on
      pair build: half/bin/newton/tri
      stencil: half/bin/3d/newton/tri
      bin: standard
Setting up cg style minimization ...
  Unit style    : metal
  Current step  : 0
WARNING: Energy due to 3 extra global DOFs will be included in minimizer energies
Per MPI rank memory allocation (min/avg/max) = 4.239 | 4.239 | 4.239 Mbytes
Step PotEng Xhi Xlo Yhi Ylo Zhi Xy Xz Yz Press Pxx Pyy Pzz Pxy Pxz Pyz c_eatoms 
       0  -0.21417308        2.322            0        2.322            0        2.322           -0           -0            0    333735.23    333735.23    333735.23    333735.23            0            0 -4.4400101e-13  -0.21417308 
      10  -0.28772944      2.33361     -0.01161      2.33361     -0.01161      2.33361           -0           -0            0    288664.94    288664.94    288664.94    288664.94            0 4.3094301e-13 8.6188602e-13  -0.28772944 
      20  -0.35252074      2.34522     -0.02322      2.34522     -0.02322      2.34522           -0           -0            0    248843.09    248843.09    248843.09    248843.09 -8.3678415e-13 -1.6735683e-12 -8.3678415e-13  -0.35252074 
      30  -0.40937405      2.35683     -0.03483      2.35683     -0.03483      2.35683           -0           -0            0    213677.37    213677.37    213677.37    213677.37            0 -8.1264765e-13 -1.2189715e-12  -0.40937405 
      40  -0.45904221      2.36844     -0.04644      2.36844     -0.04644      2.36844           -0           -0            0    182643.52    182643.52    182643.52    182643.52 7.8943057e-13 1.5788611e-12 7.8943057e-13  -0.45904221 
      50  -0.50221054      2.38005     -0.05805      2.38005     -0.05805      2.38005           -0           -0            0    155276.81    155276.81    155276.81    155276.81 -7.6708954e-13 -1.9177239e-13 3.8354477e-13  -0.50221054 
      60  -0.53950307      2.39166     -0.06966      2.39166     -0.06966      2.39166           -0           -0            0    131165.22    131165.22    131165.22    131165.22 -7.4558363e-13 -3.7279181e-13 7.4558363e-13  -0.53950307 
      70  -0.57148798      2.40327     -0.08127      2.40327     -0.08127      2.40327           -0           -0            0    109943.27    109943.27    109943.27    109943.27 7.2487417e-13 1.0873113e-12 1.4497483e-12  -0.57148798 
      80  -0.59868276      2.41488     -0.09288      2.41488     -0.09288      2.41488           -0           -0            0    91286.705    91286.705    91286.705    91286.705 -7.0492464e-13 -7.0492464e-13 -1.4098493e-12  -0.59868276 
      90  -0.62155875      2.42649     -0.10449      2.42649     -0.10449      2.42649           -0           -0            0    74907.761    74907.761    74907.761    74907.761 -6.857005e-13 -9.4283818e-13 -1.5428261e-12  -0.62155875 
     100  -0.64054534       2.4381      -0.1161       2.4381      -0.1161       2.4381           -0           -0            0    60550.981    60550.981    60550.981    60550.981 -1.3343381e-12 -9.1735747e-13 -1.6679227e-13  -0.64054534 
     110  -0.65603373      2.44971     -0.12771      2.44971     -0.12771      2.44971           -0           -0            0     47989.54     47989.54     47989.54     47989.54            0 -6.4929943e-13 -1.2985989e-12  -0.65603373 
     120  -0.66838042      2.46132     -0.13932      2.46132     -0.13932      2.46132           -0           -0            0    37021.989    37021.989    37021.989    37021.989            0 9.4809346e-13 -3.1603115e-13  -0.66838042 
     130  -0.67791032      2.47293     -0.15093      2.47293     -0.15093      2.47293           -0           -0            0    27469.379    27469.379    27469.379    27469.379 -6.1542995e-13 -3.8464372e-13 -6.9235869e-13  -0.67791032 
     140  -0.68491961      2.48454     -0.16254      2.48454     -0.16254      2.48454           -0           -0            0     19172.72     19172.72     19172.72     19172.72 -3.7461005e-14 9.3652512e-13 3.7461005e-14  -0.68491961 
     150  -0.68967832      2.49615     -0.17415      2.49615     -0.17415      2.49615           -0           -0            0    11990.734    11990.734    11990.734    11990.734 1.1768746e-12 1.3045974e-12 1.7516272e-12  -0.68967832 
     160  -0.69241566      2.50776     -0.18576      2.50776     -0.18576      2.50776           -0           -0            0    5597.6502    5597.6502    5597.6502    5597.6502            0 1.4222633e-13            0  -0.69241566 
     170  -0.69326858     2.519189  -0.19718895     2.519189  -0.19718895     2.519189           -0           -0            0  -0.39777119  -0.39777119  -0.39777119  -0.39777119            0 -4.1599806e-13            0  -0.69326858 
     173  -0.69326858    2.5191881  -0.19718808    2.5191881  -0.19718808    2.5191881           -0           -0            0 1.8488838e-12 2.7733257e-12 1.6639954e-12 1.1093303e-12 -5.5466515e-13 -1.0399971e-12 -5.5466515e-13  -0.69326858 
Loop time of 0.00156116 on 1 procs for 173 steps with 1 atoms

100.1% CPU use with 1 MPI tasks x no OpenMP threads

Minimization stats:
  Stopping criterion = quadratic factors are zero
  Energy initial, next-to-last, final = 
        -0.21417308476    -0.693268581793    -0.693268581793
  Force two-norm initial, final = 4.51688 3.84886e-17
  Force max component initial, final = 2.60782 2.96574e-17
  Final line search alpha, max atom move = 1 2.96574e-17
  Iterations, force evaluations = 173 177

MPI task timing breakdown:
Section |  min time  |  avg time  |  max time  |%varavg| %total
---------------------------------------------------------------
Pair    | 0.00051069 | 0.00051069 | 0.00051069 |   0.0 | 32.71
Neigh   | 6.9141e-06 | 6.9141e-06 | 6.9141e-06 |   0.0 |  0.44
Comm    | 0.0002346  | 0.0002346  | 0.0002346  |   0.0 | 15.03
Output  | 0.00015926 | 0.00015926 | 0.00015926 |   0.0 | 10.20
Modify  | 0          | 0          | 0          |   0.0 |  0.00
Other   |            | 0.0006497  |            |       | 41.62

Nlocal:    1 ave 1 max 1 min
Histogram: 1 0 0 0 0 0 0 0 0 0
Nghost:    215 ave 215 max 215 min
Histogram: 1 0 0 0 0 0 0 0 0 0
Neighs:    16 ave 16 max 16 min
Histogram: 1 0 0 0 0 0 0 0 0 0

Total # of neighbors = 16
Ave neighs/atom = 16
Neighbor list builds = 1
Dangerous builds = 0
pypospack:output_section:begin
tot_energy = -0.693268581792522
num_atoms = 1
a11 = 2.7163761536769
a22 = 2.7163761536769
a33 = 2.7163761536769
a12 = -0
a13 = -0
a23 = 0
tot_press = 1.84888382089741e-12
pxx = 2.77332573134612e-12
pyy = 1.66399543880767e-12
pzz = 1.10933029253845e-12
pxy = -5.54665146269224e-13
pxz = -1.0399971492548e-12
pyz = -5.54665146269224e-13
pypospack:output_section:done
pypospack:lammps_sim:done
Total wall time: 0:00:00
