LAMMPS (10 Feb 2015)
# ---- initialize simulations
clear
units metal
dimension 3
boundary p p p
atom_style charge
atom_modify map array
# ---- create atoms
read_data /Users/eugeneragasa/pyflamestk_git/pypospack/tests/tests_integration/workflow/WorkflowLammpsThermalExpansion/param_5091/MgO_NaCl_unit.npt.T500/lammps.structure
  triclinic box = (0 0 0) to (4.2565 4.2565 4.2565) with tilt (0 0 0)
  1 by 1 by 1 MPI processor grid
  reading atoms ...
  8 atoms
# ---- define interatomic potential
include potential.mod
mass 1 24.305
mass 2 15.999

group Mg type 1
4 atoms in group Mg
group O type 2
4 atoms in group O

set group Mg charge 1.60395442224
  4 settings made for charge
set group O charge -1.60395442224
  4 settings made for charge

variable R_cut equal 10.0

pair_style buck/coul/long ${R_cut}
pair_style buck/coul/long 10
pair_coeff 1 1 0.0 0.5 0.0 ${R_cut}
pair_coeff 1 1 0.0 0.5 0.0 10
pair_coeff 1 2 1640.33364459 0.274285748818 0.0 ${R_cut}
pair_coeff 1 2 1640.33364459 0.274285748818 0.0 10
pair_coeff 2 2 138.503876614 0.167383398543 15.9463705464 ${R_cut}
pair_coeff 2 2 138.503876614 0.167383398543 15.9463705464 10

kspace_style pppm 1.0e-5

neighbor 1.0 bin
neigh_modify every 1 delay 0 check yes
# ---- define settings
compute eng all pe/atom
compute eatoms all reduce sum c_eng
# ---- run minimization
reset_timestep 0
fix 1 all box/relax iso 0.0 vmax 0.001
thermo 10
thermo_style custom step pe lx ly lz xy xz yz press pxx pyy pzz pxy pxz pyz c_eatoms
min_style cg
minimize 1e-25 1e-25 5000 10000
PPPM initialization ...
  G vector (1/distance) = 0.352384
  grid = 8 8 8
  stencil order = 5
  estimated absolute RMS force accuracy = 3.76636e-05
  estimated relative force accuracy = 2.6156e-06
  using double precision FFTs
  3d grid and FFT values/proc = 3375 512
Neighbor list info ...
  1 neighbor list requests
  update every 1 steps, delay 0 steps, check yes
  master list distance cutoff = 11
Memory usage per processor = 4.06549 Mbytes
Step PotEng Lx Ly Lz Xy Xz Yz Press Pxx Pyy Pzz Pxy Pxz Pyz eatoms 
       0   -105.40733       4.2565       4.2565       4.2565            0            0            0    42357.047    42357.047    42357.047    42357.047 -5.4591187e-11 1.2697943e-10 -3.1158894e-11   -105.40733 
      10   -105.43209    4.2922445    4.2922445    4.2922445            0            0            0   -4.9211524   -4.9211524   -4.9211524   -4.9211524 1.7090498e-11 -3.1779622e-11 -1.1443831e-10   -105.43209 
      12   -105.43209    4.2922402    4.2922402    4.2922402            0            0            0  -0.19512063  -0.19512063  -0.19512063  -0.19512063 3.2638439e-11 -8.1058727e-11 1.6032595e-10   -105.43209 
Loop time of 0.00899005 on 1 procs for 12 steps with 8 atoms

Minimization stats:
  Stopping criterion = linesearch alpha is zero
  Energy initial, next-to-last, final = 
        -105.407331285      -105.43208818      -105.43208818
  Force two-norm initial, final = 6.11638 6.94804e-05
  Force max component initial, final = 6.11638 2.86507e-05
  Final line search alpha, max atom move = 0.5 1.43253e-05
  Iterations, force evaluations = 12 25

Pair  time (%) = 0.00257373 (28.6286)
Kspce time (%) = 0.00152349 (16.9465)
Neigh time (%) = 0 (0)
Comm  time (%) = 0.00027585 (3.0684)
Outpt time (%) = 1.21593e-05 (0.135253)
Other time (%) = 0.00460482 (51.2213)

Nlocal:    8 ave 8 max 8 min
Histogram: 1 0 0 0 0 0 0 0 0 0
Nghost:    2189 ave 2189 max 2189 min
Histogram: 1 0 0 0 0 0 0 0 0 0
Neighs:    2344 ave 2344 max 2344 min
Histogram: 1 0 0 0 0 0 0 0 0 0

Total # of neighbors = 2344
Ave neighs/atom = 293
Neighbor list builds = 0
Dangerous builds = 0
unfix 1
# ---- define output variables ----
variable natoms equal "count(all)"
variable tot_energy equal "c_eatoms"
variable length_x equal "lx"
variable length_y equal "ly"
variable length_z equal "lz"
variable tilt_xy equal "xy"
variable tilt_xz equal "xz"
variable tilt_yz equal "yz"
variable tot_press equal "press"
variable press_xx equal "pxx"
variable press_yy equal "pyy"
variable press_zz equal "pzz"
variable press_xy equal "pxy"
variable press_xz equal "pxz"
variable press_yz equal "pyz"

# ---- output ----
print "pypospack:output_section:begin"
pypospack:output_section:begin
print "tot_energy = ${tot_energy}"
tot_energy = -105.432088180201
print "num_atoms = ${natoms}"
num_atoms = 8
print "xx = ${length_x}"
xx = 4.29224022422512
print "yy = ${length_y}"
yy = 4.29224022422512
print "zz = ${length_z}"
zz = 4.29224022422512
print "xy = ${tilt_xy}"
xy = 0
print "xz = ${tilt_xz}"
xz = 0
print "yz = ${tilt_yz}"
yz = 0
print "tot_press = ${tot_press}"
tot_press = -0.195120630166908
print "pxx = ${press_xx}"
pxx = -0.195120630011552
print "pyy = ${press_yy}"
pyy = -0.195120630547228
print "pzz = ${press_zz}"
pzz = -0.195120629941943
print "pxy = ${press_xy}"
pxy = 3.26384388476247e-11
print "pxz = ${press_xz}"
pxz = -8.10587270505021e-11
print "pyz = ${press_yz}"
pyz = 1.60325951029016e-10
print "pypospack:output_section:done"
pypospack:output_section:done
print "pypospack:lammps_sim:done"
pypospack:lammps_sim:done
#------------------------------------------------------------------------------
# RUN THERMOSTAT
# running using an NPT Nose-Hoover style thermostat
#------------------------------------------------------------------------------
variable tempdamp equal 0.1
variable pressdamp equal 1.0
# set initial velocities
velocity all create 500 6122467 mom yes dist gaussian loop all
# fix for Nose-Hoover style thermostat
fix 20 all npt temp 500 500 0.1 aniso 0.0 0.0 1.0 drag 1.0 couple xyz
variable boxx equal lx
variable boxy equal ly
variable boxz equal lz
variable boxp equal press
variable boxt equal temp
# calculate averages every 10000 steps
reset_timestep 0
fix 21 all ave/time 10 10 100 v_boxx v_boxy v_boxz v_boxp v_boxt file lattice.out
thermo_style custom step temp pe ke etotal press lx ly lz press pxx pyy pzz pxy pxz pyz vol
thermo_modify flush yes
thermo 100
run 100000
PPPM initialization ...
  G vector (1/distance) = 0.352034
  grid = 8 8 8
  stencil order = 5
  estimated absolute RMS force accuracy = 3.82705e-05
  estimated relative force accuracy = 2.65774e-06
  using double precision FFTs
  3d grid and FFT values/proc = 3375 512
Memory usage per processor = 3.06549 Mbytes
Step Temp PotEng KinEng TotEng Press Lx Ly Lz Press Pxx Pyy Pzz Pxy Pxz Pyz Volume 
       0          500   -105.43209   0.45241051   -104.97968    6109.5384    4.2922402    4.2922402    4.2922402    6109.5384    7110.3059     5875.162    5343.1473    154.99179    2397.5773   -624.24157    79.077342 
     100    99.058568   -105.00614  0.089630274   -104.91651   -453.87995    4.3108482    4.3108482    4.3108482   -453.87995    12806.081   -8275.5991   -5892.1213    1548.8243   -393.16103   -3195.8942    80.110266 
     200    333.48421   -105.09493   0.30174352   -104.79318    1541.1735    4.3069366    4.3069366    4.3069366    1541.1735    25000.336   -9820.1775   -10556.638    1323.7981   -998.21793   -3766.7468    79.892395 
     300    585.17321   -105.22119   0.52947702   -104.69172    5082.7372    4.3040443    4.3040443    4.3040443    5082.7372      4058.03    7587.9436    3602.2378   -2817.9422   -364.92393    1323.0333    79.731549 
     400    280.59166   -104.86033   0.25388523   -104.60645   -8925.6219    4.3213178    4.3213178    4.3213178   -8925.6219    15029.696    -20586.31   -21220.251    12995.454    3113.0182   -6790.0737    80.695373 
     500    605.68986   -105.09785   0.54804091   -104.54981     10469.57    4.3052645    4.3052645    4.3052645     10469.57    41278.308   -6478.1514   -3391.4456   -3172.5867   -2305.7969    5546.4754     79.79938 
     600    499.89082   -104.98377   0.45231171   -104.53146   -1621.6832    4.3147866    4.3147866    4.3147866   -1621.6832     9940.324   -13144.544   -1660.8295    3634.1227   -2021.5496   -5742.3344    80.330034 
     700     458.3653   -104.93864   0.41473856    -104.5239    -14153.99    4.3225113    4.3225113    4.3225113    -14153.99    6482.6028   -27761.599   -21182.975    5487.8146    4166.8413     -1117.58     80.76225 
     800    561.53773   -105.02457   0.50809114   -104.51648    29026.306    4.2967028    4.2967028    4.2967028    29026.306    58701.624    10330.967    18046.329    3021.6736   -307.97485   -1989.8037    79.324243 
     900    461.07594   -104.94152    0.4171912   -104.52432   -29815.988    4.3300048    4.3300048    4.3300048   -29815.988   -26707.847   -31036.926   -31703.192    7629.2642    1017.8403   -8360.7677    81.183007 
    1000    494.82458   -104.97115   0.44772768   -104.52342    14080.359    4.3001629    4.3001629    4.3001629    14080.359    32743.808    2112.5504     7384.718    1804.2396   -1340.6636    1747.3224    79.516034 
    1100    549.21742   -105.02536   0.49694346   -104.52842   -2284.3293    4.3182895    4.3182895    4.3182895   -2284.3293    30065.903   -14859.337   -22059.554    -1171.148    3647.7444    -11281.41    80.525837 
    1200    475.47737    -104.9564   0.43022192   -104.52617   -13474.335    4.3180404    4.3180404    4.3180404   -13474.335   -12623.985   -16334.721   -11464.298      11889.8    1128.5738    1329.9405    80.511908 
    1300    570.75433   -105.03743   0.51643051     -104.521    8857.2423    4.3022374    4.3022374    4.3022374    8857.2423    36252.995   -4943.1263   -4738.1413   -8412.3675    1279.9279   -7973.2255    79.631173 
    1400    370.96206    -104.8589   0.33565427   -104.52325    55.661081    4.3233724    4.3233724    4.3233724    55.661081    33250.055   -20214.755   -12868.317    6919.1959   -1744.9981   -1880.5705    80.810527 
    1500    635.18975   -105.09747   0.57473303   -104.52273   -10649.203    4.3074866    4.3074866    4.3074866   -10649.203    -12433.76   -9647.0162   -9866.8316    5610.3471    6757.4082    575.91716    79.923004 
    1600    446.45152   -104.93069   0.40395871   -104.52673    8822.3224    4.3127196    4.3127196    4.3127196    8822.3224    39318.712    -11509.04   -1342.7052   -1694.0711   -2685.6692   -4434.4779    80.214643 
    1700    414.83621   -104.90067   0.37535252   -104.52531   -5467.0186    4.3198789    4.3198789    4.3198789   -5467.0186    22508.639   -19040.829   -19868.865    7991.6703    1038.6548    2253.4757    80.614788 
    1800    603.05686   -105.06822   0.54565852   -104.52256   -1990.9457    4.3027252    4.3027252    4.3027252   -1990.9457   -1338.9665   -6044.3171    1410.4465   -1656.5379    1016.2234   -2669.0846    79.658264 
    1900    498.60106   -104.97613   0.45114472   -104.52499   -4063.5304    4.3202396    4.3202396    4.3202396   -4063.5304    26139.005   -19966.012   -18363.584   -29.056186     307.5578   -1694.0249    80.634984 
    2000    357.72128   -104.84929   0.32367373   -104.52562    628.24922     4.310674     4.310674     4.310674    628.24922    36097.322   -22029.088   -12183.487    7396.3331    765.56542   -1149.3339    80.100557 
    2100    624.13647   -105.08987   0.56473179   -104.52514   -9942.4267    4.3118069    4.3118069    4.3118069   -9942.4267   -4369.0326   -17026.463   -8431.7842   -7376.9312   -3140.4568   -6596.5574     80.16373 
    2200      520.777   -104.99654   0.47120997   -104.52533    4393.1683    4.3163968    4.3163968    4.3163968    4393.1683    43434.734   -19455.795   -10799.434    8728.1703    2509.7749   -2168.7157    80.420001 
    2300    323.63591   -104.82301   0.29283257   -104.53017    -2314.031    4.3099819    4.3099819    4.3099819    -2314.031      22850.3   -21115.416   -8676.9768    4900.3849    3365.3299   -7136.8413    80.061983 
    2400    706.05213   -105.16509    0.6388508   -104.52624    473.83134    4.3107326    4.3107326    4.3107326    473.83134    11288.067   -5888.6148   -3977.9584   -2226.6574   -504.52997   -5331.5297    80.103825 
    2500    417.93267   -104.90655   0.37815427   -104.52839   -5477.2057    4.3202675    4.3202675    4.3202675   -5477.2057    28753.993   -28111.097   -17074.513    6488.9029    2289.5955   -1779.7313    80.636548 
    2600    443.87586   -104.92827    0.4016282   -104.52664     8363.879    4.3016475    4.3016475    4.3016475     8363.879    30715.857   -1845.0511   -3779.1692   -2417.3358    5232.4873    -9133.672    79.598425 
    2700    662.29439    -105.1233   0.59925788   -104.52404   -16002.185      4.32325      4.32325      4.32325   -16002.185   -8171.8372   -26924.324   -12910.395     1293.144   -2163.9111    4096.2975    80.803661 
    2800    304.99191   -104.80325   0.27596309   -104.52728    5508.6682    4.3056033    4.3056033    4.3056033    5508.6682    44059.054   -15831.567   -11701.482    3198.3575    3061.0616   -9156.9238    79.818222 
    2900    596.02008   -105.06677    0.5392915   -104.52748   -2776.5383    4.3139181    4.3139181    4.3139181   -2776.5383     11234.31   -14030.547   -5533.3782   -8789.5867    74.693754    2530.9456    80.281536 
    3000      628.799    -105.0945   0.56895055   -104.52555   -10199.426    4.3180358    4.3180358    4.3180358   -10199.426     10460.76   -21792.428    -19266.61    7415.9788     2533.082    -1148.852    80.511647 
    3100    335.35544   -104.82994   0.30343665    -104.5265    8252.0749    4.3045861    4.3045861    4.3045861    8252.0749    37252.497   -12135.932   -360.33946    405.20366    3574.0175   -5128.6067    79.761661 
    3200    607.64366   -105.07356   0.54980875   -104.52375   -1542.3615    4.3189835    4.3189835    4.3189835   -1542.3615    20768.984   -11860.845   -13535.223   -4137.8525   -4190.4326    4269.7723    80.564671 
    3300     580.2353   -105.05173   0.52500909   -104.52672   -8976.4482    4.3116195    4.3116195    4.3116195   -8976.4482   -80.892262   -19532.162   -7316.2909    7379.3038    2360.9526   -10608.877    80.153275 
    3400    360.97253   -104.85639   0.32661553   -104.52978    11598.371    4.3081071    4.3081071    4.3081071    11598.371     42297.64    1473.2734    -8975.802   -2734.4407     3232.328    2393.7578    79.957547 
    3500    573.08886   -105.04342   0.51854285   -104.52487   -16959.728    4.3225516    4.3225516    4.3225516   -16959.728    3618.3479   -33569.136   -20928.397    2123.0681   -1841.0629   -9422.7572    80.764511 
    3600    538.16652   -105.00996   0.48694437   -104.52301    8726.2669    4.2987914    4.2987914    4.2987914    8726.2669    17638.841     5641.906    2898.0539    2391.0246     2800.205   -822.83453    79.439976 
    3700    378.05072   -104.86818   0.34206823   -104.52611   -8347.7991    4.3237951    4.3237951    4.3237951   -8347.7991    28998.933   -29424.503   -24617.827   -5381.3764    3264.6435   -3666.3348    80.834234 
    3800    580.44235    -105.0472   0.52519644     -104.522    5657.4772    4.3062991    4.3062991    4.3062991    5657.4772    29490.782   -10909.068   -1609.2827    4933.0279    1897.8828    -4735.027    79.856921 
    3900    525.25621    -105.0006   0.47526285   -104.52534   -6229.7688    4.3137549    4.3137549    4.3137549   -6229.7688    1465.9228   -6673.5646   -13481.665   -2791.3198    3654.1019    1655.0717    80.272426 
    4000    366.73532    -104.8581   0.33182982   -104.52627    7798.0959    4.3159607    4.3159607    4.3159607    7798.0959     56950.51   -18584.072    -14972.15    -8539.274   -4495.8741    -4342.429    80.395632 
    4100    628.93389    -105.0941   0.56907261   -104.52502   -221.15977    4.3063291    4.3063291    4.3063291   -221.15977    1715.8679    4056.7121   -6436.0593    8865.6656    7232.6938    2483.4826     79.85859 
    4200    426.67013   -104.91528    0.3860601   -104.52922   -7423.4557    4.3161284    4.3161284    4.3161284   -7423.4557    15301.291   -16693.251   -20878.406   -6235.6027    5123.3133   -1200.8523    80.405002 
    4300    439.64806   -104.92342    0.3978028   -104.52562    6990.3941    4.3147009    4.3147009    4.3147009    6990.3941    44918.653   -9710.2141   -14237.256    1444.8636   -3570.0362   -1456.3147    80.325247 
    4400    670.92511   -105.13177   0.60706714    -104.5247   -3842.6403    4.3045569    4.3045569    4.3045569   -3842.6403   -5053.6531    227.44916   -6701.7169    549.47497    6314.9335    58.369272    79.760037 
    4500    333.96178   -104.83106   0.30217564   -104.52889    -9379.936    4.3215121    4.3215121    4.3215121    -9379.936    10120.648   -15420.561   -22839.894    -3804.896     -323.807   -5097.3463    80.706254 
    4600    548.96249   -105.01873   0.49671279   -104.52202    14575.417    4.3055473    4.3055473    4.3055473    14575.417      51722.6   -3948.3287   -4048.0212     1204.596    3553.0396   -2319.7876    79.815106 
    4700    490.65515   -104.97047   0.44395509   -104.52651   -9669.0004    4.3142669    4.3142669    4.3142669   -9669.0004   -11968.527    5190.6121   -22229.086    -606.9491    2633.0417   -2255.8366    80.301014 
    4800    573.55876   -105.04405   0.51896802   -104.52508   -45.214647     4.315314     4.315314     4.315314   -45.214647    24696.621   -12458.983   -12373.282   -5324.8943   -3928.4785   -7310.5807    80.359496 
    4900    420.68876   -104.90523   0.38064803   -104.52458    15294.682    4.3067317    4.3067317    4.3067317    15294.682    43644.528    14978.748    -12739.23    5895.1611    9312.7376    2504.5966    79.880992 
    5000    514.70518   -104.99214   0.46571607   -104.52643   -13265.004    4.3161246    4.3161246    4.3161246   -13265.004   -9209.4236   -13707.409    -16878.18   -6025.1992    1172.9022   -8111.3792    80.404791 
    5100    607.57099   -105.07426     0.549743   -104.52452    2762.5339    4.3121219    4.3121219    4.3121219    2762.5339    21858.674   -4300.6202   -9270.4519   -3231.8166   -2871.0551    4379.0401    80.181299 
    5200    351.10725   -104.84555   0.31768922   -104.52786    8064.1845    4.3080303    4.3080303    4.3080303    8064.1845    38800.278     6099.352   -20707.077    5825.1228    4990.7489   -2495.6744    79.953271 
    5300    564.35508   -105.03676   0.51064034   -104.52612   -17035.871    4.3197421    4.3197421    4.3197421   -17035.871   -10076.391   -24589.182   -16442.038   -11320.546   -1630.9859    269.07755    80.607131 
    5400    574.99426   -105.04401   0.52026689   -104.52375    10890.109    4.3033332    4.3033332    4.3033332    10890.109     25230.68    14164.482   -6724.8336   -1084.0064    6344.5435    735.79573    79.692036 
    5500     411.9662   -104.90247   0.37275568   -104.52972   -7126.1285    4.3178915    4.3178915    4.3178915   -7126.1285    29271.336   -19970.476   -30679.246   -2968.8177    1366.4637   -3207.6662    80.503578 
    5600    562.72655    -105.0345    0.5091668   -104.52533    919.21948    4.3123596    4.3123596    4.3123596    919.21948    8111.9756   -751.79149   -4602.5257   -6120.4442   -3743.0928    2926.4911    80.194559 
    5700    555.33953   -105.02754   0.50248288   -104.52506     2841.265    4.3074337    4.3074337    4.3074337     2841.265    33940.542   -7442.8966   -17973.851    635.31276    9024.7009   -5011.3183    79.920063 
    5800     313.5063   -104.81158   0.28366709   -104.52791    221.13689     4.319485     4.319485     4.319485    221.13689    33580.214   -14968.126   -17948.677   -3782.4922     2419.149    346.62794     80.59274 
    5900    710.91098   -105.16739    0.6432472   -104.52414   -4836.4168    4.3054723    4.3054723    4.3054723   -4836.4168    3590.3445   -11065.609    -7033.986   -3960.1898   -149.53123   -3410.6794    79.810937 
    6000    395.13759   -104.88548   0.35752879   -104.52795    -1087.045    4.3160784    4.3160784    4.3160784    -1087.045    32689.786   -8053.4007    -27897.52    609.17486    4508.3601   -3450.0035     80.40221 
    6100    452.94393   -104.93605   0.40983318   -104.52622   -4112.5122    4.3141465    4.3141465    4.3141465   -4112.5122    25303.174   -24424.967   -13215.743   -12577.689   -1121.2607    69.477666    80.294293 
    6200    638.83523   -105.10253   0.57803154    -104.5245    1662.9431    4.3056977    4.3056977    4.3056977    1662.9431    11892.482    7181.4372    -14085.09    3007.3039    4892.6303   -3830.5003    79.823473 
    6300    373.77275   -104.86732   0.33819744   -104.52912   -5332.1711    4.3207374    4.3207374    4.3207374   -5332.1711    33130.864   -22199.266   -26928.112   -3024.6322   -1427.4768    -184.9849    80.662861 
    6400    453.00369   -104.93669   0.40988726   -104.52681    11176.342    4.3042963    4.3042963    4.3042963    11176.342    34075.283    90.621447   -636.87742   -8348.1548   -3544.1817   -879.10912    79.745552 
    6500    704.22203   -105.16267   0.63719489   -104.52547   -14933.095    4.3187332    4.3187332    4.3187332   -14933.095   -3590.6384   -12508.402   -28700.245    5156.3875    9709.1646   -4444.5641    80.550666 
    6600    292.95926    -104.7934    0.2650757   -104.52832    13096.507     4.308538     4.308538     4.308538    13096.507    56898.098   -9230.1739   -8378.4041   -7591.6578   -18.427133     3129.294    79.981545 
    6700    539.70378   -105.01686   0.48833532   -104.52852   -7844.7555    4.3120817    4.3120817    4.3120817   -7844.7555    13591.461   -15932.915   -21192.813   -5030.2379   -453.31043   -6429.3319    80.179057 
    6800    639.49245   -105.10425    0.5786262   -104.52562   -9597.6336    4.3172427    4.3172427    4.3172427   -9597.6336    7466.1122   -12799.175   -23459.838    -1896.829    4704.3505      1713.42    80.467293 
    6900    255.72342   -104.75948   0.23138393    -104.5281    9450.0953    4.3086874    4.3086874    4.3086874    9450.0953    55670.434   -13210.015   -14110.132   -8507.8962   -968.79808   -3726.3012    79.989864 
    7000        697.8   -105.15624   0.63138411   -104.52486   -12209.124    4.3143234    4.3143234    4.3143234   -12209.124    -4953.167   -7933.4681   -23740.738    1901.5611    7756.5138   -5434.7793    80.304167 
    7100    444.96953   -104.92912   0.40261778    -104.5265   -961.95156    4.3138552    4.3138552    4.3138552   -961.95156    15756.114   -1343.6883    -17298.28   -7448.9951    2376.0417    1502.9047    80.278027 
    7200    379.49653   -104.87068   0.34337643   -104.52731    6477.4378    4.3072737    4.3072737    4.3072737    6477.4378    52186.124   -17924.796   -14829.014   -2706.4025   -1978.1435   -10610.514    79.911153 
    7300    693.43142   -105.15215   0.62743132   -104.52472   -11361.951    4.3197355    4.3197355    4.3197355   -11361.951   -10023.349    2624.0906   -26686.595    2721.1304    9381.9366    4112.5301    80.606761 
    7400    433.67142   -104.91998   0.39239502   -104.52759    3153.9593    4.3075302    4.3075302    4.3075302    3153.9593    40657.067   -17149.813   -14045.377   -6726.2157   -1171.7754   -9963.1251    79.925433 
    7500    419.67915   -104.90745   0.37973451   -104.52771     2616.541    4.3133732    4.3133732    4.3133732     2616.541    32056.144   -3376.4214     -20830.1   -4114.9377    650.00317     450.4262    80.251122 
    7600    700.59219   -105.15767   0.63391054   -104.52376   -13085.726    4.3153561    4.3153561    4.3153561   -13085.726   -7161.4911   -10649.024   -21446.664    2709.9146    5646.6599   -4784.0387    80.361849 
    7700     329.6104    -104.8257   0.29823842   -104.52747    8982.0686    4.3063914    4.3063914    4.3063914    8982.0686    43619.516   -4730.2526   -11943.057   -8314.8023    1430.3058   -4335.0615    79.862058 
    7800    534.12644   -105.00907   0.48328883   -104.52578   -9327.9654    4.3222864    4.3222864    4.3222864   -9327.9654    18030.755   -11460.033   -34554.619    4210.0549    11832.671    1466.9068    80.749642 
    7900    536.03181   -105.00995   0.48501284   -104.52493     1098.327     4.303782     4.303782     4.303782     1098.327    10853.764    1711.1672     -9269.95   -7643.9377   -1500.8788   -7905.6586     79.71697 
    8000    441.83472   -104.92743   0.39978134   -104.52765   -3748.9234    4.3166713    4.3166713    4.3166713   -3748.9234    23018.205   -13547.201   -20717.775   -4472.5069    105.21509    3271.8277     80.43535 
    8100    483.52203   -104.96262   0.43750089   -104.52512   -1508.0862    4.3144633    4.3144633    4.3144633   -1508.0862    29369.336   -4427.0264   -29466.568    1529.1376    8484.9504    -6133.669    80.311979 
    8200    555.77878   -105.02698   0.50288032    -104.5241    3918.5944    4.3032319    4.3032319    4.3032319    3918.5944    16254.259   -2904.3208   -1594.1546   -10983.937   -2654.7152   -1385.1138    79.686406 
    8300    463.10329   -104.94254   0.41902559   -104.52351    -14643.72     4.327519     4.327519     4.327519    -14643.72     15414.11   -25235.861   -34109.409    2363.8639    4878.8407   -2063.7004    81.043269 
    8400    422.84694   -104.90361    0.3826008   -104.52101    22354.532    4.2953448    4.2953448    4.2953448    22354.532    54675.459    14653.708   -2265.5715   -1035.6335   -261.49467   -5098.1618    79.249058 
    8500    668.89096    -105.1304    0.6052266   -104.52518   -25404.578    4.3237236    4.3237236    4.3237236   -25404.578   -23316.372   -29383.167   -23514.194   -7189.3821    1972.3094   -2216.3152    80.830222 
    8600    338.99308    -104.8336   0.30672806   -104.52687    8284.4243    4.3105783    4.3105783    4.3105783    8284.4243    41234.001    8060.1513    -24440.88    4654.1035    10690.852   -4544.0399    80.095222 
    8700    554.75808    -105.0261   0.50195677   -104.52414    4449.8774    4.3051649    4.3051649    4.3051649    4449.8774    33658.524    -11583.13   -8725.7619   -4830.9233   -3766.6435   -5218.6658    79.793839 
    8800    571.05119   -105.04001   0.51669912   -104.52331    -22156.33    4.3250208    4.3250208    4.3250208    -22156.33   -26132.555    -11675.36   -28661.076   -5315.9799     3929.563    412.89908    80.902997 
    8900    404.54074   -104.88989   0.36603696   -104.52385    17235.252    4.2994291    4.2994291    4.2994291    17235.252    64682.987    1163.3471    -14140.58    2386.5445    5855.2673   -6804.7891    79.475336 
    9000    532.12602   -105.00776   0.48147881   -104.52629   -7051.2646    4.3202664    4.3202664    4.3202664   -7051.2646     8572.637    -15341.83   -14384.601   -9035.3643    647.70818    3195.0014    80.636485 
    9100    582.56328   -105.05279    0.5271155   -104.52567   -10690.534    4.3125813    4.3125813    4.3125813   -10690.534   -2238.1833   -7413.1127   -22420.305    3602.9382    6706.4158   -3856.6761    80.206927 
    9200    387.51633    -104.8762   0.35063292   -104.52557    19705.702    4.3058945    4.3058945    4.3058945    19705.702    67293.105    3013.9332   -11189.931   -932.24489   -1791.2141   -827.30924    79.834418 
    9300    575.76144   -105.04784   0.52096105   -104.52687   -13104.913    4.3191708    4.3191708    4.3191708   -13104.913   -3649.3415   -15188.236   -20477.162   -7591.7405    3214.1329    1770.8699    80.575152 
    9400    471.25995    -104.9542   0.42640591    -104.5278    2490.8632    4.3075698    4.3075698    4.3075698    2490.8632    25529.858    3776.0618    -21833.33    4770.4283    10198.262   -6364.8695    79.927634 
    9500    506.40121   -104.98466   0.45820245   -104.52646    6376.2685    4.3150348    4.3150348    4.3150348    6376.2685    47062.166    -12868.13    -15065.23    -11052.96   -4596.1206    3495.1158    80.343899 
    9600    520.42362   -104.99975   0.47089023   -104.52886   -11410.698    4.3137823    4.3137823    4.3137823   -11410.698   -5884.3868   -7314.6804   -21033.028    898.27774    4065.0858   -8330.8338    80.273959 
    9700    464.20507   -104.94982    0.4200225    -104.5298    2947.4932    4.3104876    4.3104876    4.3104876    2947.4932    29677.282   -4410.5217   -16424.281    1906.1374    4434.3533    949.33997    80.090169 
    9800    505.40402   -104.98637   0.45730018   -104.52907    8394.7234    4.3108921    4.3108921    4.3108921    8394.7234    49664.025   -14180.836   -10299.019   -2904.8623    1712.6939    -6083.477    80.112718 
    9900    469.01369   -104.95329   0.42437345   -104.52892   -18535.281    4.3204825    4.3204825    4.3204825   -18535.281   -14847.299   -9556.7477   -31201.796    3602.4204    9153.2371   -4536.5437    80.648582 
   10000    570.75908   -105.04083   0.51643481    -104.5244    21737.771    4.3008538    4.3008538    4.3008538    21737.771    67214.419   -117.97752   -1883.1285   -518.31947   -3014.9401   -1309.3318    79.554369 
   10100    375.99702   -104.87172      0.34021   -104.53151   -9471.3225    4.3223872    4.3223872    4.3223872   -9471.3225    15305.863   -12198.496   -31521.334   -3136.7958    6514.8663   -6687.1393    80.755295 
   10200    638.21723   -105.10332   0.57747236   -104.52585   -6183.9866    4.3080368    4.3080368    4.3080368   -6183.9866    3396.7121   -7633.2496   -14315.422    2874.5878    7667.0141    681.82933    79.953637 
   10300    387.33841   -104.87789   0.35047193   -104.52742    16553.035    4.3097289    4.3097289    4.3097289    16553.035    65357.787   -5001.4714    -10697.21   -2385.3617   -7042.9341   -2958.5023    80.047885 
   10400    458.73226   -104.94414   0.41507059   -104.52907   -17968.356     4.321027     4.321027     4.321027   -17968.356   -748.70635   -23992.001   -29164.362   -1543.8932    6904.0546   -2177.0839    80.679079 
   10500    597.55931   -105.06514   0.54068422   -104.52445     6583.602    4.3041074    4.3041074    4.3041074     6583.602    21261.998    -28.52052   -1482.6714    8318.9597    4636.5334    2029.1108    79.735054 
   10600    386.67928   -104.87828   0.34987554   -104.52841    2299.3749    4.3167341    4.3167341    4.3167341    2299.3749     52803.43   -21842.596    -24062.71   -6304.4671    4963.6032   -4392.7356    80.438855 
   10700    507.67641   -104.98687   0.45935629   -104.52751   -7443.7003    4.3153785    4.3153785    4.3153785   -7443.7003   -2182.9415    588.34916   -20736.509    4433.5164    8064.9643    2128.0337      80.3631 
   10800    600.05919   -105.06861   0.54294617   -104.52567    9655.0696    4.3050295    4.3050295    4.3050295    9655.0696    45841.146   -8977.7702   -7898.1675   -2922.7129   -3129.7192   -4153.5842     79.78631 
   10900    361.53366   -104.85611   0.32712326   -104.52898   -2154.2201    4.3199279    4.3199279    4.3199279   -2154.2201    22998.467    -3988.593   -25472.534   -3718.0664    11320.933   -2139.8724    80.617532 
   11000    582.94468   -105.05214    0.5274606   -104.52468   -3247.7722    4.3075461    4.3075461    4.3075461   -3247.7722    7316.5362   -8400.8659   -8658.9869    1732.4665    5485.1129   -132.89148    79.926318 
   11100    496.82937   -104.97606   0.44954165   -104.52652    3468.8481    4.3132077    4.3132077    4.3132077    3468.8481    37264.413    -11914.28   -14943.588    1689.1598   -4963.5221   -8729.5283    80.241884 
   11200    441.93907   -104.92761   0.39987576   -104.52773   -7239.8204    4.3167873    4.3167873    4.3167873   -7239.8204     18772.01   -13741.899   -26749.572    703.11843    12078.387    2928.2988    80.441831 
   11300    539.41605   -105.01364   0.48807497   -104.52557   -3207.5228      4.30729      4.30729      4.30729   -3207.5228    14193.843   -15839.944   -7976.4679    7937.9359   -260.97858   -11496.097    79.912063 
   11400    529.74974   -105.00495    0.4793287   -104.52562    1112.6296    4.3165852    4.3165852    4.3165852    1112.6296    33459.905   -8210.3853   -21911.631   -1016.6685    3534.2287    2151.4561    80.430533 
   11500    404.27266    -104.8959   0.36579439    -104.5301   -4607.8478    4.3114311    4.3114311    4.3114311   -4607.8478    18645.709   -14886.482   -17582.771     3263.852    4881.1984   -5615.6619    80.142772 
   11600    620.55029   -105.09005   0.56148695   -104.52856    4891.1431     4.309098     4.309098     4.309098    4891.1431    26540.039   -3622.9489    -8243.661    1644.0885    -2687.906   -3818.0468    80.012732 
   11700    422.47314    -104.9101   0.38226257   -104.52784   -5843.4737     4.321619     4.321619     4.321619   -5843.4737     25629.13   -18057.667   -25101.884   -4434.1351    10769.197    2832.5483    80.712244 
   11800    467.10491   -104.94902   0.42264634   -104.52638    4771.4533    4.2994666    4.2994666    4.2994666    4771.4533    28945.558   -4120.3353   -10510.863     6825.338    1961.7053   -9678.2704    79.477419 
   11900    672.46601   -105.13445   0.60846138   -104.52599   -11290.219    4.3234643    4.3234643    4.3234643   -11290.219    3782.0459   -22372.683   -15280.019   -144.10577     585.7412    5224.1451    80.815679 
   12000    301.77413   -104.80271   0.27305158   -104.52966    21.182579    4.3085304    4.3085304    4.3085304    21.182579    39448.133   -13356.172   -26028.414    1387.0297    16727.885   -8957.3357     79.98112 
   12100    580.64351   -105.05352   0.52537845   -104.52814   -616.98009    4.3080011    4.3080011    4.3080011   -616.98009    15076.495   -16556.573   -370.86299    4988.5495   -1597.6881   -595.18175    79.951649 
   12200    642.55231   -105.10596   0.58139483   -104.52457   -14929.222    4.3226011    4.3226011    4.3226011   -14929.222   -618.91908   -16042.941   -28125.807   -4795.1685    5942.7211   -3381.2566    80.767286 
   12300    241.80453   -104.74649   0.21878982    -104.5277     9719.753    4.3016824    4.3016824    4.3016824     9719.753    50303.174   -11444.145   -9699.7697    1815.3144    3948.4243   -7746.4296    79.600357 
   12400    720.42372   -105.17809   0.65185452   -104.52623   -4570.5928    4.3181702    4.3181702    4.3181702   -4570.5928    10525.951   -13499.937   -10737.792   -2776.8414   -1197.3421    2501.9367    80.519163 
   12500    459.43544   -104.94593   0.41570684   -104.53023   -8846.9625    4.3134161    4.3134161    4.3134161   -8846.9625    11258.196   -12886.044    -24913.04     2502.308    9277.5288   -7472.5592    80.253516 
   12600    353.79973    -104.8505   0.32012543   -104.53037     13688.38    4.3061719    4.3061719    4.3061719     13688.38    49437.746    -9002.033    629.42595    5123.0447   -1996.7862   -562.45637    79.849845 
   12700    684.19828   -105.14466   0.61907698   -104.52558   -12181.911    4.3192352    4.3192352    4.3192352   -12181.911   -2897.0131   -16270.156   -17378.563    4757.8672    2968.7621   -1708.2374    80.578759 
   12800    365.19005   -104.85721   0.33043163   -104.52678   -1172.1898    4.3066639    4.3066639    4.3066639   -1172.1898    18082.873   -9375.2012   -12224.241   -1372.9051    12181.486   -6290.6287    79.877218 
   12900    511.96464   -104.98654   0.46323637   -104.52331     1882.055    4.3169197    4.3169197    4.3169197     1882.055    39312.988   -23720.323   -9946.5003    7842.5342   -6854.0888    1625.2182    80.449234 
   13000    512.38839    -104.9885   0.46361978   -104.52488   -5096.0813    4.3091915    4.3091915    4.3091915   -5096.0813    366.32805   -627.83475   -15026.737   -2331.7767    8788.4051   -7634.7571    80.017945 
   13100    482.88171   -104.96348   0.43692152   -104.52655    -7386.329    4.3145567    4.3145567    4.3145567    -7386.329    14077.067   -22142.993   -14093.062    8479.1101    6513.3879   -852.62605    80.317197 
   13200    433.87358   -104.91648   0.39257794    -104.5239    12989.869    4.3106297    4.3106297    4.3106297    12989.869    46476.461   -2616.7781   -4890.0749   -975.22924    -1048.916   -1905.6793     80.09809 
   13300    569.64776   -105.04117   0.51542927   -104.52574   -14750.123    4.3133215    4.3133215    4.3133215   -14750.123   -5824.0412   -13639.311   -24787.017    1458.0015    12213.382   -7821.9038    80.248234 
   13400    479.28751   -104.95846   0.43366941   -104.52479    4540.1482    4.3143609    4.3143609    4.3143609    4540.1482    25991.227   -13370.973    1000.1897    6544.4901   -1650.5447    3313.9176    80.306262 
   13500     486.8377   -104.96582   0.44050098   -104.52532    2836.2505    4.3083689    4.3083689    4.3083689    2836.2505    39839.931   -11412.394   -19918.786   -2438.3139    9781.2581   -8908.6608    79.972128 
   13600    483.19716   -104.96381   0.43720694   -104.52661   -8213.8738    4.3151066    4.3151066    4.3151066   -8213.8738   -7662.0982   -11318.765   -5660.7582   -35.889552    9058.7366    3945.4428    80.347912 
   13700    559.05087   -105.03107   0.50584097   -104.52523    1374.2354    4.3107406    4.3107406    4.3107406    1374.2354    27074.017   -12464.114   -10487.196    2642.6281   -5765.0824   -4200.8804     80.10427 
   13800     396.4051   -104.88575   0.35867567   -104.52707    322.32133    4.3128651    4.3128651    4.3128651    322.32133    28021.699   -8081.6919   -18973.043    -1465.359    11308.298    -1040.041    80.222766 
   13900    571.76561   -105.04156   0.51734554   -104.52422   -5591.2767    4.3125537    4.3125537    4.3125537   -5591.2767   -688.75178   -9156.2367   -6928.8416    4887.9693    2587.1236    2058.7909    80.205387 
   14000    527.30056   -105.00017   0.47711263   -104.52306    1530.1033    4.3108386    4.3108386    4.3108386    1530.1033    25590.967   -9319.8012   -11680.856    2798.0956   -1117.9204   -6156.6328    80.109731 
   14100    381.49603   -104.87027   0.34518563   -104.52508    2112.9841     4.314054     4.314054     4.314054    2112.9841    27262.377    -3792.184   -17131.241    5474.8616    9761.7261    5823.5234    80.289124 
   14200    624.76159   -105.08779   0.56529741    -104.5225   -2471.9738    4.3109306    4.3109306    4.3109306   -2471.9738    4671.1238   -10174.638   -1912.4069    8554.8651   -3201.9491   -6830.9235    80.114864 
   14300    448.73318   -104.92977   0.40602321   -104.52374    241.17367    4.3145169    4.3145169    4.3145169    241.17367    23490.001   -3149.5205   -19616.959   -4196.6955    11632.501    2390.8378    80.314972 
   14400    473.16467   -104.95198   0.42812934   -104.52385    5300.8788    4.3082246    4.3082246    4.3082246    5300.8788    35175.673   -10762.708   -8510.3287     5761.691    3268.6173   -3829.8785    79.964093 
   14500    538.22796   -105.01152   0.48699997   -104.52452   -10921.736    4.3169087    4.3169087    4.3169087   -10921.736   -7809.0641   -9577.0111   -15379.134    3737.1454   -1394.8319   -2032.5633     80.44862 
   14600    480.84377   -104.95985   0.43507755   -104.52478     4614.296    4.3077876    4.3077876    4.3077876     4614.296    33396.449   -1254.7749   -18298.786   -3156.5384    13940.014    635.64451    79.939758 
   14700    414.52891   -104.90109   0.37507447   -104.52601    268.39442    4.3156809    4.3156809    4.3156809    268.39442    22935.043   -10463.886   -11665.973    3658.2912   -2997.0398   -2593.4934    80.379994 
   14800    650.25591   -105.11106   0.58836522    -104.5227   -7822.7528    4.3099842    4.3099842    4.3099842   -7822.7528    646.46215   -6623.4364   -17491.284   -452.99007     8794.147   -445.93725    80.062108 
   14900    394.36413   -104.88245   0.35682895   -104.52562    4837.5336    4.3130066    4.3130066    4.3130066    4837.5336     29362.54   -3816.9107   -11033.029    4274.7276    7636.3479   -197.78072     80.23066 
   15000    502.82024   -104.97959   0.45496232   -104.52463    901.53841    4.3110935    4.3110935    4.3110935    901.53841    33285.446   -18074.992   -12505.839   -803.30068    2920.8998   -3111.8311    80.123948 
   15100    527.29463   -105.00238   0.47710726   -104.52527   -4154.6969     4.313335     4.313335     4.313335   -4154.6969   -678.14736    -1038.556   -10747.387   -2245.9906    13135.143    4481.0109     80.24899 
   15200    498.01799   -104.97549   0.45061715   -104.52488    758.46663     4.312751     4.312751     4.312751    758.46663    27987.395   -11643.898   -14068.097    5338.0306   -2428.1481    -935.4723      80.2164 
   15300    486.56119   -104.96628   0.44025079   -104.52603    2489.1291    4.3085299    4.3085299    4.3085299    2489.1291     28247.92   -10867.944   -9912.5883     4336.668    2543.6605    436.47727    79.981091 
   15400    545.64188   -105.01927   0.49370824   -104.52557    -11622.78    4.3179432    4.3179432    4.3179432    -11622.78   -3847.9276   -6292.8577   -24727.556   -3416.4052    12431.207    3874.8727    80.506467 
   15500     488.7624   -104.96653   0.44224249   -104.52429    11845.196    4.3047779    4.3047779    4.3047779    11845.196    49837.087   -12990.517   -1310.9813    10033.308   -7203.3364   -5419.7616    79.772325 
   15600    438.77037   -104.92493   0.39700865   -104.52793   -5082.0372    4.3175657    4.3175657    4.3175657   -5082.0372    15004.109   -3843.1342   -26407.086    3911.0726    10282.796    8370.6758    80.485353 
   15700    633.55276   -105.09861   0.57325185   -104.52536   -149.80602    4.3093394    4.3093394    4.3093394   -149.80602    9120.7564   -4367.0194   -5203.1551    1592.6932    5830.2222   -6248.6281    80.026184 
   15800    353.01431   -104.84651   0.31941477   -104.52709    8826.3461    4.3114248    4.3114248    4.3114248    8826.3461    44171.046   -2549.6908   -15142.317   -1005.5776    1731.0665    4493.0615    80.142419 
   15900    502.26592    -104.9796   0.45446076   -104.52514   -7457.6134    4.3174871    4.3174871    4.3174871   -7457.6134     14656.13   -14024.336   -23004.634   -3292.7847     13399.83   -2784.2113    80.480961 
   16000    629.60927   -105.09307    0.5696837   -104.52338    4800.4095    4.3028863    4.3028863    4.3028863    4800.4095    16813.436    2085.4356   -4497.6429    6727.7774   -4955.0628   -1771.3305    79.667212 
   16100    374.19451   -104.86796   0.33857905   -104.52938   -6483.6031    4.3226142    4.3226142    4.3226142   -6483.6031    32539.157   -21239.169   -30750.797   -1967.2206    13274.967    5166.6125     80.76802 
   16200    517.11903   -104.99469   0.46790016   -104.52678    9171.0449    4.3034521    4.3034521    4.3034521    9171.0449    26848.649    7663.8501   -6999.3647   -1429.2177    9424.2907   -4483.3281    79.698642 
   16300    543.23021   -105.02057   0.49152611   -104.52904    -5848.424    4.3140752    4.3140752    4.3140752    -5848.424    20016.641   -18372.144   -19189.769    5111.7405   -3718.3545    7805.2431    80.290311 
   16400     314.4479   -104.81243   0.28451907   -104.52791    4034.6637    4.3162436    4.3162436    4.3162436    4034.6637     42179.83   -9873.1826   -20202.656    2248.1075    14337.822   -1478.9959    80.411443 
   16500    664.77442   -105.12542   0.60150187   -104.52392    2331.6802    4.3011164    4.3011164    4.3011164    2331.6802    16647.241   -2516.4862   -7135.7146   -1948.6819      285.665     2949.182    79.568944 
   16600    461.00146   -104.94195   0.41712381   -104.52482   -15364.361    4.3250234    4.3250234    4.3250234   -15364.361    5610.7359   -29823.595   -21880.223    4171.7826    2882.4482    2018.6984    80.903141 
   16700    392.02195   -104.87793    0.3547097   -104.52322    13384.711    4.3016056    4.3016056    4.3016056    13384.711    48677.575    4272.9757   -12796.417   -1653.9829    6493.4242    275.49896    79.596096 
   16800    603.63715   -105.07179   0.54618358    -104.5256   -5918.0141    4.3129517    4.3129517    4.3129517   -5918.0141    8503.9451    -15004.04   -11253.947    7239.4691   -3970.5082     2262.124    80.227595 
   16900    443.45174   -104.92847   0.40124445   -104.52722   -9810.6546     4.318989     4.318989     4.318989   -9810.6546     8061.467   -7850.0124   -29643.418     1231.986     12404.68    103.72173    80.564979 
   17000    521.58366   -104.99664   0.47193986    -104.5247    13718.801    4.2967644    4.2967644    4.2967644    13718.801    48623.038   -816.78425   -6649.8516    1295.6657    3174.9681   -4834.7754    79.327657 
   17100    571.81075     -105.044   0.51738638   -104.52661   -18980.566    4.3263614    4.3263614    4.3263614   -18980.566   -16006.036   -16663.412   -24272.249    5854.8376    -1566.076     3437.766    80.978252 
   17200    427.53504   -104.91493   0.38684269   -104.52809    5349.0107    4.3014727    4.3014727    4.3014727    5349.0107    30507.353    163.82318   -14624.144   -5094.4527    16600.176   -5350.9046     79.58872 
   17300    518.36901   -104.99729   0.46903118   -104.52826    5079.6547    4.3108866    4.3108866    4.3108866    5079.6547    31614.605   -4349.5059   -12026.136    -4203.492   -1905.1459    6041.7177    80.112409 
   17400    566.13563   -105.03691   0.51225141   -104.52466   -18708.069    4.3194656    4.3194656    4.3194656   -18708.069   -13953.126   -15667.572   -26503.508    3610.3372    5922.9296   -656.25164    80.591652 
   17500    415.03861    -104.8981   0.37553566   -104.52257    15949.147    4.2958698    4.2958698    4.2958698    15949.147     45783.95    8403.7181   -6340.2273   -920.17986    5838.2673    1675.5526    79.278117 
   17600    604.26465   -105.06902   0.54675135   -104.52227   -12352.018    4.3243054    4.3243054    4.3243054   -12352.018    8011.9684   -18836.305   -26231.718    1196.1254   -2207.1307     5855.215    80.862858 
   17700    405.95664   -104.89385    0.3673181   -104.52653    4392.7202    4.3010448    4.3010448    4.3010448    4392.7202    10502.804    11909.904   -9234.5472    1796.4512    11567.823   -2336.7305    79.564971 
   17800     497.7999    -104.9777   0.45041981   -104.52728    3262.2477    4.3131585    4.3131585    4.3131585    3262.2477    34610.761   -9720.7807   -15103.237   -484.67318   -2783.4387    7784.9731    80.239136 
   17900     523.4748   -104.99868     0.473651   -104.52503   -2732.4231    4.3149573    4.3149573    4.3149573   -2732.4231    20835.367   -8238.0774   -20794.559    2969.8501    1100.5314   -5335.8833    80.339568 
   18000    444.64612     -104.928   0.40232515   -104.52568   -4725.7386    4.3044613    4.3044613    4.3044613   -4725.7386   -1088.6079      934.996   -14023.604   -3612.5609    10791.372    2107.5411    79.754727 
   18100    611.15474   -105.07717   0.55298565   -104.52419    385.85851     4.317108     4.317108     4.317108    385.85851    36346.436   -17379.163   -17809.698    838.19598   -4138.9651   -3838.2676    80.459761 
   18200    286.67947    -104.7885   0.25939361   -104.52911    7479.2574    4.3071939    4.3071939    4.3071939    7479.2574    31131.139    10954.903    -19648.27    6313.8602    4740.0511    -1976.659    79.906713 
   18300    699.57245   -105.15949   0.63298785   -104.52651   -8864.8062    4.3103468    4.3103468    4.3103468   -8864.8062   -1666.9885   -12334.739   -12592.691   -6477.1482    2518.7433   -1000.5789    80.082317 
   18400    379.18713   -104.86961   0.34309649   -104.52651    5910.2753    4.3141287    4.3141287    4.3141287    5910.2753    28682.702    4511.3089   -15463.185   -2516.8483   -641.06955   -1485.1469    80.293295 
   18500    485.83124   -104.96558   0.43959032   -104.52599   -1540.0214    4.3055327    4.3055327    4.3055327   -1540.0214    17369.042   -5023.0437   -16966.062    3771.1233    11071.076   -1348.3464    79.814292 
   18600    623.64112   -105.08646    0.5642836   -104.52218   -9823.3474    4.3180293    4.3180293    4.3180293   -9823.3474   -8016.3579   -7825.3415   -13628.343   -12190.979   -4138.0424    2375.2425    80.511285 
   18700    352.59834   -104.84375   0.31903839   -104.52472    12798.052    4.3026664    4.3026664    4.3026664    12798.052    49659.998    3630.1288   -14895.972   -2676.1445    1110.1238   -1307.9841    79.654998 
   18800    549.99014   -105.02306   0.49764264   -104.52541   -10027.968    4.3166206    4.3166206    4.3166206   -10027.968    6466.5687   -16238.708   -20311.763   -6471.5675    5538.3464    5600.6039    80.432511 
   18900    578.18043   -105.04702    0.5231498   -104.52387   -2541.7812    4.3088928    4.3088928    4.3088928   -2541.7812     2154.556   -602.03589   -9177.8636   -4973.7562   -3309.9434   -39.181894    80.001307 
   19000    416.89587   -104.90271   0.37721614   -104.52549    6225.1504    4.3075002    4.3075002    4.3075002    6225.1504    41838.115   -3881.4503   -19281.213    3950.6578    4888.2314    2581.5719    79.923764 
   19100    513.36646   -104.98954   0.46450476   -104.52504   -345.24682    4.3152999    4.3152999    4.3152999   -345.24682    10853.767    -1083.573   -10805.935   -10008.509   -3891.8642    61.201098    80.358709 
   19200    553.43774   -105.02716    0.5007621    -104.5264   -4184.0047    4.3049906    4.3049906    4.3049906   -4184.0047    4217.2046   -3665.8873   -13103.332    2015.5637    2033.9009   -2551.1531    79.784153 
   19300    429.43292   -104.91593   0.38855993   -104.52737    1320.5308    4.3155117    4.3155117    4.3155117    1320.5308    26263.685   -1953.2861   -20348.807   -1289.9765    7294.0188    2025.0384    80.370542 
   19400    503.60069   -104.98189   0.45566849   -104.52622   -1604.3153    4.3067932    4.3067932    4.3067932   -1604.3153     18352.17   -14188.789   -8976.3273   -12183.813   -4288.5459   -6737.3486    79.884412 
   19500    557.72693   -105.03059   0.50464305   -104.52595   -5009.8286    4.3108983    4.3108983    4.3108983   -5009.8286    2234.0114    4552.6187   -21816.116    1482.3269    3089.1294    2964.2413    80.113062 
   19600    458.08119   -104.94032   0.41448148   -104.52583    5451.2709    4.3117376    4.3117376    4.3117376    5451.2709    42584.782   -13492.858   -12738.111   -4248.4095    2289.3146   -6749.8357    80.159864 
   19700    413.75934   -104.90248   0.37437814    -104.5281    3250.6211    4.3044494    4.3044494    4.3044494    3250.6211    15348.056    3901.9093   -9498.1017   -8003.3558   -1030.3389    950.51772    79.754062 
   19800    724.36158   -105.17954   0.65541758   -104.52413   -14380.607    4.3193338    4.3193338    4.3193338   -14380.607   -7747.5688   -8808.9158   -26585.338    3634.0788    5305.8509   -292.76219    80.584276 
   19900    306.85616   -104.80453    0.2776499   -104.52688    22675.337    4.2974211    4.2974211    4.2974211    22675.337    64338.349    4003.2738   -315.61052   -8314.5643   -5128.7295    -415.8109    79.364033 
   20000     471.9514    -104.9563   0.42703154   -104.52927   -15482.943    4.3197927    4.3197927    4.3197927   -15482.943    -2174.458   -12915.118   -31359.255    61.320659    2533.4181    2418.3446    80.609964 
   20100    720.71934   -105.17423     0.652122   -104.52211    3647.4933    4.3049907    4.3049907    4.3049907    3647.4933    19291.234    205.32098   -8554.0748    -7051.074    4500.0658    768.47346    79.784153 
   20200    202.62992   -104.71207   0.18334381   -104.52873   -419.53193    4.3125141    4.3125141    4.3125141   -419.53193    37715.472   -16406.467   -22567.601   -9543.6512   -6402.8407    136.52686    80.203179 
   20300    739.45448   -105.19118   0.66907395    -104.5221   -9452.4456     4.311225     4.311225     4.311225   -9452.4456   -3549.8769   -5969.9964   -18837.464    3887.1746    4256.5613    3275.0831    80.131277 
   20400    408.82016   -104.89558   0.36990907   -104.52567    4316.8636    4.3061697    4.3061697    4.3061697    4316.8636    24314.477   -2051.3453   -9312.5409   -5879.5143   -19.691133   -3632.0003    79.849726 
   20500    387.35964   -104.87767   0.35049114   -104.52718    -3536.148    4.3143218    4.3143218    4.3143218    -3536.148    32549.952   -17486.207   -25672.189   -2754.4718    1603.2709    2226.6124    80.304076 
   20600    638.92976   -105.10152   0.57811707    -104.5234   -787.36446    4.3085981    4.3085981    4.3085981   -787.36446    3949.9751    5152.1505   -11464.219    5301.5214    1554.0774   -5291.5017    79.984891 
   20700    474.02649   -104.95572   0.42890913   -104.52681   -5267.7091    4.3108959    4.3108959    4.3108959   -5267.7091    26635.389   -23131.219   -19307.297   -5635.8108   -2914.6775   -3167.0118     80.11293 
   20800    437.24209   -104.92202   0.39562583   -104.52639    2807.0909    4.3112017    4.3112017    4.3112017    2807.0909     26786.12      689.114   -19053.961   -6314.6966    1044.1234   -248.17896    80.129981 
   20900    587.97281   -105.05696   0.53201016   -104.52494    1734.7516    4.3059584    4.3059584    4.3059584    1734.7516    22356.523   -9017.5323   -8134.7365     22.57369    1956.9329   -7769.4176    79.837969 
   21000    460.90993   -104.94324   0.41704099    -104.5262   -12111.107    4.3174248    4.3174248    4.3174248   -12111.107    1960.6809    -15123.13   -23170.871   -8444.7913   -8546.0831    5455.1509    80.477478 
   21100    470.28256   -104.95072   0.42552154    -104.5252    11923.206    4.3022992    4.3022992    4.3022992    11923.206    43478.041     1571.906   -9280.3282    4327.7381    439.29335    -8595.975    79.634604 
   21200    583.72326   -105.05352   0.52816508   -104.52535   -15475.758    4.3163151    4.3163151    4.3163151   -15475.758   -7753.3271   -18855.855   -19818.092   -5276.3027   -1350.7887    4806.7295    80.415439 
   21300    456.02353   -104.93704   0.41261967   -104.52442    5232.0652    4.3066112    4.3066112    4.3066112    5232.0652    20482.025    8446.9354   -13232.764    721.74004   -2067.5039   -2631.3058    79.874286 
   21400    452.17346   -104.93413   0.40913605     -104.525   -3296.4967    4.3126134    4.3126134    4.3126134   -3296.4967     35148.11   -22638.675   -22398.925    8562.2932     2762.871    -735.2135     80.20872 
   21500    580.49788   -105.04778   0.52524668   -104.52254    -1340.606      4.30889      4.30889      4.30889    -1340.606    3744.5117   -328.09655   -7438.2333   -6986.5811   -5969.6154    2294.4689    80.001149 
   21600    476.36148     -104.957   0.43102188   -104.52598    -8312.234    4.3119582    4.3119582    4.3119582    -8312.234    19373.288   -18577.842   -25732.149    1124.0183    2549.6954   -7724.0419    80.172166 
   21700     474.6425    -104.9544   0.42946651   -104.52494    13104.631    4.3059453    4.3059453    4.3059453    13104.631    48493.167   -3834.9993   -5344.2733    4166.6572   -557.46949   -490.49108    79.837241 
   21800    567.55276   -105.04033   0.51353366   -104.52679   -13524.712    4.3143755    4.3143755    4.3143755   -13524.712   -5351.6107   -11927.866   -23294.661   -3845.7683   -7785.3515   -5070.1419    80.307079 
   21900    400.56328   -104.89034   0.36243808    -104.5279    6592.2269    4.3064456    4.3064456    4.3064456    6592.2269        38568   -4704.6909   -14086.628    2761.3669   -279.73287   -7599.0922    79.865076 
   22000     563.7749   -105.03568   0.51011538   -104.52556   -440.14256    4.3123649    4.3123649    4.3123649   -440.14256     24214.05   -14293.888   -11240.589    6703.5464    988.56642    74.580671    80.194853 
   22100    477.79943   -104.95923   0.43232296   -104.52691   -9405.6594      4.30968      4.30968      4.30968   -9405.6594   -2318.3268   -2856.8395   -23041.812   -2469.8772   -5937.0179   -10800.949    80.045158 
   22200    487.84068   -104.96728    0.4414085   -104.52587    8569.9939    4.3089817    4.3089817    4.3089817    8569.9939     37794.08   -7954.9557   -4129.1429    4089.6447   -103.28614   -1346.0772    80.006259 
   22300    418.76287   -104.90609   0.37890544   -104.52718   -3049.5764    4.3137159    4.3137159    4.3137159   -3049.5764    31766.561   -13450.072   -27465.219   -5778.5669   -8384.3468    -3430.812    80.270248 
   22400    541.98113    -105.0156   0.49039592    -104.5252   -3421.7847    4.3079681    4.3079681    4.3079681   -3421.7847    7025.0253   -6017.2343   -11273.145    640.80588   -1882.5066   -7113.3969    79.949811 
   22500    577.94092   -105.04714   0.52293309   -104.52421    1199.3013     4.310958     4.310958     4.310958    1199.3013    31009.197    -16469.23   -10942.063    10671.815   -301.67766    5728.9109    80.116392 
   22600    340.08549   -104.83624    0.3077165   -104.52852   -786.86293    4.3115966    4.3115966    4.3115966   -786.86293    23245.801   -2098.0646   -23508.325   -8917.2476   -9016.9518   -11896.208    80.151998 
   22700    709.60961   -105.16677   0.64206969    -104.5247   -468.18406    4.3060084    4.3060084    4.3060084   -468.18406    8850.1572   -7992.4878   -2262.2216    10515.663    4419.4044    4634.7465    79.840753 
   22800    327.72627   -104.82415   0.29653361   -104.52762   -3459.8998    4.3179052    4.3179052    4.3179052   -3459.8998    23154.159   -10160.333   -23373.525    7601.9809   -1731.7253   -8530.6502    80.504345 
   22900    515.26323   -104.99008     0.466221   -104.52386    3734.2086    4.3043976    4.3043976    4.3043976    3734.2086    34079.529   -7767.5842    -15109.32   -1741.9906   -686.92147   -3674.3869    79.751187 
   23000    643.42439   -105.10612   0.58218391   -104.52393   -12928.721    4.3135298    4.3135298    4.3135298   -12928.721   -13893.804   -16892.519   -7999.8394    9420.8304   -2806.6348   -1809.2872    80.259863 
   23100    359.34029   -104.85201   0.32513864   -104.52687    782.69793    4.3094457    4.3094457    4.3094457    782.69793    34930.896   -8824.5961   -23758.206   -2282.8547   -5844.4069   -12502.991    80.032107 
   23200    491.09414   -104.96953    0.4443523   -104.52517    3568.3264    4.3084715    4.3084715    4.3084715    3568.3264    23397.197   -8366.3777     -4325.84    5743.4252   -2160.2993    1558.7541    79.977839 
   23300    577.90681   -105.04833   0.52290223   -104.52542    -13355.71    4.3127502    4.3127502    4.3127502    -13355.71   -8899.0937   -14094.264   -17073.772    8737.2032    897.90424   -11949.226    80.216352 
   23400    502.70046   -104.98099   0.45485394   -104.52613    2086.9182    4.3085393    4.3085393    4.3085393    2086.9182    32666.219   -6534.3622   -19871.103   -5455.9713    -10313.27   -993.12029    79.981615 
   23500    438.19736   -104.92275   0.39649018   -104.52626    4401.1829    4.3077818    4.3077818    4.3077818    4401.1829    28293.485   -7893.9443   -7195.9915    11918.323     2041.307   -2264.2947    79.939439 
   23600    561.21732   -105.03334   0.50780122   -104.52554   -15798.476     4.315135     4.315135     4.315135   -15798.476   -3298.7245    -13423.24   -30673.462    3724.9974   -5445.9191   -5847.3307    80.349496 
   23700     490.8679   -104.96763   0.44414759   -104.52349    10666.095    4.3055188    4.3055188    4.3055188    10666.095    30988.097    6890.4198   -5880.2311   -6940.9099   -6403.0086    2387.5734    79.813523 
   23800    454.47358     -104.939   0.41121724   -104.52778   -8210.0803    4.3105978    4.3105978    4.3105978   -8210.0803    18796.304   -25141.603   -18284.942    14531.958    205.97414   -6809.1136    80.096313 
   23900    602.15693   -105.06867   0.54484425   -104.52383   -8166.3707     4.313408     4.313408     4.313408   -8166.3707   -6089.5088   -2314.9205   -16094.683   -5143.1866   -9638.6241   -311.96151    80.253064 
   24000    430.78841   -104.91449   0.38978641    -104.5247    12893.476    4.3020406    4.3020406    4.3020406    12893.476    52179.061   -6850.2305   -6648.4024    4968.6613    5174.2415   -1819.1262    79.620243 
   24100     333.1297   -104.82969   0.30142275   -104.52827   -9680.7724    4.3188659    4.3188659    4.3188659   -9680.7724    14811.563   -17721.713   -26132.167    2855.1108   -3114.2311   -8030.1026     80.55809 
   24200    780.80812   -105.22916    0.7064916   -104.52267    2575.7024    4.3029593    4.3029593    4.3029593    2575.7024    7894.1098    9460.3103   -9627.3129    3189.8135   -4920.7545    1306.6258    79.671267 
   24300    359.94502   -104.85519   0.32568582    -104.5295   -5563.3592    4.3130771    4.3130771    4.3130771   -5563.3592    29790.127   -26648.695   -19831.509    8411.0871     3226.653   -11812.195    80.234592 
   24400    446.24654   -104.93011   0.40377325   -104.52634    4357.4294    4.3116842    4.3116842    4.3116842    4357.4294    32540.429    530.73986    -19998.88    169.03074   -4312.2808   -163.40806    80.156883 
   24500    694.67184   -105.15234   0.62855368   -104.52378   -5661.5429    4.3072679    4.3072679    4.3072679   -5661.5429   -691.05753   -5557.8064   -10735.765   -4472.8844   -2760.3281    -6299.005     79.91083 
   24600    269.98348   -104.77384   0.24428672   -104.52956    3476.5965    4.3127494    4.3127494    4.3127494    3476.5965    42217.327   -10061.833   -21725.705    13181.092   -3814.1871   -5841.8517    80.216309 
   24700    629.39611   -105.09448   0.56949083   -104.52499   -219.19529    4.3093422    4.3093422    4.3093422   -219.19529    16807.133   -2992.2332   -14472.485   -4299.3508    -9576.662    2701.7647     80.02634 
   24800    528.18198   -105.00496   0.47791015   -104.52705   -42.036504    4.3073937    4.3073937    4.3073937   -42.036504    20275.466   -4825.2946   -15576.281    6380.9643    1602.6392   -9062.1628    79.917835 
   24900    364.41623    -104.8578   0.32973146   -104.52807   -1863.5164    4.3160294    4.3160294    4.3160294   -1863.5164    32901.998   -17859.385   -20633.163    11883.764   -5144.9346    4638.4334    80.399469 
   25000    590.65448   -105.05828   0.53443659   -104.52385     6843.632    4.3029421    4.3029421    4.3029421     6843.632    25814.395    6915.6289   -12199.128    73.410366   -8416.3139   -2629.4679    79.670313 
   25100    476.85707   -104.95847    0.4314703     -104.527   -12271.959    4.3151446    4.3151446    4.3151446   -12271.959    654.41058   -21364.275   -16106.012    10757.404    5711.5887   -2068.7024    80.350036 
   25200    457.70148   -104.93988   0.41413792   -104.52574     6276.473    4.3083011    4.3083011    4.3083011     6276.473    39184.227   -3884.8116   -16469.996   -3848.7636   -8295.1035     5415.838    79.968352 
   25300     554.4228   -105.02706    0.5016534    -104.5254    128.74807    4.3081067    4.3081067    4.3081067    128.74807    22625.354   -6810.0638   -15429.046    3833.3613   -579.72311   -10132.989    79.957526 
   25400    451.40383   -104.93681   0.40843968   -104.52837   -7020.8362    4.3141676    4.3141676    4.3141676   -7020.8362     9569.858   -17076.767     -13555.6    8480.9694   -4115.8001     5067.364    80.295467 
   25500    512.15768   -104.98948   0.46341103   -104.52607    9051.9823       4.3054       4.3054       4.3054    9051.9823    41829.586   -369.33306   -14304.306   -2751.0929   -4780.3395   -6259.8928    79.806913 
   25600     532.7117   -105.00869   0.48200874   -104.52668   -4305.6578    4.3121359    4.3121359    4.3121359   -4305.6578    14796.118   -17810.182   -9902.9098    6927.6467    5510.3101     -3282.03    80.182082 
   25700    504.50889   -104.98264   0.45649025   -104.52614   -7612.1501    4.3118095    4.3118095    4.3118095   -7612.1501     3975.474   -12865.839   -13946.085    8414.1911   -5485.8389    1531.7577    80.163871 
   25800    466.15201   -104.94685   0.42178414   -104.52507     12532.41    4.3038243    4.3038243    4.3038243     12532.41    52822.033   -4995.0604   -10229.741   -6398.9673   -3207.7056   -10995.529    79.719321 
   25900    500.32349   -104.97742    0.4527032   -104.52472   -15627.301    4.3189976    4.3189976    4.3189976   -15627.301   -4815.3463   -24513.013   -17553.545    10817.694      4324.89    7082.4095    80.565458 
   26000    556.58894   -105.02685   0.50361337   -104.52324    5551.5219    4.3004162    4.3004162    4.3004162    5551.5219    19587.838   -1277.7217   -1655.5508    194.08059   -5632.2827   -7261.5685    79.530089 
   26100     465.9023    -104.9483   0.42155819   -104.52674   -1634.2306    4.3157634    4.3157634    4.3157634   -1634.2306     33309.11   -18521.206   -19690.596    4057.2553   -6110.5453     3660.843    80.384603 
   26200    486.05308   -104.96562   0.43979104   -104.52583   -989.29885    4.3099694    4.3099694    4.3099694   -989.29885    11915.556   -17838.864    2955.4114    10669.956   -1313.6937    2131.6335    80.061286 
   26300    549.00155   -105.02205   0.49674814    -104.5253    368.31477    4.3062262    4.3062262    4.3062262    368.31477    20022.102   -3510.7724   -15406.386   -4473.8538   -7724.6123    -3474.354    79.852868 
   26400    409.57223   -104.89691   0.37058957   -104.52632    4151.1548    4.3141997    4.3141997    4.3141997    4151.1548    39638.994   -22836.726   -4348.8031    16160.312    3123.6977    6718.1796    80.297263 
   26500    564.78204   -105.03727   0.51102666   -104.52625   -7946.8767    4.3080437    4.3080437    4.3080437   -7946.8767     -2865.71   -9691.7827   -11283.137    1301.7126   -7430.6207   -5119.4965     79.95402 
   26600    522.60073   -104.99928   0.47286013   -104.52642    3877.5328    4.3093259    4.3093259    4.3093259    3877.5328    27483.801   -9694.3677   -6156.8352   -2261.5688   -1406.1731    2862.3579    80.025429 
   26700    385.13818   -104.87458   0.34848112   -104.52609   -3330.0841    4.3155777    4.3155777    4.3155777   -3330.0841     26842.61   -28007.672   -8825.1901    9625.8204    2350.1183   -1917.7193    80.374229 
   26800    603.43427   -105.06963   0.54600001   -104.52363   -1220.6393    4.3014094    4.3014094    4.3014094   -1220.6393    2366.5376   -3303.4662   -2724.9894   -2146.8327   -5931.4713   -7872.9172    79.585203 
   26900    501.34847   -104.97794   0.45363063   -104.52431   -8500.6307    4.3193588    4.3193588    4.3193588   -8500.6307    9908.8887   -23607.598   -11803.182    5865.5096   -2113.0578     2491.184    80.585676 
   27000    415.02161    -104.8994   0.37552028   -104.52388    8922.9136    4.3014702    4.3014702    4.3014702    8922.9136    37345.893   -10226.124   -351.02742    3550.6789    3618.5924   -9904.0642     79.58858 
   27100    561.60693   -105.03153   0.50815375   -104.52337    -13611.43    4.3161934    4.3161934    4.3161934    -13611.43   -10193.823   -14477.848   -16162.619   -1748.3988   -4712.5658    2199.5998    80.408637 
   27200    548.32818   -105.01939   0.49613886   -104.52325    2916.9389    4.3075275    4.3075275    4.3075275    2916.9389    29051.314   -16815.641    -3484.856    12127.108    947.07983   -3866.1147    79.925279 
   27300    356.69035   -104.84998   0.32274092   -104.52723    2258.8495    4.3075311    4.3075311    4.3075311    2258.8495    28754.561   -13476.543   -8501.4696   -990.55985   -222.56174   -5034.0218     79.92548 
   27400    695.35385   -105.15234   0.62917077   -104.52317   -7320.3302     4.313465     4.313465     4.313465   -7320.3302    3924.3315   -15322.269   -10563.053   -2208.8013   -5304.3349    5702.7238    80.256243 
   27500    404.16703   -104.89131   0.36569882   -104.52561     1126.519    4.3090197    4.3090197    4.3090197     1126.519    22701.693   -21227.384    1905.2475    7633.7725    182.20967    -8968.637    80.008371 
   27600    457.91706    -104.9401   0.41433298   -104.52577    4543.4909    4.3078767    4.3078767    4.3078767    4543.4909    35626.628   -7831.5586   -14164.597   -677.38124   -12722.751    5986.6451    79.944721 
   27700    577.52128   -105.04684   0.52255339   -104.52428   -8942.9785    4.3140856    4.3140856    4.3140856   -8942.9785   -4802.6199   -22888.731    862.41595    6554.1339     2583.769   -6136.5722    80.290892 
   27800    459.72936   -104.94177   0.41597279    -104.5258    325.71317    4.3027674    4.3027674    4.3027674    325.71317    16021.187   -9761.8372   -5282.2104    2684.0523   -3152.7135   -3366.1401    79.660608 
   27900    443.44693   -104.92649    0.4012401   -104.52525   -455.30259    4.3164778    4.3164778    4.3164778   -455.30259    29235.717     -19725.2   -10876.425   -2573.9081   -3778.3148    538.46185    80.424529 
   28000    580.98675   -105.04984   0.52568902   -104.52415   -3883.0426    4.3058921    4.3058921    4.3058921   -3883.0426    5288.6291    -20096.94    3159.1828    9251.4474    2016.9315   -11287.463     79.83428 
   28100    514.63916   -104.99049   0.46565633   -104.52483     -952.495    4.3111062    4.3111062    4.3111062     -952.495    20847.663   -11289.414   -12415.735    -4673.553   -1242.2518    2872.5484    80.124653 
   28200    375.08859   -104.86366   0.33938804   -104.52428    9646.9001    4.3101713    4.3101713    4.3101713    9646.9001    40676.141    -17152.17    5416.7288   -3373.0075   -3366.2804   -8361.2761    80.072535 
   28300    656.80302   -105.11751   0.59428917   -104.52322   -11661.878    4.3097349    4.3097349    4.3097349   -11661.878   -7956.2215   -17483.007   -9546.4048    3369.3223    950.10232   -4389.8403    80.048217 
   28400    429.20716   -104.91329   0.38835565   -104.52493    6580.3571    4.3098972    4.3098972    4.3098972    6580.3571    22416.136   -7581.2387     4906.174    430.30295   -196.51322   -618.65124    80.057261 
   28500    435.23877   -104.92038   0.39381319   -104.52657   -2851.0121    4.3116799    4.3116799    4.3116799   -2851.0121    36645.884   -30901.931   -14296.989    4185.5271     1666.505   -11396.688    80.156643 
   28600    615.09596   -105.07982   0.55655175   -104.52327    1097.6726    4.3058714    4.3058714    4.3058714    1097.6726    2563.3801   -6337.0149    7066.6526    5614.0067    320.35117    3872.9224    79.833132 
   28700    421.61542   -104.90903   0.38148649   -104.52754   -12565.023    4.3149096    4.3149096    4.3149096   -12565.023    10625.179   -29118.146   -19202.102   -5450.5127   -6158.5691   -10977.691    80.336904 
   28800    487.19751   -104.96517   0.44082654   -104.52434    10042.975     4.304701     4.304701     4.304701    10042.975    36917.612   -15997.789    9209.1035    10874.481    4336.4587   -3590.5877    79.768048 
   28900    512.12128     -104.989    0.4633781   -104.52562   -10084.404    4.3148387    4.3148387    4.3148387   -10084.404    2665.5801   -18730.239   -14188.552   -4307.9101   -5992.9686   -2382.2324    80.332947 
   29000    539.05329   -105.01292   0.48774674   -104.52517   -3688.3791    4.3067424    4.3067424    4.3067424   -3688.3791    16928.975   -21634.872   -6359.2406    268.56376   -1917.9911   -12980.267    79.881588 
   29100    453.74705   -104.93503   0.41055987   -104.52447    7543.5693    4.3098958    4.3098958    4.3098958    7543.5693    34094.839   -14258.032    2793.9006    1899.1056    2385.6813    5484.8229    80.057187 
   29200    485.07124   -104.96489   0.43890265   -104.52599   -11258.671    4.3101241    4.3101241    4.3101241   -11258.671      6114.86   -18956.728   -20934.146   -1728.3495    5185.8383   -14709.342    80.069907 
   29300    580.31687   -105.04918    0.5250829   -104.52409    3901.1312    4.3076307    4.3076307    4.3076307    3901.1312     15006.57   -16143.018    12839.841    4109.5073   -2690.0839    2485.1144    79.931029 
   29400    405.92125   -104.89248   0.36728608   -104.52519   -3621.7025    4.3139925    4.3139925    4.3139925   -3621.7025    33576.117   -20769.423   -23671.802    3800.2945    8143.3836   -4569.0468    80.285692 
   29500    458.21471   -104.93992    0.4146023   -104.52531    2597.9326    4.3030043    4.3030043    4.3030043    2597.9326    14033.295   -12768.089    6528.5919   -2561.3653   -1541.6254   -7468.8037    79.673765 
   29600     632.1426   -105.09464   0.57197591   -104.52266   -15482.427    4.3160044    4.3160044    4.3160044   -15482.427    -15311.02   -25828.646   -5307.6159    7305.9268    2025.7705    6449.7354    80.398074 
   29700    347.68497   -104.83865   0.31459266   -104.52406    5903.3838    4.3061542    4.3061542    4.3061542    5903.3838    42751.262   -12968.284   -12072.826   -2603.7714   -6175.3211   -11847.654    79.848861 
   29800    554.72145   -105.02477   0.50192362   -104.52284   -4717.0529     4.311237     4.311237     4.311237   -4717.0529    11167.845   -21717.358   -3601.6453   -1755.8472    -725.9241    4738.4731    80.131944 
   29900    559.39799   -105.02938   0.50615505   -104.52322   -3035.3027    4.3097582    4.3097582    4.3097582   -3035.3027    17550.896   -16612.386   -10044.418    2989.3749   -1098.6869   -3618.3928    80.049516 
   30000    456.62526   -104.93785   0.41316413   -104.52469    2635.9864    4.3088753    4.3088753    4.3088753    2635.9864    24512.353   -12988.628   -3615.7653   -3400.7537    -3924.329   -4495.1908    80.000328 
   30100    501.71828   -104.98007   0.45396524    -104.5261   -989.43897    4.3100198    4.3100198    4.3100198   -989.43897    25666.515   -22407.642   -6227.1895    3339.2252    709.59264    6142.0773    80.064096 
   30200    582.71175   -105.05275   0.52724984    -104.5255    -2239.145    4.3081991    4.3081991    4.3081991    -2239.145    7824.4303   -10879.945   -3661.9205    4450.2715    3434.4423   -7900.8733     79.96267 
   30300    453.55785    -104.9366   0.41038867   -104.52621   -235.59566    4.3120019    4.3120019    4.3120019   -235.59566     30191.62   -19298.789   -11599.619   -3435.7047    1672.9151    5604.8185    80.174605 
   30400    418.91814   -104.90465   0.37904594   -104.52561    2248.5375    4.3087033    4.3087033    4.3087033    2248.5375    25972.911   -22259.782    3032.4837    8934.4727   -5446.8519    2544.6714    79.990747 
   30500    636.25135   -105.09975   0.57569359   -104.52405   -1679.7017    4.3065422    4.3065422    4.3065422   -1679.7017   -2058.7531   -3642.3219    661.96986   -3475.8101    8394.3807   -1724.4577    79.870449 
   30600    391.16492   -104.88011   0.35393424   -104.52618   -9089.2068    4.3161607    4.3161607    4.3161607   -9089.2068    11041.288   -31515.842   -6793.0659   -3853.8974   -1569.4571    12979.602     80.40681 
   30700     531.1436   -105.00144   0.48058989   -104.52085    21972.897     4.298748     4.298748     4.298748    21972.897    52040.194    3950.8254    9927.6707    2702.6304    7195.5998    -6041.006    79.437573 
   30800    504.45954    -104.9796   0.45644559   -104.52315   -17984.589    4.3214734    4.3214734    4.3214734   -17984.589   -8573.0443   -29890.437   -15490.285   -2734.2291   -3122.1449    11612.104    80.704086 
   30900     496.0116   -104.97111   0.44880172   -104.52231    13624.655    4.2984019    4.2984019    4.2984019    13624.655    29030.253   -1649.9792    13493.692    372.07167    2808.1804    2197.7956    79.418384 
   31000    540.94709   -105.01379   0.48946029   -104.52433   -796.44196    4.3142006    4.3142006    4.3142006   -796.44196    26924.281   -17054.158   -12259.449    2617.2314    519.44198    766.72602     80.29731 
   31100    390.78522   -104.87737   0.35359068   -104.52378    -499.1945    4.3102659    4.3102659    4.3102659    -499.1945    20768.776   -17048.431   -5217.9284   -3721.2973   -2172.4182     11169.95    80.077813 
   31200    698.65376   -105.15301   0.63215661   -104.52086    4579.5634    4.3031108    4.3031108    4.3031108    4579.5634    13660.619   -5912.7617    5990.8325    8045.0937   -3286.0449   -6612.0334    79.679679 
   31300     319.9612    -104.8146   0.28950762    -104.5251   -2900.4952    4.3180926    4.3180926    4.3180926   -2900.4952    31102.296    -22352.41   -17451.372   -3608.3885     6974.759    11726.396    80.514825 
   31400    539.56931   -105.00955   0.48821365   -104.52133    1179.4381    4.3056063    4.3056063    4.3056063    1179.4381    12030.141    -7588.011   -903.81575   -2470.0793    204.10273   -1821.7623    79.818389 
   31500    621.88927   -105.08474   0.56269848   -104.52204    130.23584    4.3062041    4.3062041    4.3062041    130.23584    7458.0056   -8219.6321     1152.334    2034.7837    5535.9895    7011.1893    79.851636 
   31600    312.13599   -104.81033    0.2824272    -104.5279   -6394.2132    4.3175259    4.3175259    4.3175259   -6394.2132    26980.729   -15659.667   -30503.702   -3189.6023    3760.2133    7871.0744    80.483127 
   31700      616.854   -105.07939   0.55814246   -104.52124    15178.745    4.2980304    4.2980304    4.2980304    15178.745    35690.354   -5630.4481     15476.33    1856.4474    627.60638   -97.180208    79.397794 
   31800    473.43866   -104.95456   0.42837725   -104.52618   -17922.144    4.3205508    4.3205508    4.3205508   -17922.144   -5931.9373   -16636.451   -31198.043    249.85521    11002.694    11088.502    80.652408 
   31900    488.08175   -104.96568   0.44162663   -104.52405     12193.19    4.3015967    4.3015967    4.3015967     12193.19    41676.772    -9109.507    4012.3059   -3854.4985   -5344.0057    1793.2828    79.595601 
   32000    497.36461    -104.9762   0.45002596   -104.52617   -361.19604    4.3099897    4.3099897    4.3099897   -361.19604      17842.2   -11675.577   -7250.2111    5621.7118    4376.4407    4676.9679    80.062416 
   32100    542.20221    -105.0148   0.49059595    -104.5242   -11536.581    4.3132661    4.3132661    4.3132661   -11536.581    692.48681   -11170.903   -24131.328   -3162.2987    7699.2833    7590.4044    80.245146 
   32200    470.32702   -104.94807   0.42556177   -104.52251    15001.424    4.3007303    4.3007303    4.3007303    15001.424    41101.791   -7315.3358    11217.817    -6220.164   -2532.4788   -4311.8064    79.547516 
   32300    457.90299   -104.93889   0.41432025   -104.52457   -10660.526    4.3177553    4.3177553    4.3177553   -10660.526     16347.72   -18861.718    -29467.58    2270.5869     1809.194    6870.4783    80.495958 
   32400    548.28228   -105.02004   0.49609733   -104.52394     2770.492    4.3033131    4.3033131    4.3033131     2770.492    7169.3598   -4780.6903    5922.8065   -5579.3952    4811.1531   -2011.0491    79.690918 
   32500    506.02313   -104.98328   0.45786036   -104.52542    1917.0697    4.3087377    4.3087377    4.3087377    1917.0697    30185.443   -13761.059   -10673.175    1526.1922   -3169.9962    381.97154    79.992666 
   32600    423.75207   -104.90948   0.38341978   -104.52606   -2950.1159    4.3147606    4.3147606    4.3147606   -2950.1159    21427.981   -14681.491   -15596.838    914.37163    11232.289    6298.5422    80.328586 
   32700    620.55979   -105.08479   0.56149554    -104.5233    4075.4047    4.3001776    4.3001776    4.3001776    4075.4047     5619.715    88.663098    6517.8359   -6671.2541   -119.03667   -5817.4947    79.516853 
   32800    433.73875   -104.91833   0.39245594   -104.52588   -2609.3836    4.3174576    4.3174576    4.3174576   -2609.3836    30654.681   -23944.949   -14537.882    4672.5771    8643.3806    10685.501    80.479309 
   32900    421.16513   -104.90593   0.38107906   -104.52485     7650.973    4.3043222    4.3043222    4.3043222     7650.973    26750.068    2632.7472    -6429.896   -4736.9733     16032.67   -3755.1474    79.746996 
   33000    640.47754   -105.10435   0.57951754   -104.52483   -3548.5383    4.3067756    4.3067756    4.3067756   -3548.5383    5293.5103   -15637.181   -301.94386   -7099.8721   -5099.3971    7322.7951    79.883436 
   33100     421.1193   -104.90554   0.38103759   -104.52451   -6349.2757    4.3171378    4.3171378    4.3171378   -6349.2757    9355.0386   -9571.5752   -18831.291    3547.5135     15575.82    2182.4323    80.461426 
   33200    519.48866    -104.9908   0.47004425   -104.52076     10816.61    4.2974174    4.2974174    4.2974174     10816.61    35945.982   -4575.0186    1078.8656   -8946.2901    1266.4481   -806.58246    79.363827 
   33300    508.47467   -104.98114   0.46007857   -104.52106   -13807.844    4.3196237    4.3196237    4.3196237   -13807.844   -15167.051   -21255.176   -5001.3065    1567.4158    2284.4677    4509.5087    80.600501 
   33400    510.08509   -104.98338   0.46153571   -104.52184    5324.3445     4.301401     4.301401     4.301401    5324.3445    27700.768   -419.30964   -11308.425    341.89057    9081.5862   -4057.5862     79.58474 
   33500    431.14886   -104.91476   0.39011255   -104.52465    4049.8168    4.3102645    4.3102645    4.3102645    4049.8168    27745.398   -17792.652    2196.7049   -2509.9629   -2705.7994    104.92705    80.077731 
   33600    613.33608   -105.07699   0.55495937   -104.52203    -8299.238    4.3133293    4.3133293    4.3133293    -8299.238    594.28296   -8471.7196   -17020.277    5816.3412    8966.3133   -410.03809    80.248673 
[...]
   91300    488.18398   -104.96556   0.44171912   -104.52384   -10202.193    4.3068673    4.3068673    4.3068673   -10202.193   -558.39412   -16370.019   -13678.166     12179.07   -707.33988    4244.4907    79.888539 
   91400    550.14524    -105.0194   0.49778297   -104.52161    8293.9002    4.3023393    4.3023393    4.3023393    8293.9002    25083.161   -47.884758   -153.57568   -14372.984    5297.6201    718.58653    79.636834 
   91500    374.68391   -104.86506   0.33902187   -104.52604   -5453.0336    4.3067967    4.3067967    4.3067967   -5453.0336    13000.541   -14057.432   -15302.209    13790.572    312.60627    -11078.43    79.884608 
   91600    599.21955     -105.064   0.54218644   -104.52181   -374.66006    4.3029152    4.3029152    4.3029152   -374.66006    11596.014   -8414.1253   -4305.8693   -938.50982    1216.8826    11610.624    79.668814 
   91700    589.02187   -105.05509   0.53295937   -104.52213   -4699.7794    4.3061198    4.3061198    4.3061198   -4699.7794    4992.9901    -10308.25   -8784.0784    1187.8749   -3862.7898    -15522.85    79.846948 
   91800    324.48037   -104.81926   0.29359666   -104.52566   -793.40792    4.3052421    4.3052421    4.3052421   -793.40792    22695.492   -10056.161   -15019.555    5773.8684    2350.8196    6087.1711    79.798134 
   91900    584.88483   -105.05065   0.52921608   -104.52143    12357.234    4.3007846    4.3007846    4.3007846    12357.234    30722.957    7265.7046   -916.95936   -9037.5547   -324.44085    1854.5682     79.55053 
   92000    530.79115   -105.00429   0.48027099   -104.52402   -15958.745    4.3098853    4.3098853    4.3098853   -15958.745   -5958.3342   -21812.561   -20105.339    6937.5931    2286.3019   -13054.709    80.056597 
   92100    461.34436    -104.9424   0.41743408   -104.52497    7635.6841    4.2976609    4.2976609    4.2976609    7635.6841    28913.075    -4677.811   -1328.2118    9301.7246     4228.784    14735.564     79.37732 
   92200    525.95717   -104.99913    0.4758971   -104.52324    645.82028    4.3095281    4.3095281    4.3095281    645.82028    25618.219   -5788.8524   -17891.906   -10551.783    1773.6537   -13311.091    80.036697 
   92300     392.7095   -104.88142   0.35533181   -104.52609   -2873.7492    4.3015673    4.3015673    4.3015673   -2873.7492    3724.7993   -6981.6916   -5364.3553     13663.78    3303.4749    4203.0465    79.593971 
   92400    634.05371    -105.0966   0.57370512   -104.52289   -3831.2942     4.304887     4.304887     4.304887   -3831.2942    7859.9302   -13731.734   -5622.0792    5481.0485   -1863.8029    7400.7108    79.778387 
   92500    524.38073   -104.99696   0.47447071   -104.52249   -3817.6284    4.3080481    4.3080481    4.3080481   -3817.6284    19159.634   -17765.903   -12846.616     1651.165   -3731.7295   -18516.898    79.954264 
   92600     331.9478   -104.82415   0.30035335    -104.5238    5604.7767    4.2993004    4.2993004    4.2993004    5604.7767    22048.255   -2850.2385   -2383.6867    5295.1356    -294.3243    17855.407    79.468199 
   92700     585.7206   -105.05062   0.52997231   -104.52065   -4958.3024    4.3103088    4.3103088    4.3103088   -4958.3024    6972.7837   -8136.8459   -13710.845   -1639.2539   -396.39049   -13420.019      80.0802 
   92800    560.38591    -105.0294   0.50704895   -104.52235   -4237.5329    4.2993283    4.2993283    4.2993283   -4237.5329    2733.2436   -13677.678   -1768.1642    4936.3376    2407.7388    1149.9098    79.469749 
   92900    393.71172   -104.88259   0.35623864   -104.52635   -4974.5097    4.3073295    4.3073295    4.3073295   -4974.5097    14927.424   -20040.766   -9810.1863     7778.487    4235.2309    10247.295    79.914263 
   93000    567.33906   -105.03582    0.5133403   -104.52248     12627.49    4.3025501    4.3025501    4.3025501     12627.49    31122.384    9106.8179   -2346.7326   -11678.548    2696.4516   -15800.611    79.648539 
   93100     391.9087   -104.88174   0.35460723   -104.52714    -6103.823    4.3048875    4.3048875    4.3048875    -6103.823   -2121.8859   -9146.7378   -7042.8453    10159.304    3198.6899     18830.35    79.778415 
   93200    593.98275   -105.06063   0.53744807   -104.52318   -4741.1271    4.3071588    4.3071588    4.3071588   -4741.1271    805.61125   -13214.607   -1814.3851    7046.4149    2185.7668   -3644.4975     79.90476 
   93300    647.22823   -105.10694    0.5856257   -104.52131    6581.5763    4.3000233    4.3000233    4.3000233    6581.5763    22505.977   -1137.5687   -1623.6794    308.86358   -6118.2057    892.27825    79.508294 
   93400    185.87223   -104.69683    0.1681811   -104.52865   -3672.1301    4.3089826    4.3089826    4.3089826   -3672.1301    8347.0043   -10056.892   -9306.5027    5739.0232    774.55784    13860.981    80.006308 
   93500     727.2703   -105.17897   0.65804945   -104.52092    10643.394    4.3006934    4.3006934    4.3006934    10643.394    18154.938    9851.4227    3923.8206    1463.3764   -4788.7086   -8288.3384    79.545471 
   93600    506.95069    -104.9855   0.45869964    -104.5268   -9492.8368    4.3054869    4.3054869    4.3054869   -9492.8368   -1424.7958    -19512.86   -7540.8546    3751.3954    2335.1298    14065.249    79.811746 
   93700    359.06081   -104.85422   0.32488577   -104.52934    74.907652    4.3065522    4.3065522    4.3065522    74.907652    10054.897   -8009.9616   -1820.2126    7889.1624    1374.5767    1504.0599    79.871004 
   93800     663.7073   -105.12213   0.60053632    -104.5216    14496.743     4.300763     4.300763     4.300763    14496.743    24381.208    21477.613   -2368.5909   -13000.783     2455.978   -1325.7129     79.54933 
   93900    271.73395   -104.77502   0.24587059   -104.52915   -16467.385     4.309491     4.309491     4.309491   -16467.385   -12648.063   -21615.708   -15138.382    11988.906    2849.1552    15967.079    80.034629 
   94000    706.08755   -105.16187   0.63888285   -104.52299    4540.9902    4.3006543    4.3006543    4.3006543    4540.9902    14909.473    -4860.695    3574.1924    7145.9671    5036.0231   -4292.9312    79.543299 
   94100    501.22407   -104.97868   0.45351807   -104.52517   -673.82981    4.3063574    4.3063574    4.3063574   -673.82981    13513.212    717.76622   -16252.467   -3409.9133     -3645.31    11161.195    79.860168 
   94200    241.14875   -104.74788   0.21819646   -104.52969    79.533975    4.3045685    4.3045685    4.3045685    79.533975    11659.095   -4011.8623   -7408.6313    11155.326    2022.7496    6133.3637    79.760686 
   94300    794.87109   -105.24022   0.71921607   -104.52101    2789.9142    4.3034245    4.3034245    4.3034245    2789.9142    6705.7739    4298.0048   -2634.0362     3312.459   -3861.2105    -899.2473     79.69711 
   94400    393.42193    -104.8832   0.35597643   -104.52723   -12850.967    4.3069598    4.3069598    4.3069598   -12850.967    4638.2189   -23974.705   -19216.416    7727.7275   -1365.0212    16718.474    79.893685 
   94500    432.27127   -104.91668   0.39112813   -104.52556    11382.939    4.3020486    4.3020486    4.3020486    11382.939    19986.271    11304.311    2858.2366    6772.6896    1798.6719   -3475.8789    79.620692 
   94600    618.43413   -105.08228    0.5595722   -104.52271   -431.95248    4.3068813    4.3068813    4.3068813   -431.95248    11926.889    7608.0526   -20830.799   -7230.4485   -6018.3848     8362.392    79.889315 
   94700    372.24756   -104.86341   0.33681741   -104.52659   -3929.3251    4.3026506    4.3026506    4.3026506   -3929.3251    6457.9168   -17563.327    -682.5655    17009.201    3847.7443    7380.5409     79.65412 
   94800    642.36329   -105.10405    0.5812238   -104.52282    483.77723    4.3063636    4.3063636    4.3063636    483.77723    10199.667    158.35456   -8906.6896   -1097.3701   -1892.7459   -910.27657    79.860513 
   94900    376.39506   -104.86639   0.34057016   -104.52582    5986.1558    4.3026299    4.3026299    4.3026299    5986.1558    15794.609    15906.827   -13742.968   -3574.4727   -2557.3584    13015.544    79.652969 
   95000    470.55599   -104.95028   0.42576895   -104.52451    -8233.242    4.3080798    4.3080798    4.3080798    -8233.242    -14213.37    -7117.088   -3369.2683     17520.14     1673.035   -651.38231    79.956029 
   95100    705.86889   -105.15866     0.638685   -104.51997    -304.2635     4.300298     4.300298     4.300298    -304.2635    9830.3198   -1364.8212   -9378.2891    98.794666   -6970.1331    3191.3986    79.523534 
   95200    316.89126   -104.81151   0.28672987   -104.52478   -5895.5455    4.3100063    4.3100063    4.3100063   -5895.5455    6923.6733   -11053.002   -13557.308    10135.532    1891.1925     9632.685     80.06334 
   95300    516.59026   -104.98951   0.46742173   -104.52209    9178.1459    4.2995432    4.2995432    4.2995432    9178.1459    3637.8132    22940.505    956.11947    7487.3387   -2419.3259   -4199.7651    79.481661 
   95400    580.46042   -105.04849   0.52521279   -104.52327   -8613.0396    4.3069295    4.3069295    4.3069295   -8613.0396   -353.03888   -6040.4224   -19445.658    1444.9844   -2908.0259    9469.3922    79.892001 
   95500    474.27646   -104.95382   0.42913531   -104.52468   -6940.4157    4.3046888    4.3046888    4.3046888   -6940.4157   -5377.3983   -14864.237   -579.61197    19612.214     650.9357    231.98082    79.767371 
   95600    475.88482   -104.95373   0.43059059   -104.52314    8811.7989    4.3034817    4.3034817    4.3034817    8811.7989    11867.591    25044.525   -10476.719   -9554.4414   -3329.3813   -771.53947    79.700285 
   95700    436.17932   -104.91848   0.39466421   -104.52382   -2725.0821    4.3069061    4.3069061    4.3069061   -2725.0821    2242.4509    4954.2087   -15371.906    6591.6846   -3339.8162     12039.94    79.890698 
   95800    565.33777   -105.03421   0.51152949   -104.52268    772.66413    4.3015071    4.3015071    4.3015071    772.66413    1764.7678   -7897.1225     8450.347    15194.585    446.98595   -3143.4124    79.590626 
   95900      568.285   -105.03656   0.51419621   -104.52236   -2491.2705     4.307468     4.307468     4.307468   -2491.2705    6986.4337    8046.2431   -22506.488   -6443.3026   -12077.178    5338.8156    79.921969 
   96000    299.65168   -104.79604   0.27113113    -104.5249    10757.272    4.3007576    4.3007576    4.3007576    10757.272    11305.898    14692.812    6273.1051    14724.263    2716.3109    4902.1571    79.549032 
   96100    637.84057   -105.09853   0.57713155   -104.52139   -9335.7182    4.3090596    4.3090596    4.3090596   -9335.7182   -8727.9474   -3789.3885   -15489.819    5027.2592   -9412.4149    -930.2504    80.010593 
   96200    545.22635   -105.01506   0.49333226   -104.52173    3795.1718    4.2998847    4.2998847    4.2998847    3795.1718    12047.677    967.70976   -1629.8714    5780.1889   -811.63244    5238.1867    79.500606 
   96300    400.53677   -104.88682   0.36241409   -104.52441   -1796.1596    4.3081714    4.3081714    4.3081714   -1796.1596   -10631.451    8008.1777    -2765.206    17981.151     -1397.21   -863.61058    79.961128 
   96400    523.35183   -104.99507   0.47353974   -104.52153    10482.487    4.3025795    4.3025795    4.3025795    10482.487    19734.042    21590.865    -9877.445   -11176.014   -4425.2439    -4799.577    79.650171 
   96500    497.13889   -104.97407   0.44982172   -104.52425   -6802.7146    4.3038945    4.3038945    4.3038945   -6802.7146   -2716.4058   -17016.182    -675.5557    21187.047    3240.3387    5235.4821    79.723223 
   96600    554.40823   -105.02558   0.50164021   -104.52394   -4478.9377    4.3055395    4.3055395    4.3055395   -4478.9377   -14949.391    8625.6082   -7113.0306    7655.9724   -1022.7591   -4016.6061    79.814671 
   96700    456.26457   -104.93574   0.41283777   -104.52291     6900.661    4.3040925    4.3040925    4.3040925     6900.661    11522.373    18968.737   -9789.1279    -6062.036   -1732.0549   -774.76311     79.73423 
   96800    419.93855   -104.90455   0.37996922   -104.52458   -5778.2482    4.3046073    4.3046073    4.3046073   -5778.2482   -7811.1509    -9216.285   -307.30881     18396.54    729.24151    2228.9585    79.762841 
   96900    648.59266   -105.10755   0.58686027   -104.52068   -1644.2332    4.3052401    4.3052401    4.3052401   -1644.2332    2018.6546   -139.17704   -6812.1772    729.51064   -6490.2216   -5258.3054    79.798024 
   97000    432.98445   -104.91545   0.39177343   -104.52367    436.29777    4.3034392    4.3034392    4.3034392    436.29777     -843.897    7494.2618   -5341.4715    9792.9878   -276.81909    5367.7103    79.697924 
   97100    397.29288   -104.88517   0.35947894   -104.52569    872.86596    4.3044151    4.3044151    4.3044151    872.86596   -4706.9109    7141.9091    183.59967     13237.21    -155.6829   -895.16764    79.752159 
   97200    662.39296   -105.12027   0.59934707   -104.52092   -4389.8998    4.3066206    4.3066206    4.3066206   -4389.8998    11704.083   -6442.9615   -18430.821   -4487.8132   -7282.3117   -3834.1009     79.87481 
   97300    407.98522   -104.89414    0.3691536   -104.52499   -2498.7548    4.3005994    4.3005994    4.3005994   -2498.7548    -13085.14   -42.651991    5631.5281    28013.677    4361.4831    3414.0825    79.540253 
   97400    537.25007   -105.00889   0.48611515   -104.52277   -1346.2225    4.3095863    4.3095863    4.3095863   -1346.2225    418.29309    14548.832   -19005.792   -5181.6636   -6678.9241   -2961.4061    80.039937 
   97500    456.06758   -104.93545   0.41265953   -104.52279    8235.7736    4.2999063    4.2999063    4.2999063    8235.7736    20052.933    4621.1606    33.226928    5074.4347    3592.1207    -1007.553    79.501803 
   97600    495.46543   -104.97386   0.44830753   -104.52555   -11685.161    4.3057762    4.3057762    4.3057762   -11685.161   -14423.542   -16874.851   -3757.0908    21275.556   -483.91661    1908.4999    79.827836 
   97700    620.32316   -105.08299   0.56128143    -104.5217    5190.3447    4.3062675    4.3062675    4.3062675    5190.3447    14311.179    14226.319   -12966.464   -6810.2245   -2162.6411   -8328.7606    79.855164 
   97800    333.25612   -104.82715   0.30153714   -104.52562    2589.8338    4.3005585    4.3005585    4.3005585    2589.8338    4226.2384    2944.3598    598.90327    13573.004    2186.2359    4064.2363    79.537983 
   97900    558.26325   -105.02889   0.50512832   -104.52376    -6574.885    4.3084209    4.3084209    4.3084209    -6574.885    1755.1115   -7997.9802   -13481.786    7590.9398    3014.4298   -3651.1975    79.975021 
   98000    618.61501    -105.0816   0.55973586   -104.52187    506.27113    4.3024084    4.3024084    4.3024084    506.27113    11535.346   -3630.4469   -6386.0854    3459.9765   -54.539261    -6455.146    79.640669 
   98100     369.0732   -104.85958   0.33394518   -104.52563   -4932.4788    4.3045066    4.3045066    4.3045066   -4932.4788   -10133.102    1154.3981    -5818.732     21842.32    5935.0159     1979.666    79.757246 
   98200    542.22625   -105.01246   0.49061771   -104.52184    7404.1079    4.3057647    4.3057647    4.3057647    7404.1079    29922.642    5482.9831   -13193.301   -10511.621   -32.496551   -11406.795    79.827194 
   98300    524.18442     -104.999   0.47429308    -104.5247   -5701.6452    4.3007591    4.3007591    4.3007591   -5701.6452   -4978.5068   -13193.869    1067.4404    19369.565    2313.0045    3147.9895    79.549116 
   98400    477.52727   -104.95802   0.43207671   -104.52594   -9712.4069    4.3085613    4.3085613    4.3085613   -9712.4069   -11629.609   -8599.7154   -8907.8958    10452.885    4375.9422   -4171.4919    79.982841 
   98500      537.512   -105.00854   0.48635215   -104.52219     10333.24    4.3019579    4.3019579    4.3019579     10333.24    31212.972    10555.511   -10768.762   -9397.1765   -6571.2292   -6358.1094    79.615657 
   98600    331.83431   -104.82581   0.30025065   -104.52556   -4533.0528    4.3054173    4.3054173    4.3054173   -4533.0528   -10080.518   -4303.1772    784.53687    17492.772    2741.1115    2716.1159    79.807874 
   98700    650.72833   -105.11012   0.58879267   -104.52133   -7271.9186    4.3052614    4.3052614    4.3052614   -7271.9186     6259.631   -11286.981   -16788.406    2203.0984   -2133.0349   -9023.6507    79.799208 
   98800    511.06803   -104.98447   0.46242509   -104.52205    1816.6301    4.3029184    4.3029184    4.3029184    1816.6301    8108.0793   -5024.1393    2365.9503    5752.3736    117.18651    216.89898    79.668994 
   98900    359.29197   -104.85158   0.32509493   -104.52649   -3271.6069    4.3046916    4.3046916    4.3046916   -3271.6069   -2249.6676    2676.8424   -10241.996    13926.811     4726.735   -2247.8264    79.767529 
   99000    587.92472   -105.05397   0.53196665   -104.52201    4525.2974    4.3042871    4.3042871    4.3042871    4525.2974    14288.289    4186.1904   -4898.5868   -6026.2874    356.53187   -14512.146    79.745045 
   99100    568.35494   -105.03756    0.5142595    -104.5233   -8185.2374    4.3056506    4.3056506    4.3056506   -8185.2374   -12459.953   -16394.117    4298.3577    23244.232    4468.9476    2692.2375    79.820853 
   99200    409.50185   -104.89521   0.37052588   -104.52469    1952.8321    4.3031601    4.3031601    4.3031601    1952.8321    20487.346   -5283.1758   -9345.6734    243.44304    8138.6587   -12708.009    79.682422 
   99300    536.55015   -105.00685   0.48548185   -104.52137     8039.355    4.3054683    4.3054683    4.3054683     8039.355    17506.518    11394.608   -4783.0603   -3429.1859     604.8351   -3548.7959    79.810711 
   99400    450.48667    -104.9324    0.4076098   -104.52479   -8104.5545    4.3041689    4.3041689    4.3041689   -8104.5545   -12547.879   -6570.5024   -5195.2823    16008.524    3320.8771   -1933.7961    79.738476 
   99500    556.82023   -105.02794   0.50382264   -104.52412   -1549.5053    4.3033683    4.3033683    4.3033683   -1549.5053    13577.271    -9557.736   -8668.0505   -1978.7078     3633.245   -17155.959    79.693984 
   99600    542.69561   -105.01401   0.49104239   -104.52297     4106.513    4.3059827    4.3059827    4.3059827     4106.513    12877.342   -534.23276   -23.570616    4893.0099   -2541.3998      7010.75     79.83932 
   99700    277.05986   -104.77797   0.25068958   -104.52728    1527.7669    4.3031028    4.3031028    4.3031028    1527.7669    3074.9095    6151.4514   -4643.0603    6413.3473    8530.3698   -12978.274    79.679236 
   99800    699.89042   -105.15451   0.63327556   -104.52124   -612.95928     4.305554     4.305554     4.305554   -612.95928    12488.081    -4890.678   -9436.2811   -130.76631   -5697.2107   -6072.3059    79.815476 
   99900    542.07925   -105.01386    0.4904847   -104.52338   -7774.9201    4.3051152    4.3051152    4.3051152   -7774.9201   -12360.728   -14681.207    3717.1751    20510.942    6362.6717   -1313.7157    79.791078 
  100000    331.95721   -104.82709   0.30036186   -104.52673    2305.1244    4.3028113    4.3028113    4.3028113    2305.1244    21394.839    3620.2773   -18099.743   -4923.6693    2161.3186   -17602.633    79.663046 
Loop time of 22.4386 on 1 procs for 100000 steps with 8 atoms

Pair  time (%) = 7.30098 (32.5376)
Kspce time (%) = 5.35416 (23.8614)
Neigh time (%) = 0 (0)
Comm  time (%) = 1.06224 (4.73397)
Outpt time (%) = 0.0253708 (0.113068)
Other time (%) = 8.69585 (38.754)

Nlocal:    8 ave 8 max 8 min
Histogram: 1 0 0 0 0 0 0 0 0 0
Nghost:    2189 ave 2189 max 2189 min
Histogram: 1 0 0 0 0 0 0 0 0 0
Neighs:    2344 ave 2344 max 2344 min
Histogram: 1 0 0 0 0 0 0 0 0 0

Total # of neighbors = 2344
Ave neighs/atom = 293
Neighbor list builds = 0
Dangerous builds = 0
unfix 20
unfix 21
print "seeds:6122467"
seeds:6122467
