LAMMPS (11 Aug 2017)
Reading data file ...
  triclinic box = (0 0 0) to (2.484 4.3024 36.5009) with tilt (0 0 -0.0004)
  1 by 1 by 1 MPI processor grid
  reading atoms ...
  18 atoms
18 atoms in group Ni
Neighbor list info ...
  update every 1 steps, delay 0 steps, check yes
  max neighbors/atom: 2000, page size: 100000
  master list distance cutoff = 11
  ghost atom cutoff = 11
  binsize = 5.5, bins = 1 1 7
  1 neighbor lists, perpetual/occasional/extra = 1 0 0
  (1) pair eam/alloy, perpetual
      attributes: half, newton on
      pair build: half/bin/newton/tri
      stencil: half/bin/3d/newton/tri
      bin: standard
Setting up cg style minimization ...
  Unit style    : metal
  Current step  : 0
Per MPI rank memory allocation (min/avg/max) = 4.343 | 4.343 | 4.343 Mbytes
Step PotEng Lx Ly Lz Xy Xz Yz Press Pxx Pyy Pzz Pxy Pxz Pyz c_eatoms 
       0   -78.479094        2.484       4.3024      36.5009            0            0      -0.0004   -20204.801   -24278.115   -24277.615   -12058.671 -1.4150238e-12 1.7173264e-12 -0.063524812   -78.479094 
       1   -78.541854        2.484       4.3024      36.5009            0            0      -0.0004   -15463.493   -19733.141   -19732.684   -6924.6534 5.0447989e-12 -1.2948235e-12 -0.043389736   -78.541854 
       2      -78.549        2.484       4.3024      36.5009            0            0      -0.0004   -13416.867   -17827.122    -17826.69   -4596.7896 4.1305591e-12 2.2374688e-14  -0.03281081      -78.549 
       3   -78.549967        2.484       4.3024      36.5009            0            0      -0.0004   -12706.285   -17176.851   -17176.394   -3765.6106 -1.0364405e-12 2.6128758e-12 -0.046689779   -78.549967 
       4   -78.551051        2.484       4.3024      36.5009            0            0      -0.0004   -11247.015   -15879.869   -15879.369   -1981.8065 8.4019449e-13 -2.4999552e-12 -0.072614989   -78.551051 
       5    -78.55196        2.484       4.3024      36.5009            0            0      -0.0004   -9467.2172     -14255.4   -14254.855    108.60395 -1.9058231e-12 7.0478023e-12 -0.099466275    -78.55196 
       6   -78.552104        2.484       4.3024      36.5009            0            0      -0.0004   -9579.6475   -14375.669   -14375.115    11.842074 8.1777075e-12 4.5525697e-12  -0.10423929   -78.552104 
       7   -78.552107        2.484       4.3024      36.5009            0            0      -0.0004   -9571.1786   -14367.336   -14366.781    20.580741 -3.1430044e-12 -5.3150051e-12  -0.10463049   -78.552107 
       8   -78.552107        2.484       4.3024      36.5009            0            0      -0.0004   -9576.3879   -14372.172   -14371.617    14.625345 9.1624442e-12 1.9305896e-12  -0.10455504   -78.552107 
       9   -78.552108        2.484       4.3024      36.5009            0            0      -0.0004    -9583.589   -14378.626   -14378.073    5.9325243 7.2587711e-13 6.7787755e-12  -0.10380079   -78.552108 
      10   -78.552108        2.484       4.3024      36.5009            0            0      -0.0004   -9588.2008   -14382.697   -14382.148   0.24236767 1.4958503e-11 1.0504195e-11  -0.10115059   -78.552108 
      11   -78.552108        2.484       4.3024      36.5009            0            0      -0.0004   -9588.3774   -14382.863   -14382.316  0.047446064 7.2175946e-12 -1.7402786e-12  -0.10020569   -78.552108 
      12   -78.552108        2.484       4.3024      36.5009            0            0      -0.0004   -9588.4118   -14382.889   -14382.351 0.0054329021 1.951724e-12 -1.7575497e-11  -0.09504363   -78.552108 
      13   -78.552108        2.484       4.3024      36.5009            0            0      -0.0004   -9588.4149   -14382.891   -14382.355 0.0013600967 -1.8775708e-11 -1.2381888e-11 -0.094060583   -78.552108 
      14   -78.552108        2.484       4.3024      36.5009            0            0      -0.0004   -9588.4213   -14382.896   -14382.362 -0.0058498819 -3.8162245e-12 -7.1343648e-13 -0.092789211   -78.552108 
      15   -78.552108        2.484       4.3024      36.5009            0            0      -0.0004   -9588.4208   -14382.895   -14382.362 -0.0054516308 -2.4345219e-11 -4.5721282e-12 -0.091746783   -78.552108 
      16   -78.552108        2.484       4.3024      36.5009            0            0      -0.0004   -9588.4188   -14382.892   -14382.361 -0.0031788591 6.2492366e-12 -3.908583e-12 -0.090610822   -78.552108 
      17   -78.552108        2.484       4.3024      36.5009            0            0      -0.0004   -9588.4118   -14382.879   -14382.361 0.0049891527 -3.2221172e-11 -6.7020914e-12 -0.083420511   -78.552108 
      18   -78.552108        2.484       4.3024      36.5009            0            0      -0.0004   -9588.4156   -14382.882   -14382.366 0.00067777146 4.8749232e-12 1.4193935e-11 -0.082556514   -78.552108 
      19   -78.552108        2.484       4.3024      36.5009            0            0      -0.0004   -9588.4262   -14382.888   -14382.379 -0.011155093 -2.4589022e-14 1.2180484e-11 -0.078350689   -78.552108 
      20   -78.552108        2.484       4.3024      36.5009            0            0      -0.0004   -9588.4202   -14382.877   -14382.379 -0.0045222154 7.8347971e-12 -5.1769162e-12 -0.072459005   -78.552108 
      21   -78.552108        2.484       4.3024      36.5009            0            0      -0.0004   -9588.4095   -14382.862   -14382.374 0.0075297195 1.2401731e-12 -1.1314758e-11 -0.066408712   -78.552108 
      22   -78.552108        2.484       4.3024      36.5009            0            0      -0.0004   -9588.3988   -14382.839   -14382.377  0.019581024 2.2820046e-11 3.0290732e-12 -0.051419937   -78.552108 
      23   -78.552108        2.484       4.3024      36.5009            0            0      -0.0004   -9588.4237   -14382.834   -14382.429 -0.0085605538 2.4629176e-11 -4.7857201e-12 -0.019003594   -78.552108 
      24   -78.552108        2.484       4.3024      36.5009            0            0      -0.0004   -9588.4251    -14382.82   -14382.446 -0.0094912038 -1.9282747e-11 -1.9315752e-11 -0.0013697709   -78.552108 
      25   -78.552108        2.484       4.3024      36.5009            0            0      -0.0004   -9588.4155    -14382.81   -14382.438 0.00066264724 2.2767736e-12 -6.6138085e-12 0.00015804667   -78.552108 
      26   -78.552108        2.484       4.3024      36.5009            0            0      -0.0004   -9588.4178   -14382.812    -14382.44 -0.0016390524 8.8405883e-12 2.6025451e-12 0.00039951645   -78.552108 
      27   -78.552108        2.484       4.3024      36.5009            0            0      -0.0004   -9588.4165    -14382.81   -14382.439 -0.00031391891 1.3823295e-11 6.1116313e-12 0.00043795508   -78.552108 
      28   -78.552108        2.484       4.3024      36.5009            0            0      -0.0004   -9588.4164    -14382.81   -14382.439 -0.00014621666 -6.3494991e-12 -3.9761262e-12 0.00020719743   -78.552108 
      29   -78.552108        2.484       4.3024      36.5009            0            0      -0.0004   -9588.4164    -14382.81   -14382.439 -0.00014621666 -6.3494991e-12 -3.9761262e-12 0.00020719743   -78.552108 
Loop time of 0.0140059 on 1 procs for 29 steps with 18 atoms

97.9% CPU use with 1 MPI tasks x no OpenMP threads

Minimization stats:
  Stopping criterion = linesearch alpha is zero
  Energy initial, next-to-last, final = 
        -78.4790941049     -78.5521075315     -78.5521075315
  Force two-norm initial, final = 0.862991 9.27538e-08
  Force max component initial, final = 0.322615 3.10811e-08
  Final line search alpha, max atom move = 0.5 1.55406e-08
  Iterations, force evaluations = 29 56

MPI task timing breakdown:
Section |  min time  |  avg time  |  max time  |%varavg| %total
---------------------------------------------------------------
Pair    | 0.01295    | 0.01295    | 0.01295    |   0.0 | 92.46
Neigh   | 0          | 0          | 0          |   0.0 |  0.00
Comm    | 0.00049496 | 0.00049496 | 0.00049496 |   0.0 |  3.53
Output  | 0.00040984 | 0.00040984 | 0.00040984 |   0.0 |  2.93
Modify  | 0          | 0          | 0          |   0.0 |  0.00
Other   |            | 0.0001512  |            |       |  1.08

Nlocal:    18 ave 18 max 18 min
Histogram: 1 0 0 0 0 0 0 0 0 0
Nghost:    1737 ave 1737 max 1737 min
Histogram: 1 0 0 0 0 0 0 0 0 0
Neighs:    3690 ave 3690 max 3690 min
Histogram: 1 0 0 0 0 0 0 0 0 0

Total # of neighbors = 3690
Ave neighs/atom = 205
Neighbor list builds = 0
Dangerous builds = 0
pypospack:output_section:begin
tot_energy = -78.5521075314837
num_atoms = 18
a11 = 2.484
a22 = 4.3024
a33 = 36.5009
a12 = 0
a13 = 0
a23 = -0.0004
tot_press = -9588.41636010534
pxx = -14382.8103413239
pyy = -14382.4385927754
pzz = -0.000146216661269794
pxy = -6.34949911708306e-12
pxz = -3.97612623588046e-12
pyz = 0.000207197433263379
pypospack:output_section:done
pypospack:lammps_sim:done
Total wall time: 0:00:00
