LAMMPS (10 Feb 2015)
# ---- initialize simulations
clear
units metal
dimension 3
boundary p p p
atom_style charge
atom_modify map array
# ---- create atoms
read_data /Users/eugeneragasa/pyflamestk_git/pypospack/tests/tests_integration/workflow/WorkflowLammpsThermalExpansion/param_785/MgO_NaCl_unit.npt.T1700/lammps.structure
  triclinic box = (0 0 0) to (4.2565 4.2565 4.2565) with tilt (0 0 0)
  1 by 1 by 1 MPI processor grid
  reading atoms ...
  8 atoms
# ---- define interatomic potential
include potential.mod
mass 1 24.305
mass 2 15.999

group Mg type 1
4 atoms in group Mg
group O type 2
4 atoms in group O

set group Mg charge 1.62294375895
  4 settings made for charge
set group O charge -1.62294375895
  4 settings made for charge

variable R_cut equal 10.0

pair_style buck/coul/long ${R_cut}
pair_style buck/coul/long 10
pair_coeff 1 1 0.0 0.5 0.0 ${R_cut}
pair_coeff 1 1 0.0 0.5 0.0 10
pair_coeff 1 2 1315.47688947 0.28024601768 0.0 ${R_cut}
pair_coeff 1 2 1315.47688947 0.28024601768 0.0 10
pair_coeff 2 2 7992.27283476 0.124296175577 7.5002562575 ${R_cut}
pair_coeff 2 2 7992.27283476 0.124296175577 7.5002562575 10

kspace_style pppm 1.0e-5

neighbor 1.0 bin
neigh_modify every 1 delay 0 check yes
# ---- define settings
compute eng all pe/atom
compute eatoms all reduce sum c_eng
# ---- run minimization
reset_timestep 0
fix 1 all box/relax iso 0.0 vmax 0.001
thermo 10
thermo_style custom step pe lx ly lz xy xz yz press pxx pyy pzz pxy pxz pyz c_eatoms
min_style cg
minimize 1e-25 1e-25 5000 10000
PPPM initialization ...
  G vector (1/distance) = 0.352546
  grid = 8 8 8
  stencil order = 5
  estimated absolute RMS force accuracy = 3.83063e-05
  estimated relative force accuracy = 2.66022e-06
  using double precision FFTs
  3d grid and FFT values/proc = 3375 512
Neighbor list info ...
  1 neighbor list requests
  update every 1 steps, delay 0 steps, check yes
  master list distance cutoff = 11
Memory usage per processor = 4.06549 Mbytes
Step PotEng Lx Ly Lz Xy Xz Yz Press Pxx Pyy Pzz Pxy Pxz Pyz eatoms 
       0   -108.88461       4.2565       4.2565       4.2565            0            0            0   -30879.056   -30879.056   -30879.056   -30879.056 -2.5133272e-10 -7.2643252e-11 5.7873381e-11   -108.88461 
      10   -108.89911    4.2290577    4.2290577    4.2290577            0            0            0   0.26053131   0.26053131   0.26053131   0.26053131 3.8284322e-11 -1.3873734e-12 -2.9889769e-10   -108.89911 
      12   -108.89911    4.2290577    4.2290577    4.2290577            0            0            0   0.25210742   0.25210742   0.25210742   0.25210742 1.3658055e-10 -3.2077679e-12 -1.3269119e-10   -108.89911 
Loop time of 0.0081749 on 1 procs for 12 steps with 8 atoms

Minimization stats:
  Stopping criterion = linesearch alpha is zero
  Energy initial, next-to-last, final = 
        -108.884606122     -108.899110632     -108.899110632
  Force two-norm initial, final = 4.45895 5.1421e-05
  Force max component initial, final = 4.45895 3.59365e-05
  Final line search alpha, max atom move = 0.5 1.79683e-05
  Iterations, force evaluations = 12 23

Pair  time (%) = 0.00228381 (27.9369)
Kspce time (%) = 0.00141859 (17.353)
Neigh time (%) = 0 (0)
Comm  time (%) = 0.000258923 (3.16729)
Outpt time (%) = 1.69277e-05 (0.20707)
Other time (%) = 0.00419664 (51.3357)

Nlocal:    8 ave 8 max 8 min
Histogram: 1 0 0 0 0 0 0 0 0 0
Nghost:    2189 ave 2189 max 2189 min
Histogram: 1 0 0 0 0 0 0 0 0 0
Neighs:    2344 ave 2344 max 2344 min
Histogram: 1 0 0 0 0 0 0 0 0 0

Total # of neighbors = 2344
Ave neighs/atom = 293
Neighbor list builds = 0
Dangerous builds = 0
unfix 1
# ---- define output variables ----
variable natoms equal "count(all)"
variable tot_energy equal "c_eatoms"
variable length_x equal "lx"
variable length_y equal "ly"
variable length_z equal "lz"
variable tilt_xy equal "xy"
variable tilt_xz equal "xz"
variable tilt_yz equal "yz"
variable tot_press equal "press"
variable press_xx equal "pxx"
variable press_yy equal "pyy"
variable press_zz equal "pzz"
variable press_xy equal "pxy"
variable press_xz equal "pxz"
variable press_yz equal "pyz"

# ---- output ----
print "pypospack:output_section:begin"
pypospack:output_section:begin
print "tot_energy = ${tot_energy}"
tot_energy = -108.899110631848
print "num_atoms = ${natoms}"
num_atoms = 8
print "xx = ${length_x}"
xx = 4.22905766787052
print "yy = ${length_y}"
yy = 4.22905766787052
print "zz = ${length_z}"
zz = 4.22905766787052
print "xy = ${tilt_xy}"
xy = 0
print "xz = ${tilt_xz}"
xz = 0
print "yz = ${tilt_yz}"
yz = 0
print "tot_press = ${tot_press}"
tot_press = 0.252107417895481
print "pxx = ${press_xx}"
pxx = 0.252107418292273
print "pyy = ${press_yy}"
pyy = 0.252107418323333
print "pzz = ${press_zz}"
pzz = 0.252107417070837
print "pxy = ${press_xy}"
pxy = 1.36580554666579e-10
print "pxz = ${press_xz}"
pxz = -3.20776791999541e-12
print "pyz = ${press_yz}"
pyz = -1.32691186845421e-10
print "pypospack:output_section:done"
pypospack:output_section:done
print "pypospack:lammps_sim:done"
pypospack:lammps_sim:done
#------------------------------------------------------------------------------
# RUN THERMOSTAT
# running using an NPT Nose-Hoover style thermostat
#------------------------------------------------------------------------------
variable tempdamp equal 0.1
variable pressdamp equal 1.0
# set initial velocities
velocity all create 1700 6581221 mom yes dist gaussian loop all
# fix for Nose-Hoover style thermostat
fix 20 all npt temp 1700 1700 0.1 aniso 0.0 0.0 1.0 drag 1.0 couple xyz
variable boxx equal lx
variable boxy equal ly
variable boxz equal lz
variable boxp equal press
variable boxt equal temp
# calculate averages every 10000 steps
reset_timestep 0
fix 21 all ave/time 10 10 100 v_boxx v_boxy v_boxz v_boxp v_boxt file lattice.out
thermo_style custom step temp pe ke etotal press lx ly lz press pxx pyy pzz pxy pxz pyz vol
thermo_modify flush yes
thermo 100
run 100000
PPPM initialization ...
  G vector (1/distance) = 0.352817
  grid = 8 8 8
  stencil order = 5
  estimated absolute RMS force accuracy = 3.78369e-05
  estimated relative force accuracy = 2.62763e-06
  using double precision FFTs
  3d grid and FFT values/proc = 3375 512
Memory usage per processor = 3.06549 Mbytes
Step Temp PotEng KinEng TotEng Press Lx Ly Lz Press Pxx Pyy Pzz Pxy Pxz Pyz Volume 
       0         1700   -108.89911    1.5381957   -107.36091    21722.555    4.2290577    4.2290577    4.2290577    21722.555     32256.31     9613.876    23297.479    9080.7436    979.15991    1300.6121    75.636395 
     100    576.39986   -107.68397   0.52153871   -107.16243    454.45649    4.2512866    4.2512866    4.2512866    454.45649   -6920.5598   -3366.6346    11650.564   -5289.6879   -8139.8848    2795.3264    76.835365 
     200    1046.8669   -107.68214   0.94722715   -106.73491   -30078.604    4.2747306    4.2747306    4.2747306   -30078.604   -41131.315   -29083.389   -20021.107    4297.3624   -19123.561    7933.0676    78.113525 
     300    1579.3929   -107.80086    1.4290679   -106.37179    18214.158    4.2874507    4.2874507    4.2874507    18214.158    43923.654     -37283.4     48002.22    18370.473     25033.03   -281.36901     78.81292 
     400    1109.4477   -107.08981    1.0038516   -106.08596   -18037.766    4.2899067    4.2899067    4.2899067   -18037.766   -5122.8967    1136.1525   -50126.553   -7282.0737   -19004.545     3401.406    78.948436 
     500    1549.9289   -107.27465    1.4024082   -105.87224    8641.7668    4.2772714    4.2772714    4.2772714    8641.7668    27253.629   -10025.878    8697.5497     12632.45   -24371.773    8309.6515    78.252895 
     600    2076.7357   -107.65482    1.8790741   -105.77574    21034.346    4.2784232    4.2784232    4.2784232    21034.346    56191.988   -44136.614    51047.662    3980.4101    14824.086   -5683.8897    78.316129 
     700    1416.7295   -107.04172    1.2818866   -105.75983    626.21373    4.2924345    4.2924345    4.2924345    626.21373    21615.976   -28559.334    8821.9997   -4564.0248   -57223.159    23599.138     79.08808 
     800    2073.2896   -107.62779     1.875956   -105.75184   -4306.0723    4.2981215    4.2981215    4.2981215   -4306.0723    21523.035   -63332.154    28890.902    3813.3864     -615.597   -986.55017    79.402843 
     900    1300.3108   -106.92846    1.1765485   -105.75191   -87.601441    4.2989612    4.2989612    4.2989612   -87.601441    49980.715   -75271.696    25028.177   -7363.1721   -16420.303   -4820.1205    79.449389 
    1000    1141.5399   -106.79044    1.0328893   -105.75755   -22534.815     4.303247     4.303247     4.303247   -22534.815    25450.166   -61967.258   -31087.354   -3840.9562   -44944.378    23902.238    79.687246 
    1100    2310.3729   -107.82588     2.090474   -105.73541     15864.22    4.2858298    4.2858298    4.2858298     15864.22    67989.278   -33052.416    12655.799   -13834.053    12759.714   -10416.943    78.723569 
    1200    1546.4049   -107.15643    1.3992197   -105.75721   -15274.007    4.2813536    4.2813536    4.2813536   -15274.007    9316.1422   -18282.107   -36856.057   -10810.982   -11366.068    6424.4806    78.477162 
    1300    1863.5405   -107.45824    1.6861706   -105.77207   -25367.697    4.3021846    4.3021846    4.3021846   -25367.697   -4049.2014   -22271.024   -49782.865   -8411.3625   -28152.492    3796.9449    79.628244 
    1400    1993.6698   -107.55136    1.8039144   -105.74745    38817.397    4.2965598    4.2965598    4.2965598    38817.397    42764.006   -38123.195    111811.38    3680.7833   -5125.0398   -13395.811    79.316327 
    1500    1047.9282   -106.71422   0.94818743   -105.76603   -6434.0902    4.2960398    4.2960398    4.2960398   -6434.0902    16412.441   -34825.038   -889.67288    12978.604   -18710.635    36044.087    79.287528 
    1600    1893.7167    -107.4694    1.7134746   -105.75592   -10662.397    4.3067758    4.3067758    4.3067758   -10662.397   -30977.564   -67017.696     66008.07    471.69692    -5645.996    5181.0973    79.883444 
    1700    2288.7761   -107.82027    2.0709327   -105.74934    20513.501    4.2925449    4.2925449    4.2925449    20513.501    31020.113   -44627.508    75147.897   -9287.8641   -18629.625     10859.84     79.09418 
    1800    987.18124   -106.67176   0.89322233   -105.77854    2600.6132    4.2844022    4.2844022    4.2844022    2600.6132     125146.7   -43339.016    -74005.84   -564.50681   -12518.683    34650.584    78.644923 
    1900    2341.9449   -107.89688     2.119041   -105.77784    -10732.66    4.2896007    4.2896007    4.2896007    -10732.66    7674.1054   -33713.616   -6158.4696    8031.1005    1246.6498   -15056.364    78.931542 
    2000    1469.4962    -107.1251     1.329631   -105.79547    30867.503    4.2953774    4.2953774    4.2953774    30867.503    158014.96    -29672.96   -35739.485    -252.9703   -8181.0427    16220.085    79.250862 
    2100    1436.2733   -107.09193    1.2995702   -105.79236   -33249.198    4.3023186    4.3023186    4.3023186   -33249.198    -7714.463   -45916.878   -46116.253    1541.4587   -30365.515    17558.963     79.63568 
    2200    2207.2188   -107.75476     1.997138   -105.75762    37858.243    4.2824033    4.2824033    4.2824033    37858.243     75413.98    3944.9645    34215.784    18.014677    29943.799   -16586.607    78.534902 
    2300    1318.0867   -106.97642    1.1926325   -105.78379   -4633.6795    4.2792603    4.2792603    4.2792603   -4633.6795    54114.968   -18299.544   -49716.462   -3103.0114   -31214.447    7367.5305    78.362107 
    2400      1422.96   -107.08985    1.2875241   -105.80233   -16049.721    4.2917275    4.2917275    4.2917275   -16049.721    26937.956   -35594.075   -39493.044   -11846.982   -35063.606    9609.9865    79.049008 
    2500     2578.928   -108.10134    2.3334683   -105.76788   -3909.6884    4.3053354    4.3053354    4.3053354   -3909.6884    50534.195   -37380.827   -24882.433   -10041.845    11929.598   -6813.9418    79.803323 
    2600    1352.9538   -106.99568     1.224181    -105.7715   -33787.834    4.3010502    4.3010502    4.3010502   -33787.834   -28277.719   -31273.257   -41812.525   -8664.5911   -39185.228     1577.283    79.565268 
    2700    1629.1132   -107.22729    1.4740559   -105.75324    22914.427    4.2847828    4.2847828    4.2847828    22914.427    74608.617   -15142.216    9276.8787   -6271.4551   -26377.385   -9070.8375    78.665884 
    2800    1815.5462   -107.40519    1.6427443   -105.76244    21793.608    4.2787039    4.2787039    4.2787039    21793.608      56218.4   -24634.516     33796.94   -16621.957   -4638.6688    5761.9095    78.331549 
    2900    1267.1325   -106.94039    1.1465281   -105.79386    6102.5325    4.2820693    4.2820693    4.2820693    6102.5325    8396.5453    6157.8027    3753.2494    9301.9988    -53337.96    2193.7566    78.516524 
    3000    2059.9227   -107.64445    1.8638613   -105.78059    8216.5832    4.3103188    4.3103188    4.3103188    8216.5832    58372.238   -31303.397   -2419.0919   -11297.747    5934.0031   -2254.1303    80.080756 
    3100    1432.2209   -107.05447    1.2959036   -105.75857   -52744.118    4.3170275    4.3170275    4.3170275   -52744.118   -73957.599   -32731.106   -51543.648   -15720.581   -27436.327    4846.8326    80.455261 
    3200    1664.1505   -107.24757    1.5057584   -105.74181   -4034.5311    4.2664648    4.2664648    4.2664648   -4034.5311   -1463.6102    26035.906   -36675.889    12247.336   -58773.182     3697.227    77.661274 
    3300    2121.0785    -107.6531    1.9191964   -105.73391    71986.774    4.2576492    4.2576492    4.2576492    71986.774    103763.16    56444.936    55752.226   -2809.3618    33262.197   -13386.226    77.180862 
    3400    1177.6037   -106.85219    1.0655205   -105.78667   -38407.132    4.2916425    4.2916425    4.2916425   -38407.132   -42038.082    912.51708   -74095.831   -6764.9668   -62704.317    9956.2249     79.04431 
    3500    1901.7531    -107.4857    1.7207462   -105.76495     6400.346    4.3160669    4.3160669    4.3160669     6400.346    57188.693    -47998.71    10011.055    13842.095    26532.994    4446.2274    80.401562 
    3600    1723.6347   -107.30238    1.5595809    -105.7428   -62961.089    4.3278956    4.3278956    4.3278956   -62961.089   -34870.119   -47958.914   -106054.23   -2154.0802    -39488.76    7834.7183     81.06443 
    3700     1256.713   -106.89229    1.1371003   -105.75519    -12086.05    4.2702946    4.2702946    4.2702946    -12086.05   -42434.631    41318.166   -35141.685   -12813.845   -82754.697    1836.7658    77.870599 
    3800    2857.2585   -108.28395    2.5853076   -105.69864    47329.651    4.2324564    4.2324564    4.2324564    47329.651    25209.098    37090.242    79689.613    5650.1197    36686.914     6431.863    75.818899 
    3900    1071.7193   -106.78073   0.96971411   -105.81102   -47853.851    4.2897571    4.2897571    4.2897571   -47853.851   -81910.891   -1811.1445   -59839.517   -4159.5318   -73605.809    11082.525    78.940177 
    4000    1595.5817   -107.19565    1.4437159   -105.75194   -51575.215    4.3228932    4.3228932    4.3228932   -51575.215   -41235.194   -78988.585   -34501.867    11317.855   -212.89912    19193.045     80.78366 
    4100     2038.747   -107.57662    1.8447011   -105.73192   -2293.7967    4.2989441    4.2989441    4.2989441   -2293.7967   -23906.927    -20254.72    37280.257    8990.1611   -9652.8709    5952.8925    79.448446 
    4200    1429.9874   -107.04724    1.2938826   -105.75336   -3335.8519     4.261965     4.261965     4.261965   -3335.8519   -27838.161    26877.815   -9047.2088   -8297.8419    -64736.65   -8424.8673    77.415803 
    4300      1542.83   -107.18023     1.395985   -105.78425    37652.855    4.2570375    4.2570375    4.2570375    37652.855     110781.2   -21686.812     23864.18    11790.544     2712.434   -7089.2467    77.147601 
    4400    2107.0609   -107.71941     1.906513    -105.8129    -7357.316    4.3033252    4.3033252    4.3033252    -7357.316   -8868.2581   -1792.4441   -11411.246    3734.0155   -11346.139   -6529.2025     79.69159 
    4500    1442.0215   -107.06655    1.3047713   -105.76177   -34300.626    4.3199984    4.3199984    4.3199984   -34300.626    -21729.46   -44439.237   -36733.182    14538.947   -15282.671   -22.901062    80.621478 
    4600    2112.8151   -107.63185    1.9117195   -105.72013    7173.7686    4.2765626    4.2765626    4.2765626    7173.7686     61916.32   -43817.325    3422.3105   -16347.812    12449.259    2037.0293    78.213998 
    4700    1639.5547   -107.20482    1.4835036   -105.72132      30192.7    4.2595516    4.2595516    4.2595516      30192.7    2371.1164    45568.159    42638.825   -1914.6618    28448.241   -1545.6282    77.284368 
    4800    2186.2189   -107.73386    1.9781368   -105.75572   -3691.4791    4.2820099    4.2820099    4.2820099   -3691.4791    1584.2726   -37020.564    24361.855    6231.8188   -19332.295     7631.736     78.51326 
    4900    1201.2217   -106.86122    1.0868907   -105.77433   -19937.384    4.3027097    4.3027097    4.3027097   -19937.384    1388.5075   -14517.609   -46683.049    10376.121    52731.597    9890.8543    79.657402 
    5000    1953.2042   -107.52695    1.7673002   -105.75965   -15388.305    4.2896184    4.2896184    4.2896184   -15388.305   -40420.403    11863.398   -17607.911   -4257.4579    45309.363    9071.4062    78.932519 
    5100    2211.2874   -107.74887    2.0008193   -105.74805    19817.638    4.2665014    4.2665014    4.2665014    19817.638    41459.737    13176.778    4816.3982   -4022.6234    -9041.414   -14699.162    77.663271 
    5200    638.46216   -106.36437   0.57769398   -105.78668   -30013.424    4.2807404    4.2807404    4.2807404   -30013.424   -21079.501    29172.241   -98133.012    16352.879    73345.576    1066.5798    78.443449 
    5300    1781.0581   -107.37283    1.6115388   -105.76129    31349.536    4.2875736    4.2875736    4.2875736    31349.536    12418.085     53231.56    28398.962    17185.983   -14467.363   -3504.5994    78.819699 
    5400    1915.1385   -107.50465    1.7328575    -105.7718    -11632.92    4.2979772    4.2979772    4.2979772    -11632.92   -35241.867    8157.2028    -7814.097   -4086.9964    31971.897   -6088.0694    79.394847 
    5500    1776.3893   -107.36111    1.6073143   -105.75379   -35372.533    4.3006448    4.3006448    4.3006448   -35372.533   -14802.837   -66766.713   -24548.048   -10624.541     28771.06   -10291.956    79.542774 
    5600    2002.1323   -107.53745    1.8115714   -105.72588   -1363.5993    4.2807991    4.2807991    4.2807991   -1363.5993    14937.351   -36691.187    17663.038   -1814.5419   -25183.863    7407.6906    78.446673 
    5700    1683.8972   -107.26683    1.5236256   -105.74321    22356.612     4.289194     4.289194     4.289194    22356.612   -32914.643     61936.19    38048.289    2721.5239    19033.356   -408.96848    78.909097 
    5800    1418.2447   -107.02574    1.2832576   -105.74248   -14647.877    4.3038696    4.3038696    4.3038696   -14647.877   -17442.217    30762.024   -57263.439    -9272.505    244.00771    1684.9073    79.721838 
    5900    1280.4411    -106.8959      1.15857   -105.73733   -6423.4803    4.2887569    4.2887569    4.2887569   -6423.4803   -19932.771   -9690.9285    10353.259   -9668.3106   -37238.786    1146.6276    78.884973 
    6000    2715.4342   -108.18863    2.4569819   -105.73165    11659.012    4.2848312    4.2848312    4.2848312    11659.012   -29099.738     5313.846    58762.929    7925.4044    6487.0202   -11284.206    78.668553 
    6100    770.28987   -106.47241   0.69697446   -105.77544     30198.81     4.288613     4.288613     4.288613     30198.81    6882.1534    64524.668    19189.607    6358.3517   -29461.809    -15087.72    78.877037 
    6200    1907.1701   -107.49621    1.7256475   -105.77056   -12968.707    4.3001625    4.3001625    4.3001625   -12968.707    3289.6511   -35984.946   -6210.8253    -8221.009   -4416.4282      14120.6    79.516013 
    6300    1631.5329   -107.24231    1.4762452   -105.76607   -4526.1321    4.3073813    4.3073813    4.3073813   -4526.1321   -73463.247    64284.613   -4399.7626   -3749.2967    35333.555   -3315.7337    79.917143 
    6400    2102.4692   -107.65429    1.9023583   -105.75193   -4174.7616    4.2823284    4.2823284    4.2823284   -4174.7616   -39083.778    26138.223    421.26998   -1128.0768   -36661.192    11178.521    78.530778 
    6500    1479.7377   -107.10237    1.3388977   -105.76347   -7173.5312    4.2671932    4.2671932    4.2671932   -7173.5312    -21728.19    15378.652   -15171.056   -4136.5784    54638.061    10160.177    77.701055 
    6600    1938.9435   -107.54653    1.7543968   -105.79214   -10392.168    4.2893758    4.2893758    4.2893758   -10392.168   -42507.129    34067.195   -22736.569    -5401.589    35619.102    13081.587    78.919129 
    6700    2198.2651   -107.75643    1.9890365    -105.7674   -2019.9576    4.3045659    4.3045659    4.3045659   -2019.9576   -47417.742   -8875.4242    50233.293   -18968.247   -462.82025   -4130.7147     79.76054 
    6800    881.57647   -106.56575   0.79766892   -105.76808    -17852.44    4.2929608    4.2929608    4.2929608    -17852.44    1505.3631   -3059.3674   -52003.316    -12189.92    80352.892    -6469.891    79.117172 
    6900    2243.9302   -107.77416    2.0303552   -105.74381    28652.866    4.2874446    4.2874446    4.2874446    28652.866    24659.138    16531.124    44768.335   -3809.0737   -10490.757    6472.1972    78.812583 
    7000    1369.9681   -106.98355    1.2395759   -105.74397   -25911.845    4.3066572    4.3066572    4.3066572   -25911.845    -93083.97    23195.557    -7847.121   -15210.733    64110.659   -1625.2418    79.876845 
    7100    1201.3232   -106.82229    1.0869825   -105.73531   -7307.1525    4.2935045    4.2935045    4.2935045   -7307.1525   -38614.294   -44665.416    61358.252   -10807.529    21881.299    8125.7351    79.147237 
    7200     2156.923   -107.68729    1.9516293   -105.73566    451.53099    4.2703127    4.2703127    4.2703127    451.53099    10113.406    -28574.02    19815.206     14334.09   -24353.858    519.22173    77.871588 
    7300     2214.994   -107.77908    2.0041732   -105.77491   -4744.9478    4.2816139    4.2816139    4.2816139   -4744.9478    -34334.29   -19443.845    39543.291   -2539.4979    25801.645    2621.7621    78.491477 
    7400    1396.1705   -107.04196    1.2632844   -105.77868    -39896.59    4.3013671    4.3013671    4.3013671    -39896.59    27145.335   -73297.443   -73537.663   -14025.865    6772.1501    18571.048    79.582858 
    7500    949.26517   -106.62685   0.85891507   -105.76793    24647.034    4.2875159    4.2875159    4.2875159    24647.034    31014.098   -18437.853    61364.856   -3500.4998   -31084.718    2972.6964    78.816513 
    7600    2452.8989   -107.98469    2.2194345   -105.76526    13956.419    4.2809277    4.2809277    4.2809277    13956.419   -6439.9357     823.9503    47485.244   -9648.3045    9398.7175    919.34074    78.453747 
    7700    1957.0999   -107.56065    1.7708251   -105.78983    43615.133    4.2548571    4.2548571    4.2548571    43615.133    32732.593   -13010.627    111123.43     -919.852    19015.254     6374.209    77.029118 
    7800    899.77764   -106.64795   0.81413772   -105.83382    5242.9052    4.2678915    4.2678915    4.2678915    5242.9052    52378.926   -24053.563   -12596.647   -1139.0234    -49353.38   -18342.312    77.739207 
    7900    1638.6552   -107.29563    1.4826897   -105.81294   -32585.101    4.2958696    4.2958696    4.2958696   -32585.101   -48966.892   -10161.287   -38627.124   -5861.7722    42698.383    5070.0224    79.278106 
    8000    2225.2137   -107.78625    2.0134201   -105.77283   -13445.736    4.2928005    4.2928005    4.2928005   -13445.736   -10702.053    -25393.86   -4241.2954   -1145.8168    17831.032    954.54569    79.108312 
    8100    1598.6818   -107.21657    1.4465209   -105.77004   -18493.402    4.2838223    4.2838223    4.2838223   -18493.402    -3323.011    -18758.29   -33398.906    16027.381   -18477.721   -19370.983    78.612994 
    8200    1100.6768   -106.77561   0.99591548   -105.77969     9994.427    4.2642941    4.2642941    4.2642941     9994.427   -52319.508    50977.272    31325.516   -12466.805    50106.337    5616.8031    77.542796 
    8300    2140.1371    -107.7207     1.936441   -105.78426    15414.135    4.2651514    4.2651514    4.2651514    15414.135     28057.66   -29713.687    47898.432    8522.8879   -2718.5808    20663.008    77.589573 
    8400    1909.8476   -107.52679    1.7280703   -105.79872    1138.2976    4.2873224    4.2873224    4.2873224    1138.2976   -40035.843    20887.171    22563.564    29061.387    9130.2598   -18533.761    78.805842 
    8500    1715.2846   -107.32747    1.5520256   -105.77545    -9108.364    4.2964831    4.2964831    4.2964831    -9108.364   -31052.976   -17326.139    21054.023   -13487.049    45793.343    1471.6038    79.312076 
    8600     1855.408    -107.4397    1.6788122   -105.76089   -30681.198    4.2770467    4.2770467    4.2770467   -30681.198   -19463.808   -65807.258   -6772.5274    39390.582   -6900.5187    36075.554    78.240567 
    8700    1483.3847    -107.1044    1.3421977    -105.7622     10969.24    4.2619209    4.2619209    4.2619209     10969.24   -21981.529    46632.425     8256.824    17912.591    21252.111   -18002.048    77.413402 
    8800    2148.5182   -107.71727    1.9440244   -105.77324   -13064.091    4.2745468    4.2745468    4.2745468   -13064.091   -18538.533   -7582.9307   -13070.809   -7971.6417    34967.113     4829.118    78.103454 
    8900    1303.5799   -106.96635    1.1795065   -105.78684   -14403.252    4.2894215    4.2894215    4.2894215   -14403.252   -27756.019   -12005.612   -3448.1261    44193.551   -24015.076    30089.714    78.921652 
    9000    1923.5667   -107.50892    1.7404835   -105.76843   -24766.137    4.2968648    4.2968648    4.2968648   -24766.137   -52878.896   -29467.381    8047.8672   -2124.2712    36405.033    -9238.309    79.333216 
    9100    1828.4964   -107.40682     1.654462   -105.75236    4518.6776    4.2861188    4.2861188    4.2861188    4518.6776    38262.099    18275.356   -42981.422   -8305.8454      11748.2    11626.285    78.739492 
    9200     1332.129   -106.96057    1.2053383   -105.75523    32499.549    4.2708508    4.2708508    4.2708508    32499.549    93489.842    29115.123   -25106.319    18524.583    3635.9533    35638.256     77.90103 
    9300    1398.0639    -107.0298    1.2649976    -105.7648     32967.43    4.2800689    4.2800689    4.2800689     32967.43    29637.834      51290.1    17974.356    9236.3668    43041.369   -3895.7255    78.406541 
    9400    1750.2936   -107.35341    1.5837024   -105.76971    10421.693    4.2953399    4.2953399    4.2953399    10421.693    43181.021    8861.0952   -20777.035    -21076.79   -8494.2271    37022.091    79.248785 
    9500     1406.511   -107.03446    1.2726407   -105.76182    10167.757    4.2994507    4.2994507    4.2994507    10167.757    7131.3401    72218.372   -48846.442    18710.889    18331.326    4107.5906    79.476532 
    9600    1652.6847   -107.25051    1.4953838   -105.75513   -5506.4282    4.2896631    4.2896631    4.2896631   -5506.4282    5191.4143    10559.556   -32270.255    6366.7601    34219.247    -5855.957    78.934987 
    9700    1901.1188   -107.46992    1.7201723   -105.74974    32435.943    4.2603462    4.2603462    4.2603462    32435.943    52324.898    56584.677   -11601.747   -11655.177   -28545.193    25771.119    77.327626 
    9800    1163.6841   -106.83994    1.0529259   -105.78702    18774.676    4.2684949    4.2684949    4.2684949    18774.676   -4177.5496    42927.796    17573.781    24342.075    30661.234   -9855.0553    77.772184 
    9900    1913.5436   -107.50977    1.7314145   -105.77835   -23637.102    4.2920699    4.2920699    4.2920699   -23637.102   -59968.168   -37414.061    26470.922     13356.75    30805.257   -9533.2729    79.067928 
   10000    2134.2473    -107.6849    1.9311118   -105.75379    5630.5984    4.2906091    4.2906091    4.2906091    5630.5984    18120.745     12199.99    -13428.94    5433.7451   -5458.5411    12116.402    78.987225 
   10100     1235.847   -106.88284    1.1182204   -105.76462   -398.94588    4.2827575    4.2827575    4.2827575   -398.94588   -12208.407    23382.742   -12371.173    31635.905    20988.827   -17430.706    78.554391 
   10200    1581.0773   -107.21375     1.430592   -105.78316   -19111.389    4.2717031    4.2717031    4.2717031   -19111.389    -8408.418    -26016.63    -22909.12   -5781.3348    20004.509   -11332.082    77.947678 
   10300     2465.656   -108.01001    2.2309774   -105.77903    37307.614    4.2675133    4.2675133    4.2675133    37307.614    66096.154    51024.228   -5197.5407    -6504.127   -4511.6165    6111.0913    77.718541 
   10400     1411.245   -107.07614    1.2769241   -105.79921   -31033.351    4.2919305    4.2919305    4.2919305   -31033.351   -12161.841   -65158.369   -15779.843    27642.059    12387.368   -17346.443    79.060227 
   10500    1130.6292    -106.7937    1.0230171   -105.77068   -15366.047    4.2945083    4.2945083    4.2945083   -15366.047   -60109.806   -28278.813    42290.478   -15768.571    2930.0817   -10692.198    79.202767 
   10600    1764.0554   -107.34286    1.5961544   -105.74671   -3224.0058    4.2824794    4.2824794    4.2824794   -3224.0058   -29841.808    26159.671   -5989.8801    12903.572   -36064.201    12370.173    78.539085 
   10700    1905.3264    -107.4619    1.7239794   -105.73792    1550.5074    4.2775981    4.2775981    4.2775981    1550.5074    35093.927   -26543.705   -3898.7004    12700.838    13940.389   -5564.4384    78.270831 
   10800    1664.7127   -107.26092     1.506267   -105.75465    -991.0701    4.2718367    4.2718367    4.2718367    -991.0701   -31966.185    8054.8549     20938.12   -30952.404   -25401.373     2055.196     77.95499 
   10900    1796.3835   -107.39603    1.6254055   -105.77063    1016.5452    4.2666477    4.2666477    4.2666477    1016.5452    3736.5602    16745.392   -17432.317    6721.9844   -20378.562   -699.04802    77.671262 
   11000    1580.2548   -107.21473    1.4298478   -105.78488   -5103.4883    4.2744733    4.2744733    4.2744733   -5103.4883    23816.274   -22280.879    -16845.86    3451.1008    12906.748   -28212.567    78.099426 
   11100    1664.3371   -107.28457    1.5059272   -105.77864   -21060.428    4.2848241    4.2848241    4.2848241   -21060.428   -47731.043   -22327.215    6876.9742   -24384.554   -23437.961    5037.2701    78.668161 
   11200    1549.4253   -107.16612    1.4019526   -105.76417   -9607.1229    4.2872367    4.2872367    4.2872367   -9607.1229   -4827.7699    21584.194   -45577.793    2777.9464    4771.8316   -1704.3162    78.801117 
   11300     1178.958   -106.83088     1.066746   -105.76414   -2573.3198    4.2769873    4.2769873    4.2769873   -2573.3198    36138.542   -12821.789   -31036.712   -29006.157    8948.4095    3833.7776    78.237305 
   11400    2342.2727   -107.87479    2.1193375   -105.75545    28003.315    4.2715632    4.2715632    4.2715632    28003.315    33173.743    6609.2668    44226.936   -24367.147    2191.5101    26087.544    77.940018 
   11500    1772.8721   -107.38355    1.6041319   -105.77942   -4916.6353    4.2845342    4.2845342    4.2845342   -4916.6353    44919.538   -36447.151   -23222.293    4467.9295    24696.168   -22772.796    78.652192 
   11600    1007.6132   -106.68224   0.91170964   -105.77053    15227.897    4.2944381    4.2944381    4.2944381    15227.897    86150.259   -37830.962    -2635.606   -26199.943    19707.532    17783.289    79.198879 
   11700    2158.1518   -107.68332    1.9527411   -105.73057    14097.735    4.2955378    4.2955378    4.2955378    14097.735    34006.457   -40684.011    48970.759     7107.749    7693.4815    -211.1567    79.259736 
   11800    1473.1419   -107.09423    1.3329297    -105.7613   -11127.173    4.2734645    4.2734645    4.2734645   -11127.173     2015.122   -78913.859    43517.217    9473.1633    23921.802    650.07097    78.044138 
   11900     1803.642   -107.40006    1.6319732   -105.76809    32818.865    4.2473739    4.2473739    4.2473739    32818.865    42062.422    11100.254    45293.918   -15287.278    21738.449    10592.771    76.623412 
   12000    1667.9211    -107.3094    1.5091701   -105.80023    17264.246    4.2598278    4.2598278    4.2598278    17264.246   -2766.0994    8407.2565    46151.582    33328.788   -38666.264   -679.81878      77.2994 
   12100    1470.8951   -107.14322    1.3308968   -105.81232   -27104.363    4.2969913    4.2969913    4.2969913   -27104.363    21163.269   -86292.643   -16183.714    12605.067    -10663.71    11094.174    79.340224 
   12200    2126.6978   -107.68745    1.9242809   -105.76317    15178.669    4.3025646    4.3025646    4.3025646    15178.669    87689.348   -39583.813   -2569.5286    2013.9616   -8536.2181    3847.7429    79.649346 
   12300    1282.3733   -106.92606    1.1603183   -105.76574    268.24446    4.2847134    4.2847134    4.2847134    268.24446    19283.057   -32444.518    13966.194    36344.184   -34818.297    2495.8601    78.662063 
   12400    1793.6843   -107.35731    1.6229633   -105.73434    18711.821     4.273957     4.273957     4.273957    18711.821    69907.609   -8084.4762   -5687.6707   -10173.789    5521.2636   -11792.358    78.071128 
   12500    1864.2838    -107.4332    1.6868432   -105.74636   -13001.985     4.279018     4.279018     4.279018   -13001.985   -42149.345      1700.21    1443.1787    27810.287    22249.449    4722.5232    78.348796 
   12600    1544.9144   -107.16309    1.3978711   -105.76522    3551.7466    4.2788648    4.2788648    4.2788648    3551.7466    5699.3755      5145.22   -189.35562    40869.809   -21027.429    10276.503    78.340385 
   12700    2110.9172   -107.67027    1.9100023   -105.76027    9773.5719    4.2903992    4.2903992    4.2903992    9773.5719    46174.734   -8946.2903    -7907.728    2915.6586    33840.707   -3474.3573    78.975631 
   12800    1104.6921   -106.76401   0.99954865   -105.76446    -33137.95    4.3027048    4.3027048    4.3027048    -33137.95   -33740.236   -63690.664    -1982.949    46990.327    7729.6897    3407.4124    79.657127 
   12900    2243.4561   -107.76237    2.0299262   -105.73244   -4036.2235    4.2809221    4.2809221    4.2809221   -4036.2235   -3874.2546   -22601.482    14367.067    5944.7392   -28729.243    7093.7643    78.453437 
   13000    1203.3012   -106.84832    1.0887722   -105.75955    -24661.81    4.2733636    4.2733636    4.2733636    -24661.81   -50261.526    33537.253   -57261.158    7835.7659    94411.765   -798.74288    78.038615 
   13100    1766.5395   -107.36299    1.5984021   -105.76459   -13075.938      4.27011      4.27011      4.27011   -13075.938   -18257.365   -44172.887    23202.439    44592.172   -4513.2674      2362.48      77.8605 
   13200    2029.7162   -107.59801    1.8365299   -105.76148   -28003.021    4.2920291    4.2920291    4.2920291   -28003.021    -27701.86   -11907.132   -44400.073   -2856.8869    36903.948    12156.744    79.065675 
   13300    1313.2688   -106.92858    1.1882732   -105.74031    -30671.33    4.3052725    4.3052725    4.3052725    -30671.33   -11743.579   -11475.314   -68795.097    11309.948    55805.694   -10898.715    79.799827 
   13400    2046.6755   -107.56198     1.851875    -105.7101   -13070.691     4.284732     4.284732     4.284732   -13070.691   -18008.488   -47955.386    26751.801    25023.603   -8771.8003    264.10082    78.663089 
   13500    1681.1929   -107.24674    1.5211787   -105.72557   -11338.227    4.2643616    4.2643616    4.2643616   -11338.227   -24475.955    48421.971   -57960.696   -12088.431     69560.65   -1644.8416    77.546476 
   13600    1612.7676   -107.21616     1.459266   -105.75689    8744.2099     4.267359     4.267359     4.267359    8744.2099    14882.833   -15620.511    26970.307     41457.54    5531.7861   -9781.1187    77.710114 
   13700    2312.1012   -107.85023    2.0920377   -105.75819   -6656.8493    4.2923698    4.2923698    4.2923698   -6656.8493    11924.941   -19280.147   -12615.342   -10904.324    7388.0869     829.1663    79.084506 
   13800    1193.6295   -106.83307    1.0800211   -105.75305   -13251.448    4.3028833    4.3028833    4.3028833   -13251.448   -2561.0144   -22579.067   -14614.264    12321.468    43810.237    4729.7039    79.667044 
   13900    1947.2924   -107.48281    1.7619511   -105.72086    13158.781    4.2808604    4.2808604    4.2808604    13158.781    13430.658   -9198.4664    35244.152    42031.751   -26045.345   -2171.5452    78.450047 
   14000     1340.777   -106.94137    1.2131632   -105.72821    25244.308    4.2557901    4.2557901    4.2557901    25244.308   -4357.1901    80889.051   -798.93665   -18129.931    36033.235     1567.372    77.079804 
   14100    1878.6317   -107.45528    1.6998254   -105.75546   -12248.117    4.2640205    4.2640205    4.2640205   -12248.117   -27602.409   -22216.455    13074.513    23500.222    20706.431   -2093.1124    77.527871 
   14200    2166.7247     -107.717    1.9604981    -105.7565   -12591.214    4.2871533    4.2871533    4.2871533   -12591.214   -41727.947   -11822.311    15776.615    15255.749   -6860.1235    -5118.845    78.796521 
   14300    1107.8489   -106.77915    1.0024049   -105.77674    -16454.36    4.2812579    4.2812579    4.2812579    -16454.36   -96745.786    80262.033   -32879.328   -22125.922     31020.29    3265.9447    78.471902 
   14400    2284.0468   -107.82374    2.0666535   -105.75709    25747.749    4.2655532    4.2655532    4.2655532    25747.749    1431.3068    46632.721     29179.22    1902.9269    5195.7371    3531.8616    77.611504 
   14500    1787.0369   -107.39182    1.6169485   -105.77487     10446.95    4.2713116    4.2713116    4.2713116     10446.95   -43747.555    38049.576     37038.83    9319.1801    4129.0195    507.67105    77.926248 
   14600    764.36828   -106.47747   0.69161648   -105.78586   -1902.5461    4.2865411    4.2865411    4.2865411   -1902.5461   -44637.865    65484.666   -26554.439   -12068.861    17821.097    7629.1427    78.762769 
   14700    2323.5394   -107.85182    2.1023873   -105.74943    8843.9325    4.2936019    4.2936019    4.2936019    8843.9325   -37372.569    8992.7728    54911.594     6293.697   -10379.917    15797.383    79.152627 
   14800    1281.1343   -106.92289    1.1591973   -105.76369    119.51412    4.2787541    4.2787541    4.2787541    119.51412   -84297.541    99689.702   -15033.619    22583.699     30374.75   -12279.533    78.334306 
   14900     1666.182   -107.25946    1.5075965   -105.75186    19053.391    4.2681109    4.2681109    4.2681109    19053.391   -28004.912    89485.053   -4319.9688   -8257.0781   -13334.427    15746.097    77.751198 
   15000    1942.7116   -107.51442    1.7578063   -105.75661   -1219.1507    4.2790423    4.2790423    4.2790423   -1219.1507   -58490.355    21443.828    33389.075    44802.112     5848.236   -1554.1642    78.350131 
   15100     751.0848     -106.456   0.67959731    -105.7764    9151.2371    4.2843383    4.2843383    4.2843383    9151.2371   -63008.261    83123.561    7338.4122    29286.326    16644.072   -12826.234    78.641408 
   15200    2044.8308   -107.60697    1.8502059   -105.75677   -6403.3593    4.2907953    4.2907953    4.2907953   -6403.3593   -43512.911    49807.151   -25504.318    3627.6997    -30966.04    7276.0511     78.99751 
   15300    1933.0207   -107.49062    1.7490378   -105.74158    -9942.159    4.2907845    4.2907845    4.2907845    -9942.159   -18541.922   -49844.826    38560.271    22539.224    26918.463   -10096.613     78.99691 
   15400    837.99385   -106.52269   0.75823444   -105.76446   -9172.6268    4.2743985    4.2743985    4.2743985   -9172.6268   -57948.354     26320.27    4110.2039    2587.0336   -4050.6012   -46.415367    78.095326 
   15500       2040.6    -107.6118    1.8463777   -105.76542     22410.44    4.2615305    4.2615305    4.2615305     22410.44    6774.4894    12204.474    48252.355   -27451.197   -17105.528   -9927.3183     77.39213 
   15600    2242.7985   -107.80708    2.0293312   -105.77775    11101.562    4.2753105    4.2753105    4.2753105    11101.562    1158.9917   -11321.866    43467.561    5167.9156    13238.075    3252.0611    78.145324 
   15700    1566.7978   -107.20477    1.4176715    -105.7871   -34045.814    4.2838443    4.2838443    4.2838443   -34045.814   -88621.407    16609.044   -30125.079   -2830.2959   -8624.5619    1215.4724    78.614205 
   15800    1215.6322   -106.88635    1.0999295   -105.78642    8839.4835    4.2736579    4.2736579    4.2736579    8839.4835    -22492.22   -42822.643    91833.313   -41732.048   -4933.2918    7416.9179    78.054735 
   15900    2176.0445   -107.74916    1.9689308   -105.78023   -8628.1276    4.2689635    4.2689635    4.2689635   -8628.1276   -2073.0719   -26066.622    2255.3109   -624.39118   -1905.9774    26205.719    77.797804 
   16000    1796.2554   -107.40705    1.6252897   -105.78176     23799.51    4.2695774    4.2695774    4.2695774     23799.51   -17256.592    27110.573    61544.548   -17922.859    5861.7513   -4259.7406     77.83137 
   16100    1076.3319   -106.76792   0.97388772   -105.79403   -11824.848    4.3007401    4.3007401    4.3007401   -11824.848   -25735.393   -41722.744    31983.593   -19678.171    4810.3463    24835.323    79.548063 
   16200    2229.0628   -107.76243    2.0169029   -105.74552   -52918.044    4.3022999    4.3022999    4.3022999   -52918.044   -33740.533   -74034.772   -50978.826    28287.688    2345.5095    31261.808    79.634644 
   16300    1999.4325   -107.54967    1.8091285   -105.74054    46372.303    4.2479851    4.2479851    4.2479851    46372.303    27511.802    18067.665    93537.442   -43458.477    11190.649   -11767.896    76.656495 
   16400    1337.0321   -106.98246    1.2097747   -105.77268   -12185.641    4.2450688    4.2450688    4.2450688   -12185.641    9090.4826   -46900.283    1252.8781    3884.2126    7547.3585     49222.23    76.498724 
   16500    1425.8373   -107.08943    1.2901275    -105.7993   -9820.4415      4.27781      4.27781      4.27781   -9820.4415    29084.511   -55181.819   -3364.0166    25341.624    1941.0999    25907.948     78.28246 
   16600    2331.7572   -107.88953    2.1098229   -105.77971   -6333.9995    4.2968592    4.2968592    4.2968592   -6333.9995   -24155.812   -7087.8222    12241.636   -36137.642   -9739.0287   -15355.702    79.332909 
   16700    1476.7434   -107.11298    1.3361884   -105.77679   -46867.254    4.2979802    4.2979802    4.2979802   -46867.254   -51341.725   -20542.852   -68717.186    11490.232     12740.21    31725.642    79.395017 
   16800    1353.3483   -107.00285     1.224538   -105.77831    18131.773    4.2587761    4.2587761    4.2587761    18131.773    22248.593    39971.722   -7824.9954    37993.803   -1217.0701    19254.702    77.242164 
   16900    2294.5644   -107.84025    2.0761701   -105.76408    58528.728    4.2520864    4.2520864    4.2520864    58528.728    55448.992    69644.653    50492.539   -18780.508   -13798.755   -20786.262    76.878735 
   17000    1078.8985   -106.78311   0.97621003    -105.8069   -24097.596    4.2834998    4.2834998    4.2834998   -24097.596    -37351.31   -2595.2198   -32346.259    17281.704     24522.18    3287.6228    78.595242 
   17100    1540.5601    -107.1792    1.3939312   -105.78527   -7639.1867     4.294663     4.294663     4.294663   -7639.1867   -27384.378   -23494.575    27961.393    28498.106   -10604.794     4937.061    79.211325 
   17200    2423.8179   -107.92907    2.1931213   -105.73595   -34212.948    4.3092523    4.3092523    4.3092523   -34212.948   -24045.666   -23611.714   -54981.463   -4542.1232   -5443.5029   -20122.969    80.021328 
   17300    691.17274   -106.36245   0.62538762   -105.73706   -43014.633    4.2967642    4.2967642    4.2967642   -43014.633   -40847.049   -32969.474   -55227.375    57239.532    4503.9732    20845.273    79.327647 
   17400    2084.3041   -107.60519    1.8859221   -105.71927    25652.085    4.2470924    4.2470924    4.2470924    25652.085    16603.638    14992.372    45360.246   -28345.506   -2820.8145      4087.91    76.608178 
   17500    2088.2761   -107.64356    1.8895161   -105.75404    35791.655    4.2432366    4.2432366    4.2432366    35791.655    34260.426    54988.795    18125.746   -23811.355    8244.6627   -13438.932    76.399715 
   17600     1538.899   -107.18681    1.3924281   -105.79438    -9165.178    4.2788722    4.2788722    4.2788722    -9165.178   -13474.989     7827.403   -21847.947    63994.957    3698.2845    4988.1309    78.340789 
   17700    1161.2529   -106.84186    1.0507261   -105.79113    5777.8683    4.2895466    4.2895466    4.2895466    5777.8683     14470.34   -16531.992    19395.258   -45228.129   -3669.9161    8844.8902    78.928557 
   17800    2173.5664   -107.73107    1.9666885   -105.76438   -1230.7512    4.2830705    4.2830705    4.2830705   -1230.7512    10934.157    14871.391   -29497.802   -13601.476   -3974.8462   -20941.078    78.571614 
   17900    1894.8588   -107.48524    1.7145081   -105.77074    7334.2157     4.264256     4.264256     4.264256    7334.2157    13469.745    19666.427   -11133.526    23042.892    10539.028    5358.5285    77.540716 
   18000    1480.2809   -107.12951    1.3393893   -105.79013    26644.976    4.2581492    4.2581492    4.2581492    26644.976    50388.836    6162.0128    23384.078   -23714.242    6630.0135    1260.1279    77.208054 
   18100    1846.5385   -107.47231    1.6707868   -105.80153    -21615.56     4.286141     4.286141     4.286141    -21615.56   -7129.1056    17914.167    -75631.74   -5486.1998   -38740.528   -44107.763    78.740716 
   18200    2290.0994   -107.83111      2.07213   -105.75898   -14910.838     4.297967     4.297967     4.297967   -14910.838   -11526.076   -8053.3808   -25153.057    8743.8707    20589.034    21944.277    79.394285 
   18300    911.37645   -106.57649   0.82463257   -105.75185    1295.7983    4.2861834    4.2861834    4.2861834    1295.7983    24348.221    13788.442   -34249.269   -20273.521   -7418.9962   -20818.444    78.743051 
   18400    1853.8166   -107.42754    1.6773723   -105.75017    1531.4036    4.2692686    4.2692686    4.2692686    1531.4036    30517.125   -5038.5697   -20884.345    26636.796   -20342.648   -23334.025    77.814483 
   18500    2363.7692   -107.89307    2.1387881   -105.75428    38912.233    4.2539657    4.2539657    4.2539657    38912.233    44445.923    40479.383    31811.393    -223.7626    9705.7897    25949.902     76.98072 
   18600    1224.8752    -106.9119    1.1082928    -105.8036    16745.327    4.2592358    4.2592358    4.2592358    16745.327    36976.513    46936.733   -33677.264   -33868.671   -14664.163   -41258.216    77.267178 
   18700    1265.1817     -106.956     1.144763   -105.81124   -28816.217    4.2809584    4.2809584    4.2809584   -28816.217   -42349.363   -55729.792    11630.504    44696.466   -7574.6957   -10598.821    78.455435 
   18800    2213.3857   -107.78367    2.0027179   -105.78095   -427.73215    4.2764129    4.2764129    4.2764129   -427.73215   -7166.7111   -25491.448    31374.963    32183.916   -1011.0509    12513.741    78.205785 
   18900    1759.6227   -107.37382    1.5921436   -105.78168    10213.841    4.2703772    4.2703772    4.2703772    10213.841    14526.678    2603.1906    13511.656   -17911.702    -18092.96   -44724.698    77.875117 
   19000    1019.0755   -106.71675   0.92208096   -105.79467   -6478.3399    4.2698261    4.2698261    4.2698261   -6478.3399   -66146.703   -24983.622    71695.305    42997.048   -20343.836    3201.6583    77.844971 
   19100    1790.6661   -107.40521    1.6202323   -105.78498      5075.64    4.2673299    4.2673299    4.2673299      5075.64   -58580.297     22037.19    51770.027    3380.4249    5081.6249    2547.0926    77.708522 
   19200    1842.4239   -107.45781    1.6670639   -105.79075   -12344.205    4.2729406    4.2729406    4.2729406   -12344.205   -11364.237   -31564.688    5896.3081    7618.1519    3487.0929    -28908.91     78.01544 
   19300    1764.2289   -107.38702    1.5963114    -105.7907   -1339.2607    4.2718572    4.2718572    4.2718572   -1339.2607   -44580.312   -38948.538    79511.068    47857.926    -14034.59   -1269.2274    77.956115 
   19400    2224.9602   -107.79454    2.0131908   -105.78135    6250.5912    4.2705819    4.2705819    4.2705819    6250.5912   -22270.596    18585.131    22437.238   -19797.615    -12132.36    8345.8017    77.886314 
   19500    1298.6297    -106.9672    1.1750274   -105.79217   -31053.017    4.2772377    4.2772377    4.2772377   -31053.017   -42386.073   -67569.311    16796.334    40164.951   -866.42009   -30015.047    78.251046 
   19600    1326.0037   -106.99399     1.199796   -105.79419    8269.5711    4.2739989    4.2739989    4.2739989    8269.5711   -16674.823   -43093.734     84577.27    31914.576   -14998.664    28342.274    78.073421 
   19700    2228.1845   -107.78222    2.0161081   -105.76611     51663.65    4.2655471    4.2655471    4.2655471     51663.65    34262.787    35838.434    84889.728    1643.1261   -6911.5769    13565.659    77.611169 
   19800    1009.7678   -106.70968   0.91365914   -105.79602    16213.945     4.279454     4.279454     4.279454    16213.945    16558.695   -23749.252    55832.393    73790.731   -4247.8262   -19107.442    78.372752 
   19900    2005.0797   -107.56888    1.8142382   -105.75464   -5312.8956    4.3028638    4.3028638    4.3028638   -5312.8956    20931.295    5256.5063   -42126.488     939.8852   -1089.2087     13202.22    79.665959 
   20000    1787.6162   -107.34673    1.6174727   -105.72926    3404.4955    4.2935497    4.2935497    4.2935497    3404.4955   -33639.311   -23864.302      67717.1    39823.907   -5965.1227    2388.5517    79.149736 
   20100    1462.7861   -107.05508    1.3235596   -105.73152   -27026.074    4.2737564    4.2737564    4.2737564   -27026.074   -19856.855   -41575.136   -19646.229    43847.271    1596.5976   -24103.236    78.060134 
   20200    2070.5429   -107.61679    1.8734707   -105.74332    191.33778     4.261901     4.261901     4.261901    191.33778   -16862.833    35792.301   -18355.455   -7538.3057   -7000.2339    4378.9839    77.412316 
   20300    1231.3586   -106.88971    1.1141591   -105.77555    2488.6163    4.2630808    4.2630808    4.2630808    2488.6163   -40563.998   -8927.8397    56957.686     63259.51    528.42436   -1396.7812    77.476624 
   20400    2056.8903   -107.64747    1.8611175   -105.78635   -15390.591     4.290058     4.290058     4.290058   -15390.591   -29617.972    -7387.443   -9166.3595    1110.9733    9863.3381   -26978.025    78.956792 
   20500    2482.3728   -108.00296    2.2461031   -105.75685   -22578.797    4.2953301    4.2953301    4.2953301   -22578.797    -52128.83    4317.3481    -19924.91     17684.21    1546.7537    13718.372     79.24824 
   20600    541.98037   -106.25366   0.49039523   -105.76327    15272.218    4.2696577    4.2696577    4.2696577    15272.218   -8293.1992   -11010.135    65119.987    52330.643    6596.7228   -3239.7207    77.835761 
   20700    2379.1892   -107.89748    2.1527404   -105.74474    6384.0936    4.2580306    4.2580306    4.2580306    6384.0936   -12660.925    25093.702    6719.5046   -35738.524    13686.205   -7450.2347    77.201604 
   20800    1624.7358   -107.23903    1.4700951   -105.76894     31297.84     4.258282     4.258282     4.258282     31297.84    18121.522    4399.7756    71372.221    45490.467    3428.4702    11536.305    77.215281 
   20900    1273.4237   -106.94021    1.1522205   -105.78799    4056.1802    4.2811013    4.2811013    4.2811013    4056.1802   -15382.223   -5626.4894    33177.253    14713.951    1437.1187   -22945.549    78.463291 
   21000    1785.1414     -107.381    1.6152335   -105.76577   -19107.799    4.2894651    4.2894651    4.2894651   -19107.799   -61729.213    35943.672   -31537.854   -18588.427    18702.013    9606.3898    78.924062 
   21100    2096.8228   -107.66675    1.8972494    -105.7695    15422.193    4.2502273    4.2502273    4.2502273    15422.193   -2482.9418   -6273.3819    55022.903    31960.489    3499.7055   -3817.0569    76.777942 
   21200    1333.6065   -106.98406    1.2066752   -105.77739    56871.109    4.2353746    4.2353746    4.2353746    56871.109    20517.203    50697.077    99399.048   -5719.4689   -131.60223   -48700.388    75.975836 
   21300     2016.674   -107.60834     1.824729   -105.78361   -18745.987    4.2693066    4.2693066    4.2693066   -18745.987   -83144.069    15044.092    11862.016   -16899.582   -771.55043    10089.924    77.816559 
   21400    1660.1469   -107.27528    1.5021358   -105.77314    10559.842    4.2748706    4.2748706    4.2748706    10559.842   -41796.666    12429.858    61046.334    12580.529    -11072.56   -18914.829    78.121203 
   21500    1424.5834   -107.06093     1.288993   -105.77193    20086.463    4.2707739    4.2707739    4.2707739    20086.463   -14728.783    37709.008    37279.163   -15810.213    10588.919   -41514.514    77.896819 
   21600    1800.7171   -107.40943    1.6293267    -105.7801   -22242.105    4.2667147    4.2667147    4.2667147   -22242.105   -76470.417    11282.365   -1538.2628   -24272.939    -9254.356    23109.982     77.67492 
   21700    1692.1105   -107.31205    1.5310572     -105.781    38467.549    4.2468503    4.2468503    4.2468503    38467.549    14045.577    81409.779     19947.29   -369.53841    -7610.703   -17411.404    76.595077 
   21800    1734.2689   -107.36456    1.5692029   -105.79536    24309.063    4.2624987    4.2624987    4.2624987    24309.063    9098.4576    12243.516    51585.216   -38717.597    4578.6507   -20541.317    77.444894 
   21900    1482.2707   -107.12118    1.3411897   -105.77999   -18410.361    4.2883207    4.2883207    4.2883207   -18410.361   -72038.032    26339.902   -9532.9521   -15614.663   -9013.1777    23675.725    78.860906 
   22000    2017.5345   -107.57086    1.8255077   -105.74535    20614.393    4.2774502    4.2774502    4.2774502    20614.393     17958.22    30021.073    13863.887   -5838.6482   -6987.3028   -21462.946     78.26271 
   22100    1707.9051   -107.29457    1.5453485   -105.74922   -12451.309    4.2651929    4.2651929    4.2651929   -12451.309   -40430.326   -28800.804    31877.204   -57567.044    3967.8114    -2138.208    77.591835 
   22200    1024.7538   -106.70512   0.92721874   -105.77791   -10023.813    4.2569223    4.2569223    4.2569223   -10023.813   -33833.197     59389.05   -55627.291      2194.06   -24491.732    18352.999     77.14134 
   22300    2055.5053   -107.63819    1.8598644   -105.77832    26411.865     4.250505     4.250505     4.250505    26411.865    41881.593     14606.79     22747.21   -26880.474     4010.972   -7674.1046    76.792993 
   22400    1868.5306   -107.48399    1.6906857   -105.79331   -13975.956    4.2765516    4.2765516    4.2765516   -13975.956   -15763.797   -49814.807    23650.736   -29656.928   -5126.6971   -711.05447    78.213399 
   22500    1711.3437   -107.32671    1.5484597   -105.77825   -30159.864    4.2818415    4.2818415    4.2818415   -30159.864    -53488.12    8539.7919   -45531.265    3166.3188   -21180.094    4055.7752    78.503994 
   22600    1852.8808   -107.44289    1.6765255   -105.76636    27147.401    4.2531119    4.2531119    4.2531119    27147.401    46608.268   -10236.751    45070.686   -26680.712     10046.93   -12876.965    76.934374 
   22700     1436.182   -107.07829    1.2994877    -105.7788    -23571.02    4.2522394    4.2522394    4.2522394    -23571.02   -49230.241   -42444.052    20961.235   -27510.388   -17368.179   -19620.014    76.887039 
   22800    1539.7876   -107.18516    1.3932322   -105.79192   -9164.3894    4.2624164    4.2624164    4.2624164   -9164.3894   -23712.367    23436.863   -27217.664    6699.8907   -21751.556    7858.4847    77.440408 
   22900    2214.5686   -107.78985    2.0037882   -105.78606   -12459.536    4.2751807    4.2751807    4.2751807   -12459.536    3797.9951   -50180.493    9003.8895   -35812.495    19576.941    15298.841    78.138206 
   23000    1830.4697   -107.42843    1.6562474   -105.77218   -27495.806    4.2871836    4.2871836    4.2871836   -27495.806   -47885.293   -35622.912    1020.7868   -30052.507   -33360.807   -10998.892    78.798191 
   23100    1725.5994   -107.32916    1.5613586    -105.7678   -11212.028    4.2672555    4.2672555    4.2672555   -11212.028    14823.151   -13642.725   -34816.509    11632.218   -17420.543    32389.357    77.704459 
   23200    1437.2763   -107.06634    1.3004778   -105.76586     20562.19     4.244191     4.244191     4.244191     20562.19    57917.776   -34862.105    38630.898    -76829.12    19642.189   -11787.051     76.45128 
   23300    1459.3042   -107.10503    1.3204091   -105.78462    2285.3064    4.2587515    4.2587515    4.2587515    2285.3064   -22888.305   -2220.2653    31964.489    7072.1509   -32028.278   -6423.6457    77.240826 
   23400     1742.889   -107.35949    1.5770026   -105.78249   -20072.679    4.2735034    4.2735034    4.2735034   -20072.679   -3878.2642   -44756.314   -11583.459    28646.556   -18007.025    21589.409    78.046271 
   23500    2175.9718   -107.73789     1.968865   -105.76902   -12976.594    4.2717631    4.2717631    4.2717631   -12976.594    11232.478   -60729.694    10567.435   -67912.991    12501.449   -15750.441    77.950964 
   23600    1199.2589   -106.86781    1.0851147   -105.78269   -29020.878    4.2647677    4.2647677    4.2647677   -29020.878   -54880.739   -38515.365    6333.4688    47806.053   -32832.509    3711.0452    77.568633 
   23700    1203.8325    -106.8892    1.0892529   -105.79995   -19811.575    4.2500538    4.2500538    4.2500538   -19811.575   -20876.408   -16497.512   -22060.804    33765.769   -16290.456    3403.2605    76.768541 
   23800    2615.3584   -108.14555    2.3664312   -105.77912    19982.647    4.2561018    4.2561018    4.2561018    19982.647    51915.158   -2041.4351    10074.217   -11410.986    10177.631    3883.0394    77.096739 
   23900    1369.4801   -107.04058    1.2391344   -105.80145   -16911.902    4.2708738    4.2708738    4.2708738   -16911.902   -26410.283   -1263.5537    -23061.87    51497.952   -51010.265   -774.31396    77.902289 
   24000    1614.1155   -107.24508    1.4604857   -105.78459    13816.029     4.273324     4.273324     4.273324    13816.029    11532.329     39390.96   -9475.2031     10791.47   -9801.7631   -428.94838    78.036443 
   24100    2321.6601   -107.85493    2.1006868   -105.75424   -25448.481    4.2749589    4.2749589    4.2749589   -25448.481   -37119.618   -46468.779    7242.9549   -27190.192    8974.7788    3186.5624    78.126042 
   24200    566.38747   -106.29323   0.51247928   -105.78075   -26925.777    4.2586151    4.2586151    4.2586151   -26925.777   -78080.902   -14657.042    11960.613    46801.616   -72168.477   -11.015014    77.233405 
   24300    2220.6845   -107.77907     2.009322   -105.76975    11935.081     4.244638     4.244638     4.244638    11935.081   -24499.221    52490.258    7814.2044    8338.3285   -5904.0024     22283.17    76.475439 
   24400    2029.2411   -107.62656       1.8361   -105.79046    14281.555    4.2521426    4.2521426    4.2521426    14281.555   -21441.506     21050.68    43235.492   -17372.909    7209.9108   -15304.618    76.881784 
   24500    1076.7645    -106.7783   0.97427917   -105.80402   -13672.331    4.2657268    4.2657268    4.2657268   -13672.331   -40169.978   -4378.5157    3531.5013     57233.91   -68963.607    2284.2193    77.620981 
   24600     2031.596   -107.61887    1.8382307   -105.78064   -3033.2395    4.2750101    4.2750101    4.2750101   -3033.2395   -30435.267    49775.679    -28440.13   -12291.851    57162.195   -1059.7749     78.12885 
   24700    1761.8278   -107.35668    1.5941388   -105.76254   -11613.142    4.2748234    4.2748234    4.2748234   -11613.142   -3713.8545   -8667.8145   -22457.758    13932.318   -15119.123   -11361.804    78.118617 
   24800    1192.1862   -106.85434    1.0787151   -105.77562   -11965.226    4.2542577    4.2542577    4.2542577   -11965.226   -48825.687   -14193.748    27123.756    59132.048   -54242.763    7559.2514     76.99657 
   24900    2352.9585   -107.89338    2.1290063   -105.76437    30502.611    4.2391433    4.2391433    4.2391433    30502.611    28601.401    36319.958    26586.474   -15886.145    50898.602   -12383.941     76.17883 
   25000    1562.4319   -107.21197    1.4137212   -105.79825   -19784.543    4.2569228    4.2569228    4.2569228   -19784.543   -35255.901    -12107.71   -11990.018     10136.59   -40445.268    1452.5729    77.141366 
   25100    713.92924   -106.46648   0.64597818   -105.82051   -25166.449    4.2692988    4.2692988    4.2692988   -25166.449    -28317.27   -67624.382    20442.305    50721.717   -35199.096    7568.8369    77.816137 
   25200    2748.8322   -108.26714    2.4872011   -105.77994    1962.2655    4.2707743    4.2707743    4.2707743    1962.2655    33786.378   -16687.515   -11212.066   -7797.0691    31382.372   -9792.5554    77.896845 
   25300    1219.6873   -106.89094    1.1035987   -105.78734   -13826.383    4.2669692    4.2669692    4.2669692   -13826.383    2460.3217   -15062.176   -28877.294    35647.188   -37076.774    4959.1826    77.688818 
   25400    1496.1599   -107.13873    1.3537569   -105.78497   -7428.6202    4.2467441    4.2467441    4.2467441   -7428.6202   -60430.693   -2363.9864    40508.819    51145.986   -34757.745   -4611.3986     76.58933 
   25500     1973.656   -107.56655    1.7858055   -105.78074    26083.325    4.2449343    4.2449343    4.2449343    26083.325   -9253.4358    73616.101     13887.31   -24215.504    61915.013    6885.1976    76.491455 
   25600    1349.4646   -107.01208    1.2210239   -105.79105   -21649.766    4.2705232    4.2705232    4.2705232   -21649.766   -39425.293   -26887.041    1363.0369    45356.307   -29078.781   -69.059925    77.883106 
   25700    1511.6752   -107.15526    1.3677955   -105.78747   -23204.953    4.2702794    4.2702794    4.2702794   -23204.953   -46961.432   -30867.503    8214.0773    42157.017   -24529.867    -3204.401    77.869768 
   25800     2694.821   -108.19935    2.4383307   -105.76102    23740.089    4.2543003    4.2543003    4.2543003    23740.089    32101.558    50445.702   -11326.994   -24307.405    29853.608    4434.5478    76.998885 
   25900    947.98057   -106.65276   0.85775274   -105.79501   -20547.612    4.2560796    4.2560796    4.2560796   -20547.612   -67557.055    14409.313   -8495.0922     66133.59   -58823.804   -987.81728    77.095534 
   26000    1396.2775   -107.05461    1.2633812   -105.79123   -11287.926    4.2533945    4.2533945    4.2533945   -11287.926   -64451.047   -9488.0673    40075.336    5337.5959   -16614.944     5116.061    76.949714 
   26100      2314.67   -107.87336    2.0943621     -105.779   -4400.7279    4.2683702    4.2683702    4.2683702   -4400.7279   -22052.827    18529.746   -9679.1022   -22783.811    6459.9059   -8891.8745    77.765372 
   26200    952.45829   -106.64246   0.86180428   -105.78066   -46361.683    4.2807888    4.2807888    4.2807888   -46361.683   -87136.266   -11648.617   -40300.166    62842.078   -59187.989    3295.7835    78.446109 
   26300    2573.9063   -108.07993    2.3289245   -105.75101    9787.5762    4.2649796    4.2649796    4.2649796    9787.5762    38451.661   -10081.003    992.07016   -13745.512    7692.2806   -6614.9509    77.580195 
   26400    1587.1064   -107.19795    1.4360472   -105.76191   -14534.259    4.2622053    4.2622053    4.2622053   -14534.259   -24399.273   -19196.991   -6.5144745    24833.243   -14657.946    6505.3545    77.428899 
   26500    684.34741   -106.39898   0.61921192   -105.77977   -22631.865    4.2639302    4.2639302    4.2639302   -22631.865   -56380.449      6811.88   -18327.025    43224.778   -57111.882    3050.0517    77.522942 
   26600    2509.4396   -108.02768    2.2705937   -105.75708    3272.0593    4.2625116    4.2625116    4.2625116    3272.0593   -8561.2263    4575.1029    13802.301   -36845.602    13271.669   -2481.6721    77.445594 
   26700    1252.1114   -106.91086    1.1329367   -105.77792   -30044.323    4.2726591    4.2726591    4.2726591   -30044.323    -23176.76   -45445.741   -21510.468    24345.959   -31163.166    10765.404    78.000023 
   26800    1768.0587   -107.36669    1.5997766   -105.76691    -34192.17    4.2738685    4.2738685    4.2738685    -34192.17   -54660.643    -5247.878    -42667.99    34181.456   -44292.134   -5423.0141    78.066277 
   26900     2208.075   -107.75322    1.9979126   -105.75531    19004.705    4.2551131    4.2551131    4.2551131    19004.705    15826.945    15505.587    25681.584   -52872.218    16060.201   -8188.9437    77.043026 
   27000     1228.057   -106.88929    1.1111718   -105.77812    4779.9375    4.2538237    4.2538237    4.2538237    4779.9375   -50140.827    41207.693    23272.946    31629.046    -47747.34    17839.387    76.973007 
   27100    1708.5143   -107.31779    1.5458996   -105.77189    6784.0306    4.2702251    4.2702251    4.2702251    6784.0306   -24445.721    44286.173    511.64024    15552.194   -2591.5006   -17810.436    77.866795 
   27200    1589.1734   -107.19804    1.4379174   -105.76012   -23381.799    4.2853398    4.2853398    4.2853398   -23381.799   -16834.881   -35668.368    -17642.15   -27320.879   -1753.4636   -6470.4558     78.69657 
   27300    1781.6382   -107.37373    1.6120636   -105.76166   -28930.569    4.2724752    4.2724752    4.2724752   -28930.569   -50727.026   -17447.017   -18617.664    18245.947     -35432.4    18860.044    77.989952 
   27400    1790.5831   -107.39087    1.6201572   -105.77071    22831.343    4.2336782    4.2336782    4.2336782    22831.343    197.08963    49291.016    19005.923    11015.483     53002.27   -24780.765     75.88458 
   27500    2043.6828   -107.62988    1.8491671   -105.78071    47168.029    4.2312546    4.2312546    4.2312546    47168.029    91605.249    8029.5117    41869.327   -11032.133   -8562.6624    12000.076    75.754334 
   27600    1657.0451   -107.28978    1.4993292   -105.79045   -28476.422    4.2727407    4.2727407    4.2727407   -28476.422   -59133.973   -20170.146   -6125.1456    10168.754     16308.56    16005.254    78.004492 
   27700    1490.1921   -107.12251    1.3483571   -105.77415   -40045.582    4.2792485    4.2792485    4.2792485   -40045.582   -103491.04   -6666.0429    -9979.664    9855.9787    56343.772   -12563.748    78.361461 
   27800    1820.7017   -107.40752    1.6474092   -105.76011    2843.4133    4.2562108    4.2562108    4.2562108    2843.4133    24397.281   -40041.041        24174   -3227.5219     -19233.9    32757.701    77.102666 
   27900    1386.5076   -107.02982    1.2545412   -105.77528   -2892.5128    4.2471222    4.2471222    4.2471222   -2892.5128   -13120.562    12424.998   -7981.9743    1761.5512    57775.338    13746.746    76.609791 
   28000    1920.1091   -107.51594    1.7373551   -105.77858    12479.814    4.2471579    4.2471579    4.2471579    12479.814   -10484.901    28515.215    19409.128     2663.633    12457.559   -2670.5572    76.611721 
   28100     1360.216   -107.03206    1.2307521    -105.8013   -21491.947    4.2633415    4.2633415    4.2633415   -21491.947    27189.442   -69021.571   -22643.712   -1905.6651   -33157.784    44864.394    77.490837 
   28200    2149.7708   -107.72936    1.9451578    -105.7842   -13753.621    4.2724554    4.2724554    4.2724554   -13753.621    9231.7633   -55040.662    4548.0349   -2761.6411    24204.264   -24300.173    77.988868 
   28300    2247.3855   -107.81885    2.0334816   -105.78537    35149.918    4.2452652    4.2452652    4.2452652    35149.918    36383.858    19459.078    49606.817    3382.3001   -18978.852    15292.903    76.509344 
   28400    877.33325   -106.59635   0.79382957   -105.80252    14395.168    4.2396846    4.2396846    4.2396846    14395.168    104841.93   -39943.241   -21713.183   -2642.6372    -22055.78     26716.35    76.208016 
   28500    1951.0718   -107.55042    1.7653708   -105.78505   -16845.923    4.2607715    4.2607715    4.2607715   -16845.923    21168.372   -44872.856   -26833.286   -6563.2421    15427.502   -36008.684    77.350785 
   28600    1873.1405   -107.47393    1.6948569   -105.77908    7541.3291    4.2610655    4.2610655    4.2610655    7541.3291   -9883.9684    36577.133   -4069.1773    3569.7635    15326.741    19819.381    77.366802 
   28700    1395.8634   -107.04796    1.2630065   -105.78495   -15118.778    4.2664517    4.2664517    4.2664517   -15118.778    68663.578   -50777.304   -63242.607   -11161.406   -24801.244    16626.213    77.660558 
   28800    1924.2888   -107.51473     1.741137    -105.7736   -9281.4489    4.2583371    4.2583371    4.2583371   -9281.4489    13755.425   -17360.749   -24239.023   -10749.449    40725.851   -30460.373    77.218281 
   28900    1473.1713   -107.11273    1.3329564   -105.77977    23857.975    4.2413654    4.2413654    4.2413654    23857.975    23792.983    46198.211    1582.7309   -4347.4874    54956.445    21537.882    76.298689 
   29000    2012.2339   -107.60356    1.8207116   -105.78285    10474.178    4.2541184    4.2541184    4.2541184    10474.178    44242.959   -9650.3176   -3170.1061    7177.9925   -39301.068    26174.737    76.989005 
   29100    1062.0081   -106.75627   0.96092723   -105.79534   -15925.304    4.2639057    4.2639057    4.2639057   -15925.304   -50351.313     22702.54   -20127.138   -5332.2828    79135.301   -12778.091    77.521608 
   29200    1991.8771   -107.58667    1.8022923   -105.78437    14539.439    4.2629255    4.2629255    4.2629255    14539.439   -3355.7849    20698.276    26275.826   -4503.6808    18675.561   -11292.544     77.46816 
   29300    2262.4677   -107.81599    2.0471284   -105.76886    3626.5464    4.2642661    4.2642661    4.2642661    3626.5464   -30332.133    27323.438    13888.334     9668.368    27906.337   -1146.0998    77.541269 
   29400    1073.9735    -106.7538   0.97175381   -105.78205    896.67568    4.2612556    4.2612556    4.2612556    896.67568   -10696.533    47131.458   -33744.898   -6018.4546    77620.939   -1083.8808    77.377156 
   29500    2035.3063   -107.60965     1.841588   -105.76806   -913.56522    4.2590062    4.2590062    4.2590062   -913.56522    11256.357   -16220.154    2223.1012   -2450.9059   -48972.212   -27612.087    77.254683 
   29600    1898.8507   -107.49348      1.71812   -105.77536    2602.7387    4.2536221    4.2536221    4.2536221    2602.7387   -19678.234    17996.464    9489.9869    9043.5523    51910.314    3813.3796    76.962067 
   29700    1752.0918   -107.36739    1.5853295   -105.78207   -7538.6954    4.2582878    4.2582878    4.2582878   -7538.6954    17844.694    -24493.93    -15966.85    4161.4255    15824.813    -15494.95    77.215597 
   29800    817.41125   -106.54224   0.73961088   -105.80263   -41372.015    4.2605153    4.2605153    4.2605153   -41372.015   -10058.911   -62056.373   -52000.762   -7585.9966   -40608.358   -27572.603    77.336834 
   29900    2664.7931   -108.18347    2.4111608   -105.77231    20432.671    4.2566631    4.2566631    4.2566631    20432.671    193.07003    28326.718    32778.226    9964.4519    732.42892    22920.583    77.127248 
   30000    1458.6558   -107.09975    1.3198225   -105.77993   -36949.844    4.2720748    4.2720748    4.2720748   -36949.844   -15073.804     -62423.1   -33352.627    442.49436   -7536.2668   -44958.319    77.968029 
   30100    1326.0498    -106.9735    1.1998378   -105.77367   -20428.925    4.2615205    4.2615205    4.2615205   -20428.925   -25215.004   -9673.5788   -26398.192   -12292.342   -47097.665     8119.709    77.391583 
   30200    2014.5192   -107.58751    1.8227793   -105.76473    23335.201    4.2449128    4.2449128    4.2449128    23335.201   -190.23811    37598.261    32597.579    6984.9575    46745.094    2776.8985    76.490295 
   30300    1710.0451   -107.32949    1.5472847    -105.7822   -14497.975    4.2509882    4.2509882    4.2509882   -14497.975   -19014.922   -42183.122    17704.121   -9224.8647    16130.582   -20461.198    76.819187 
   30400    1810.9269   -107.41585    1.6385647   -105.77729    12080.333     4.257868     4.257868     4.257868    12080.333    8031.3767   -1017.6046    29227.226   -22190.646   -10124.647     3875.597    77.192765 
   30500    1427.1265   -107.06995     1.291294   -105.77865   -17753.803    4.2762286    4.2762286    4.2762286   -17753.803   -51074.136    16871.883   -19059.154    11102.916    74129.828    3343.2612    78.195675 
   30600    1988.7788   -107.55298    1.7994889   -105.75349   -17412.459    4.2772433    4.2772433    4.2772433   -17412.459   -21479.473   -53794.577    23036.672   -28841.711   -22763.309   -10340.642    78.251352 
   30700    1263.6877    -106.9085    1.1434112   -105.76509    8947.1967    4.2440043    4.2440043    4.2440043    8947.1967   -28797.961     58578.78   -2939.2289   -14838.044    70711.071   -4933.9929    76.441193 
   30800    1865.3132   -107.44645    1.6877746   -105.75867    39430.009    4.2305353    4.2305353    4.2305353    39430.009      3577.35    77044.205    37668.472     7500.178     13758.03    9737.2247    75.715704 
   30900    1838.1547   -107.44399     1.663201   -105.78079    2935.3921    4.2533122    4.2533122    4.2533122    2935.3921   -22631.159     2057.561    29379.775    -21214.42   -21541.685   -20073.815    76.945242 
   31000    1641.8168   -107.26447    1.4855503   -105.77892    -8557.624    4.2697389    4.2697389    4.2697389    -8557.624   -51626.902     14578.42     11375.61   -21463.099    65574.285   -12908.605    77.840203 
   31100    1655.2981   -107.26588    1.4977485   -105.76813    3354.5134     4.269323     4.269323     4.269323    3354.5134   -58089.348     38547.76    29605.129    7896.2514   -63552.007    7237.2671    77.817456 
   31200    2089.8276   -107.64901    1.8909199   -105.75809   -588.47717    4.2578088    4.2578088    4.2578088   -588.47717   -27649.846   -5884.8818    31769.297   -37146.282   -1951.0898   -12449.834     77.18954 
   31300    1466.0969   -107.08936    1.3265553   -105.76281    17822.028    4.2419126    4.2419126    4.2419126    17822.028   -52480.633    67319.122    38627.594   -17429.676   -8243.5541    -1781.061    76.328225 
   31400    1315.7391   -106.97153    1.1905084   -105.78102    4889.2243    4.2486366    4.2486366    4.2486366    4889.2243    -75904.92    76524.126    14048.467    2941.1311   -66409.293   -1162.5908    76.691772 
   31500    2427.2239   -107.95433    2.1962032   -105.75813    3977.0992    4.2673855    4.2673855    4.2673855    3977.0992   -30105.784   -22132.318      64169.4   -31474.114    25958.532    23.230585    77.711563 
   31600    1201.5474    -106.8631    1.0871853   -105.77591   -17474.929    4.2682674    4.2682674    4.2682674   -17474.929   -93763.872     41296.47    42.615011    3411.3191   -88083.189    8370.2468    77.759753 
   31700    1822.6208   -107.42282    1.6491456   -105.77367   -15345.642    4.2578615    4.2578615    4.2578615   -15345.642   -48259.354    19064.296   -16841.868    2992.7042    25089.937   -4928.7044    77.192408 
   31800    2117.1199   -107.67998    1.9156145   -105.76437    25350.741     4.243799     4.243799     4.243799    25350.741    5904.1461    25144.862    45003.216    -9054.897   -13068.749    1857.4228      76.4301 
   31900    1425.1946   -107.07352     1.289546   -105.78398    -11651.13    4.2510248    4.2510248    4.2510248    -11651.13   -45692.075    45724.288   -34985.604    -12775.25   -88224.417     8198.127     76.82117 
   32000    1756.1897   -107.36312    1.5890373   -105.77408   -21593.788    4.2647253    4.2647253    4.2647253   -21593.788    -53655.54     20482.05   -31607.874    2954.5391    92049.711   -7679.7061    77.566319 
   32100     1426.517   -107.05947    1.2907425   -105.76872   -9201.0756    4.2601726    4.2601726    4.2601726   -9201.0756   -45589.438    26041.193   -8054.9822    19621.881   -60107.593    8770.7559    77.318173 
   32200    1630.0823    -107.2407    1.4749328   -105.76576   -14776.787    4.2558362    4.2558362    4.2558362   -14776.787   -35494.698    31316.678    -40152.34   -20078.173   -25305.356    3501.7207    77.082308 
   32300    1936.8603   -107.51378    1.7525119   -105.76126   -13398.158    4.2545422    4.2545422    4.2545422   -13398.158   -24045.843   -1216.9969   -14931.635   -1022.3337    73633.817   -4608.0639    77.012017 
   32400    1385.4609   -107.02704    1.2535942   -105.77345   -3464.1487    4.2494335    4.2494335    4.2494335   -3464.1487   -22155.217    948.40956    10814.362    25827.485   -75383.427    2534.7294    76.734931 
   32500    1744.1536   -107.35635    1.5781469   -105.77821    6059.6323    4.2592819    4.2592819    4.2592819    6059.6323    4824.2887    10675.667     2678.941   -47753.847    13456.171   -2462.1838    77.269687 
   32600    2119.4675   -107.68096    1.9177387   -105.76322    8649.7956    4.2635656    4.2635656    4.2635656    8649.7956     2178.856        25457   -1686.4689    12070.993    -1394.598    6707.7692    77.503058 
   32700    1191.7878   -106.85738    1.0783547   -105.77903    6183.7552    4.2566003    4.2566003    4.2566003    6183.7552   -35347.223    13384.121    40514.367    13522.795   -55726.467   -1910.7752    77.123834 
   32800    2350.7391    -107.8833    2.1269981    -105.7563    1447.6879     4.264658     4.264658     4.264658    1447.6879   -8251.3478   -27867.734    40462.145   -53114.182    26497.748    2751.0681    77.562649 
   32900    1377.5812   -107.00119    1.2464645   -105.75473   -5452.3263    4.2672638    4.2672638    4.2672638   -5452.3263   -39726.792    54042.383    -30672.57    16510.301    -71692.32    2720.2354    77.704911 
   33000    1636.3167   -107.22495    1.4805737   -105.74438    1131.6419    4.2620566    4.2620566    4.2620566    1131.6419   -17211.421   -35193.338    55799.685    22896.549   -9499.1969    3742.7417      77.4208 
   33100    1947.3168   -107.50209    1.7619732   -105.74012    3576.6473    4.2644994    4.2644994    4.2644994    3576.6473   -32823.851    25842.235    17711.557   -31049.428   -14532.079   -2488.2435    77.553997 
   33200    843.60397   -106.52683    0.7633106   -105.76352   -8906.7324    4.2595823    4.2595823    4.2595823   -8906.7324   -64392.431    64198.209   -26525.975    24099.866   -73988.327   -2342.9194    77.286035 
   33300    2138.7766   -107.68933      1.93521   -105.75412    20636.318    4.2510475    4.2510475    4.2510475    20636.318    10728.496   -5977.9382    57158.396    47664.423     36060.91   -903.70238    76.822398 
   33400    1924.5715   -107.50765    1.7413927   -105.76626   -5190.2623    4.2572823    4.2572823    4.2572823   -5190.2623   -37927.576    68144.197   -45787.408   -12429.679   -79353.684   -691.73024    77.160909 
   33500    1740.7939   -107.33643    1.5751069   -105.76132   -1551.3657    4.2625922    4.2625922    4.2625922   -1551.3657   -14191.047    20931.218   -11394.268    42000.569   -15967.276    8281.8993    77.449989 
   33600    1550.3487   -107.16417    1.4027881   -105.76138    9348.0256    4.2589786    4.2589786    4.2589786    9348.0256   -13563.073    33241.691    8365.4585    25687.719    7485.1988   -365.82937    77.253183 
[...]
   91300    1132.8918   -106.79228    1.0250643   -105.76721   -21654.084    4.2590579    4.2590579    4.2590579   -21654.084     1696.319    14509.094   -81167.666    -4208.386    90120.843   -5992.0246    77.257498 
   91400    2411.4467   -107.92455    2.1819276   -105.74262    27902.417    4.2449343    4.2449343    4.2449343    27902.417    51087.351    19559.146    13060.755   -4774.4993   -29341.624    2101.1016    76.491453 
   91500    955.07727   -106.63983   0.86417399   -105.77566   -18000.169    4.2483149    4.2483149    4.2483149   -18000.169   -25108.022    37999.084   -66891.569    910.18336    33705.058    30407.641    76.674348 
   91600    1699.7362    -107.3172     1.537957   -105.77924   -15553.191    4.2519612    4.2519612    4.2519612   -15553.191   -33719.369    38368.876   -51309.079    4569.3041    79053.244   -2371.5851    76.871947 
   91700    2251.3503   -107.80106     2.037069   -105.76399    3308.5597    4.2573965    4.2573965    4.2573965    3308.5597    25970.663    2811.3506   -18856.335   -8028.2632   -31418.296   -15095.787    77.167122 
   91800    998.88836   -106.68226   0.90381518   -105.77845   -35071.151    4.2609769    4.2609769    4.2609769   -35071.151   -58468.966    62541.047   -109285.53    3246.8961     84962.73    23594.366    77.361975 
   91900    2567.7139   -108.06768    2.3233215   -105.74435    15852.126    4.2528418    4.2528418    4.2528418    15852.126    44062.472    14825.457   -11331.551   -3807.8389   -687.48471   -18884.659    76.919716 
   92000     1209.338   -106.85961    1.0942345   -105.76537   -4035.6869    4.2522533    4.2522533    4.2522533   -4035.6869    7353.9331     25812.45   -45273.444   -9581.6934    38572.052   -43461.687     76.88779 
   92100     1846.516   -107.42174    1.6707665   -105.75098    7168.4168    4.2577699    4.2577699    4.2577699    7168.4168    -46854.13    76712.336   -8352.9557   -10509.191     34497.08    7773.2202    77.187425 
   92200    1600.0359   -107.19607    1.4477461   -105.74832   -7071.0188    4.2693947    4.2693947    4.2693947   -7071.0188   -1294.0863   -12318.979   -7599.9914     5864.879   -11385.539   -36407.528     77.82138 
   92300     735.9256   -106.42895   0.66588095   -105.76307   -27602.546    4.2693124    4.2693124    4.2693124   -27602.546   -46814.495    27118.205    -63111.35    5649.1276    85000.557   -30618.909    77.816876 
   92400     2801.349   -108.27693    2.5347194   -105.74221    40739.526    4.2412702    4.2412702    4.2412702    40739.526    36259.244    51534.486    34424.848   -14812.273   -19000.232    14402.926    76.293547 
   92500    1174.9026   -106.83683    1.0630765   -105.77375    20570.688    4.2384411    4.2384411    4.2384411    20570.688    10929.282    54176.492   -3393.7116    15091.968    44550.795   -39983.505    76.140978 
   92600    1937.1853    -107.5205    1.7528059   -105.76769   -12341.523    4.2717033    4.2717033    4.2717033   -12341.523   -26583.679    28469.725   -38910.615    -15159.63    29854.395   -11006.687    77.947687 
   92700    1530.1271   -107.11113    1.3844911   -105.72664   -18067.457    4.2892494    4.2892494    4.2892494   -18067.457   -20674.551   -32933.752   -594.06657    4030.9067   -761.96134    1457.6034    78.912155 
   92800    920.90517   -106.53962   0.83325435   -105.70636   -8391.4642    4.2810878    4.2810878    4.2810878   -8391.4642     3042.847    6067.4153   -34284.655    18424.824    63899.138   -23552.726     78.46255 
   92900    2677.3325   -108.11098    2.4225067   -105.68847    10304.982    4.2555601    4.2555601    4.2555601    10304.982    21574.284   -1679.1291    11019.792   -24260.652   -31556.496    16660.381    77.067305 
   93000    1341.0913   -106.94465    1.2134475    -105.7312     11108.05     4.228036     4.228036     4.228036     11108.05     38920.03    16257.664   -21853.543    18518.368    56125.056   -33795.994    75.581592 
   93100    2328.3902   -107.86083    2.1067763   -105.75406    24143.957    4.2366587    4.2366587    4.2366587    24143.957    29655.717    20704.284     22071.87   -20958.943    27545.486    -168.9725    76.044958 
   93200    1467.0156   -107.09356    1.3273865   -105.76617   -11136.701    4.2699908    4.2699908    4.2699908   -11136.701   -16775.054   -18043.397    1408.3494   -32980.241   -18863.959    2607.5432    77.853979 
   93300    1483.8477   -107.08553    1.3426166   -105.74291   -18391.736    4.2809693    4.2809693    4.2809693   -18391.736    -11549.06   -8889.7467   -34736.401     16878.52    51722.046    -25895.14    78.456034 
   93400    1577.0055    -107.1728    1.4269078   -105.74589    19294.119    4.2529474    4.2529474    4.2529474    19294.119   -4351.6363    7377.3452    54856.649   -42364.314   -22016.254    12741.653    76.925446 
   93500    1207.1832   -106.84089    1.0922848   -105.74861    30160.636    4.2299103    4.2299103    4.2299103    30160.636    11640.053    55042.718    23799.137   -9275.1417   -2800.4432     11790.46    75.682154 
   93600    2895.8285   -108.35572    2.6202065   -105.73551    29431.195    4.2428983    4.2428983    4.2428983    29431.195    24076.572    39314.871    24902.142   -3380.7651     14117.32   -6403.5491    76.381443 
   93700    842.75984   -106.54584   0.76254681   -105.78329   -4831.1513    4.2644549    4.2644549    4.2644549   -4831.1513   -26253.587   -14883.297     26643.43   -40752.277   -25077.611    1289.1476    77.551567 
   93800    2385.1318   -107.90832    2.1581174    -105.7502   -4700.1343     4.276701     4.276701     4.276701   -4700.1343   -13639.876    26361.284   -26821.811    5470.5985    -21414.44    9305.3884    78.221593 
   93900    1497.2934   -107.11687    1.3547825   -105.76209   -9597.0781    4.2575547    4.2575547    4.2575547   -9597.0781   -52261.622   -29303.898    52774.286   -31893.597    13886.291    -21213.21    77.175726 
   94000    1136.8977    -106.7793     1.028689   -105.75061    25419.074     4.234699     4.234699     4.234699    25419.074   -5278.4895    3243.9482    78291.764   -24402.794   -29376.137    5034.9307    75.939485 
   94100    2450.9335   -107.95423    2.2176561   -105.73657    13926.852    4.2459374    4.2459374    4.2459374    13926.852   -7885.2095    36144.595     13521.17    -872.9501    8868.6035   -3145.6794    76.545692 
   94200    635.58192   -106.34967   0.57508788   -105.77458   -23460.987    4.2631102    4.2631102    4.2631102   -23460.987   -55959.319    -60947.61    46523.969   -51185.345    29387.633   -21775.458    77.478226 
   94300    2847.6714   -108.30781    2.5766329   -105.73118   -2957.2606     4.271927     4.271927     4.271927   -2957.2606   -2503.7679   -1651.8846   -4716.1294     11872.77   -15022.297    5916.0413    77.959935 
   94400    1124.8157   -106.77983    1.0177569   -105.76207   -38962.462    4.2641877    4.2641877    4.2641877   -38962.462   -24705.718   -52058.016   -40123.653   -27817.772    10009.976     30077.83    77.536991 
   94500     1703.896   -107.29713    1.5417209   -105.75541    11742.105    4.2314828    4.2314828    4.2314828    11742.105    441.17576   -16297.182    51082.321   -60156.878    18460.488   -22898.718    75.766587 
   94600    1979.5974   -107.54597    1.7911813   -105.75479    12978.448    4.2323773    4.2323773    4.2323773    12978.448    19273.052    26636.237   -6973.9427    27364.597    -46776.71    18187.835     75.81465 
   94700    1142.0531   -106.80906    1.0333537   -105.77571    -24989.34    4.2601234    4.2601234    4.2601234    -24989.34   -23512.974   -53816.927    2361.8805   -41072.953    4235.5681    15408.039    77.315494 
   94800     2457.513    -107.9571    2.2236094   -105.73349   -5023.4562    4.2713547    4.2713547    4.2713547   -5023.4562   -20381.682   -98.441577    5409.7547   -8708.1854   -14630.473   -5078.8379    77.928608 
   94900    842.12009   -106.51228   0.76196795   -105.75031   -36135.584    4.2733698    4.2733698    4.2733698   -36135.584   -17060.109   -9154.7261   -82191.917    28232.501   -25726.337    34515.379    78.038953 
   95000    2724.2014   -108.18834    2.4649147   -105.72342    16494.597    4.2501041    4.2501041    4.2501041    16494.597    41145.705   -3596.1843    11934.269   -23942.415    18325.773    6276.2379    76.771268 
   95100    1087.7552   -106.73396   0.98422373   -105.74973    18886.562     4.232413     4.232413     4.232413    18886.562    30067.431    44906.685   -18314.431    16728.023    -47488.51   -18756.966     75.81657 
   95200     1711.044   -107.30803    1.5481886   -105.75985   -10929.382     4.257374     4.257374     4.257374   -10929.382   -6727.7001   -12130.166   -13930.279    22015.382   -4159.4601    10675.427    77.165896 
   95300     2013.672   -107.56303    1.8220127   -105.74102   -8637.8751    4.2675633    4.2675633    4.2675633   -8637.8751   -10817.512   -25612.678    10516.564   -39633.303    -6391.726   -2636.7235    77.721273 
   95400     957.5272   -106.62803   0.86639074   -105.76163   -19118.373    4.2578101    4.2578101    4.2578101   -19118.373   -12929.989    11430.082   -55855.213    21410.154   -51857.095   -10532.667    77.189614 
   95500    2421.8268   -107.93137    2.1913198   -105.74005    5284.1701     4.247266     4.247266     4.247266    5284.1701    9454.1502   -17566.091    23964.451   -19248.729    15128.942    9356.2007    76.617574 
   95600    1101.5719   -106.76783   0.99672538   -105.77111   -2466.1833    4.2374542    4.2374542    4.2374542   -2466.1833   -5815.4736    3462.1989   -5045.2752   -53207.445   -27844.195   -10488.503    76.087803 
   95700    2190.8839    -107.7513    1.9823578   -105.76894    8157.2141    4.2521468    4.2521468    4.2521468    8157.2141    15518.839    58814.102   -49861.298    22361.122   -34141.435   -5092.0774    76.882014 
   95800    1847.6396   -107.42687    1.6717831   -105.75509    -25253.72    4.2709109    4.2709109    4.2709109    -25253.72   -44168.599   -38927.132    7334.5716    -47154.44    15963.293     3973.935     77.90432 
   95900    1030.2712   -106.68721   0.93221106     -105.755    140.04299    4.2594198    4.2594198    4.2594198    140.04299   -8286.5471    35323.157   -26616.481   -23690.673   -43907.414   -2425.5265    77.277191 
   96000    2332.0919   -107.84044    2.1101258   -105.73031    14906.346    4.2429678    4.2429678    4.2429678    14906.346   -15919.525    36700.775     23937.79     17476.91    2456.3661    21.821501    76.385199 
   96100    792.55212   -106.48589   0.71711781   -105.76877   -20594.304    4.2421794    4.2421794    4.2421794   -20594.304   -60211.645   -38422.337     36851.07   -33850.181    -4642.943    -1107.579    76.342626 
   96200    2660.0635   -108.16364    2.4068814   -105.75675    15176.929    4.2460819    4.2460819    4.2460819    15176.929   -910.55691    57864.948   -11423.603   -9439.9192   -24934.757    10047.832     76.55351 
   96300    1481.5791   -107.11867    1.3405639    -105.7781   -8677.6236    4.2586125    4.2586125    4.2586125   -8677.6236   -55019.074   -2914.3575     31900.56    11473.828    10873.729   -4831.4196    77.233262 
   96400    1261.8939   -106.91651    1.1417881   -105.77472   -33319.914    4.2640723    4.2640723    4.2640723   -33319.914   -95484.089   -28556.035    24080.382   -32264.282    8384.4383   -65.995161    77.530694 
   96500    2425.0623   -107.94207    2.1942474   -105.74782    25530.497    4.2455074    4.2455074    4.2455074    25530.497    15949.166    53815.892     6826.433    6759.8402   -4714.1401    10551.921    76.522441 
   96600     724.1858   -106.43074   0.65525853   -105.77548    -5592.633     4.240208     4.240208     4.240208    -5592.633   -67057.832   -24624.212    74904.145   -4622.8571    16036.978   -5215.0447    76.236242 
   96700    2045.2281   -107.60515    1.8505653   -105.75458    -6602.026    4.2526279    4.2526279    4.2526279    -6602.026   -54002.026   -12761.013    46956.961   -8476.9129   -438.32057    2637.7386    76.908111 
   96800    1498.0655   -107.11751    1.3554811   -105.76202    -13995.97    4.2569534    4.2569534    4.2569534    -13995.97   -23604.696   -7523.6919   -10859.522   -176.76229   -29734.235    2246.7119    77.143028 
   96900    2005.8124   -107.57258    1.8149012   -105.75768    153.27879    4.2537725    4.2537725    4.2537725    153.27879    -44313.45   -38300.424     83073.71   -3858.2006    4737.4201    2976.7934    76.970227 
   97000    1935.4513   -107.50179     1.751237   -105.75055   -5238.4474    4.2515956    4.2515956    4.2515956   -5238.4474    3934.9828   -11949.232   -7701.0929    3295.3745    6603.4168   -8918.6168    76.852117 
   97100     1592.867   -107.19534    1.4412596   -105.75408   -1631.6384    4.2482388    4.2482388    4.2482388   -1631.6384   -1311.0418   -18735.045    15151.172    3208.4216   -5278.0817    4415.9321     76.67023 
   97200     1702.021   -107.28884    1.5400244   -105.74882   -5040.3294      4.25304      4.25304      4.25304   -5040.3294   -30663.987   -12400.413    27943.412    6257.1641    12925.949   -2382.4775    76.930475 
   97300    1191.8761   -106.83276    1.0784345   -105.75432   -22107.122    4.2558027    4.2558027    4.2558027   -22107.122    3323.9396   -21567.807   -48077.498   -2549.7793    17274.057   -33317.781    77.080488 
   97400    1882.4725    -107.4468    1.7033007    -105.7435     2142.749    4.2520483    4.2520483    4.2520483     2142.749   -36128.998   -13350.684    55907.929    3357.6308   -5523.3864    7608.9098    76.876668 
   97500    1661.3099   -107.25677    1.5031881   -105.75358   -11120.651    4.2527798    4.2527798    4.2527798   -11120.651    -12598.69    7997.0348   -28760.296    5104.6495     10912.49   -21294.156    76.916356 
   97600    2263.3225   -107.79433    2.0479018   -105.74642    4245.3674       4.2514       4.2514       4.2514    4245.3674    34076.666   -13217.395   -8123.1695   -8068.0281    13558.834   -29588.201    76.841514 
   97700    1588.4442   -107.19313    1.4372577   -105.75587   -11621.441    4.2517906    4.2517906    4.2517906   -11621.441   -61302.581     -7484.92    33923.177    14325.992   -24229.907     5214.832    76.862694 
   97800    1905.5104   -107.47472    1.7241459   -105.75058   -2784.3791    4.2511285    4.2511285    4.2511285   -2784.3791    23881.564    8083.0021   -40317.704    556.61485   -2646.2227   -16046.381    76.826791 
   97900     1500.782   -107.10799    1.3579391   -105.75005   -14352.554    4.2521179    4.2521179    4.2521179   -14352.554   -49831.713   -7697.8935    14471.943    7509.2278    4818.6044   -11475.908    76.880445 
   98000    1287.3094   -106.92226    1.1647846   -105.75748   -21517.771    4.2568314    4.2568314    4.2568314   -21517.771   -91035.231    17092.534     9389.383    9523.8864   -21533.247    1387.8148    77.136398 
   98100    1968.4604   -107.52535    1.7811044   -105.74424   -11630.909    4.2535056    4.2535056    4.2535056   -11630.909    19178.294   -4492.8039   -49578.219   -4816.9178    2349.4015    5370.4716    76.955743 
   98200    1369.2893   -106.99864    1.2389617   -105.75968    -4192.226    4.2445066    4.2445066    4.2445066    -4192.226   -45412.578    4995.7858    27840.114    22614.895    15249.295   -4884.1318    76.468334 
   98300    2584.5898   -108.08422    2.3385912   -105.74563    14728.384    4.2480389    4.2480389    4.2480389    14728.384    19421.159   -1587.0083    26351.001   -297.82216    4488.5428    17612.296    76.659409 
   98400    1217.4749   -106.87302    1.1015968   -105.77142   -13836.376    4.2524353    4.2524353    4.2524353   -13836.376    45176.715   -50006.748   -36679.096   -295.43322   -6864.6326    27409.486    76.897665 
   98500    2378.3415   -107.90401    2.1519734   -105.75203    28814.705    4.2521579    4.2521579    4.2521579    28814.705   -5076.3672     7162.273    84358.209    17152.597    5799.8868   -20945.184    76.882618 
   98600     1202.701   -106.85531    1.0882292   -105.76708   -1549.3022    4.2562149    4.2562149    4.2562149   -1549.3022    36644.864    -31283.01   -10009.761     -8012.05   -2462.7282    45434.863    77.102887 
   98700    1345.5077   -106.97905    1.2174437   -105.76161    1541.1762    4.2527436    4.2527436    4.2527436    1541.1762    19363.449   -25116.037    10376.117    4894.8616   -4327.4492   -3682.4645    76.914389 
   98800    2273.7912   -107.79853     2.057374   -105.74115   -525.40024    4.2541261    4.2541261    4.2541261   -525.40024   -26080.157    19999.959    4503.9975   -1727.1393    17313.266    9838.8419    76.989427 
   98900    840.79297   -106.53323   0.76076715   -105.77247   -25907.407     4.251231     4.251231     4.251231   -25907.407     11394.05   -21166.764   -67949.508   -15133.994   -6058.9189    51100.355     76.83235 
   99000    2863.1011   -108.33471    2.5905941   -105.74412    26151.885    4.2469997    4.2469997    4.2469997    26151.885    34417.346    8617.9198    35420.389    1474.0477   -5483.8876    -22823.43    76.603162 
   99100     756.6341   -106.46141   0.68461844   -105.77679   -32865.837    4.2571504    4.2571504    4.2571504   -32865.837    33299.617   -39932.546   -91964.581    7144.2419     33915.25    59126.926    77.153741 
   99200     1672.941   -107.27214    1.5137122   -105.75843   -12953.541    4.2575607    4.2575607    4.2575607   -12953.541    21461.035   -28641.374   -31680.285   -4618.5195   -21420.204    28723.981    77.176049 
   99300    1855.0718   -107.42873     1.678508   -105.75023    11023.997    4.2512262    4.2512262    4.2512262    11023.997    59706.024   -11883.019   -14751.015    5161.5477    7886.8828   -19228.819    76.832091 
   99400    887.21336   -106.57717   0.80276929    -105.7744   -23285.116    4.2503325    4.2503325    4.2503325   -23285.116    42586.155   -36718.274   -75723.228    1885.3614    34156.405    79282.849    76.783642 
   99500    2969.4719   -108.42713    2.6868406   -105.74029    19603.624    4.2500644    4.2500644    4.2500644    19603.624    19361.688    1042.5758    38406.609   -543.39343   -17156.541   -24006.607    76.769116 
   99600    1205.9404   -106.86199    1.0911602   -105.77083   -20082.206    4.2527924    4.2527924    4.2527924   -20082.206    36474.616   -49700.139   -47021.093   -3647.9641    10235.844    10060.048    76.917036 
   99700      2163.39   -107.70967    1.9574807   -105.75219   -2987.9914    4.2554471    4.2554471    4.2554471   -2987.9914    21972.725   -30016.405   -920.29398    5560.9757    12082.525    45123.615    77.061167 
   99800    1242.2617   -106.87817    1.1240245   -105.75415   -9061.0659    4.2566305    4.2566305    4.2566305   -9061.0659    24656.961   -33644.907   -18195.252   -2572.1013   -30132.177   -45304.643    77.125476 
   99900    1173.3771    -106.8118    1.0616963    -105.7501   -3552.8175    4.2518063    4.2518063    4.2518063   -3552.8175    48631.371   -49202.997   -10086.827   -8881.1812    16836.514    32967.622    76.863547 
  100000    2318.6163   -107.83377    2.0979328   -105.73584     11269.26    4.2516849    4.2516849    4.2516849     11269.26    8086.1741   -1609.3732    27330.978    14020.755   -26207.738   -3247.7288    76.856963 
Loop time of 22.8053 on 1 procs for 100000 steps with 8 atoms

Pair  time (%) = 7.40233 (32.4589)
Kspce time (%) = 5.3089 (23.2793)
Neigh time (%) = 0.235851 (1.0342)
Comm  time (%) = 1.15758 (5.07593)
Outpt time (%) = 0.024101 (0.105682)
Other time (%) = 8.6765 (38.046)

Nlocal:    8 ave 8 max 8 min
Histogram: 1 0 0 0 0 0 0 0 0 0
Nghost:    2189 ave 2189 max 2189 min
Histogram: 1 0 0 0 0 0 0 0 0 0
Neighs:    2358 ave 2358 max 2358 min
Histogram: 1 0 0 0 0 0 0 0 0 0

Total # of neighbors = 2358
Ave neighs/atom = 294.75
Neighbor list builds = 2539
Dangerous builds = 0
unfix 20
unfix 21
print "seeds:6581221"
seeds:6581221
