LAMMPS (10 Feb 2015)
# ---- initialize simulations
clear
units metal
dimension 3
boundary p p p
atom_style charge
atom_modify map array
# ---- create atoms
read_data /Users/eugeneragasa/pyflamestk_git/pypospack/tests/tests_integration/workflow/WorkflowLammpsThermalExpansion/param_5861/MgO_NaCl_unit.npt.T100/lammps.structure
  triclinic box = (0 0 0) to (4.2565 4.2565 4.2565) with tilt (0 0 0)
  1 by 1 by 1 MPI processor grid
  reading atoms ...
  8 atoms
# ---- define interatomic potential
include potential.mod
mass 1 24.305
mass 2 15.999

group Mg type 1
4 atoms in group Mg
group O type 2
4 atoms in group O

set group Mg charge 1.63577302612
  4 settings made for charge
set group O charge -1.63577302612
  4 settings made for charge

variable R_cut equal 10.0

pair_style buck/coul/long ${R_cut}
pair_style buck/coul/long 10
pair_coeff 1 1 0.0 0.5 0.0 ${R_cut}
pair_coeff 1 1 0.0 0.5 0.0 10
pair_coeff 1 2 1558.72850733 0.278190610155 0.0 ${R_cut}
pair_coeff 1 2 1558.72850733 0.278190610155 0.0 10
pair_coeff 2 2 26609.5495557 0.148782776904 9.00084075824 ${R_cut}
pair_coeff 2 2 26609.5495557 0.148782776904 9.00084075824 10

kspace_style pppm 1.0e-5

neighbor 1.0 bin
neigh_modify every 1 delay 0 check yes
# ---- define settings
compute eng all pe/atom
compute eatoms all reduce sum c_eng
# ---- run minimization
reset_timestep 0
fix 1 all box/relax iso 0.0 vmax 0.001
thermo 10
thermo_style custom step pe lx ly lz xy xz yz press pxx pyy pzz pxy pxz pyz c_eatoms
min_style cg
minimize 1e-25 1e-25 5000 10000
PPPM initialization ...
  G vector (1/distance) = 0.352653
  grid = 8 8 8
  stencil order = 5
  estimated absolute RMS force accuracy = 3.87471e-05
  estimated relative force accuracy = 2.69083e-06
  using double precision FFTs
  3d grid and FFT values/proc = 3375 512
Neighbor list info ...
  1 neighbor list requests
  update every 1 steps, delay 0 steps, check yes
  master list distance cutoff = 11
Memory usage per processor = 4.06549 Mbytes
Step PotEng Lx Ly Lz Xy Xz Yz Press Pxx Pyy Pzz Pxy Pxz Pyz eatoms 
       0   -109.00108       4.2565       4.2565       4.2565            0            0            0    61252.417    61252.417    61252.417    61252.417 -3.6848803e-11 -3.3369169e-11 3.6549969e-10   -109.00108 
      10    -109.0509     4.299065     4.299065     4.299065            0            0            0    8703.9294    8703.9294    8703.9294    8703.9294 1.5032756e-10 -1.0327816e-11 -1.1009458e-10    -109.0509 
      15   -109.05203    4.3066964    4.3066964    4.3066964            0            0            0 0.0034250328 0.0034250327  0.003425033 0.0034250328 -1.8553982e-10 4.3823803e-11 -1.4551403e-10   -109.05203 
Loop time of 0.00799894 on 1 procs for 15 steps with 8 atoms

Minimization stats:
  Stopping criterion = linesearch alpha is zero
  Energy initial, next-to-last, final = 
        -109.001077098     -109.052033723     -109.052033723
  Force two-norm initial, final = 8.84488 3.43431e-05
  Force max component initial, final = 8.84488 7.26821e-06
  Final line search alpha, max atom move = 0.5 3.63411e-06
  Iterations, force evaluations = 15 22

Pair  time (%) = 0.00223684 (27.9642)
Kspce time (%) = 0.0012939 (16.1759)
Neigh time (%) = 0 (0)
Comm  time (%) = 0.000250816 (3.13562)
Outpt time (%) = 1.21593e-05 (0.152012)
Other time (%) = 0.00420523 (52.5723)

Nlocal:    8 ave 8 max 8 min
Histogram: 1 0 0 0 0 0 0 0 0 0
Nghost:    2189 ave 2189 max 2189 min
Histogram: 1 0 0 0 0 0 0 0 0 0
Neighs:    2344 ave 2344 max 2344 min
Histogram: 1 0 0 0 0 0 0 0 0 0

Total # of neighbors = 2344
Ave neighs/atom = 293
Neighbor list builds = 0
Dangerous builds = 0
unfix 1
# ---- define output variables ----
variable natoms equal "count(all)"
variable tot_energy equal "c_eatoms"
variable length_x equal "lx"
variable length_y equal "ly"
variable length_z equal "lz"
variable tilt_xy equal "xy"
variable tilt_xz equal "xz"
variable tilt_yz equal "yz"
variable tot_press equal "press"
variable press_xx equal "pxx"
variable press_yy equal "pyy"
variable press_zz equal "pzz"
variable press_xy equal "pxy"
variable press_xz equal "pxz"
variable press_yz equal "pyz"

# ---- output ----
print "pypospack:output_section:begin"
pypospack:output_section:begin
print "tot_energy = ${tot_energy}"
tot_energy = -109.052033723467
print "num_atoms = ${natoms}"
num_atoms = 8
print "xx = ${length_x}"
xx = 4.30669636930156
print "yy = ${length_y}"
yy = 4.30669636930156
print "zz = ${length_z}"
zz = 4.30669636930156
print "xy = ${tilt_xy}"
xy = 0
print "xz = ${tilt_xz}"
xz = 0
print "yz = ${tilt_yz}"
yz = 0
print "tot_press = ${tot_press}"
tot_press = 0.00342503281246904
print "pxx = ${press_xx}"
pxx = 0.00342503266517326
print "pyy = ${press_yy}"
pyy = 0.00342503296687446
print "pzz = ${press_zz}"
pzz = 0.00342503280535941
print "pxy = ${press_xy}"
pxy = -1.85539817051957e-10
print "pxz = ${press_xz}"
pxz = 4.38238030577261e-11
print "pyz = ${press_yz}"
pyz = -1.45514027090344e-10
print "pypospack:output_section:done"
pypospack:output_section:done
print "pypospack:lammps_sim:done"
pypospack:lammps_sim:done
#------------------------------------------------------------------------------
# RUN THERMOSTAT
# running using an NPT Nose-Hoover style thermostat
#------------------------------------------------------------------------------
variable tempdamp equal 0.1
variable pressdamp equal 1.0
# set initial velocities
velocity all create 100 4019872 mom yes dist gaussian loop all
# fix for Nose-Hoover style thermostat
fix 20 all npt temp 100 100 0.1 aniso 0.0 0.0 1.0 drag 1.0 couple xyz
variable boxx equal lx
variable boxy equal ly
variable boxz equal lz
variable boxp equal press
variable boxt equal temp
# calculate averages every 10000 steps
reset_timestep 0
fix 21 all ave/time 10 10 100 v_boxx v_boxy v_boxz v_boxp v_boxt file lattice.out
thermo_style custom step temp pe ke etotal press lx ly lz press pxx pyy pzz pxy pxz pyz vol
thermo_modify flush yes
thermo 100
run 100000
PPPM initialization ...
  G vector (1/distance) = 0.352152
  grid = 8 8 8
  stencil order = 5
  estimated absolute RMS force accuracy = 3.96483e-05
  estimated relative force accuracy = 2.75342e-06
  using double precision FFTs
  3d grid and FFT values/proc = 3375 512
Memory usage per processor = 3.06549 Mbytes
Step Temp PotEng KinEng TotEng Press Lx Ly Lz Press Pxx Pyy Pzz Pxy Pxz Pyz Volume 
       0          100   -109.05204  0.090482102   -108.96156    1208.4441    4.3066964    4.3066964    4.3066964    1208.4441    1374.8319    1062.0652    1188.4351    546.92754   -138.45237   -81.212388    79.879026 
     100    28.076234   -108.97386  0.025403967   -108.94845    4096.7133    4.3061735    4.3061735    4.3061735    4096.7133    4405.1795    3606.3657    4278.5947   -379.02196    468.79429    671.66222    79.849934 
     200    71.146468   -108.98857  0.064374819    -108.9242    750.24333    4.3089747    4.3089747    4.3089747    750.24333    2078.2641    969.61442   -797.14857    -1588.037    862.94412    728.57999    80.005868 
     300    70.773373   -108.96751  0.064037235   -108.90347    2987.1538    4.3098774    4.3098774    4.3098774    2987.1538    4801.0898    2234.4336     1925.938    123.62927  -0.37754406    120.23209     80.05616 
     400    104.66221   -108.98141  0.094700563   -108.88671   -2739.9375    4.3112009    4.3112009    4.3112009   -2739.9375   -3098.5217   -4225.9902   -895.30071   -133.38295    75.309934    76.829352    80.129934 
     500    93.245211   -108.96028  0.084370227   -108.87591    -768.1344    4.3138132    4.3138132    4.3138132    -768.1344      1955.67   -2333.1906   -1926.8826   -79.188507    228.97174     210.4854    80.275681 
     600    115.06765   -108.97478   0.10411563   -108.87067      1919.82    4.3115396    4.3115396    4.3115396      1919.82    2717.2484    1258.7849    1783.4268   -428.60691    474.68992    363.17962    80.148824 
     700    74.807858   -108.93766  0.067687722   -108.86997   -397.78911    4.3144254    4.3144254    4.3144254   -397.78911    2119.2976   -636.52424   -2676.1407   -931.15855    1231.9069    1328.6685    80.309867 
     800    122.47647    -108.9806   0.11081929   -108.86978    -2746.144    4.3137565    4.3137565    4.3137565    -2746.144   -3238.6106   -2886.8862   -2112.9351   -188.30878    -117.9655    23.240182    80.272519 
     900    112.79559   -108.97252   0.10205982   -108.87046   -24.969241     4.312709     4.312709     4.312709   -24.969241    2186.1122   -3252.7899    991.77004    380.81681   -36.213427     122.4677    80.214054 
    1000    73.705649   -108.93805   0.06669042   -108.87136   -1873.4423    4.3142477    4.3142477    4.3142477   -1873.4423    436.07851   -3286.8539   -2769.5515   -1458.1162    1051.4346      844.531    80.299944 
    1100     68.89855   -108.93372  0.062340856   -108.87138    1800.2844    4.3111666    4.3111666    4.3111666    1800.2844    2277.9064    2329.4798    793.46717   -1518.5742    785.52889    1048.9487    80.128021 
    1200    155.10865   -109.01104   0.14034557    -108.8707   -2316.0191     4.313394     4.313394     4.313394   -2316.0191   -2379.8394   -2291.0143   -2277.2035     1242.189   -611.98516   -421.21886    80.252283 
    1300    92.560721   -108.95492  0.083750886   -108.87116   -2105.0857    4.3117012    4.3117012    4.3117012   -2105.0857    -1648.287   -2487.9535   -2179.0166     207.0189    694.58251    723.83269    80.157835 
    1400    92.632739   -108.95483  0.083816049   -108.87101    537.07951    4.3114307    4.3114307    4.3114307    537.07951    2323.7221   -944.69262    232.20902   -1157.2586    648.58343    266.27984    80.142746 
    1500    107.13691   -108.96742  0.096939726   -108.87048    152.89143    4.3117694    4.3117694    4.3117694    152.89143    1957.8636   -857.12122   -642.06807   -1367.3121    693.64088    918.62331    80.161639 
    1600    48.548317   -108.91511  0.043927537   -108.87119    361.72014    4.3104388    4.3104388    4.3104388    361.72014   -1009.9385      1847.96    247.13887   -699.15443    886.32845    1273.2137    80.087444 
    1700    160.13517   -109.01547   0.14489366   -108.87057   -3608.9847    4.3128256    4.3128256    4.3128256   -3608.9847   -1658.2795   -4832.9355    -4335.739    56.703836   -250.41759   -160.84742     80.22056 
    1800     76.61214   -108.94055  0.069320274   -108.87123    3860.2069    4.3100148    4.3100148    4.3100148    3860.2069    5225.5335    1578.5856    4776.5017   -137.48862    574.40353     543.7507    80.063813 
    1900    100.76438   -108.96257  0.091173729   -108.87139   -1229.6134    4.3123588    4.3123588    4.3123588   -1229.6134    518.95417   -766.54756   -3441.2468   -1215.9872    1175.7148    1222.9866    80.194514 
    2000    90.240516   -108.95254  0.081651515   -108.87089    2945.1749    4.3117306    4.3117306    4.3117306    2945.1749    2743.3154    2334.7422    3757.4671   -116.96511    103.91525    360.97787    80.159471 
    2100     141.5375   -108.99857    0.1280661    -108.8705   -1340.8574    4.3114053    4.3114053    4.3114053   -1340.8574   -715.93383   -1818.3602   -1488.2783    621.18157   -749.18192   -652.40467     80.14133 
    2200    58.411235   -108.92412  0.052851713   -108.87127    405.38628    4.3135285    4.3135285    4.3135285    405.38628    4138.1377   -2210.3725   -711.60639   -483.25271    1285.8263    775.31825    80.259787 
    2300    105.11838   -108.96573  0.095113322   -108.87061    1959.7601    4.3108833    4.3108833    4.3108833    1959.7601    2527.3783    113.76323    3238.1387   -1374.6804    272.19108     102.9993    80.112226 
    2400    96.335761   -108.95784  0.087166621   -108.87068    1445.9367    4.3128811    4.3128811    4.3128811    1445.9367    2002.6923    1970.8672    364.25067   -642.18039    774.15503     1266.153    80.223658 
    2500    115.58256   -108.97548   0.10458153    -108.8709   -2749.8828    4.3128793    4.3128793    4.3128793   -2749.8828   -4287.0665   -2233.0957   -1729.4861    695.93198    62.168001    170.59133    80.223559 
    2600    107.04308    -108.9678  0.096854829   -108.87094    1393.9431    4.3114569    4.3114569    4.3114569    1393.9431     3698.088   -502.06666    985.80791    24.667114    694.14947    408.50202    80.144212 
    2700    114.12488   -108.97415   0.10326259   -108.87089   -2137.8169    4.3135847    4.3135847    4.3135847   -2137.8169   -913.95212   -2432.6477   -3066.8509   -1279.9527    275.70776    148.26982    80.262929 
    2800    30.086611   -108.89875  0.027222998   -108.87153    1120.6089    4.3108826    4.3108826    4.3108826    1120.6089    13.277894    1278.2944    2070.2544   -1237.5382    1381.4814     1925.452    80.112189 
    2900    158.63791   -109.01405   0.14353892   -108.87051   -4158.2945    4.3134732    4.3134732    4.3134732   -4158.2945    -4863.769   -3728.6085    -3882.506    741.52594    -883.1829    -917.9103    80.256702 
    3000    82.274453   -108.94558  0.074443654   -108.87113   -38.177004    4.3115987    4.3115987    4.3115987   -38.177004    1789.2359   -1604.4226   -299.34438    108.40537    641.09311    464.67525    80.152117 
    3100    99.528542   -108.96123  0.090055517   -108.87118   -1909.4245    4.3120303    4.3120303    4.3120303   -1909.4245   -1123.9421   -2203.7506   -2400.5808    -1056.961    1292.5856    699.63569    80.176191 
    3200    109.10662   -108.96927  0.098721966   -108.87055    1212.5375    4.3123848    4.3123848    4.3123848    1212.5375    1811.8231     2028.468   -202.67864   -527.13702    558.45586    1046.3913    80.195964 
    3300    92.109245   -108.95416  0.083342381   -108.87082    -147.0982    4.3108274    4.3108274    4.3108274    -147.0982   -2160.4573    343.73724    1375.4255   -608.44091    287.87202    628.97624     80.10911 
    3400    106.87519   -108.96759  0.096702922   -108.87089    -2405.819    4.3132878    4.3132878    4.3132878    -2405.819    700.65658   -4657.9751   -3260.1385     270.2702     397.9652    333.58011    80.246353 
    3500     89.61382   -108.95182  0.081084468   -108.87074     3410.055    4.3105652    4.3105652    4.3105652     3410.055    4586.4905     1347.355    4296.3196   -510.27299    396.88793    51.063035    80.094493 
    3600    99.269161   -108.96088  0.089820823   -108.87106    532.94292       4.3119       4.3119       4.3119    532.94292    1903.6433    661.78769    -966.6022   -1224.9407    324.12701    797.78791    80.168923 
    3700    83.199763   -108.94648  0.075280894    -108.8712    1601.8963    4.3123772    4.3123772    4.3123772    1601.8963   -297.99757     2437.978    2665.7085    31.025922    381.89718    552.93444    80.195542 
    3800    149.41358   -109.00569   0.13519255    -108.8705    517.43946    4.3109549    4.3109549    4.3109549    517.43946    1493.7962    -757.4172    815.93933    1863.3383   -503.97024   -986.99974    80.116216 
    3900    86.868775    -108.9497  0.078600693    -108.8711    402.84273    4.3131839    4.3131839    4.3131839    402.84273    2822.5881   -2570.1041    956.04412   -1179.3356     1372.657    816.10353    80.240555 
    4000    75.815529   -108.93969  0.068599484   -108.87109     806.5627    4.3112378    4.3112378    4.3112378     806.5627    189.46471    2291.4871   -61.263677   -1445.7206    969.42224    774.41454    80.131989 
    4100    104.55686   -108.96516  0.094605243   -108.87055    700.53941     4.312363     4.312363     4.312363    700.53941   -464.79665    1531.2681    1035.1468   -305.92254    338.01424    1071.4602    80.194747 
    4200    104.53562    -108.9654  0.094586027   -108.87082   -2921.0506    4.3128092    4.3128092    4.3128092   -2921.0506   -3205.5001   -3687.1756   -1870.4762    382.50922   -2.9803161   -84.230154    80.219646 
    4300    85.787807   -108.94874   0.07762261   -108.87112   -213.64773    4.3117006    4.3117006    4.3117006   -213.64773    812.83206   -1559.8247    106.04946   -594.90795    1172.4984    889.49439      80.1578 
    4400    148.09366   -109.00441   0.13399826   -108.87041   -2245.2034    4.3132784    4.3132784    4.3132784   -2245.2034   -2023.4616   -2069.0874   -2643.0612    248.01747    13.276776   -270.91594     80.24583 
    4500    41.152046   -108.90863  0.037235236    -108.8714    1422.2616    4.3110624    4.3110624    4.3110624    1422.2616   -1083.4161    4722.0188    628.18222   -1082.6234    1124.5461    1921.2122    80.122213 
    4600     142.2029   -108.99949   0.12866817   -108.87082   -5064.7964    4.3135175    4.3135175    4.3135175   -5064.7964   -5406.1008   -4156.3707   -5631.9178    474.76239   -160.53996    -731.5695    80.259174 
    4700    78.040305   -108.94157  0.070612508   -108.87096    1642.3684    4.3114378    4.3114378    4.3114378    1642.3684    3952.4506   -3108.2803     4082.935    582.65613    677.40493    157.78739    80.143145 
    4800    102.62491    -108.9639  0.092857174   -108.87105   -2223.1289    4.3121488    4.3121488    4.3121488   -2223.1289   -1695.6768   -1771.6501     -3202.06   -1892.6104    1171.1132    799.63069      80.1828 
    4900     77.84116   -108.94144  0.070432317   -108.87101    2402.9363    4.3124241    4.3124241    4.3124241    2402.9363     1729.057      3758.94    1720.8118   -926.01052     466.5314    1125.8696    80.198156 
    5000    135.35168   -108.99285   0.12246904   -108.87038    596.08395    4.3107724    4.3107724    4.3107724    596.08395   -899.85817    2130.8933    557.21669    1261.2123   -372.22716   -366.78726    80.106045 
    5100    97.628477   -108.95921  0.088336297   -108.87087    -478.7081    4.3130986    4.3130986    4.3130986    -478.7081    2241.7316   -2605.0031   -1072.8529    463.24659    828.71024    584.32871    80.235796 
    5200    97.704146   -108.95908  0.088404765   -108.87067    1763.3487    4.3110937    4.3110937    4.3110937    1763.3487    2445.8174   -1212.8936    4057.1222   -1218.5735      405.192    141.76785    80.123958 
    5300    95.076102    -108.9567  0.086026855   -108.87068    2270.6764    4.3116222    4.3116222    4.3116222    2270.6764    1998.3052    3854.4125    959.31157   -57.617529    135.41978    400.92186    80.153427 
    5400    80.025067   -108.94358  0.072408362   -108.87117   -167.02427    4.3128234    4.3128234    4.3128234   -167.02427   -1283.7326    1325.7028   -543.04304   -449.63553    445.55711    640.74564    80.220436 
    5500    112.93773   -108.97307   0.10218843   -108.87089    389.06409    4.3109908    4.3109908    4.3109908    389.06409    1137.8672   -1274.4312    1303.7563    749.54274     358.8082   -602.59712    80.118221 
    5600    130.46814    -108.9887   0.11805032   -108.87065   -1122.1323    4.3133069    4.3133069    4.3133069   -1122.1323    836.61108   -3445.9072   -757.10086   -390.02474    669.33379    231.42083    80.247421 
    5700     65.35019   -108.93049  0.059130225   -108.87136    656.34331    4.3114058    4.3114058    4.3114058    656.34331   -1871.5813    2937.0195     903.5918   -842.70706    1813.9563    1536.0248    80.141358 
    5800    113.61718    -108.9736   0.10280321    -108.8708   -1203.7761    4.3125712    4.3125712    4.3125712   -1203.7761   -3269.2331    1869.9464   -2212.0417    -598.4731   -184.38508    974.44148    80.206363 
    5900    105.96669   -108.96658  0.095880888    -108.8707   -2088.1222    4.3127702    4.3127702    4.3127702   -2088.1222    -1819.942   -2136.2373   -2308.1872    1469.0841    243.38408   -595.08526     80.21747 
    6000    71.794664   -108.93608  0.064961321   -108.87112    -1741.305    4.3116921    4.3116921    4.3116921    -1741.305   -93.885758   -4255.3483   -874.68088     -1259.11    1126.6763    1142.0009    80.157324 
    6100    125.66338    -108.9843   0.11370287    -108.8706   -2141.7448    4.3133841    4.3133841    4.3133841   -2141.7448      -2998.5   -1540.1325   -1886.6021   -579.32581    162.31144   -153.23084    80.251728 
    6200    70.157308   -108.93444  0.063479807   -108.87096    2514.6384    4.3108353    4.3108353    4.3108353    2514.6384    559.61284    5490.8473    1493.4551    1.5502499   -80.460173    727.34426     80.10955 
    6300    135.31741   -108.99336   0.12243804   -108.87092    -3673.033    4.3131786    4.3131786    4.3131786    -3673.033   -4420.4636   -1932.5882   -4666.0474    1192.9795    1038.3091   -228.93607    80.240261 
    6400    87.100151    -108.9497  0.078810047   -108.87089    2234.5035    4.3117211    4.3117211    4.3117211    2234.5035     5146.232   -1238.1911    2795.4696   -97.778893    347.27963    128.43484    80.158941 
    6500    116.70898   -108.97632   0.10560074   -108.87071    -716.8503    4.3114985    4.3114985    4.3114985    -716.8503   -910.16236   -456.07619   -784.31233   -1196.1816    861.43317    642.92936    80.146529 
    6600    50.353325   -108.91676  0.045560747    -108.8712    2551.5609    4.3126222    4.3126222    4.3126222    2551.5609    2407.5812    2929.1857    2317.9158   -758.66667    670.92392    1269.9441     80.20921 
    6700     129.5559   -108.98762    0.1172249    -108.8704    665.72882     4.310907     4.310907     4.310907    665.72882   -476.48081    2283.7998    189.86751    874.22133    -587.8901   -591.90039    80.113547 
    6800    105.47967   -108.96609  0.095440225   -108.87065    809.30637    4.3125983    4.3125983    4.3125983    809.30637    4287.3695   -2450.5915    591.14114    259.39113    306.59579   -85.951486    80.207876 
    6900     101.3912   -108.96259  0.091740889   -108.87085     9.975855    4.3118249    4.3118249    4.3118249     9.975855   -289.30126    147.02428    172.20454   -682.78011    895.68417    527.94736    80.164731 
    7000    98.906523    -108.9602    0.0894927   -108.87071    2126.9208    4.3113572    4.3113572    4.3113572    2126.9208    893.23619    4541.2403    946.28595    324.72493     264.2993    348.02127     80.13865 
    7100    103.71029   -108.96467  0.093839253   -108.87083   -1173.3529    4.3128688    4.3128688    4.3128688   -1173.3529   -1893.6403   -1168.2871   -458.13124    24.678965    19.624744    331.44676    80.222971 
    7200    77.287363   -108.94095   0.06993123   -108.87101   -392.17695    4.3113954    4.3113954    4.3113954   -392.17695    678.24648    -587.8033    -1266.974    153.68977    1901.2501    102.87744    80.140781 
    7300    131.23149   -108.98921   0.11874101   -108.87047   -2435.3847    4.3130738    4.3130738    4.3130738   -2435.3847   -1036.6455   -4325.1299   -1944.3788   -915.80799   -103.48661    252.07235     80.23441 
    7400    63.333937   -108.92858  0.057305877   -108.87127    824.82787    4.3115348    4.3115348    4.3115348    824.82787   -1548.0008    3717.0961    305.38836   -940.20042    1503.9068     1367.719    80.148554 
    7500     117.6405   -108.97747    0.1064436   -108.87103   -2558.5531    4.3126214    4.3126214    4.3126214   -2558.5531   -4609.8289    1365.0106   -4430.8411    406.44816   -378.31294    555.27414    80.209168 
    7600    115.10874   -108.97485   0.10415281    -108.8707   -348.60172    4.3123275    4.3123275    4.3123275   -348.60172    118.73834   -2505.5574    1341.0139    2201.3551    592.54206   -776.00656     80.19277 
    7700    95.383978    -108.9572  0.086305428   -108.87089   -1134.8256    4.3116785    4.3116785    4.3116785   -1134.8256    361.37282   -678.61418   -3087.2355   -1446.0698    155.70676    877.63892    80.156565 
    7800    89.472744   -108.95186  0.080956819   -108.87091   -855.55198    4.3129745    4.3129745    4.3129745   -855.55198   -2197.6057    1188.0763   -1557.1265    -663.4972    1234.6692    492.51228     80.22887 
    7900     81.07555   -108.94407  0.073358861   -108.87071     2316.169    4.3108243    4.3108243    4.3108243     2316.169    2747.2486    2317.7088    1883.5494    775.46674   -1090.1412   -379.74971    80.108936 
    8000    124.95208   -108.98378   0.11305927   -108.87072   -1694.2351    4.3127617    4.3127617    4.3127617   -1694.2351   -1442.2849   -1004.2627   -2636.1577    28.796877    1400.6978    76.490537    80.216997 
    8100    88.173228   -108.95065  0.079780989   -108.87087    2440.1378    4.3116805    4.3116805    4.3116805    2440.1378    5889.4534   -1656.5852    3087.5453   -734.00905     260.1184   -109.15918    80.156681 
    8200     130.9925   -108.98907   0.11852476   -108.87055    666.74581    4.3112837    4.3112837    4.3112837    666.74581   -1522.8374     4371.054   -847.97909    359.67768    648.67496    537.00005    80.134548 
    8300    64.594983   -108.92955  0.058446898   -108.87111    2124.9931    4.3126504    4.3126504    4.3126504    2124.9931    3494.6939    2791.9551    88.330166   -245.04227    184.73258    997.26548    80.210785 
    8400    114.66467    -108.9743     0.103751   -108.87055   -721.57238    4.3110628    4.3110628    4.3110628   -721.57238   -1187.1387   -990.45432    12.875859    474.35237     278.2501   -68.098368    80.122234 
    8500    99.610663    -108.9607  0.090129821   -108.87057    642.26247    4.3126621    4.3126621    4.3126621    642.26247    4795.9231   -3667.2858    798.15016     556.2832    44.439611   -674.03458    80.211438 
    8600    95.149296   -108.95697  0.086093082   -108.87087   -544.23253    4.3119176    4.3119176    4.3119176   -544.23253   -2647.5702    1859.1246   -844.25199   -1734.1616    788.04125    1226.9326    80.169902 
    8700    88.055354   -108.95065  0.079674335   -108.87098    775.46381    4.3115297    4.3115297    4.3115297    775.46381   -188.13392    3894.6736   -1380.1483    4.5760525    669.99546    38.586122    80.148271 
    8800    128.42534   -108.98679   0.11620194   -108.87059   -2355.7373    4.3133025    4.3133025    4.3133025   -2355.7373   -3028.2657   -1939.8862   -2099.0599    1851.2483   -430.39272   -322.32975    80.247177 
    8900    87.061983   -108.94968  0.078775512    -108.8709    -904.3493    4.3112966    4.3112966    4.3112966    -904.3493    1870.0146   -2462.5494   -2120.5132   -363.02897    2466.5486    540.76208    80.135272 
    9000    115.37181   -108.97503   0.10439084   -108.87064   -2252.4828    4.3133308    4.3133308    4.3133308   -2252.4828   -4252.7337   -1176.6697   -1328.0451   -1427.2305   -204.73771    717.67051    80.248754 
    9100    65.094449   -108.92997  0.058898826   -108.87107    1579.1774    4.3114939    4.3114939    4.3114939    1579.1774    1121.3434    4673.3285   -1057.1398    893.63992    931.28063    439.91624    80.146275 
    9200    109.65257    -108.9702  0.099215953   -108.87098   -2684.3902    4.3122921    4.3122921    4.3122921   -2684.3902   -3258.4254   -332.40509     -4462.34      111.132   -566.28018    500.24866    80.190795 
    9300    102.45595   -108.96351  0.092704296   -108.87081   -340.31115    4.3128962    4.3128962    4.3128962   -340.31115    2768.0885   -4514.1789    725.15694    235.32865    916.47959    -799.6487    80.224497 
    9400    122.33028   -108.98132   0.11068701   -108.87063   -9.3362382    4.3111636    4.3111636    4.3111636   -9.3362382   -33.804287    1807.7909   -1801.9954    8.1348272   -669.36081   -52.102286    80.127853 
    9500    83.803579    -108.9468   0.07582724   -108.87097    1380.7125    4.3127801    4.3127801    4.3127801    1380.7125    44.616904    3673.9418     423.5787   -115.14753    1594.9624    1175.5546    80.218021 
    9600     93.48955    -108.9553   0.08459131   -108.87071    1408.6579    4.3113588    4.3113588    4.3113588    1408.6579    2414.9817    2776.4985   -965.50632    487.21099   -1068.1071   -719.09337    80.138741 
    9700    115.59755   -108.97517   0.10459509   -108.87058   -948.17432    4.3120376    4.3120376    4.3120376   -948.17432    2146.7779   -3665.7151   -1325.5857    409.08219    1506.2276   -39.957629    80.176594 
    9800    80.444602   -108.94363  0.072787966   -108.87084     702.6479    4.3125012    4.3125012    4.3125012     702.6479    3410.5815   -2967.4691    1664.8313   -1394.7526    428.43744    401.67957    80.202457 
    9900    115.18081   -108.97487   0.10421802   -108.87065    690.21734    4.3112491    4.3112491    4.3112491    690.21734   -2374.4913    5498.7228   -1053.5795   -591.14619    274.31812    661.50362    80.132623 
   10000    81.351641   -108.94451  0.073608674    -108.8709    2233.2098    4.3124991    4.3124991    4.3124991    2233.2098    3407.8343    1483.7933    1808.0016    1683.1773   -322.90099   -202.12608    80.202344 
   10100    128.26255   -108.98665   0.11605465    -108.8706   -2576.3961    4.3120051    4.3120051    4.3120051   -2576.3961   -2082.0082   -1450.0553   -4197.1248    457.13047      929.584    410.95557    80.174786 
   10200    92.911129    -108.9548  0.084067942   -108.87074    -64.26413    4.3122983    4.3122983    4.3122983    -64.26413    2810.2219   -3175.8324    172.81807   -223.95778     105.9391   -588.55794    80.191137 
   10300      101.655   -108.96281  0.091979576   -108.87083   -1468.6546    4.3123425    4.3123425    4.3123425   -1468.6546     -4095.03    846.44483   -1157.3787   -669.26113    488.43987    1147.1719    80.193604 
   10400     67.43792   -108.93215  0.061019247   -108.87113    823.00791    4.3118034    4.3118034    4.3118034    823.00791    459.34302    4596.1444   -2586.4637    631.34565    1193.6396    274.53573    80.163534 
   10500    124.27712   -108.98307   0.11244855   -108.87062   -2091.5829    4.3128708    4.3128708    4.3128708   -2091.5829   -1913.5356   -3877.7405    -483.4726    241.08792   -604.99185   -480.52607    80.223084 
   10600    101.19723   -108.96234  0.091565377   -108.87077   -1093.1877    4.3117215    4.3117215    4.3117215   -1093.1877    2404.2879   -2005.1783   -3678.6728   -368.95029    2093.2056    71.136143    80.158967 
   10700    111.68956   -108.97178   0.10105906   -108.87072   -1577.8725    4.3129008    4.3129008    4.3129008   -1577.8725   -4896.1479    2158.6452   -1996.1147   -397.24793    68.558131    1139.5226    80.224754 
   10800    76.957784   -108.94061   0.06963302   -108.87097    2355.6778    4.3112489    4.3112489    4.3112489    2355.6778    4101.9516    3057.0095   -91.927562    1746.1975   -16.173348   -244.06782    80.132613 
   10900    115.62227   -108.97546   0.10461746   -108.87084   -1457.7695    4.3123572    4.3123572    4.3123572   -1457.7695   -1799.1366    521.39908    -3095.571    139.51938   -101.80474     89.02064    80.194425 
   11000    84.276956   -108.94717   0.07625556   -108.87091    588.54125    4.3123679    4.3123679    4.3123679    588.54125    5524.4383   -4275.8209     517.0063   -507.57163    1189.4537   -270.88769    80.195023 
   11100    118.57671   -108.97789    0.1072907    -108.8706     -645.931    4.3111079    4.3111079    4.3111079     -645.931   -2048.9741    1245.4725   -1134.2914   -598.90064   -1099.2646   -100.12405    80.124748 
   11200    72.476735   -108.93656  0.065578473   -108.87098     2303.709    4.3127255    4.3127255    4.3127255     2303.709    3308.2162    3249.1131    353.79778      290.975    1054.0174     917.5708    80.214973 
   11300    119.74062   -108.97899   0.10834383   -108.87064    356.02886    4.3111607    4.3111607    4.3111607    356.02886    942.49512    812.81429   -687.22282    733.40308    53.870147   -769.90694    80.127693 
   11400    109.34691   -108.96959  0.098939384   -108.87065    342.08421    4.3121728    4.3121728    4.3121728    342.08421    2505.9825   -2233.3533    753.62343    580.07854     777.1822   -215.35712    80.184141 
   11500    97.049377   -108.95852  0.087812316   -108.87071   -549.30527    4.3126314    4.3126314    4.3126314   -549.30527   -324.92153    -454.8031   -868.19119   -1144.0902    727.37794    869.36081    80.209723 
   11600     87.70532   -108.95012  0.079357617   -108.87076    379.89382    4.3108458    4.3108458    4.3108458    379.89382   -523.10651    3342.3539    -1679.566    389.10333    475.63981    699.41025    80.110133 
   11700    81.068395   -108.94413  0.073352388   -108.87078    525.99324    4.3132252    4.3132252    4.3132252    525.99324    1429.1806   -1403.9135    1552.7126     1798.567   -691.26891   -581.95229    80.242858 
   11800    132.19824   -108.99017   0.11961574   -108.87055   -2195.9937    4.3115447    4.3115447    4.3115447   -2195.9937   -420.09597   -1908.8466   -4259.0385   -1095.4329    1101.7774     514.1925    80.149105 
   11900    89.741301   -108.95206  0.081199815   -108.87086    791.35632    4.3120805    4.3120805    4.3120805    791.35632   -521.10102    571.33688    2323.8331   -250.51677     558.6499    -192.3308    80.178988 
   12000     112.8407   -108.97297   0.10210064   -108.87087   -1660.1722    4.3127606    4.3127606    4.3127606   -1660.1722   -2392.4775    1567.9164   -4155.9556    1375.2131   -322.26633    472.43666    80.216932 
   12100    71.772938   -108.93607  0.064941662   -108.87113    1038.4572     4.310847     4.310847     4.310847    1038.4572    2472.4857    3098.6695   -2455.7836    583.35911    1292.9657    576.92988    80.110201 
   12200    121.59116   -108.98076   0.11001824   -108.87074   -2384.4108    4.3134246    4.3134246    4.3134246   -2384.4108   -1103.8329   -5411.7351   -637.66438   -653.55388    413.18033   -626.08699    80.253991 
   12300    94.330997   -108.95616  0.085352668   -108.87081    243.12215    4.3113414    4.3113414    4.3113414    243.12215    1915.4894    682.48897   -1868.6119    132.16615    777.56874   -75.852165     80.13777 
   12400    95.406018   -108.95716   0.08632537   -108.87083    181.64056    4.3121186    4.3121186    4.3121186    181.64056   -2056.0382    2517.6052    83.354661   -632.45599     265.2117    1634.4748    80.181114 
   12500    88.467791   -108.95091  0.080047516   -108.87086    1016.7886    4.3122527    4.3122527    4.3122527    1016.7886    4469.3309    897.30911   -2316.2741    1450.7063   -385.78395   -724.33443    80.188596 
   12600    127.00899   -108.98563   0.11492041   -108.87071   -1391.4547    4.3115153    4.3115153    4.3115153   -1391.4547   -779.90522    -1503.833   -1890.6257    1153.0536    232.16276   -540.75322    80.147463 
   12700    92.039227   -108.95419  0.083279026   -108.87091     903.9272    4.3126863    4.3126863    4.3126863     903.9272    3972.1616   -2293.4356    1033.0555   -1028.1796    694.51358    706.77426     80.21279 
   12800    112.58704   -108.97248   0.10187112   -108.87061   -233.69897    4.3115794    4.3115794    4.3115794   -233.69897    -3322.815    3576.7281   -955.00997   -397.32126   -209.38044    25.748606     80.15104 
   12900    51.527473   -108.91767   0.04662314   -108.87105    2925.7473    4.3118696    4.3118696    4.3118696    2925.7473    5879.4883    1208.1524    1689.6012    1814.1978    200.44271    161.27587    80.167228 
   13000    136.11599   -108.99372   0.12316061   -108.87055   -2907.9369    4.3124861    4.3124861    4.3124861   -2907.9369   -1724.2952   -4040.3404   -2959.1753   -826.08534    1032.5275    230.12464    80.201618 
   13100    94.053668   -108.95592  0.085101736   -108.87082    1036.6703    4.3117066    4.3117066    4.3117066    1036.6703    1970.3381   -151.58582    1291.2586   -462.72678    444.17534   -515.71854    80.158137 
   13200    116.06474   -108.97572   0.10501782    -108.8707   -676.51991    4.3124524    4.3124524    4.3124524   -676.51991   -2559.3624     686.2258   -156.42309     1264.924    432.47587     506.4656    80.199735 
   13300    76.821867   -108.94041   0.06951004    -108.8709    1648.2489    4.3115669    4.3115669    4.3115669    1648.2489    1496.9349    5569.4819     -2121.67    1082.9457    529.84231    1021.2945    80.150341 
   13400    102.97574   -108.96387  0.093174612    -108.8707   -1206.8388    4.3125802    4.3125802    4.3125802   -1206.8388   -96.047561   -3599.9906     75.52185    545.86928   -361.84347   -601.77134     80.20687 
   13500    115.18524   -108.97487   0.10422203   -108.87065   -2935.6149    4.3120809    4.3120809    4.3120809   -2935.6149   -127.96115   -4049.7712   -4629.1125   -360.79117    1303.8486   -241.03672    80.179014 
   13600      83.0948   -108.94601  0.075185921   -108.87082    477.48216    4.3123944    4.3123944    4.3123944    477.48216   -2475.6293    2459.9903    1448.0855   -686.33478    324.95789    1386.5488      80.1965 
   13700    103.03982    -108.9641  0.093232595   -108.87087    144.81329    4.3119796    4.3119796    4.3119796    144.81329    1530.4401    1815.5343   -2911.5345    813.56518   -403.21694   -126.35149    80.173364 
   13800     87.25858   -108.95006  0.078953397   -108.87111    220.87461    4.3117537    4.3117537    4.3117537    220.87461    948.83902    740.00561   -1026.2208    1461.1249     907.7081   -33.220473     80.16076 
   13900    131.00784   -108.98936   0.11853864   -108.87082    -2579.968    4.3131928    4.3131928    4.3131928    -2579.968    13.756731   -4411.4406     -3342.22   -715.31145    1219.9476   -39.746518    80.241052 
   14000    98.441608   -108.95995  0.089072035   -108.87088     70.55494    4.3111009    4.3111009    4.3111009     70.55494    637.26203    224.30255   -649.89976   -59.709054   -581.06959    118.69413    80.124355 
   14100    71.746081   -108.93597  0.064917362   -108.87105    1298.2072    4.3126794    4.3126794    4.3126794    1298.2072     347.7853    3633.2802   -86.443877    1211.8497    808.23954    870.98605    80.212404 
   14200    99.032341   -108.96036  0.089606543   -108.87076    1037.6777    4.3117327    4.3117327    4.3117327    1037.6777    4449.8958   -256.34271   -1080.5198    364.80353   -533.65561     36.08133     80.15959 
   14300    119.47905   -108.97877   0.10810715   -108.87066   -1188.3557    4.3115676    4.3115676    4.3115676   -1188.3557   -893.08613   -3521.8502    849.86931   -408.37853    513.88337   -674.99429    80.150382 
   14400    96.781542   -108.95847  0.087569973    -108.8709   -280.64737    4.3132963    4.3132963    4.3132963   -280.64737    1666.3142   -1405.2429   -1103.0134    4.8290664    27.975467    558.43212    80.246826 
   14500    112.50808   -108.97239   0.10179968   -108.87059    1011.0779    4.3105709    4.3105709    4.3105709    1011.0779   -1136.7332    5112.4427   -942.47579    1089.9519    659.74473    538.76458    80.094809 
   14600    63.194051    -108.9281  0.057179305   -108.87092    2660.8545    4.3124014    4.3124014    4.3124014    2660.8545    4288.6915    1723.2082    1970.6638    1368.4398    -525.6686   -203.20813    80.196891 
   14700    139.08485   -108.99642    0.1258469   -108.87057   -3523.7928    4.3126543    4.3126543    4.3126543   -3523.7928   -3194.0369   -4060.2661   -3317.0754   -470.81685    1997.1848    76.576812    80.211001 
   14800    79.784373   -108.94303  0.072190577   -108.87084    1417.4985    4.3109259    4.3109259    4.3109259    1417.4985    2108.8993    41.639328    2101.9568   -581.72023    500.37847    83.937019      80.1146 
   14900    111.15867    -108.9713    0.1005787   -108.87072   -2194.8325     4.313562     4.313562     4.313562   -2194.8325   -3530.9001   -601.30386   -2452.2936    1146.0142   -350.85677    716.79272    80.261662 
   15000    65.170646   -108.92999   0.05896777   -108.87102    2315.9256    4.3107966    4.3107966    4.3107966    2315.9256    3767.9063    5586.6365   -2406.7662    963.93683    932.93443    494.06045    80.107391 
   15100    138.36319   -108.99567   0.12519392   -108.87048   -2148.8705    4.3127379    4.3127379    4.3127379   -2148.8705   -2805.7278   -3356.4065   -284.47715     468.8253   -69.613204   -318.99397    80.215669 
   15200    105.71701   -108.96645  0.095654968   -108.87079   -1865.2977    4.3127036    4.3127036    4.3127036   -1865.2977   -54.360381   -1992.7164   -3548.8162    -293.5004      770.077   -379.24451    80.213752 
   15300    80.428992   -108.94367  0.072773843    -108.8709    399.35132    4.3111958    4.3111958    4.3111958    399.35132   -1314.2484    2107.9259    404.37641    248.93132    152.07886    1913.6166    80.129647 
   15400    93.770037   -108.95559    0.0848451   -108.87074    54.957027    4.3128128    4.3128128    4.3128128    54.957027    3659.3335    568.34299   -4062.8054    668.21711    374.65165   -421.46526    80.219847 
   15500    96.193652     -108.958  0.087038038   -108.87096   -516.39528    4.3116289    4.3116289    4.3116289   -516.39528   -605.24878   -1104.1349    160.19784    565.09505     56.15471   -45.219967      80.1538 
   15600    118.12695   -108.97788   0.10688374   -108.87099   -830.99653    4.3123025    4.3123025    4.3123025   -830.99653    2020.3172   -2565.9629   -1947.3439   -1193.1148    1685.9815    265.05909    80.191371 
   15700    110.76233   -108.97105   0.10022009   -108.87083    389.97252    4.3120683    4.3120683    4.3120683    389.97252   -514.68509    1031.5503     653.0523    1227.8208   -1249.3072    136.58546    80.178308 
   15800    65.486029   -108.93037  0.059253136   -108.87111    2372.8566    4.3113199    4.3113199    4.3113199    2372.8566    4173.3705    4146.2321   -1201.0329    2214.1939    657.34546    243.32384    80.136568 
   15900    118.20658   -108.97768   0.10695579   -108.87072   -771.21872     4.312342     4.312342     4.312342   -771.21872    1153.7872   -1868.5962   -1598.8472   -323.52161   -160.49826    632.10169    80.193579 
   16000    110.91681   -108.97103   0.10035986   -108.87067    92.384034    4.3117937    4.3117937    4.3117937    92.384034   -386.58223   -281.27713    945.01146   -715.31263    1088.2712   -746.16121    80.162991 
   16100    89.413934   -108.95182  0.080903607   -108.87092    136.45213    4.3121611    4.3121611    4.3121611    136.45213    1080.7108   -1252.5551     581.2007    651.43183   -659.21009    920.14004    80.183488 
   16200    86.497508     -108.949  0.078264763   -108.87074    1161.9026    4.3116363    4.3116363    4.3116363    1161.9026    241.24878    4224.0871   -979.62822    571.98104    1454.7657    1016.6521    80.154215 
   16300    102.06509   -108.96299  0.092350638   -108.87064    288.18612    4.3122449    4.3122449    4.3122449    288.18612    1510.4672    7.2933243   -653.20218    934.55255   -582.20471   -772.67573     80.18816 
   16400    129.51513   -108.98782   0.11718801   -108.87064   -3146.2372    4.3123379    4.3123379    4.3123379   -3146.2372   -3523.1232   -2666.4872   -3249.1012    541.25059    1703.7796   -295.50669    80.193352 
   16500    85.199743   -108.94802  0.077090518   -108.87093    743.51679     4.311984     4.311984     4.311984    743.51679   -67.400896    2300.7674   -2.8160943   -452.32039    592.09786     1112.478    80.173608 
   16600    103.05739   -108.96394  0.093248492   -108.87069   -536.55738     4.312423     4.312423     4.312423   -536.55738   -566.19515     691.1414   -1734.6184    1297.2907   -462.85022    166.98105    80.198098 
   16700    63.085026   -108.92815  0.057080657   -108.87107    440.51375    4.3113867    4.3113867    4.3113867    440.51375    3160.1753   -168.27993   -1670.3541     832.6775     960.7568    354.40366    80.140294 
   16800    138.62171   -108.99592   0.12542783    -108.8705   -3245.8613    4.3132851    4.3132851    4.3132851   -3245.8613   -3381.8461   -2958.7131   -3397.0247   -1183.3169    316.71272    808.31068    80.246205 
   16900    105.91632   -108.96657  0.095835308   -108.87074    220.67025    4.3114315    4.3114315    4.3114315    220.67025    2466.0462   -53.225095   -1750.8104   -204.89227    121.07357   -730.53591    80.142794 
   17000    74.032044   -108.93813  0.066985749   -108.87114    1091.5147    4.3118446    4.3118446    4.3118446    1091.5147   -671.28389    3938.8579    6.9700372    2346.8338   -92.997564    1474.5805    80.165829 
   17100    104.85704   -108.96565  0.094876856   -108.87077    558.51391    4.3126091    4.3126091    4.3126091    558.51391    5075.5696    331.31196   -3731.3398    284.71085    712.46447    278.31195    80.208482 
   17200    114.75363   -108.97454   0.10383149    -108.8707   -615.13731     4.310855     4.310855     4.310855   -615.13731   -746.51227   -2807.4526     1708.553   -146.37134   -211.70071   -710.65817     80.11065 
   17300    96.454514   -108.95832  0.087274071   -108.87105   -1134.6123    4.3133263    4.3133263    4.3133263   -1134.6123    2234.1422   -1379.4522   -4258.5269     54.07729    1544.5304    292.14627    80.248504 
   17400    95.217865   -108.95696  0.086155126   -108.87081    2154.1355    4.3111276    4.3111276    4.3111276    2154.1355    620.61108    3705.9307    2135.8646    676.72262   -704.33281    1197.4717    80.125849 
   17500    81.181698   -108.94434  0.073454907   -108.87089    2056.2483    4.3112932    4.3112932    4.3112932    2056.2483     4915.736    2166.9402    -913.9314    1248.7862    159.36429   -654.77414     80.13508 
   17600    119.91425    -108.9793   0.10850093    -108.8708   -2466.5966    4.3135375    4.3135375    4.3135375   -2466.5966   -3287.1036   -3249.1599   -863.52648    390.40219    425.89017    456.49237    80.260292 
   17700     116.9044   -108.97643   0.10577756   -108.87065    478.87122    4.3106159    4.3106159    4.3106159    478.87122    1647.9564    1041.3648   -1252.7075   -482.43286    1049.0917    44.426162    80.097321 
   17800    92.870635   -108.95485  0.084031302   -108.87082   -272.33973    4.3130433    4.3130433    4.3130433   -272.33973   -1661.8344    1377.9776   -533.16234    734.90553   -935.87674     492.5449    80.232709 
   17900     62.05523   -108.92716  0.056148877   -108.87101    1126.7505    4.3119067    4.3119067    4.3119067    1126.7505    1721.7097    3041.7853   -1383.2435    1321.6822    1868.1762    701.55809    80.169293 
   18000    127.22009   -108.98544   0.11511141   -108.87033   -1288.3268    4.3114974    4.3114974    4.3114974   -1288.3268   -870.95279   -2663.9958   -330.03179   -690.29546    42.201767    458.18113    80.146466 
   18100    111.30789    -108.9714   0.10071371   -108.87069   -2590.2938    4.3135051    4.3135051    4.3135051   -2590.2938   -1775.5941   -3927.6927   -2067.5946   -160.50076    822.54861   -1024.2913    80.258483 
   18200    83.578894   -108.94669  0.075623939   -108.87106    343.29527    4.3111317    4.3111317    4.3111317    343.29527    111.20518    3241.1543   -2322.4736     1124.636    783.18611     1308.635    80.126076 
   18300    101.46986   -108.96256  0.091812063   -108.87074    1121.8084    4.3122397    4.3122397    4.3122397    1121.8084    2584.0527    3258.5821   -2477.2097    1726.5722   -452.43631    564.75437    80.187871 
   18400    94.675534   -108.95662  0.085664412   -108.87096   -985.47083    4.3124772    4.3124772    4.3124772   -985.47083    96.926896   -2045.3172   -1008.0222   -208.49952    12.639163     15.50123    80.201119 
   18500    118.66855   -108.97812    0.1073738   -108.87075   -2064.3387    4.3118615    4.3118615    4.3118615   -2064.3387     410.6998    -3627.746     -2975.97   -593.99494     1174.485    646.01469    80.166774 
   18600    101.86031   -108.96285  0.092165353   -108.87069    838.14974    4.3122991    4.3122991    4.3122991    838.14974    3005.9035   -203.55802   -287.89625   -44.115608   -208.86908     387.9904    80.191182 
   18700    68.284943   -108.93283  0.061785651   -108.87104     1600.936    4.3115501    4.3115501    4.3115501     1600.936     2098.947    4131.0935   -1427.2326    1725.3403   -233.79796    500.48908    80.149408 
   18800    104.32861   -108.96528  0.094398714   -108.87088    42.593969    4.3120761    4.3120761    4.3120761    42.593969    3057.3985    176.30044   -3105.9171    371.25121    851.15627    325.17563    80.178743 
   18900     132.7924   -108.99071   0.12015336   -108.87055   -829.22211    4.3121618    4.3121618    4.3121618   -829.22211   -1913.7058    -2153.907    1579.9465    216.38545    384.98409   -684.31945    80.183523 
   19000    97.827036    -108.9595  0.088515958   -108.87098   -547.92959    4.3122574    4.3122574    4.3122574   -547.92959     2813.614   -1018.4656   -3438.9372    567.58139   0.62324253   -81.396122    80.188856 
   19100    70.074418   -108.93445  0.063404806   -108.87105    2183.4188    4.3115749    4.3115749    4.3115749    2183.4188    248.11498      3712.22    2589.9214    881.07312    910.45414    1264.4221    80.150789 
   19200    110.35251   -108.97041  0.099849266   -108.87057   -94.907451      4.31217      4.31217      4.31217   -94.907451    2091.3444    1119.4885   -3495.5552    377.13093   -188.98948   -81.080251    80.183984 
   19300    102.58228   -108.96363  0.092818607   -108.87081   -1998.4509    4.3124651    4.3124651    4.3124651   -1998.4509   -3791.2158   -4034.9445    1830.8076   -768.15627    779.88591    246.16373    80.200443 
   19400    106.46294   -108.96725  0.096329907   -108.87092   -738.77928     4.311785     4.311785     4.311785   -738.77928    1437.6677   -664.27366   -2989.7318    137.42018     946.7072    147.43342    80.162508 
   19500    99.142959   -108.96051  0.089706633    -108.8708    941.02878    4.3125907    4.3125907    4.3125907    941.02878   -915.66804    2609.8342    1128.9202    1667.1238   -551.14537    685.70768    80.207452 
   19600    72.018316   -108.93623  0.065163685   -108.87106    757.99604    4.3113086    4.3113086    4.3113086    757.99604    2609.5186    1466.2985    -1801.829     1417.455    595.60959    177.24586    80.135939 
   19700    132.54056   -108.99035   0.11992548   -108.87043   -2729.8589    4.3128143    4.3128143    4.3128143   -2729.8589   -3963.7523   -1858.4394    -2367.385   -1286.7806    1066.4076    867.17496    80.219932 
   19800    106.62586   -108.96705  0.096477322   -108.87057   -192.70462    4.3123111    4.3123111    4.3123111   -192.70462    3723.0368   -3569.8636   -731.28701    386.41699    296.27191   -1159.0257    80.191854 
   19900    75.387185    -108.9393  0.068211909   -108.87109    166.11442    4.3111629    4.3111629    4.3111629    166.11442    459.84013    763.87177   -725.36863    909.80658    383.85247    1501.4614    80.127815 
   20000    85.096216   -108.94795  0.076996844   -108.87095    1279.6279    4.3129917    4.3129917    4.3129917    1279.6279    4248.8678    2301.6515   -2711.6356    847.74448    91.535825    598.86477    80.229829 
   20100    127.93202   -108.98639   0.11575558   -108.87064   -636.06567    4.3111631    4.3111631    4.3111631   -636.06567   -1239.7602   -1083.9774    415.54063   -153.66278   -329.38876   -66.979252    80.127825 
   20200    104.80216   -108.96578  0.094827201   -108.87095   -1839.8965    4.3126252    4.3126252    4.3126252   -1839.8965    2029.4524   -2484.2888   -5064.8531    572.69519    875.25468    145.53039    80.209376 
   20300    97.018833   -108.95865  0.087784679   -108.87086    1114.3042    4.3123855    4.3123855    4.3123855    1114.3042    1207.1544    999.70322    1136.0551     37.48747   -222.67923    960.01613    80.196005 
   20400    86.565755   -108.94909  0.078326514   -108.87077    2117.5145    4.3104598    4.3104598    4.3104598    2117.5145    4465.1788    2120.2671   -232.90247    1584.1426    93.551943    -374.7879     80.08862 
   20500    92.390926   -108.95455  0.083597251   -108.87095   -1698.6717    4.3135664    4.3135664    4.3135664   -1698.6717   -2353.2236   -1696.5616   -1046.2299   -227.05343    703.31244    672.89838    80.261907 
   20600    120.74596   -108.97988   0.10925349   -108.87063   -466.33729    4.3113262    4.3113262    4.3113262   -466.33729    289.19159   -1602.4839   -85.719555   -689.61318    1511.9774   -673.16238     80.13692 
   20700    108.23136   -108.96869  0.097930009   -108.87076   -173.92469    4.3119125    4.3119125    4.3119125   -173.92469    1052.5195     480.5695   -2054.8631    1376.9013   -1024.0669    -503.5523    80.169617 
   20800    57.717939   -108.92341  0.052224404   -108.87118    1316.2303    4.3127545    4.3127545    4.3127545    1316.2303   -449.60884    2134.3486    2263.9512    1706.7358    1617.4474    1294.3871    80.216591 
   20900    132.85726   -108.99062   0.12021204   -108.87041   -465.98772    4.3109286    4.3109286    4.3109286   -465.98772   -397.67001    945.97428   -1946.2674   -692.34256   -648.60139    722.03361    80.114753 
   21000    104.39784   -108.96512   0.09446136   -108.87066   -885.54713    4.3129876    4.3129876    4.3129876   -885.54713   -1309.2798   -4161.3614    2813.9998   -702.73937     973.5102   -448.32499      80.2296 
   21100    93.016759   -108.95521  0.084163519   -108.87105   -1543.5685    4.3120414    4.3120414    4.3120414   -1543.5685    424.26056   -1086.0342    -3968.932    844.40222     472.7267    570.15873    80.176807 
   21200    86.686919   -108.94935  0.078436146   -108.87091    2093.8048    4.3113645    4.3113645    4.3113645    2093.8048    1896.8628    2505.2178    1879.3336    549.58701    228.43867    1116.3059    80.139055 
   21300    94.041291   -108.95602  0.085090537   -108.87093   -253.88604    4.3126651    4.3126651    4.3126651   -253.88604    478.03383   -469.02946    -770.6625    1100.6456    -625.4807   -703.37594    80.211603 
   21400     117.0621   -108.97676   0.10592025   -108.87084   -2081.8384    4.3119414    4.3119414    4.3119414   -2081.8384   -2122.2817   -2515.7889   -1607.4447     18.90964    1930.5822    980.18325    80.171233 
   21500    114.69899   -108.97436   0.10378206   -108.87058    843.19626    4.3119667    4.3119667    4.3119667    843.19626    4948.2384   -1017.5546   -1401.0951    228.32387    -778.7411   -575.22767    80.172645 
   21600     89.57396   -108.95189  0.081048401   -108.87084    84.520736    4.3120597    4.3120597    4.3120597    84.520736   -629.63345    1294.4282   -411.23255    856.00813    22.269335    729.74683    80.177829 
   21700    70.633401   -108.93501  0.063910586   -108.87109    775.32855     4.311804     4.311804     4.311804    775.32855    3797.7628    1137.5335   -2609.3106     675.1311    512.66136    977.96815    80.163564 
   21800    128.26863   -108.98656   0.11606016    -108.8705   -817.95822    4.3120097    4.3120097    4.3120097   -817.95822   -2295.5896    -2949.705    2791.4199   -1346.7694    341.94125    235.93466     80.17504 
   21900    105.55628   -108.96633  0.095509541   -108.87082   -1282.4647    4.3125344    4.3125344    4.3125344   -1282.4647    2937.9369   -2461.5039   -4323.8272    569.84421   -201.27357    -1165.112    80.204313 
   22000    77.675271   -108.94143  0.070282218   -108.87115    1166.2672    4.3116045    4.3116045    4.3116045    1166.2672   -1090.4789    2360.6688    2228.6116    1626.2799    1056.3242     1272.403    80.152443 
   22100    112.57916   -108.97244   0.10186399   -108.87058    808.33426     4.311838     4.311838     4.311838    808.33426    1314.2951    3729.5817    -2618.874    890.79255   -400.41928    70.815907    80.165464 
   22200    97.630105   -108.95923  0.088337771    -108.8709   -969.84581    4.3126143    4.3126143    4.3126143   -969.84581    -3384.137   -2680.0358    3154.6355   -527.63935    470.97194    44.691295     80.20877 
   22300    106.18323   -108.96699   0.09607682   -108.87092   -1252.1558    4.3115952    4.3115952    4.3115952   -1252.1558    1210.2107   -3765.4027   -1201.2754   -286.15174    1848.3134   -173.21917     80.15192 
   22400    108.87861    -108.9692  0.098515654   -108.87069    241.04503    4.3127391    4.3127391    4.3127391    241.04503   -1492.8176    734.09196    1481.8608    692.30546   -1106.0225    269.21473    80.215731 
   22500    59.726469   -108.92516  0.054041764   -108.87112    1480.8426    4.3115739    4.3115739    4.3115739    1480.8426    968.39735    2788.0604    686.07004    608.65396    547.92616    507.60431    80.150733 
   22600    115.21296   -108.97497   0.10424711   -108.87073   -1814.6464    4.3120303    4.3120303    4.3120303   -1814.6464   -4161.1814    328.63176   -1611.3896    220.96914    382.11278     1234.267    80.176192 
   22700    123.76871   -108.98243   0.11198853   -108.87044     -370.521     4.313036     4.313036     4.313036     -370.521    1734.6718   -4134.2567    1288.0219   -355.75544    189.88755   -280.92765    80.232303 
   22800    98.875292   -108.96038  0.089464442   -108.87091   -578.93895    4.3110856    4.3110856    4.3110856   -578.93895   -311.15741   -1660.2483    234.58885    998.12796   -527.29764    16.357709    80.123502 
   22900    79.519612   -108.94305  0.071951016    -108.8711    691.79064    4.3127669    4.3127669    4.3127669    691.79064     699.0949    2968.1858   -1591.9088    689.54143    1212.9709    1517.4276    80.217282 
   23000    100.14396   -108.96133  0.090612359   -108.87072    766.36861    4.3117069    4.3117069    4.3117069    766.36861   -174.07562    839.36758    1633.8139    327.96635   -1082.1569   -588.14315    80.158151 
   23100    111.78701   -108.97202   0.10114723   -108.87087    -2917.578    4.3118592    4.3118592    4.3118592    -2917.578   -985.58238   -4526.6038   -3240.5479   -710.40234    1479.1386   -189.45695    80.166646 
   23200     90.59353   -108.95291   0.08197093   -108.87094    205.17632    4.3132031    4.3132031    4.3132031    205.17632    1810.1668   -2005.4619    810.82408    678.59186   -443.84727   -28.673384    80.241629 
   23300    118.97848   -108.97818   0.10765423   -108.87052    1144.0508    4.3107472    4.3107472    4.3107472    1144.0508   -176.66827    3333.3363    275.48446    1334.3333   -82.413326    956.05604    80.104639 
   23400     66.58479   -108.93139  0.060247317   -108.87114     842.2943    4.3125339    4.3125339    4.3125339     842.2943    179.57317    3159.9383   -812.62854    275.36588   -491.51487    739.36623    80.204283 
   23500    125.30827   -108.98398   0.11338156    -108.8706   -1946.6071    4.3126238    4.3126238    4.3126238   -1946.6071   -3292.4157   -2948.3664    400.96082   -1143.0695    1778.4723    401.69537    80.209299 
   23600    117.07515   -108.97644   0.10593205   -108.87051    -123.7459    4.3112095    4.3112095    4.3112095    -123.7459    2514.5558   -2927.2449    41.451386    376.50663   -1405.4493   -1013.5499    80.130411 
   23700    63.935918   -108.92893  0.057850563   -108.87108    219.40341    4.3131587    4.3131587    4.3131587    219.40341    -2634.816    135.04732     3157.979    1057.7953    1404.4768    774.00189    80.239147 
   23800    97.278243   -108.95878  0.088019399   -108.87076    1088.3454    4.3112931    4.3112931    4.3112931    1088.3454   -1128.4001    5204.6901   -811.25382    251.61631   -315.25481     444.3934    80.135075 
   23900    120.21301   -108.97941   0.10877125   -108.87064    -457.2812    4.3122025    4.3122025    4.3122025    -457.2812   -2980.5337   -685.26323    2293.9534    415.19027    411.37877   -66.494578    80.185795 
   24000    102.69479   -108.96406  0.092920405   -108.87114   -2496.0685    4.3130285    4.3130285    4.3130285   -2496.0685   -1802.5358   -4432.8617    -1252.808   -122.56417    156.01036   -50.345138    80.231885 
   24100    111.68468   -108.97202   0.10105465   -108.87096    270.89166    4.3113637    4.3113637    4.3113637    270.89166   -1798.8465    385.11342    2226.4081    441.39083    139.65898    1038.7866    80.139011 
   24200     73.75684   -108.93779  0.066736739   -108.87105    2124.1633    4.3122432    4.3122432    4.3122432    2124.1633    769.60528    2735.0833    2867.8014    346.69302   -1089.4501    406.77811    80.188064 
   24300    94.102201   -108.95629  0.085145649   -108.87114   -2342.0538    4.3123392    4.3123392    4.3123392   -2342.0538   -5146.2245   -16.080224   -1863.8566    113.52503    1048.3797    717.92362     80.19342 
   24400    116.96428   -108.97649   0.10583173   -108.87066   -969.61875    4.3119468    4.3119468    4.3119468   -969.61875    1057.8783   -3068.5122   -898.22237   -1055.6486    67.203534   -591.25684    80.171531 
   24500    107.86107   -108.96824  0.097594961   -108.87064   -574.93077    4.3123777    4.3123777    4.3123777   -574.93077   -1881.4082   -1909.8123    2066.4282    1638.0152   -894.48485    9.3234899    80.195567 
   24600    79.867423    -108.9434  0.072265723   -108.87113     350.0585      4.31193      4.31193      4.31193     350.0585    -687.3373    3653.5632   -1916.0504    1267.1212    872.25933    1672.8218    80.170597 
   24700    95.485565   -108.95711  0.086397346   -108.87072    2183.1916    4.3116037    4.3116037    4.3116037    2183.1916    174.18829    2499.4145     3875.972   -10.904364   -383.42268   -431.70062    80.152396 
   24800    143.54542   -109.00039   0.12988291   -108.87051   -3339.9029    4.3127335    4.3127335    4.3127335   -3339.9029   -3180.6814   -3404.9897   -3434.0377   -617.82245    500.06835   -757.68131     80.21542 
   24900    55.477574   -108.92137  0.050197275   -108.87117    944.79713    4.3118977    4.3118977    4.3118977    944.79713    1520.0787   -1947.1142    3261.4269    324.98227   -154.93996    621.75442    80.168794 
   25000    122.81336   -108.98178   0.11112411   -108.87065   -156.36783    4.3117819    4.3117819    4.3117819   -156.36783   -2572.0919    2618.6513   -515.66288    164.52061    195.79373     662.0076    80.162336 
   25100    65.290617   -108.93027  0.059076322   -108.87119    2892.8287    4.3120754    4.3120754    4.3120754    2892.8287    781.84619    4230.1955    3666.4443    538.68412   -1319.4515    277.39339    80.178707 
   25200    126.87932    -108.9858   0.11480308     -108.871   -2417.2833    4.3120927    4.3120927    4.3120927   -2417.2833   -3634.9108   -2039.1692     -1577.77    202.80135    1947.1511    728.73899    80.179669 
   25300    120.66626   -108.97988   0.10918137    -108.8707    29.612491    4.3122542    4.3122542    4.3122542    29.612491   -1047.3322   -1179.2249    2315.3946   -49.259112   -1453.3448   -486.04476     80.18868 
   25400    90.982935   -108.95318  0.082323272   -108.87086    33.795391    4.3122666    4.3122666    4.3122666    33.795391   -1526.4562    696.97107     930.8713    1103.4566    720.73689    95.811689    80.189372 
   25500    59.610037   -108.92503  0.053936414    -108.8711    1292.9019    4.3112785    4.3112785    4.3112785    1292.9019   -1797.0396    3303.7683     2371.977    407.58642   -305.10007    1197.1654    80.134258 
   25600    134.82126   -108.99234   0.12198911   -108.87035    -1699.778     4.312956     4.312956     4.312956    -1699.778   -2964.8609   -919.62345   -1214.8495   -321.13168    593.06563   -862.02045    80.227835 
   25700    90.650685   -108.95297  0.082022645   -108.87095   -396.77026    4.3117347    4.3117347    4.3117347   -396.77026   -1340.0272   -3117.0411    3266.7576    -729.4984   -1163.7701   -386.88351    80.159702 
   25800    109.49229   -108.97013  0.099070926   -108.87106   -2154.0714    4.3121138    4.3121138    4.3121138   -2154.0714   -4046.4948    1587.9761   -4003.6953    1179.1603    1322.8467    2249.3277    80.180845 
   25900    78.176459   -108.94175  0.070735703   -108.87101    3048.7989    4.3121918    4.3121918    4.3121918    3048.7989    332.11493    4120.5551    4693.7268    648.74109   -1345.1729    185.66377    80.185196 
   26000    124.16874   -108.98335   0.11235048     -108.871   -2062.0457    4.3113584    4.3113584    4.3113584   -2062.0457   -2465.9299   -539.94109    -3180.266    440.02859    1382.6335   -796.34989    80.138718 
   26100    85.759321   -108.94864  0.077596836   -108.87104   -677.22481    4.3129531    4.3129531    4.3129531   -677.22481   -1823.5261   -2860.7719    2652.6236   -734.13599    655.86873    393.14585    80.227674 
   26200    121.02372   -108.97994    0.1095048   -108.87044   -296.30539     4.311827     4.311827     4.311827   -296.30539    460.57525    232.59043   -1582.0818    758.23359   -569.83721   -333.07839    80.164848 
   26300    63.789902   -108.92878  0.057718443   -108.87106    1362.9339     4.311184     4.311184     4.311184    1362.9339   -1598.6158    4467.8936    1219.5239    612.09673    183.15935    281.96689     80.12899 
   26400    90.476064   -108.95281  0.081864644   -108.87094    203.23473    4.3131605    4.3131605    4.3131605    203.23473    611.39295    1279.3158   -1281.0045    404.00922    507.54284    805.95125    80.239252 
   26500     155.8771   -109.01135   0.14104088   -108.87031   -584.47515    4.3110936    4.3110936    4.3110936   -584.47515    -2102.422   -2170.5635    2519.5601   -177.26658   -474.43624   -354.18087    80.123951 
   26600    80.162082   -108.94355  0.072532336   -108.87102    750.21446    4.3124424    4.3124424    4.3124424    750.21446    2083.8448   -105.59131    272.38984    102.49842     99.41194    18.806125    80.199177 
   26700    92.194372   -108.95441  0.083419406   -108.87099    -65.97155    4.3124115    4.3124115    4.3124115    -65.97155   -3323.2658    2803.6765    321.67465    437.77329    783.26014     1559.118    80.197456 
   26800    90.492853   -108.95264  0.081879835   -108.87076    1946.3111    4.3107414    4.3107414    4.3107414    1946.3111    2819.6506    3354.1183   -334.83557    678.60379   -1212.9129   -633.20864    80.104314 
   26900    101.03902   -108.96246  0.091422226   -108.87104    -2391.392    4.3135155    4.3135155    4.3135155    -2391.392   -4023.5886   -4710.0099    1559.4225   -244.44203    1495.6472   -793.38457    80.259064 
   27000    114.88297   -108.97491   0.10394853   -108.87097   -610.91251    4.3114815    4.3114815    4.3114815   -610.91251   -463.86445   -199.76314     -1169.11   -445.34039   -424.38654    1224.9261     80.14558 
   27100    99.256223   -108.96066  0.089809116   -108.87085    1730.8423    4.3116878    4.3116878    4.3116878    1730.8423    -731.8239    4015.7853    1908.5657     1769.387    9.2060241    33.040749    80.157087 
   27200    80.828903   -108.94426   0.07313569   -108.87113   -987.57917     4.312883     4.312883     4.312883   -987.57917   -2407.4682     2188.472   -2743.7413    723.95335    53.834821    23.074872    80.223764 
   27300    118.48785   -108.97777    0.1072103   -108.87056   -1472.0995    4.3114496    4.3114496    4.3114496   -1472.0995   -2321.8693   -1732.2721   -362.15707   -647.85385     1949.131   -88.785235    80.143804 
   27400    111.29614   -108.97122   0.10070309   -108.87052   -565.69197    4.3127731    4.3127731    4.3127731   -565.69197   -600.00354   -3284.4731    2187.4007   -619.70642   -1859.6609   -5.3096135    80.217629 
   27500    82.766354   -108.94585  0.074888737   -108.87096    -1118.726    4.3121528    4.3121528    4.3121528    -1118.726   -2988.3113    2611.5866   -2979.4532    846.94523    2233.2939    505.34263    80.183026 
   27600       66.916   -108.93155  0.060547003     -108.871    2641.2582    4.3114491    4.3114491    4.3114491    2641.2582    1133.9561    5786.5119    1003.3066    103.78212   -704.97304    833.01968    80.143772 
   27700    144.85226   -109.00157   0.13106536    -108.8705   -2418.8318    4.3127656    4.3127656    4.3127656   -2418.8318   -2207.4733   -2002.0733   -3046.9487     947.5099    906.37261   -798.97351    80.217211 
   27800     92.24568    -108.9545   0.08346583   -108.87104   -513.55341    4.3119984    4.3119984    4.3119984   -513.55341   -1200.6115   -2236.5679    1896.5191    64.851866    372.42565    296.01946     80.17441 
   27900    115.08325   -108.97498   0.10412974   -108.87085    654.60353    4.3120465    4.3120465    4.3120465    654.60353    1661.5715    1390.1437   -1087.9046     202.1628    1016.0585    181.34889    80.177091 
   28000     82.29424   -108.94538  0.074461557   -108.87092    1806.3392    4.3118765    4.3118765    4.3118765    1806.3392   -657.10979    4926.2671    1149.8602    812.99792   -1261.3463    4.0239951    80.167608 
   28100    71.726866   -108.93607  0.064899975   -108.87117   -451.49163    4.3120956    4.3120956    4.3120956   -451.49163      2129.22   -472.77289    -3010.922    211.18651    1631.8355   -341.76146    80.179832 
   28200    138.83339   -108.99616   0.12561936   -108.87054   -2343.8429    4.3122912    4.3122912    4.3122912   -2343.8429   -3636.1835    -4180.613    785.26775   -1262.3241   -619.88504     806.2538    80.190742 
   28300    96.018075   -108.95769  0.086879172   -108.87081    1198.6787    4.3122429    4.3122429    4.3122429    1198.6787    2636.6945    1099.5209   -140.17935    445.74507   -128.57959    14.734435    80.188048 
   28400    83.374816   -108.94654  0.075439285    -108.8711    941.88244    4.3117418    4.3117418    4.3117418    941.88244   -2349.2512    4363.0423    811.85621    1751.1131    737.22105    1310.7811    80.160098 
   28500    110.36179   -108.97051  0.099857669   -108.87065     439.8236    4.3120291    4.3120291    4.3120291     439.8236    1103.7519    2366.8974   -2151.1785     290.9527    645.75735   -1052.7677    80.176123 
   28600    109.65178   -108.96989  0.099215236   -108.87068   -1716.7359    4.3126655    4.3126655    4.3126655   -1716.7359   -3064.2171   -4542.2687     2456.278   -248.91636    155.47859   -580.01393    80.211628 
   28700    98.781709   -108.96041  0.089379766   -108.87103   -2363.5162      4.31185      4.31185      4.31185   -2363.5162    -1615.986   -1549.9989   -3924.5636     36.24929    828.37008    810.49543     80.16613 
   28800    72.321802   -108.93646  0.065438286   -108.87102    2654.6512    4.3123553    4.3123553    4.3123553    2654.6512   -1589.6403    5798.5016    3755.0924    567.70575    419.90595     81.60463    80.194318 
   28900    107.19554   -108.96788  0.096992777   -108.87089   -214.54354    4.3117921    4.3117921    4.3117921   -214.54354   -40.533907     2438.763   -3041.8598    193.07744   -322.91017     -481.672    80.162904 
   29000    102.90907   -108.96407  0.093114286   -108.87095   -1764.1468    4.3122156    4.3122156    4.3122156   -1764.1468   -4428.7569   -1672.5932    808.90975    142.35273    2285.1593    973.50201    80.186526 
   29100    133.79692   -108.99163   0.12106227   -108.87057   -1349.4042    4.3130266    4.3130266    4.3130266   -1349.4042   -207.32646   -2079.2709   -1761.6153   -357.27766   -928.51654   -97.539439    80.231775 
   29200    87.013973   -108.94958  0.078732071   -108.87085    891.07728    4.3109501    4.3109501    4.3109501    891.07728   -1597.0646    3836.8148    433.48164    833.79376    1832.3384   -218.71796    80.115952 
   29300    58.503475     -108.924  0.052935174   -108.87106    1183.5557    4.3127325    4.3127325    4.3127325    1183.5557    95.641483    4288.6998   -833.67415     880.2644    66.453037    423.66045    80.215365 
   29400     130.1267   -108.98811   0.11774137   -108.87037   -1090.0987    4.3121017    4.3121017    4.3121017   -1090.0987   -268.31412   -2927.7928   -74.188991   -92.007292    1227.9511   -623.86119    80.180171 
   29500    103.96061   -108.96478  0.094065746   -108.87071   -1396.5102    4.3116526    4.3116526    4.3116526   -1396.5102    -1274.749   -2016.9646   -897.81686   -477.22458     -711.623   -50.809699    80.155125 
   29600    86.488974   -108.94939  0.078257041   -108.87113   -57.426217    4.3132104    4.3132104    4.3132104   -57.426217    -371.4863    1561.0705   -1361.8629    810.27657    1552.6755     1711.533    80.242033 
   29700    117.55507   -108.97704   0.10636629   -108.87067    1946.0203    4.3106712    4.3106712    4.3106712    1946.0203    516.10705    4938.1212    383.83254    1013.8183   -1288.7877   -706.48703    80.100401 
   29800    82.349728    -108.9456  0.074511765   -108.87108     655.2194    4.3125333    4.3125333    4.3125333     655.2194    814.14396   -782.39222    1933.9065   -245.93464    1970.7412   -842.64249    80.204252 
   29900    127.72081   -108.98637   0.11556448    -108.8708   -3471.0499    4.3128884    4.3128884    4.3128884   -3471.0499   -3360.6307   -4710.0505   -2342.4685   -643.94388   -415.08198    1586.2476    80.224064 
   30000    81.812043   -108.94494  0.074025256   -108.87091    2094.9943    4.3108032    4.3108032    4.3108032    2094.9943    1876.1986    3051.5253     1357.259    476.75608    717.59194    -411.4648    80.107762 
   30100    81.278525    -108.9446  0.073542517   -108.87106   -352.40527    4.3132186    4.3132186    4.3132186   -352.40527   -3679.7215     3579.341    -956.8353    1066.5461    368.94548   -410.02788     80.24249 
   30200    99.970797   -108.96132  0.090455678   -108.87086    744.34798    4.3113458    4.3113458    4.3113458    744.34798    124.31766     1252.529    856.19729    311.20805    1814.7674    592.59764    80.138015 
   30300    137.13589   -108.99448   0.12408344    -108.8704   -281.66938     4.312165     4.312165     4.312165   -281.66938   -2514.4449   -1412.8886    3082.3254    120.68825   -488.57413   -439.87328    80.183705 
   30400    104.32721   -108.96528  0.094397449   -108.87088   -2097.5967    4.3129048    4.3129048    4.3129048   -2097.5967   -2852.6235   -611.76592   -2828.4006    13.234137    1647.7478   -99.304908    80.224979 
   30500    63.429479   -108.92854  0.057392326   -108.87115     1846.918    4.3109851    4.3109851    4.3109851     1846.918   -1978.3943    6182.6248    1336.5234    471.00331    818.27837    587.38815    80.117904 
   30600    110.45654   -108.97058  0.099943402   -108.87063   -482.04257    4.3126797    4.3126797    4.3126797   -482.04257   -719.49983    -100.2226   -626.40528    320.04964   -130.92502   -611.28485    80.212421 
   30700    95.452439   -108.95734  0.086367372   -108.87097   -1838.0552    4.3122098    4.3122098    4.3122098   -1838.0552   -4143.1144   -2366.2213    995.17004   -482.74993    2207.9825    145.89495    80.186205 
   30800     109.6683   -108.97024  0.099230186   -108.87101   -604.90604    4.3120403    4.3120403    4.3120403   -604.90604    -257.4267   -340.22436   -1217.0671   -315.34502   -381.58738    1709.9392    80.176747 
   30900    107.50037   -108.96799  0.097268595   -108.87072    328.34165     4.312319     4.312319     4.312319    328.34165   -2394.8455    4013.8968   -634.02636    1304.6836    1148.4235   -689.10135    80.192294 
   31000    77.478378   -108.94117  0.070104065   -108.87107      18.6332    4.3117903    4.3117903    4.3117903      18.6332   -513.80027    1437.9951   -868.29523    1293.9652    941.43516    -724.6126    80.162802 
   31100     119.3478   -108.97855    0.1079884   -108.87056   -1022.5675    4.3123822    4.3123822    4.3123822   -1022.5675   -347.24918   -3242.1833    521.72987   -431.31237    1299.3281    855.05231    80.195818 
   31200    117.85827   -108.97713   0.10664064   -108.87049   -887.51567    4.3122482    4.3122482    4.3122482   -887.51567   -1883.7826   -1557.8232     779.0588   -194.29351   -1235.9635     -294.392    80.188345 
   31300     50.70458   -108.91706   0.04587857   -108.87118    1564.8616    4.3117844    4.3117844    4.3117844    1564.8616    760.38722     3775.763    158.43455    385.31093    2031.3125    494.10681    80.162474 
   31400    116.98341   -108.97657   0.10584905   -108.87072   -324.64698    4.3119199    4.3119199    4.3119199   -324.64698   -1460.5134    1522.9014    -1036.329    298.15552   -889.05048    267.37557    80.170029 
   31500    102.05991   -108.96316  0.092345949   -108.87081    1581.6732    4.3119732    4.3119732    4.3119732    1581.6732    425.35328   -375.85804    4695.5245    53.144368      1366.75    -311.7472    80.173002 
   31600     131.1298   -108.98966   0.11864899   -108.87101   -2140.2117    4.3123082    4.3123082    4.3123082   -2140.2117   -2484.7131   -2633.6842   -1302.2377   -58.314144    489.89603    542.86965    80.191691 
   31700    82.580459   -108.94587  0.074720535   -108.87115    2671.7911    4.3116179    4.3116179    4.3116179    2671.7911   -944.67911    5380.5952    3579.4571    300.69517    1406.7031    70.940225    80.153189 
   31800    90.801176   -108.95314  0.082158812   -108.87098    562.98026    4.3121081    4.3121081    4.3121081    562.98026   -594.62764    2356.6329   -73.064521    1210.9421   -80.239591   -1411.0177    80.180531 
   31900    80.342217   -108.94374  0.072695326   -108.87105   -1168.7122    4.3117894    4.3117894    4.3117894   -1168.7122   -1954.5164   -1426.5329   -125.08742    494.18796    2731.2977    575.40439    80.162751 
   32000    126.69685   -108.98515   0.11463798   -108.87051   -1469.9992    4.3127795    4.3127795    4.3127795   -1469.9992   -2993.5428   -2478.3591    1061.9043   -859.50503    -670.2637    771.73836    80.217986 
   32100     105.0684    -108.9658  0.095068099   -108.87073     329.1198    4.3118574    4.3118574    4.3118574     329.1198   -1805.6931    2407.5601     385.4924   -294.32561    936.38155     116.1219    80.166546 
   32200    81.602642   -108.94492  0.073835785   -108.87108   -434.68462    4.3119244    4.3119244    4.3119244   -434.68462    -3676.671    3959.0524   -1586.4352    928.22757    1656.3751   -144.09648    80.170284 
   32300    108.24297   -108.96854  0.097940513    -108.8706   -697.49289    4.3128722    4.3128722    4.3128722   -697.49289    198.40972   -2341.6751    50.786737    584.64044   -27.142044    847.18853    80.223162 
   32400    123.86183   -108.98261   0.11207279   -108.87054   -3080.0885    4.3116954    4.3116954    4.3116954   -3080.0885   -2642.4859   -3762.3682   -2835.4114   -398.95832    1572.3482   -794.35785     80.15751 
   32500    63.328867   -108.92845  0.057301289   -108.87115   -261.44208    4.3128177    4.3128177    4.3128177   -261.44208   -2712.7051    774.80206    1153.5768    114.76248    587.21135     1711.644    80.220118 
   32600    109.52887   -108.96964  0.099104026   -108.87054    598.41508      4.31196      4.31196      4.31196    598.41508     322.8448    2994.4356   -1522.0352    702.94586    819.81334   -877.85691    80.172265 
   32700    85.290782   -108.94803  0.077172892   -108.87086     1013.254     4.311303     4.311303     4.311303     1013.254   -177.95889    756.37476    2461.3461    916.61319    356.53828   -136.42933     80.13563 
   32800    118.70379   -108.97824   0.10740568   -108.87083    -2201.746    4.3135087    4.3135087    4.3135087    -2201.746    506.26593   -4665.0357   -2446.4682   -216.04322    1655.2056    725.85238    80.258685 
   32900    129.81752     -108.988   0.11746162   -108.87054    924.57893      4.31093      4.31093      4.31093    924.57893   -821.61274    625.10546    2970.2441   -387.10837   -1466.9046    402.85334    80.114828 
   33000    67.498573   -108.93211  0.061074127   -108.87104    2536.4059    4.3121787    4.3121787    4.3121787    2536.4059    269.16305    5488.8127     1851.242    303.95949    1565.6411   -1191.1852    80.184465 
   33100    87.516522   -108.95021  0.079186789   -108.87102    70.372004    4.3123686    4.3123686    4.3123686    70.372004   -416.77057   -194.79324    822.67983     732.2061    282.24321    1009.3513    80.195062 
   33200    112.64715   -108.97244   0.10192551   -108.87051    765.12508    4.3109621    4.3109621    4.3109621    765.12508    2467.4378   -1873.1939    1701.1314    48.395499    982.46036    -108.0448    80.116621 
   33300    108.99753   -108.96956  0.098623259   -108.87094   -1625.6908    4.3134362    4.3134362    4.3134362   -1625.6908   -2805.0967    -2290.119    218.14321   -702.89614    383.59052    310.96925    80.254635 
   33400    95.884613   -108.95795  0.086758413   -108.87119     603.8877    4.3112331    4.3112331    4.3112331     603.8877   -2205.0527    4444.5389   -427.82308    183.71174    2131.1103    91.260735    80.131729 
   33500    98.102691   -108.95965  0.088765376   -108.87088    1856.2319    4.3121115    4.3121115    4.3121115    1856.2319    272.25176    2540.0222    2756.4218    1579.6954   -460.12432   -185.96957    80.180717 
   33600    109.73319   -108.97016  0.099288893   -108.87088   -3236.1674    4.3130892    4.3130892    4.3130892   -3236.1674   -2064.0913    -3776.273    -3868.138     561.1392    1990.4566   -215.00819    80.235268 
[...]
   91300     104.3205   -108.96515  0.094391383   -108.87076   -1708.6818    4.3123669    4.3123669    4.3123669   -1708.6818   -1284.7676   -3037.0311   -804.24671   -117.30915    758.43228    1366.3074    80.194968 
   91400    76.515818   -108.94005   0.06923312   -108.87082    1918.7866    4.3112619    4.3112619    4.3112619    1918.7866    2945.2651    826.61248    1984.4823   -1434.1299   -1005.8655   -1614.5188    80.133334 
   91500    94.158577    -108.9561  0.085196659    -108.8709   -515.54911    4.3128318    4.3128318    4.3128318   -515.54911   -2244.7111   -1039.2185    1737.2823    1270.4242   -551.88135    427.36086    80.220906 
   91600     104.2825   -108.96522  0.094356999   -108.87087    -76.04638    4.3116047    4.3116047    4.3116047    -76.04638     962.1864   -2647.2178    1456.8923    163.51718    198.69705    1484.0801    80.152452 
   91700    126.89455   -108.98544   0.11481686   -108.87062   -228.64844    4.3122023    4.3122023    4.3122023   -228.64844    124.42616   -537.86779    -272.5037   -98.829909   -776.34313   -640.46617    80.185787 
   91800    92.624473   -108.95476   0.08380857   -108.87096    676.22479    4.3122439    4.3122439    4.3122439    676.22479    449.05258   -429.15318     2008.775   -1315.0839    -364.8635   -232.96171    80.188107 
   91900     75.38301   -108.93924  0.068208131   -108.87103    2128.0778    4.3110534    4.3110534    4.3110534    2128.0778    2782.0647    29.294807    3572.8738   -229.54914    -1570.994     256.0848    80.121708 
   92000    132.69139   -108.99056   0.12006196    -108.8705   -2009.7549    4.3128823    4.3128823    4.3128823   -2009.7549   -3685.9029   -2924.4501    581.08834   -258.11061     1015.359   -451.97174    80.223725 
   92100    75.122854   -108.93899  0.067972737   -108.87102    315.41876    4.3117042    4.3117042    4.3117042    315.41876    2848.1167   -2209.8387     307.9783    1269.5697    -1104.892    1217.8786    80.157998 
   92200    107.41625   -108.96822  0.097192479   -108.87103   -1285.7637    4.3121283    4.3121283    4.3121283   -1285.7637   -1897.9043   -625.10249   -1334.2844   -911.66244    1043.2171     528.3076    80.181654 
   92300    83.593572   -108.94666  0.075637221   -108.87103     1607.464    4.3122167    4.3122167    4.3122167     1607.464    308.32331    407.65985    4106.4087      115.874   -2393.9317   -1946.6904    80.186589 
   92400    122.62978   -108.98185     0.110958   -108.87089   -1958.0056    4.3119334    4.3119334    4.3119334   -1958.0056   -1669.2487   -2789.7505   -1415.0176    256.92224    1205.2313    931.22452    80.170787 
   92500    106.81626   -108.96741  0.096649599   -108.87076   -947.11429    4.3126247    4.3126247    4.3126247   -947.11429   -2606.8965   -1469.8406    1235.3942    133.79304   -1859.2647    897.85925    80.209348 
   92600    106.14027   -108.96664  0.096037946    -108.8706   -674.32057     4.312156     4.312156     4.312156   -674.32057    275.76052   -832.97139   -1465.7508   -411.58374    654.06534   -384.19871    80.183203 
   92700     54.79998   -108.92057  0.049584174   -108.87098    1382.3829    4.3117102    4.3117102    4.3117102    1382.3829   -61.918081    819.18864     3389.878    -598.1242   -2647.2804    63.288442    80.158333 
   92800     111.9051   -108.97185   0.10125408    -108.8706   -1565.9366    4.3125599    4.3125599    4.3125599   -1565.9366   -1997.5065   -3482.1895    781.88614   -350.19983    1055.7681    420.87414    80.205737 
   92900     114.4701   -108.97412   0.10357495   -108.87055    259.38779    4.3119277    4.3119277    4.3119277    259.38779   -185.64546    122.96663    840.84221     473.5078    -854.6643   -256.24299    80.170469 
   93000    119.25571   -108.97861   0.10790507   -108.87071   -920.52335    4.3120899    4.3120899    4.3120899   -920.52335   -1587.8889   -1873.1328    699.45164    125.63273    695.78638    324.03606    80.179514 
   93100    69.271021   -108.93372  0.062677876   -108.87104    2748.1697    4.3118533    4.3118533    4.3118533    2748.1697    1893.0901    2467.9459    3883.4732   -1733.2629   -1068.9443    -1408.877    80.166317 
   93200    122.11808   -108.98128     0.110495   -108.87078   -920.49512    4.3118621    4.3118621    4.3118621   -920.49512   -547.59899   -2619.1066    405.22025    986.73523   -240.03865    60.377359    80.166808 
   93300    84.129817   -108.94716  0.076122427   -108.87104   -412.52454    4.3120377    4.3120377    4.3120377   -412.52454   -189.50523   -3769.2226    2721.1542    280.37244   -253.11238    1672.2634    80.176603 
   93400    110.70917   -108.97097   0.10017199    -108.8708   -923.54641    4.3125574    4.3125574    4.3125574   -923.54641    61.917181   -833.77307   -1998.7833    27.793155   -484.66528    414.64755    80.205595 
   93500    89.552754   -108.95188  0.081029214   -108.87085    1731.2151    4.3113222    4.3113222    4.3113222    1731.2151    203.87801    1315.7695    3673.9977   -451.06051   -752.87362   -1194.8623    80.136696 
   93600    82.919806   -108.94609  0.075027583   -108.87106    548.25622      4.31226      4.31226      4.31226    548.25622    2758.6776   -1131.0468    17.137903   -391.28017   -1088.7028    329.85599    80.189002 
   93700     141.6235   -108.99872   0.12814392   -108.87058   -2508.1398    4.3126002    4.3126002    4.3126002   -2508.1398   -4204.7502   -2578.0799   -741.58949   -926.12946    998.97378   -412.67233    80.207984 
   93800    96.687467    -108.9583  0.087484852   -108.87081    332.92721    4.3114383    4.3114383    4.3114383    332.92721    2395.5768   -2911.4009    1514.6058    1169.6476   -782.41416    398.06765     80.14317 
   93900    82.857158   -108.94606  0.074970898   -108.87109   -727.77549    4.3129895    4.3129895    4.3129895   -727.77549   -3662.3282    1488.1145   -9.1127268    -203.8293    303.92105    494.95028    80.229705 
   94000    76.466622   -108.94018  0.069188606   -108.87099    1318.6292    4.3113564    4.3113564    4.3113564    1318.6292    3138.8595     73.83108    743.19703   -855.73567   -1770.7604   -975.46645    80.138605 
   94100    118.68437   -108.97812   0.10738811   -108.87073   -1667.2674    4.3123006    4.3123006    4.3123006   -1667.2674   -2284.0639   -1988.6181   -729.12018    1171.4831      877.657    1153.0442     80.19127 
   94200    109.08076    -108.9695  0.098698567    -108.8708   -1361.1824    4.3128324    4.3128324    4.3128324   -1361.1824   -1374.7986   -2653.8595   -54.889192    221.51259   -1563.9763    784.29451    80.220939 
   94300    107.16436   -108.96768  0.096964564   -108.87072    1096.8695    4.3111506    4.3111506    4.3111506    1096.8695   -352.31973      1541.31    2101.6183   -1393.8504    718.48066    -1867.341    80.127131 
   94400    83.638665   -108.94648  0.075678021   -108.87081    1497.4596    4.3125155    4.3125155    4.3125155    1497.4596    1403.9859    1880.7279    1207.6651   -867.93176   -2149.7753   -306.00237     80.20326 
   94500    103.71453   -108.96452  0.093843089   -108.87068   -1522.9897    4.3120387    4.3120387    4.3120387   -1522.9897   -245.01142   -2846.2985   -1477.6593    258.93245    1412.7454    1503.6525    80.176658 
   94600    97.209175   -108.95857  0.087956904   -108.87062   -34.076046    4.3118832    4.3118832    4.3118832   -34.076046    1564.3039   -2804.4722    1137.9401   -369.84369   -528.99552   -796.97455    80.167984 
   94700    114.05602   -108.97377   0.10320029   -108.87057   -1192.6802    4.3127179    4.3127179    4.3127179   -1192.6802   -1918.6863   -2024.9725    365.61828    1367.0731     617.0324    543.29598     80.21455 
   94800    58.639939   -108.92418  0.053058649   -108.87112    3134.6169    4.3111837    4.3111837    4.3111837    3134.6169    4635.5123    2519.3815    2248.9569   -762.55173   -1486.0626   -101.57275    80.128972 
   94900    141.75113   -108.99895   0.12825941   -108.87069   -1645.0472     4.312562     4.312562     4.312562   -1645.0472   -781.92847   -1167.7002    -2985.513   -464.53631    351.08108    -1050.122    80.205851 
   95000    103.18295   -108.96434  0.093362102   -108.87097   -284.77393    4.3120801    4.3120801    4.3120801   -284.77393    1165.6842    -2814.525    794.51906    445.91343   -896.89515    1143.7984    80.178967 
   95100    97.774994   -108.95948   0.08846887   -108.87101   -951.42102    4.3121545    4.3121545    4.3121545   -951.42102    664.19218   -2343.3104   -1175.1448    60.024765   -52.096529    1210.8417    80.183115 
   95200    81.634007   -108.94477  0.073864165    -108.8709      906.776     4.312132     4.312132     4.312132      906.776    179.67673    767.51849    1773.1328   -1428.7946   -1091.6677    -2236.087    80.181861 
   95300    83.305755   -108.94624  0.075376798   -108.87086    468.74504    4.3119302    4.3119302    4.3119302    468.74504    4319.0498    717.75745   -3630.5721    78.006729   -67.280496    1182.1193    80.170605 
   95400    125.43323   -108.98415   0.11349462   -108.87065   -2408.5878    4.3125336    4.3125336    4.3125336   -2408.5878   -3308.5953   -2372.6349   -1544.5334     878.7797    509.84962    960.49721    80.204269 
   95500    109.85295   -108.97007  0.099397254   -108.87067    54.853374    4.3119759    4.3119759    4.3119759    54.853374    2171.0737   -1287.4982   -719.01531   -268.72129    84.958736   -1840.0416    80.173153 
   95600    95.764454   -108.95758   0.08664969   -108.87093     576.7999    4.3121137    4.3121137    4.3121137     576.7999   -1025.6429    1785.8463    970.19624   -226.62807    -821.5424    132.37801    80.180839 
   95700    84.445642   -108.94744  0.076408192   -108.87103    553.00515    4.3117595    4.3117595    4.3117595    553.00515    3202.6119   -671.61121    -871.9853   -913.53524   -833.00724    876.16845    80.161086 
   95800    109.54622   -108.96982  0.099119719    -108.8707   -983.50816    4.3124138    4.3124138    4.3124138   -983.50816    -1167.015    280.59856    -2064.108    543.77759     377.0482   -555.54727    80.197584 
   95900    102.46464   -108.96345  0.092712159   -108.87074   -917.60137    4.3120018    4.3120018    4.3120018   -917.60137    2030.2015   -3411.2122   -1371.7934    97.587059   -1077.2712     1151.056    80.174597 
   96000    82.599861    -108.9457   0.07473809   -108.87096    784.43867    4.3118699    4.3118699    4.3118699    784.43867    391.58213    824.99144    1136.7424   -229.14742    151.82678   -130.28387    80.167242 
   96100    97.333823   -108.95882  0.088069688   -108.87075    1423.8084    4.3122345    4.3122345    4.3122345    1423.8084     4586.303    1117.5503    -1432.428   -1462.4595   -1006.7333   -2083.3816    80.187582 
   96200    130.72426   -108.98885   0.11828206   -108.87056   -1434.1057    4.3117502    4.3117502    4.3117502   -1434.1057   -1396.1112   -2272.5786   -633.62733    737.56233    862.06256    955.77462    80.160564 
   96300     89.45285   -108.95177  0.080938818   -108.87083    243.75058    4.3125783    4.3125783    4.3125783    243.75058    4335.2797    -1201.759    -2402.269   -103.03024   -362.28989    647.56434    80.206763 
   96400    116.49657   -108.97601   0.10540855    -108.8706   -1028.1835    4.3118685    4.3118685    4.3118685   -1028.1835   -581.23409    -1109.193   -1394.1233    420.59699    117.10471   -1054.7381    80.167163 
   96500    41.723466   -108.90887  0.037752268   -108.87111    3132.3049    4.3113572    4.3113572    4.3113572    3132.3049    7745.7951    78.330466     1572.789   -825.42754    -1856.093     658.2892    80.138647 
   96600     133.7337   -108.99176   0.12100506   -108.87075   -2987.8922    4.3130202    4.3130202    4.3130202   -2987.8922   -3068.3129   -986.22049   -4909.1431    560.47544    591.70721    700.09366    80.231418 
   96700    104.97723    -108.9659  0.094985605   -108.87091    857.27653    4.3112188    4.3112188    4.3112188    857.27653    4015.0842   -1139.8102   -303.44436    319.48495    -860.3779   -640.36301    80.130932 
   96800    112.54796   -108.97277   0.10183576   -108.87093   -717.00651     4.312615     4.312615     4.312615   -717.00651   -43.450229    1209.5244   -3317.0937   -848.03891   -114.03277    378.87699    80.208811 
   96900    78.161498   -108.94175  0.070722166   -108.87103    1304.9056    4.3118016    4.3118016    4.3118016    1304.9056    3132.7763     1038.993   -257.05255   -1556.3144   -1243.0685   -1064.7519    80.163434 
   97000    103.46569   -108.96424  0.093617933   -108.87062   -382.81167    4.3115982    4.3115982    4.3115982   -382.81167     1214.838   -645.89239   -1717.3807    393.30674    661.91389   -347.29979    80.152091 
   97100    107.23161   -108.96765  0.097025416   -108.87062   -1998.4393    4.3130427    4.3130427    4.3130427   -1998.4393   -839.97817   -2406.0623   -2749.2774    1074.6623   -440.48986    1322.2875    80.232673 
   97200    92.982863   -108.95486  0.084132848   -108.87073    74.165294    4.3114959    4.3114959    4.3114959    74.165294    2250.0055    614.18884   -2641.6985   -326.32148    348.89131   -431.26938    80.146386 
   97300    87.671994   -108.95025  0.079327463   -108.87092    1566.6522    4.3119961    4.3119961    4.3119961    1566.6522    3578.2986    1993.8754   -872.21753    181.27154   -1374.7147   -769.76632    80.174279 
   97400    114.36926   -108.97441   0.10348371   -108.87093   -859.41515    4.3123524    4.3123524    4.3123524   -859.41515   -297.07571   -1311.7295   -969.44019   -823.82119   -537.88121    359.12936     80.19416 
   97500    108.99788   -108.96956  0.098623576   -108.87094   -204.85238    4.3116685    4.3116685    4.3116685   -204.85238    2622.7037   -1532.4679    -1704.793    -47.62806     -73.8153   -461.32639     80.15601 
   97600    113.38842   -108.97335   0.10259623   -108.87076   -597.30878    4.3124359    4.3124359    4.3124359   -597.30878    1598.1048   -1616.1961   -1773.8351    -319.8907   -368.16339    297.44611    80.198815 
   97700    67.382992   -108.93197  0.060969547     -108.871    1482.7723    4.3117753    4.3117753    4.3117753    1482.7723     4192.436    2075.9204   -1820.0396   -420.67589   -677.45697    111.82337    80.161968 
   97800    82.209114   -108.94525  0.074384534   -108.87086     523.9883    4.3118472    4.3118472    4.3118472     523.9883    3298.7589    -311.6542   -1415.1398    -749.3777   -215.99636    -1450.198    80.165977 
   97900    136.33847   -108.99382   0.12336191   -108.87046   -2403.4147    4.3125984    4.3125984    4.3125984   -2403.4147   -1930.5448   -3602.6163   -1677.0828    2066.7118    533.91836    530.61026    80.207884 
   98000    90.542673    -108.9528  0.081924913   -108.87088    1188.3154    4.3118182    4.3118182    4.3118182    1188.3154    5633.0635      116.186   -2184.3034   -200.67318   -538.06867    1083.8075     80.16436 
   98100    121.17105   -108.98043   0.10963811   -108.87079    -730.4496    4.3120115    4.3120115    4.3120115    -730.4496   -998.73517    1064.3148   -2256.9285    -1361.414   -192.24921   -1844.5261    80.175139 
   98200     63.53898   -108.92858  0.057491404   -108.87109    2473.9067    4.3120273    4.3120273    4.3120273    2473.9067    5100.9645    2146.3001    174.45548     7.504808   -1618.1554    210.41737    80.176024 
   98300    126.41361    -108.9851   0.11438169   -108.87072    -3265.415    4.3122513    4.3122513    4.3122513    -3265.415   -3188.6118   -2748.7033     -3858.93    296.87319    528.38779    900.71915    80.188519 
   98400    80.046789   -108.94341  0.072428017   -108.87098    99.536163     4.312033     4.312033     4.312033    99.536163    2964.2654    -2410.811   -254.84591   -406.64823    -701.8357   -657.50106    80.176339 
   98500    110.91218   -108.97115   0.10035567    -108.8708   -335.69758    4.3123966    4.3123966    4.3123966   -335.69758   -182.19916    3156.2792   -3981.1728   -190.11202    258.86899    208.31129    80.196624 
   98600    80.782956   -108.94411  0.073094116   -108.87101    1868.8803    4.3114412    4.3114412    4.3114412    1868.8803    2339.9569    1599.0716    1667.6125   -8.3660945   -1456.3959   -492.51085    80.143332 
   98700    124.67497   -108.98342   0.11280853   -108.87062   -1813.0417    4.3126945    4.3126945    4.3126945   -1813.0417   -2394.3228   -487.98043   -2556.8218   -710.98301    1021.0299   -2023.0617    80.213243 
   98800    107.69932   -108.96807  0.097448611   -108.87062   -366.19236    4.3121413    4.3121413    4.3121413   -366.19236    2635.6672   -2714.3618   -1019.8824    1414.6058   -933.39878    1391.8442     80.18238 
   98900    99.049375    -108.9603  0.089621956   -108.87068   -790.06621    4.3117659    4.3117659    4.3117659   -790.06621   -859.45444    -607.3646   -903.37958   -791.50095    379.45816    281.74174    80.161441 
   99000    57.569802   -108.92313  0.052090366   -108.87104    2171.5091    4.3124622    4.3124622    4.3124622    2171.5091    5012.8408    2261.7456   -760.05916   -567.59638   -1713.9015   -1834.3522    80.200284 
   99100    125.80607   -108.98447   0.11383197   -108.87064   -1063.3384    4.3115125    4.3115125    4.3115125   -1063.3384   -2247.8489   -1324.3172     382.1508    327.84664    180.93407    803.54988    80.147311 
   99200    93.197156   -108.95535  0.084326746   -108.87102   -23.665687    4.3122483    4.3122483    4.3122483   -23.665687    4506.3155   -2450.8208   -2126.4917    502.05368   -481.63975    848.06993    80.188349 
   99300    126.53973   -108.98532   0.11449581   -108.87083   -1441.7201    4.3124807    4.3124807    4.3124807   -1441.7201   -1288.2085   -485.27743   -2551.6743   -1846.4448    414.14443    -1560.546    80.201318 
   99400    85.211768   -108.94807  0.077101398   -108.87097    2429.4119    4.3110269    4.3110269    4.3110269    2429.4119    3902.1268    1685.8227    1700.2862    266.27586   -1149.3018   -287.55279    80.120234 
   99500    88.222303   -108.95076  0.079825393   -108.87094   -308.22756    4.3128804    4.3128804    4.3128804   -308.22756   -851.60932    629.96952    -703.0429    255.96201    618.31003   -533.12191    80.223619 
   99600    110.06082   -108.97026  0.099585339   -108.87067   -1741.6955    4.3118563    4.3118563    4.3118563   -1741.6955    406.01672   -2962.4222   -2668.6811    564.63444     72.31488   -746.54311    80.166484 
   99700    92.002649   -108.95393   0.08324593   -108.87069    107.20884    4.3119549    4.3119549    4.3119549    107.20884    1579.6893    241.89847   -1499.9613    329.48985   -348.41447     1703.049    80.171986 
   99800    103.37087   -108.96441  0.093532135   -108.87087   -935.00215     4.312712     4.312712     4.312712   -935.00215   -2074.4275    525.86895   -1256.4479   -395.05162   -489.32132   -943.18621    80.214221 
   99900    85.281813   -108.94817  0.077164777   -108.87101    2262.1066    4.3111533    4.3111533    4.3111533    2262.1066    1370.4485    2249.3982    3166.4732   -553.79577   -1127.8968   -1674.8981    80.127279 
  100000    137.74005   -108.99523    0.1246301    -108.8706   -1803.4016    4.3127241    4.3127241    4.3127241   -1803.4016   -2347.5839   -1515.7886   -1546.8323   -479.01614    26.411281    1047.5552    80.214895 
Loop time of 22.2297 on 1 procs for 100000 steps with 8 atoms

Pair  time (%) = 7.09583 (31.9206)
Kspce time (%) = 5.31821 (23.924)
Neigh time (%) = 0 (0)
Comm  time (%) = 1.08014 (4.85902)
Outpt time (%) = 0.0334404 (0.150431)
Other time (%) = 8.70203 (39.146)

Nlocal:    8 ave 8 max 8 min
Histogram: 1 0 0 0 0 0 0 0 0 0
Nghost:    2189 ave 2189 max 2189 min
Histogram: 1 0 0 0 0 0 0 0 0 0
Neighs:    2344 ave 2344 max 2344 min
Histogram: 1 0 0 0 0 0 0 0 0 0

Total # of neighbors = 2344
Ave neighs/atom = 293
Neighbor list builds = 0
Dangerous builds = 0
unfix 20
unfix 21
print "seeds:4019872"
seeds:4019872
