# ['Ni']

20 atoms
1 atom types

    0.0000     3.3354 xlo xhi
    0.0000     3.3354 ylo yhi
    0.0000    33.3537 zlo zhi

    0.0000    -0.0000     0.0000 xy xz yz

Atoms

1 1     0.0000     0.0000     0.0000
2 1     1.6677     1.6677     0.0000
3 1     1.6677     0.0000     1.6677
4 1     0.0000     1.6677     1.6677
5 1     0.0000     0.0000     3.3354
6 1     1.6677     1.6677     3.3354
7 1     1.6677     0.0000     5.0031
8 1     0.0000     1.6677     5.0031
9 1     0.0000     0.0000     6.6707
10 1     1.6677     1.6677     6.6707
11 1     1.6677     0.0000     8.3384
12 1     0.0000     1.6677     8.3384
13 1     0.0000     0.0000    10.0061
14 1     1.6677     1.6677    10.0061
15 1     1.6677     0.0000    11.6738
16 1     0.0000     1.6677    11.6738
17 1     0.0000     0.0000    13.3415
18 1     1.6677     1.6677    13.3415
19 1     1.6677     0.0000    15.0092
20 1     0.0000     1.6677    15.0092
