LAMMPS (10 Feb 2015)
# ---- initialize simulations
clear
units metal
dimension 3
boundary p p p
atom_style charge
atom_modify map array
# ---- create atoms
read_data /Users/eugeneragasa/pyflamestk_git/pypospack/tests/tests_integration/workflow/WorkflowLammpsThermalExpansion/param_6993/MgO_NaCl_unit.npt.T2000/lammps.structure
  triclinic box = (0 0 0) to (4.2565 4.2565 4.2565) with tilt (0 0 0)
  1 by 1 by 1 MPI processor grid
  reading atoms ...
  8 atoms
# ---- define interatomic potential
include potential.mod
mass 1 24.305
mass 2 15.999

group Mg type 1
4 atoms in group Mg
group O type 2
4 atoms in group O

set group Mg charge 1.61814101446
  4 settings made for charge
set group O charge -1.61814101446
  4 settings made for charge

variable R_cut equal 10.0

pair_style buck/coul/long ${R_cut}
pair_style buck/coul/long 10
pair_coeff 1 1 0.0 0.5 0.0 ${R_cut}
pair_coeff 1 1 0.0 0.5 0.0 10
pair_coeff 1 2 1169.10574889 0.285525631363 0.0 ${R_cut}
pair_coeff 1 2 1169.10574889 0.285525631363 0.0 10
pair_coeff 2 2 5328.19415446 0.197938803692 16.6059399876 ${R_cut}
pair_coeff 2 2 5328.19415446 0.197938803692 16.6059399876 10

kspace_style pppm 1.0e-5

neighbor 1.0 bin
neigh_modify every 1 delay 0 check yes
# ---- define settings
compute eng all pe/atom
compute eatoms all reduce sum c_eng
# ---- run minimization
reset_timestep 0
fix 1 all box/relax iso 0.0 vmax 0.001
thermo 10
thermo_style custom step pe lx ly lz xy xz yz press pxx pyy pzz pxy pxz pyz c_eatoms
min_style cg
minimize 1e-25 1e-25 5000 10000
PPPM initialization ...
  G vector (1/distance) = 0.352506
  grid = 8 8 8
  stencil order = 5
  estimated absolute RMS force accuracy = 3.81426e-05
  estimated relative force accuracy = 2.64886e-06
  using double precision FFTs
  3d grid and FFT values/proc = 3375 512
Neighbor list info ...
  1 neighbor list requests
  update every 1 steps, delay 0 steps, check yes
  master list distance cutoff = 11
Memory usage per processor = 4.06549 Mbytes
Step PotEng Lx Ly Lz Xy Xz Yz Press Pxx Pyy Pzz Pxy Pxz Pyz eatoms 
       0   -108.09373       4.2565       4.2565       4.2565            0            0            0    -32837.55    -32837.55    -32837.55    -32837.55 6.8800808e-12 1.9793426e-10 1.5308399e-10   -108.09373 
       9   -108.11055     4.226584     4.226584     4.226584            0            0            0    13.792758    13.792758    13.792758    13.792758 -4.4920118e-11 -8.154534e-11 2.0970287e-11   -108.11055 
Loop time of 0.0118771 on 1 procs for 9 steps with 8 atoms

Minimization stats:
  Stopping criterion = linesearch alpha is zero
  Energy initial, next-to-last, final = 
         -108.09372829     -108.110551709     -108.110551709
  Force two-norm initial, final = 4.74176 0.0024943
  Force max component initial, final = 4.74176 0.00196378
  Final line search alpha, max atom move = 0.00390625 7.67103e-06
  Iterations, force evaluations = 9 28

Pair  time (%) = 0.00325322 (27.3908)
Kspce time (%) = 0.00227642 (19.1665)
Neigh time (%) = 0 (0)
Comm  time (%) = 0.000448465 (3.7759)
Outpt time (%) = 0 (0)
Other time (%) = 0.00589895 (49.6668)

Nlocal:    8 ave 8 max 8 min
Histogram: 1 0 0 0 0 0 0 0 0 0
Nghost:    2189 ave 2189 max 2189 min
Histogram: 1 0 0 0 0 0 0 0 0 0
Neighs:    2344 ave 2344 max 2344 min
Histogram: 1 0 0 0 0 0 0 0 0 0

Total # of neighbors = 2344
Ave neighs/atom = 293
Neighbor list builds = 0
Dangerous builds = 0
unfix 1
# ---- define output variables ----
variable natoms equal "count(all)"
variable tot_energy equal "c_eatoms"
variable length_x equal "lx"
variable length_y equal "ly"
variable length_z equal "lz"
variable tilt_xy equal "xy"
variable tilt_xz equal "xz"
variable tilt_yz equal "yz"
variable tot_press equal "press"
variable press_xx equal "pxx"
variable press_yy equal "pyy"
variable press_zz equal "pzz"
variable press_xy equal "pxy"
variable press_xz equal "pxz"
variable press_yz equal "pyz"

# ---- output ----
print "pypospack:output_section:begin"
pypospack:output_section:begin
print "tot_energy = ${tot_energy}"
tot_energy = -108.110551708828
print "num_atoms = ${natoms}"
num_atoms = 8
print "xx = ${length_x}"
xx = 4.22658398474032
print "yy = ${length_y}"
yy = 4.22658398474032
print "zz = ${length_z}"
zz = 4.22658398474032
print "xy = ${tilt_xy}"
xy = 0
print "xz = ${tilt_xz}"
xz = 0
print "yz = ${tilt_yz}"
yz = 0
print "tot_press = ${tot_press}"
tot_press = 13.7927584127517
print "pxx = ${press_xx}"
pxx = 13.7927584125475
print "pyy = ${press_yy}"
pyy = 13.7927584121258
print "pzz = ${press_zz}"
pzz = 13.7927584135819
print "pxy = ${press_xy}"
pxy = -4.49201179574407e-11
print "pxz = ${press_xz}"
pxz = -8.15453399591787e-11
print "pyz = ${press_yz}"
pyz = 2.09702873442201e-11
print "pypospack:output_section:done"
pypospack:output_section:done
print "pypospack:lammps_sim:done"
pypospack:lammps_sim:done
#------------------------------------------------------------------------------
# RUN THERMOSTAT
# running using an NPT Nose-Hoover style thermostat
#------------------------------------------------------------------------------
variable tempdamp equal 0.1
variable pressdamp equal 1.0
# set initial velocities
velocity all create 2000 7219837 mom yes dist gaussian loop all
# fix for Nose-Hoover style thermostat
fix 20 all npt temp 2000 2000 0.1 aniso 0.0 0.0 1.0 drag 1.0 couple xyz
variable boxx equal lx
variable boxy equal ly
variable boxz equal lz
variable boxp equal press
variable boxt equal temp
# calculate averages every 10000 steps
reset_timestep 0
fix 21 all ave/time 10 10 100 v_boxx v_boxy v_boxz v_boxp v_boxt file lattice.out
thermo_style custom step temp pe ke etotal press lx ly lz press pxx pyy pzz pxy pxz pyz vol
thermo_modify flush yes
thermo 100
run 100000
PPPM initialization ...
  G vector (1/distance) = 0.352801
  grid = 8 8 8
  stencil order = 5
  estimated absolute RMS force accuracy = 3.76353e-05
  estimated relative force accuracy = 2.61363e-06
  using double precision FFTs
  3d grid and FFT values/proc = 3375 512
Memory usage per processor = 3.06549 Mbytes
Step Temp PotEng KinEng TotEng Press Lx Ly Lz Press Pxx Pyy Pzz Pxy Pxz Pyz Volume 
       0         2000   -108.11055     1.809642   -106.30091    25614.317     4.226584     4.226584     4.226584    25614.317    28187.239    36216.286    12439.425   -10835.797   -1624.6084    106.87101    75.503748 
     100    840.08705   -106.85616   0.76012842   -106.09603    5300.7366    4.2619684    4.2619684    4.2619684    5300.7366   -517.08659    32485.969   -16066.672    5868.8834   -17530.177   -3670.0866    77.415992 
     200    1355.4962     -106.819    1.2264814   -105.59252   -10019.508    4.3162534    4.3162534    4.3162534   -10019.508   -23971.418    49570.817   -55657.923   -5318.1503   -10711.085   -8093.1082    80.411989 
     300    1778.8247   -106.77123     1.609518   -105.16171   -39354.534    4.3501185    4.3501185    4.3501185   -39354.534   -17432.211   -21689.236   -78942.155    20742.221    6386.5263   -1257.7151    82.319602 
     400     1286.073    -105.9398    1.1636659   -104.77613   -19681.726    4.3429764    4.3429764    4.3429764   -19681.726   -54390.401    44378.191   -49032.968    30213.197   -1752.3948   -21656.848    81.914808 
     500    2407.0679   -106.69541    2.1779656   -104.51745   -2387.9624    4.3228984    4.3228984    4.3228984   -2387.9624    10205.838    15039.061   -32408.786    6406.5842   -11447.396    1824.0455    80.783949 
     600    1480.1447   -105.74262     1.339266   -104.40335    17520.122    4.3172327    4.3172327    4.3172327    17520.122   -32208.519     143397.9   -58629.015    860.17185   -17594.122    103.43131    80.466736 
     700    2326.1434   -106.48157    2.1047434   -104.37683    18182.519    4.3299309    4.3299309    4.3299309    18182.519    37976.917    11013.752    5556.8885    28023.754   -5171.3707   -17208.046    81.178851 
     800    2086.8512   -106.28005    1.8882268   -104.39183   -47287.442    4.3523754    4.3523754    4.3523754   -47287.442   -74341.779   -2836.8735   -64683.674   -9379.8473     -5935.38    4337.9741    82.447793 
     900     2767.567   -106.84856    2.5041528   -104.34441    -3632.509    4.3455657    4.3455657    4.3455657    -3632.509   -41524.436    56837.399    -26210.49   -5711.5613    2920.4444   -14268.902    82.061407 
    1000    1828.4133   -105.98946    1.6543868   -104.33507    35941.918    4.3268384    4.3268384    4.3268384    35941.918    39833.601    23594.166    44397.987   -6480.6919   -38427.392   -9442.5291    81.005036 
    1100    2102.2886   -106.27066    1.9021949   -104.36847    31553.041    4.3400965    4.3400965    4.3400965    31553.041   -18505.282    110011.88    3152.5279   -38301.315    5095.8358    108.32055    81.751959 
    1200    1481.1066   -105.72181    1.3401364   -104.38168    -19008.93    4.3709813    4.3709813    4.3709813    -19008.93   -40102.514    86908.169   -103832.45   -10826.189   -45969.506    3058.9552    83.509683 
    1300    1944.3544    -106.0963    1.7592927   -104.33701    2652.8065    4.3527428    4.3527428    4.3527428    2652.8065    5231.3719    64585.376   -61858.328    323.29233    2873.7398   -5830.9441    82.468674 
    1400    2113.1358   -106.21904    1.9120097   -104.30703     20931.26    4.3078727    4.3078727    4.3078727     20931.26   -39404.591    14612.237    87586.135   -35016.379   -15827.742    4588.3039    79.944498 
    1500    2716.4253   -106.86494    2.4578787   -104.40706   -5766.6878    4.3163962    4.3163962    4.3163962   -5766.6878   -23290.825   -16647.062    22637.824   -3769.7593    18461.438   -13812.478    80.419971 
    1600    1599.4187   -105.91163    1.4471877   -104.46444    100.54578    4.3633433    4.3633433    4.3633433    100.54578   -37637.989   -53891.669    91831.295    7954.7947    -20377.55   -5837.0858    83.072669 
    1700    1609.0032   -105.81368    1.4558599   -104.35782   -2022.9668    4.3887375    4.3887375    4.3887375   -2022.9668     21539.76   -9962.1583   -17646.502    11696.178   -25089.631    10246.553    84.531547 
    1800    2218.0276    -106.2713     2.006918   -104.26438   -28149.567    4.3767624    4.3767624    4.3767624   -28149.567   -6008.1479    2085.3741   -80525.928    3333.6968    2745.4869    5070.9952    83.841476 
    1900    2261.3534   -106.28386    2.0461201   -104.23774   -20576.786    4.3239974    4.3239974    4.3239974   -20576.786   -36424.621    1027.8874   -26333.625    -10777.88    1417.3031    951.66503     80.84558 
    2000    2101.5743   -106.16728    1.9015485   -104.26573    37057.409    4.2810619    4.2810619    4.2810619    37057.409    25743.398    21497.484    63931.345   -5713.4735    5257.9474    3873.6481    78.461123 
    2100    2326.7928   -106.50205     2.105331   -104.39671    15285.292    4.3026654    4.3026654    4.3026654    15285.292    31488.638    67076.048    -52708.81    5557.3689    8337.2735    15892.225    79.654942 
    2200     1845.759   -106.08407    1.6700815   -104.41399   -31817.315     4.341977     4.341977     4.341977   -31817.315   -63858.494    -74101.97    42508.519    43165.174   -14044.448    923.89024    81.858268 
    2300    1816.8917    -105.9846    1.6439618   -104.34064   -14380.365    4.3395902    4.3395902    4.3395902   -14380.365    -68821.36   -10756.697    36436.963   -1513.6845    38310.991    11609.788     81.72335 
    2400    1899.4888   -106.03674    1.7186974   -104.31805    20533.005    4.3291276    4.3291276    4.3291276    20533.005    7263.1676    96350.722   -42014.875    -2341.143    4776.4311    33599.604    81.133676 
    2500    1849.5173   -106.01196    1.6734821   -104.33848   -34233.023     4.329118     4.329118     4.329118   -34233.023   -80797.207    2070.8503   -23972.711   -7241.9901    15671.644     2591.639    81.133137 
    2600    2051.3266   -106.19519    1.8560834   -104.33911     598.0902    4.3136425    4.3136425    4.3136425     598.0902   -54713.911    8617.8866    47890.296   -17251.292     12180.36   -10923.321    80.266155 
    2700    2359.1405   -106.49599    2.1345999   -104.36139    18840.767    4.3061971    4.3061971    4.3061971    18840.767    9692.9026    54942.493   -8113.0956    22548.647   -21635.496    2824.3492    79.851248 
    2800     1947.833   -106.16008    1.7624402   -104.39764   -35494.778    4.3176319    4.3176319    4.3176319   -35494.778   -65326.988    20858.089   -62015.437   -25325.065     44539.71    19109.092    80.489057 
    2900    2043.5911   -106.24258    1.8490842    -104.3935    4681.8108    4.3205813    4.3205813    4.3205813    4681.8108   -24984.418    87803.583   -48773.733   -10909.426   -17168.478   -24804.681    80.654119 
    3000    1721.8096   -105.96056    1.5579296   -104.40263    25527.333    4.3178775    4.3178775    4.3178775    25527.333    1875.8188    64576.099    10130.082   -2543.2705    19927.419   -16000.008    80.502791 
    3100    2290.0048    -106.4553    2.0720445   -104.38326   -2970.6171    4.3242915    4.3242915    4.3242915   -2970.6171    3502.6053    18905.359   -31319.816   -1492.1978   -5496.7213   -3855.3018    80.862076 
    3200    1472.5982   -105.71119    1.3324378   -104.37875   -22400.963    4.3280807    4.3280807    4.3280807   -22400.963   -20815.969    11182.743   -57569.662    13989.544      3470.56   -21641.493     81.07483 
    3300    2263.4692   -106.41767    2.0480345   -104.36964   -26691.499    4.3120228    4.3120228    4.3120228   -26691.499   -75547.177    26680.123   -31207.442    26163.554    28525.439    22732.254    80.175772 
    3400    2487.9091   -106.62557    2.2511125   -104.37446   -210.72546    4.2912902    4.2912902    4.2912902   -210.72546   -20674.153   -17452.106    37494.082   -11497.251   -8330.6079   -28836.855    79.024846 
    3500     1878.205   -106.12405    1.6994394   -104.42461   -9618.4392    4.3015334    4.3015334    4.3015334   -9618.4392   -52825.914    92514.549   -68543.953    -7180.576    26825.674   -6579.8052     79.59209 
    3600    1817.5788   -106.05665    1.6445835   -104.41207   -20188.342     4.318737     4.318737     4.318737   -20188.342   -30650.112    6183.8823   -36098.795    38690.537    10403.925    20679.825    80.550877 
    3700    1697.3953   -105.92195    1.5358389   -104.38611    9555.5279    4.3034258    4.3034258    4.3034258    9555.5279    65885.681   -65766.353    28547.256   -8654.2155    9012.2782   -30259.382    79.697183 
    3800    2644.0024   -106.78656    2.3923489   -104.39421   -16216.471    4.2955937    4.2955937    4.2955937   -16216.471   -28813.193    -13091.14   -6745.0804    5711.8142    8083.5073     13956.52    79.262835 
    3900    1514.9847   -105.79333      1.37079   -104.42254    13964.246    4.2985384    4.2985384    4.2985384    13964.246    48213.688   -34535.159    28214.209    37944.375    6997.9088   -4737.0982    79.425951 
    4000    1620.3464   -105.88893    1.4661235    -104.4228   -338.68613     4.294382     4.294382     4.294382   -338.68613    36190.619   -22603.762   -14602.915    4945.1095    5374.4108   -15992.686    79.195776 
    4100    2429.6809   -106.61546    2.1984263   -104.41704   -17377.268      4.30018      4.30018      4.30018   -17377.268   -13307.456   -29587.876   -9236.4701   -9575.6022   -2447.2537   -899.75746    79.516985 
    4200    2146.3064   -106.35432    1.9420231    -104.4123   -11272.418     4.305432     4.305432     4.305432   -11272.418    7706.5645   -15994.078    -25529.74    523.69512   -509.16271    -27135.16    79.808694 
    4300    1744.1387   -105.98805    1.5781333   -104.40992    10104.626    4.3062739    4.3062739    4.3062739    10104.626    9625.8952    20693.949   -5.9674166   -13950.438    2596.3441    3350.1592    79.855521 
    4400    2233.1615   -106.40624    2.0206114   -104.38563   -11856.467    4.3131927    4.3131927    4.3131927   -11856.467   -602.76931    40048.887   -75015.519    10243.379   -9762.2523    2878.7623    80.241045 
    4500    1673.1552   -105.90501     1.513906    -104.3911   -24080.546    4.3141715    4.3141715    4.3141715   -24080.546    12997.421    775.66761   -86014.725    4951.8778   -16867.966   -28142.411    80.295684 
    4600    2592.7488   -106.72753    2.3459736   -104.38156    4127.1171    4.3142929    4.3142929    4.3142929    4127.1171   -45673.866    39315.002    18740.215   -15772.387     1600.019   -192.01463    80.302467 
    4700    2312.6491    -106.4874    2.0925335   -104.39487   -9026.9227    4.3226906    4.3226906    4.3226906   -9026.9227    339.32197    46318.411   -73738.501     46438.87    -7108.455   -14192.218    80.772301 
    4800    1491.8883   -105.75179    1.3498919    -104.4019   -16872.449    4.3274917    4.3274917    4.3274917   -16872.449   -26264.635    51168.709   -75521.421   -17111.174    1068.3308   -5867.8849    81.041737 
    4900     2207.052   -106.38452     1.996987   -104.38754   -15490.169    4.3137703    4.3137703    4.3137703   -15490.169   -35387.116    18735.309   -29818.699   -8804.1007    22780.095    6353.2526    80.273289 
    5000    2020.9578   -106.22049    1.8286051   -104.39189    10836.097     4.293377     4.293377     4.293377    10836.097   -37775.262    80115.492   -9831.9378    22548.867   -38775.698   -683.43729    79.140186 
    5100    1963.8949   -106.19534    1.7769734   -104.41837   -5938.0839    4.2920451    4.2920451    4.2920451   -5938.0839   -26328.595     41033.78   -32519.437   -13719.052    14848.698    9656.5675    79.066557 
    5200    1791.9599     -106.062    1.6214029   -104.44059   -27390.321    4.3047083    4.3047083    4.3047083   -27390.321    -18934.26    1036.9508   -64273.653   -7655.3466    30412.765   -2131.0238    79.768457 
    5300    1902.5324   -106.15127    1.7214513   -104.42982   -6154.2604    4.3064169    4.3064169    4.3064169   -6154.2604    631.39693    5931.3649   -25025.543    5938.2146   -32658.252   -15292.999    79.863475 
    5400    1983.4938   -106.21301    1.7947069    -104.4183     26281.96    4.3085152    4.3085152    4.3085152     26281.96   -7830.3742   -4818.8171    91495.071   -5078.5786    24180.459    5835.0951    79.980272 
    5500    2291.4305   -106.49252    2.0733345   -104.41919   -20011.711    4.2933805    4.2933805    4.2933805   -20011.711   -59793.545    5119.6729    -5361.261    4549.8224   -26609.205   -7934.6087    79.140379 
    5600    1446.6345    -105.7533    1.3089453   -104.44436    23948.904    4.2827469    4.2827469    4.2827469    23948.904   -13830.947   -2456.1704     88133.83    790.98308   -42522.613   -31074.271    78.553804 
    5700    2901.6088   -107.07052    2.6254366   -104.44509   -15388.842    4.3023947    4.3023947    4.3023947   -15388.842   -58107.261    37551.347   -25610.612    10427.868    26673.725    19999.233    79.639906 
    5800    1250.1556   -105.55531    1.1311671   -104.42414   -8586.3906    4.3156012    4.3156012    4.3156012   -8586.3906   -64555.763    12129.048    26667.544   -231.18575   -32150.145    958.90248    80.375543 
    5900     2345.699   -106.51426    2.1224378   -104.39182    11122.474    4.3052929    4.3052929    4.3052929    11122.474   -6226.9461   -2631.1968    42225.565   -8245.3861   -3259.9923   -28350.851    79.800961 
    6000    2075.2166   -106.28433    1.8776996   -104.40663   -4014.0832    4.3048146    4.3048146    4.3048146   -4014.0832   -13732.864   -21346.666    23037.281    23204.912   -11380.271    41708.855    79.774366 
    6100    1553.6819   -105.83216     1.405804   -104.42635   -41162.331    4.3241789    4.3241789    4.3241789   -41162.331   -94332.782    30846.078   -60000.288    909.59893   -37130.041   -285.26333    80.855761 
    6200    2630.6879   -106.75048    2.3803017   -104.37018    12309.349    4.3117859    4.3117859    4.3117859    12309.349   -31987.402   -17600.475    86515.925     65.67869    297.40305     385.5895    80.162558 
    6300    1173.3658   -105.44839     1.061686    -104.3867    9549.7722    4.3029349    4.3029349    4.3029349    9549.7722   -188.15603    13773.122     15064.35    16555.534    -37945.87   -4714.7584    79.669912 
    6400    2682.9693    -106.8059     2.427607    -104.3783   -22289.419    4.3102739    4.3102739    4.3102739   -22289.419   -25506.325   -42193.159    831.22607   -7868.7617    43202.341   -4114.4174    80.078259 
    6500    1334.5319   -105.60588    1.2075125   -104.39836    32558.416    4.3017598    4.3017598    4.3017598    32558.416    37944.319   -16594.438    76325.367    26927.387   -40433.702    36706.006    79.604657 
    6600    2326.6204   -106.53866     2.105175   -104.43348    30001.263    4.3128578    4.3128578    4.3128578    30001.263    49133.435    5235.7687    35634.585   -19333.893   -36413.285   -15338.255    80.222357 
    6700    2072.5404   -106.28582    1.8752781   -104.41054   -16297.637    4.3374539    4.3374539    4.3374539   -16297.637   -771.61549    1226.4748   -49347.771   -20056.794    9456.8431    14746.731    81.602716 
    6800    1576.1054   -105.79928    1.4260932   -104.37318   -19309.746    4.3215813    4.3215813    4.3215813   -19309.746    24693.976   -8203.1317   -74420.081   -476.87659   -36621.908    9246.5895    80.710135 
    6900    2230.0663    -106.3789    2.0178109   -104.36109    20397.429    4.3103511    4.3103511    4.3103511    20397.429   -12647.268   -48698.271    122537.83    8765.2807   -12089.064   -15051.722    80.082561 
    7000    1790.7958    -106.0265    1.6203496   -104.40615   -19355.376    4.3092122    4.3092122    4.3092122   -19355.376   -30303.095   -7180.5855   -20582.449    10178.143   -25479.794    32095.548    80.019095 
    7100    2295.4423   -106.48463    2.0769644   -104.40766    29413.737    4.3060177    4.3060177    4.3060177    29413.737   -9455.6703    66102.251    31594.629   -11699.385   -42226.858    431.85245    79.841268 
    7200     1491.906   -105.78991    1.3499079      -104.44   -11245.637     4.340095     4.340095     4.340095   -11245.637    55828.412    -6829.168   -82736.155    20156.852    418.85489      32703.6    81.751875 
    7300    1160.2621   -105.44252    1.0498295   -104.39269   -34323.796    4.3391944    4.3391944    4.3391944   -34323.796   -46553.373    38190.644   -94608.659    9976.1188   -45927.285    33170.091    81.700991 
    7400    3121.8087    -107.1366    2.8246781   -104.31193    4619.4984    4.3008255    4.3008255    4.3008255    4619.4984   -6905.6867    11532.462    9231.7193    -33492.64    14097.557   -7912.5267    79.552797 
    7500    1692.5145   -105.87951    1.5314227   -104.34809    3722.2375    4.2969085    4.2969085    4.2969085    3722.2375    7763.4476    65347.903   -61944.638    4738.1977   -30995.019    18489.424     79.33564 
    7600    1723.6477   -105.95852    1.5595927   -104.39892    -4960.838    4.3169537    4.3169537    4.3169537    -4960.838    10025.836    27327.075   -52235.424    9809.6062    2475.6921   -29558.309    80.451134 
    7700      1929.59   -106.13306    1.7459336   -104.38713    16774.334    4.3324485    4.3324485    4.3324485    16774.334    80242.633   -13159.757   -16759.875    16247.782    15045.356    21046.264    81.320536 
    7800    1916.4476   -106.10894     1.734042    -104.3749   -16622.577    4.3341297    4.3341297    4.3341297   -16622.577     -14487.3    7379.0984    -42759.53    2890.4656   -47466.469    6973.5841    81.415239 
    7900     1639.144   -105.85469     1.483132   -104.37156   -3532.7744    4.3213536    4.3213536    4.3213536   -3532.7744     9641.224     63239.87   -83479.417    7299.6222    38007.882    -12760.49    80.697374 
    8000     2619.972   -106.73432    2.3706058   -104.36371   -17115.171     4.303468     4.303468     4.303468   -17115.171    9704.4192   -8280.2611    -52769.67     22187.71   -11011.644    10914.076    79.699524 
    8100    1969.5702   -106.17886    1.7821085   -104.39675   -12509.443    4.3076315    4.3076315    4.3076315   -12509.443    19752.965     6783.731   -64065.024   -15809.719   -21564.989   -14415.343    79.931071 
    8200    2265.9585   -106.45485    2.0502869   -104.40457   -26184.023    4.3275806    4.3275806    4.3275806   -26184.023    24329.102   -25988.958   -76892.213    9141.1864    43660.263    13255.476    81.046729 
    8300    2645.6924   -106.79035    2.3938781   -104.39647   -52219.134    4.3294902    4.3294902    4.3294902   -52219.134   -25072.112   -29484.944   -102100.35    14385.949   -58443.189   -2593.0992    81.154066 
    8400     2186.487   -106.38951    1.9783794   -104.41113   -10512.902    4.3035518    4.3035518    4.3035518   -10512.902    29683.955   -19133.912    -42088.75    -907.9685    51581.629   -18430.501    79.704181 
    8500    2581.4078   -106.76035     2.335712   -104.42464    41173.476    4.2873959    4.2873959    4.2873959    41173.476     72565.01   -13233.798    64189.217    9772.4775   -8114.4534    1280.9715      78.8099 
    8600    1679.9622   -105.97752    1.5200651   -104.45745    -15519.75    4.3060685    4.3060685    4.3060685    -15519.75   -12707.698    21763.338   -55614.889    18885.457    1099.5187   -13393.781    79.844096 
    8700    1589.0804   -105.86003    1.4378333    -104.4222    -17735.27    4.3103174    4.3103174    4.3103174    -17735.27    -4861.984    44115.784    -92459.61   -17785.036    59902.112    5288.0598     80.08068 
    8800    2558.5794   -106.70584    2.3150564   -104.39078    3665.8946    4.3032793    4.3032793    4.3032793    3665.8946     81985.85    -8775.714   -62212.452   -3720.1452   -23879.913    16543.583    79.689042 
    8900    1474.6405   -105.74971    1.3342858   -104.41542   -8115.1731    4.3128793    4.3128793    4.3128793   -8115.1731   -8711.6335    60540.413   -76174.299    7876.0533    58148.308    2662.3846    80.223557 
    9000    2056.8749   -106.26689    1.8611036   -104.40579    3407.3117    4.3197772    4.3197772    4.3197772    3407.3117    89100.859   -51521.003   -27357.921    -43525.02   -7878.6165    17280.848    80.609096 
    9100    2284.3923   -106.47354    2.0669662   -104.40658    5176.5078    4.3111017    4.3111017    4.3111017    5176.5078    86514.793   -29105.383   -41879.887   -11206.363    23093.363   -810.15445    80.124401 
    9200    1727.9737   -105.99654    1.5635069   -104.43304   -18238.153    4.3080682    4.3080682    4.3080682   -18238.153   -14987.279   -5429.6341   -34297.547    16844.513    295.96541   -812.67365    79.955383 
    9300    2002.9977   -106.23183    1.8123544   -104.41948    17947.077    4.3047735    4.3047735    4.3047735    17947.077    61403.633    3249.5829   -10811.985    33920.146   -51287.011    2819.3163     79.77208 
    9400    1705.7788   -105.96281    1.5434245   -104.41939   -7861.5319    4.2969331    4.2969331    4.2969331   -7861.5319   -31112.503    44763.583   -37235.676    8726.7423    72043.088   -1017.8951    79.336999 
    9500    1832.3919   -106.08244    1.6579867   -104.42445    844.11638    4.3083802    4.3083802    4.3083802    844.11638    5756.5876    29563.408   -32787.647    5027.2415   -33047.296    9397.8922    79.972756 
    9600    2127.7136   -106.32066       1.9252   -104.39546   -27896.092    4.3243441    4.3243441    4.3243441   -27896.092   -6809.8909   -29170.834    -47707.55    13086.738    15834.226   -8035.5243    80.865025 
    9700    2464.4909   -106.58861    2.2299231   -104.35869   -38079.743    4.3285757    4.3285757    4.3285757   -38079.743   -51510.824    -5895.559   -56832.845    6951.2266    4308.4344   -2032.6957    81.102649 
    9800    2124.8777   -106.27542     1.922634   -104.35279   -40974.908    4.3174819    4.3174819    4.3174819   -40974.908   -23182.185   -25159.168   -74583.371    10209.412   -33542.953   -25131.381    80.480668 
    9900    2111.7294   -106.27708    1.9107371   -104.36634    19102.656    4.3116147    4.3116147    4.3116147    19102.656    54718.789    63046.127   -60456.948    19763.468    20121.092    2782.4544    80.153007 
   10000    2526.1976   -106.67531    2.2857567   -104.38955   -24480.137    4.3291344    4.3291344    4.3291344   -24480.137   -67371.087    38969.762   -45039.086    17279.438   -16978.613   -898.77889    81.134062 
   10100    2267.8226   -106.42919    2.0519735   -104.37721   -25044.809    4.3385661    4.3385661    4.3385661   -25044.809   -39431.431    22266.033   -57969.029    12175.464    31159.703   -20880.197    81.665506 
   10200    2247.3117   -106.37823    2.0334148   -104.34482    19105.747    4.3225501    4.3225501    4.3225501    19105.747    43428.303   -6915.8986    20804.837    12732.714   -36595.241    -540.9298    80.764425 
   10300    1646.5766   -105.87716    1.4898571    -104.3873    15708.722    4.3187241    4.3187241    4.3187241    15708.722   -36539.572    130903.34     -47237.6    26394.959    23655.349   -37153.102    80.550157 
   10400    2192.5169   -106.39006    1.9838353   -104.40623   -23445.786    4.3290251    4.3290251    4.3290251   -23445.786     5505.034   -39391.842   -36450.551    7739.5623    27343.567   -29211.451    81.127916 
   10500    1963.1965   -106.16811    1.7763415   -104.39176    40339.283    4.3210479    4.3210479    4.3210479    40339.283    16733.569   -13822.132    118106.41    1676.3814    8475.0538    12351.272    80.680249 
   10600     1809.225   -106.04995    1.6370248   -104.41292   -7457.7302    4.3323076    4.3323076    4.3323076   -7457.7302   -26928.805    48013.801   -43458.186   -24081.454    34941.941   -31954.761    81.312601 
   10700    2361.1635   -106.50791    2.1364304   -104.37148   -26382.837    4.3513929    4.3513929    4.3513929   -26382.837     -35463.3   -27830.122   -15855.089    7468.2677    11912.973    17900.473    82.391972 
   10800    1737.6089   -105.91109     1.572225   -104.33887   -14882.177    4.3234962    4.3234962    4.3234962   -14882.177    35088.374   -73706.855   -6028.0507    2760.4227    12223.075   -31495.148    80.817466 
   10900    1815.9377   -105.93103    1.6430986   -104.28793    79859.791    4.2818361    4.2818361    4.2818361    79859.791    169975.15    11729.517    57874.703   -4602.8762    7441.0833   -4444.0066    78.503699 
   11000    2357.9229   -106.52258    2.1334982   -104.38908   -24680.195    4.3114636    4.3114636    4.3114636   -24680.195   -20592.838    5008.8009   -58456.549    22102.446   -1908.2624    391.28038    80.144584 
   11100    1348.6333   -105.61839    1.2202717   -104.39812   -60699.863    4.3407521    4.3407521    4.3407521   -60699.863   -4432.4243   -72294.294   -105372.87   -6412.1192    12666.234   -56457.005    81.789007 
   11200    2673.4607   -106.77572    2.4190034   -104.35672    13473.108    4.3194432    4.3194432    4.3194432    13473.108   -34853.369   -13658.556    88931.249   -5434.8205   -25891.254    18258.649    80.590399 
   11300    2032.6844   -106.22362    1.8392156   -104.38441   -4289.0465    4.3041994    4.3041994    4.3041994   -4289.0465    4758.4457   -6600.8803   -11024.705   -14154.188    36081.383   -28413.014    79.740166 
   11400    1937.9968   -106.15439    1.7535402   -104.40085     19178.77    4.3024073    4.3024073    4.3024073     19178.77     38760.99    37294.411   -18519.092   -3693.1755    36621.454   -8434.8169     79.64061 
   11500     2095.778   -106.31727     1.896304   -104.42097    8046.3777    4.3198917    4.3198917    4.3198917    8046.3777    46655.125    -28216.97     5700.978   -1284.7683   -42332.135   -42366.759    80.615502 
   11600    2316.7009    -106.4933    2.0961996    -104.3971   -73876.316    4.3470287    4.3470287    4.3470287   -73876.316   -61457.651    -99444.04   -60727.257     17224.22    35865.881   -20839.548    82.144319 
   11700    1538.8296    -105.7295    1.3923653   -104.33714   -26617.527    4.3541601    4.3541601    4.3541601   -26617.527   -103209.19    -37841.32    61197.932   -5930.6887    2795.5248    14987.077    82.549259 
   11800    2164.2189   -106.27451    1.9582307   -104.31628   -23053.163    4.3255958    4.3255958    4.3255958   -23053.163    416.98742   -64525.297   -5051.1779    7496.9295      15505.7   -22594.198    80.935268 
   11900    2491.3807   -106.60352    2.2542536   -104.34926   -27893.747     4.299964     4.299964     4.299964   -27893.747   -68097.305    9792.6171   -25376.554    -12821.06    30545.909    15361.377    79.505002 
   12000    2100.3836   -106.31578    1.9004712    -104.4153    17912.312    4.2934455    4.2934455    4.2934455    17912.312   -35299.501    28244.829    60791.609   -1626.1535   -33903.208   -26420.949    79.143977 
   12100    1728.1997   -106.04855    1.5637114   -104.48484    23160.481    4.3053168    4.3053168    4.3053168    23160.481   -15055.206   -20402.186    104938.84    2162.4474    23317.234   -814.50819     79.80229 
   12200    1946.0021    -106.2542    1.7607836   -104.49342   -20190.971    4.3393311    4.3393311    4.3393311   -20190.971   -24891.142   -35809.207    127.43513   -10679.112   -5401.1715   -3578.5412    81.708711 
   12300    2028.8234   -106.26234    1.8357221   -104.42662   -16405.771     4.341692     4.341692     4.341692   -16405.771   -38931.538    40341.603   -50627.379    -169.9088   -2767.2888   -10340.184    81.842149 
   12400    1668.2514   -105.89154     1.509469   -104.38208    38554.614    4.3103673    4.3103673    4.3103673    38554.614    20046.474    45820.478     49796.89   -30106.913    30285.438    5113.0275    80.083462 
   12500     2114.042   -106.29486    1.9128297   -104.38203    32579.884    4.2906756    4.2906756    4.2906756    32579.884    64065.585    17822.492    15851.573   -17409.281   -42028.882    12745.387    78.990899 
   12600    1769.4389   -106.02434    1.6010255   -104.42331    42319.277      4.30944      4.30944      4.30944    42319.277    10627.841    52754.894    63575.097     17044.63    6655.0504   -14132.293    80.031788 
   12700    2057.3142   -106.27686    1.8615012   -104.41535   -14804.782    4.3324668    4.3324668    4.3324668   -14804.782   -78375.203    41563.649   -7602.7934   -11183.372   -16821.567    1578.3756    81.321563 
   12800    2352.9124   -106.51075    2.1289646   -104.38178   -24192.927    4.3401721    4.3401721    4.3401721   -24192.927   -12671.356   -31973.549   -27933.876    4270.7011    852.74337   -22855.597     81.75623 
   12900    2012.9732   -106.18385    1.8213804   -104.36247   -13517.838    4.3330213    4.3330213    4.3330213   -13517.838   -42368.075   -67565.232    69379.794   -20717.512    14330.401   -1705.2416    81.352795 
   13000     2056.736   -106.21517     1.860978   -104.35419   -30721.964    4.3200177    4.3200177    4.3200177   -30721.964   -28036.747   -19225.816    -44903.33   -1585.0143   -44503.966   -6126.8373    80.622558 
   13100    2375.0615    -106.5165    2.1490055   -104.36749    -3991.956    4.3116065    4.3116065    4.3116065    -3991.956    32880.188   -26048.588   -18807.468    7987.5908     18886.14    -15087.98     80.15255 
   13200    1880.1399   -106.08231    1.7011901   -104.38112    10253.199    4.3075913    4.3075913    4.3075913    10253.199   -30316.946    63258.276   -2181.7339    -13239.39   -38512.168   -20634.956    79.928836 
   13300    1762.1159   -106.00865    1.5943995   -104.41425   -1253.5206    4.3090163    4.3090163    4.3090163   -1253.5206   -5319.5928   -25090.622    26649.652    16053.116   -23265.336     19533.19    80.008186 
   13400    2640.1637   -106.78819    2.3888756   -104.39931   -36309.106    4.3201844    4.3201844    4.3201844   -36309.106   -57916.009   -54544.415    3533.1072   -17409.563    21020.534    29709.539     80.63189 
   13500    1854.7224   -106.06825    1.6781918   -104.39006    -4936.511    4.3233199    4.3233199    4.3233199    -4936.511   -47328.708   -23330.576    55849.751   -9070.7191   -13187.667    -26915.11    80.807584 
   13600    2238.1802   -106.41278    2.0251525   -104.38762    4734.1317    4.3311628    4.3311628    4.3311628    4734.1317    25447.937   -27296.038    16050.497     18825.51    16403.684     19474.33    81.248157 
   13700    1701.2016    -105.9251     1.539283   -104.38582   -44892.718    4.3431588    4.3431588    4.3431588   -44892.718    4511.8057   -109892.64    -29297.32   -22403.517    8137.9314   -46378.421     81.92513 
   13800    2147.5747    -106.3027    1.9431708   -104.35953   -19079.947    4.3302559    4.3302559    4.3302559   -19079.947   -39603.365   -17437.429   -199.04856    11313.682   -4209.1505   -9626.0913     81.19713 
   13900    2001.5344   -106.18845    1.8110304   -104.37742    12363.713    4.3155197    4.3155197    4.3155197    12363.713    10238.418    13666.184    13186.535    6630.2479    16332.042   -5832.8363    80.370988 
   14000    1710.1969   -105.96197    1.5474221   -104.41455    10236.461    4.3141472    4.3141472    4.3141472    10236.461    50571.343    8489.3217   -28351.282   -23047.649   -1622.6371   -34797.406    80.294331 
   14100    2383.9704   -106.58681    2.1570666   -104.42974   -13592.703    4.3174127    4.3174127    4.3174127   -13592.703    4603.7057   -6681.6789   -38700.135    21375.183    6757.0669   -534.85084    80.476797 
   14200    1828.7403   -106.10356    1.6546827   -104.44887   -21996.882    4.3164079    4.3164079    4.3164079   -21996.882   -19844.023   -5908.4621   -40238.161    39804.657    5469.9708   -22076.978    80.420623 
   14300    1971.2909   -106.21943    1.7836654   -104.43576    10204.733    4.3051253    4.3051253    4.3051253    10204.733    47831.999    10550.709   -27768.509    -41648.08   -11209.652   -15359.884    79.791638 
   14400    1963.2904   -106.22109    1.7764264   -104.44467   -10385.513     4.312047     4.312047     4.312047   -10385.513   -17578.784    16537.067   -30114.821    41060.865    34284.259    11061.723    80.177124 
   14500    1617.9353   -105.89441    1.4639418   -104.43047   -25336.619    4.3250794    4.3250794    4.3250794   -25336.619    5992.5018    -53697.12   -28305.239     2066.437   -17850.553    -17321.77    80.906283 
   14600    2547.6788   -106.70644    2.3051933   -104.40125   -2543.0096    4.3160251    4.3160251    4.3160251   -2543.0096   -14909.979    24205.082   -16924.132   -23833.854    13582.518    17303.111    80.399231 
   14700    1094.4583   -105.42361   0.99028887   -104.43332    31464.514    4.3272363    4.3272363    4.3272363    31464.514    51985.709    70365.063   -27957.231     33228.54    21774.098     597.3172    81.027385 
   14800    2097.4098   -106.31719    1.8977805   -104.41941   -34726.353    4.3379568    4.3379568    4.3379568   -34726.353    -13914.68   -29761.446   -60502.933    10922.161    11634.728   -26955.941    81.631102 
   14900    2440.1738    -106.6078    2.2079205   -104.39988    21878.112    4.3126394    4.3126394    4.3126394    21878.112   -15010.303    57424.937    23219.703   -7597.9404    13456.109    14182.773    80.210172 
   15000     1371.392   -105.66023    1.2408643   -104.41937   -13186.545    4.3003238    4.3003238    4.3003238   -13186.545    -36853.84    -46949.13    44243.336    47899.349   -1234.9892   -3110.3765    79.524965 
   15100    2223.2713   -106.45871    2.0116626   -104.44705    17378.899    4.3152321    4.3152321    4.3152321    17378.899   -1416.5772    18774.193     34779.08   -16221.651    4445.9373   -7302.7003    80.354919 
   15200    1784.0963    -106.0705    1.6142878   -104.45621    12441.964       4.3389       4.3389       4.3389    12441.964   -5163.2283    53808.117   -11318.997   -26423.449   -10495.699    17509.706    81.684363 
   15300    1899.3115   -106.12973    1.7185369   -104.41119   -24447.275    4.3474211    4.3474211    4.3474211   -24447.275   -14285.231   -39260.617   -19795.976    36533.115    8584.5372    -8171.665    82.166563 
   15400     1921.302    -106.1186    1.7384345   -104.38016   -778.35012     4.360739     4.360739     4.360739   -778.35012   -54695.009    50821.605    1538.3533   -19974.436    3330.6484    21768.916     82.92401 
   15500    2173.4709   -106.29963    1.9666021   -104.33303   -31868.777    4.3520285    4.3520285    4.3520285   -31868.777   -26127.901   -13356.338   -56122.092    29473.092    12126.865    8440.8133    82.428083 
   15600    2581.5058   -106.63546    2.3358007   -104.29966    1747.5545    4.3077469    4.3077469    4.3077469    1747.5545    96844.027   -68439.557   -23161.806     33768.12    -14121.46    9909.0942    79.937495 
   15700    1692.1613   -105.90637    1.5311031   -104.37527     27940.53    4.2943614    4.2943614    4.2943614     27940.53    65670.795     20146.75   -1995.9558   -17478.146    18200.267    -7570.927    79.194637 
   15800    2520.1859   -106.74461    2.2803172   -104.46429   -16968.427    4.3367788    4.3367788    4.3367788   -16968.427   -35390.138    19509.637    -35024.78    23788.216    22619.563     3592.377    81.564618 
   15900    1753.2571   -105.98572    1.5863839   -104.39933   -72173.989    4.3796072    4.3796072    4.3796072   -72173.989   -72830.835   -44856.113    -98835.02   -22012.221   -14145.099    -13949.67    84.005069 
   16000    1019.2771   -105.29781   0.92226334   -104.37555     -31467.1    4.3355545    4.3355545    4.3355545     -31467.1   -79926.769    89154.543   -103629.07   -23356.244    43956.017    11436.142    81.495562 
   16100    2622.3472   -106.65446    2.3727549    -104.2817     68830.26    4.2620123    4.2620123    4.2620123     68830.26     51420.17    106942.89    48127.722    19591.889   -22116.825    18044.934    77.418381 
   16200    1392.1974   -105.66447    1.2596895   -104.40478    34038.726    4.2728188    4.2728188    4.2728188    34038.726   -35835.368    69587.371    68364.173   -36985.412    43839.218    -11616.46    78.008772 
   16300    1786.3523   -106.08655    1.6163291   -104.47022   -12979.764     4.342484     4.342484     4.342484   -12979.764   -75110.252    26028.617    10142.342    1101.3102    6714.9771    4626.5283    81.886945 
   16400     1930.482   -106.10514    1.7467407    -104.3584   -41029.117    4.3824356    4.3824356    4.3824356   -41029.117   -64858.427   -55402.525      -2826.4     5786.906    15289.493   -7736.3212    84.167926 
   16500     1961.147   -106.04991    1.7744871   -104.27543   -50874.934    4.3675502    4.3675502    4.3675502   -50874.934   -91642.223   -20878.083   -40104.496   -33743.137    -7581.141   -21854.345    83.313179 
   16600    2127.2304   -106.21592    1.9247628   -104.29116    29410.875    4.3140546    4.3140546    4.3140546    29410.875   -36663.003    87899.772    36995.858    19238.054   -23380.772    986.03235    80.289157 
   16700    1589.3901    -105.7565    1.4381135   -104.31839     68273.09    4.2695771    4.2695771    4.2695771     68273.09     2265.551     147057.4    55496.323   -34318.276     44627.91   -19265.878    77.831351 
   16800    1739.2189   -106.02472    1.5736819   -104.45104    35966.481    4.2915583    4.2915583    4.2915583    35966.481    5575.0535    77079.644    25244.747   -51924.909   -31217.775    -8992.511    79.039659 
   16900    2188.1722   -106.43058    1.9799041   -104.45068   -32046.146    4.3468271    4.3468271    4.3468271   -32046.146   -91720.413    6680.5809   -11098.606    26640.659   -8442.2179   -13355.289    82.132886 
   17000    1748.7553   -105.94354    1.5823105   -104.36123   -43753.148    4.3604322    4.3604322    4.3604322   -43753.148   -111877.61   -31930.104    12548.273   -52589.585   -4982.1095   -4039.3646    82.906507 
   17100    2669.7139   -106.70946    2.4156132   -104.29384   -15007.397    4.3392317    4.3392317    4.3392317   -15007.397    -55968.93    20632.381   -9685.6435    16523.521    5764.2284   -813.31986    81.703098 
   17200    1107.5174   -105.33685    1.0021051   -104.33475   -67184.021    4.3166532    4.3166532    4.3166532   -67184.021   -138069.98    -108504.4    45022.316   -85326.734    3578.1928   -14661.286    80.434338 
   17300    2617.3437   -106.69334    2.3682276   -104.32511    63303.285    4.2810621    4.2810621    4.2810621    63303.285    35662.437    87187.918    67059.499   -6926.3958   -3749.5264    8279.6146    78.461133 
   17400    1617.6561   -105.90146    1.4636892   -104.43778   -19599.412     4.294137     4.294137     4.294137   -19599.412   -65038.015    3352.9455    2886.8342   -57134.599    26740.204   -5926.5346    79.182224 
   17500    1735.8056   -105.99625    1.5705934   -104.42565   -16750.535    4.3232803    4.3232803    4.3232803   -16750.535   -78805.009   -41698.682    70252.085    9002.7467   -4157.0869    -5601.089    80.805361 
   17600     2250.882     -106.413    2.0366454   -104.37635    32888.745    4.3112606    4.3112606    4.3112606    32888.745    61636.667    26186.908    10842.659    -37664.64   -14301.465   -28238.604    80.133262 
   17700    1943.4262   -106.13663    1.7584529   -104.37818    25393.208    4.3146821    4.3146821    4.3146821    25393.208   -29067.113    21819.636    83427.102   -10864.473    15445.996   -9621.3607    80.324202 
   17800    2613.3618   -106.70696    2.3646247   -104.34234   -45730.404    4.3355635    4.3355635    4.3355635   -45730.404    -68887.14   -57189.525   -11114.548   -26851.821    11347.951    5858.7165    81.496068 
   17900    1549.6249   -105.74014    1.4021332     -104.338   -33624.646    4.3173654    4.3173654    4.3173654   -33624.646   -71679.839   -48716.117    19522.019   -52277.155     28466.92     13527.84    80.474152 
   18000    2251.0151   -106.37135    2.0367657   -104.33459    33906.286    4.3047235    4.3047235    4.3047235    33906.286    55616.828    50913.851   -4811.8205    24201.606   -14214.658   -6967.0863    79.769299 
   18100    1312.1665   -105.56572    1.1872758   -104.37844   -2751.4854    4.3050854    4.3050854    4.3050854   -2751.4854   -58139.015    21712.582    28171.977   -49443.477   -63276.048    12093.594    79.789418 
   18200    2216.3745   -106.39868    2.0054223   -104.39326    30006.724    4.3049387    4.3049387    4.3049387    30006.724   -900.92994    38299.417    52621.684    2968.4419    8124.6263    -3178.721    79.781266 
   18300     2034.973   -106.24816    1.8412863   -104.40687   -6729.1335    4.3279402    4.3279402    4.3279402   -6729.1335   -8931.7522    -47546.04    36290.392   -13778.523   -20.948278     25819.81    81.066936 
   18400    1669.5396   -105.89233    1.5106345   -104.38169   -40326.122    4.3379096    4.3379096    4.3379096   -40326.122    -71198.47    -49147.89   -632.00558   -23252.961   -18301.389   -14216.148    81.628436 
   18500     2797.909   -106.85946    2.5316069   -104.32785     5437.736    4.3295534    4.3295534    4.3295534     5437.736   -40423.704    15250.092     41486.82   -2220.5671    3270.3874    5730.3745    81.157618 
   18600    1487.7324    -105.6956    1.3461315   -104.34947   -46851.344    4.3280134    4.3280134    4.3280134   -46851.344   -114049.49   -30112.504    3607.9594   -35670.239   -34610.376    9359.7809    81.071051 
   18700    2655.4508   -106.74034    2.4027077   -104.33763    4029.2348    4.3212619    4.3212619    4.3212619    4029.2348    -17630.11    70230.905   -40513.091    16185.907   -7567.7111   -19980.605    80.692237 
   18800    1715.2504   -105.93355    1.5519946   -104.38156   -25368.805    4.3235322    4.3235322    4.3235322   -25368.805   -70176.867    -16831.28    10901.733   -26222.123    14311.372    9835.3129     80.81949 
   18900    2293.3808    -106.4322    2.0750992    -104.3571   -19597.545    4.3274011    4.3274011    4.3274011   -19597.545   -43071.998   -50426.893    34706.256    37806.909   -20809.968    8598.8713    81.036643 
   19000     1536.615   -105.74248    1.3903615   -104.35211    40231.943    4.3188435    4.3188435    4.3188435    40231.943   -9781.8512    91000.755    39476.926   -23589.543    29823.262    -1545.217    80.556835 
   19100     1992.091   -106.15044    1.8024858   -104.34795    26992.277    4.3261018    4.3261018    4.3261018    26992.277   -16485.905    11127.045    86335.692     2213.856    -287.2934    14423.883    80.963672 
   19200    1770.6417   -105.95171    1.6021139   -104.34959   -12178.303    4.3307662    4.3307662    4.3307662   -12178.303   -97538.071    3231.2277    57771.936   -14995.871    47076.865    9972.0722     81.22584 
   19300    2015.0638   -106.15244    1.8232721   -104.32917   -7752.5536     4.309591     4.309591     4.309591   -7752.5536   -67309.376    9841.8757     34209.84   -8229.9597    2868.1315    19242.974    80.040199 
   19400    2203.1401   -106.33388    1.9934474   -104.34043    36152.399    4.2802182    4.2802182    4.2802182    36152.399   -13623.293    97259.651     24820.84    31353.186    25442.525    -3984.103    78.414742 
   19500    1345.6215   -105.61281    1.2175466   -104.39526    28557.014    4.2814706    4.2814706    4.2814706    28557.014   -68767.905    136692.66    17746.286   -26486.003    41834.034    24658.245    78.483598 
   19600    1951.6266   -106.18577    1.7658727   -104.41989    12185.419    4.2969086    4.2969086    4.2969086    12185.419   -29488.062    39951.415    26092.905   -12264.257   -9684.6168   -11186.061    79.335642 
   19700    2054.5906   -106.26794    1.8590367   -104.40891    13448.323    4.3110612    4.3110612    4.3110612    13448.323    709.84208    90105.438    -50470.31      16085.3    30396.601    11933.333    80.122144 
   19800    1977.3685   -106.17711    1.7891646   -104.38794    5061.2436    4.3212412    4.3212412    4.3212412    5061.2436   -35320.424    16447.497    34056.658   -61219.937   -21260.167   -4918.4864    80.691077 
   19900    1908.4956   -106.10826     1.726847   -104.38142   -32511.268    4.3106775    4.3106775    4.3106775   -32511.268   -98294.603   -8552.0997    9312.8991    58315.067    47368.851   -5114.3672    80.100755 
   20000    2218.6757   -106.37773    2.0075044   -104.37023     25935.43    4.2723502    4.2723502    4.2723502     25935.43   -21308.129    54366.753    44747.665   -11660.507    9123.6427     17987.09    77.983107 
   20100    2286.7012   -106.47364    2.0690553   -104.40459    10412.883    4.2687123    4.2687123    4.2687123    10412.883    -21375.29     46946.76     5667.179    -20577.54    19210.414    740.59767    77.784067 
   20200    1269.5436   -105.61628    1.1487097   -104.46757   -27741.528    4.2936749    4.2936749    4.2936749   -27741.528   -119545.79    29959.389    6361.8176    61019.834     26931.52   -3160.2345    79.156662 
   20300    2321.1009   -106.55412    2.1001809   -104.45394    20126.761    4.3216045    4.3216045    4.3216045    20126.761   -57180.301     125143.1   -7582.5139   -8079.4686    -10150.18    8525.6334    80.711434 
   20400    1455.2524   -105.73228    1.3167429   -104.41553   -11182.697     4.333472     4.333472     4.333472   -11182.697   -70264.919    96084.249   -59367.422    9393.7937    28156.818   -9329.5576    81.378183 
   20500    1582.3402   -105.79645    1.4317346   -104.36471    41378.338     4.298337     4.298337     4.298337    41378.338   -6936.4028    106887.92    24183.493    34166.549   -25990.889   -16594.674    79.414789 
   20600     1778.483   -105.96772    1.6092088   -104.35851    24629.732    4.2683288    4.2683288    4.2683288    24629.732   -18524.065    43021.008    49392.253   -51888.674    27440.936   -7520.8201    77.763105 
   20700    2527.4656   -106.68329     2.286904   -104.39639    15722.355    4.2717303    4.2717303    4.2717303    15722.355    21839.174     45787.62    -20459.73    23612.766   -15423.828    8384.5745    77.949164 
   20800    2042.2473   -106.29764    1.8478682   -104.44977   -28140.667    4.2991817    4.2991817    4.2991817   -28140.667   -59548.382   -62019.232    37145.612   -33756.906    25971.676    6099.0891    79.461619 
   20900    1653.4732   -105.90161    1.4960973   -104.40551   -12360.427    4.3241589    4.3241589    4.3241589   -12360.427   -5675.1281   -7779.0773   -23627.076   -28490.197    9680.2692   -6741.7553    80.854639 
   21000    2213.8526   -106.35778    2.0031404   -104.35464    7338.1928    4.3139623    4.3139623    4.3139623    7338.1928    49151.344    12119.592   -39256.357    -2246.645    -17297.48   -11792.511    80.284006 
   21100    1456.7349   -105.68112    1.3180844   -104.36303    4426.1649    4.3018965    4.3018965    4.3018965    4426.1649    15157.009    38419.991   -40298.505   -59605.574    12937.088    10559.488    79.612245 
   21200    1890.8129   -106.10962    1.7108472   -104.39877   -12453.981    4.3040575    4.3040575    4.3040575   -12453.981   -33868.324    64785.551    -68279.17    5989.2227   -280.72995    15636.394    79.732284 
   21300    2061.0652   -106.26253    1.8648951   -104.39763     47904.36    4.2867827    4.2867827    4.2867827     47904.36    15443.801    47632.272    80637.005    19381.904    21481.501    15802.529    78.776088 
   21400    1752.9112   -106.01052    1.5860709   -104.42445     34395.61    4.2925257    4.2925257    4.2925257     34395.61    48496.452    24315.324    30375.055   -26215.305    28790.833    1580.6611    79.093121 
   21500    1379.7822   -105.67347    1.2484559   -104.42502   -14186.897    4.3242759    4.3242759    4.3242759   -14186.897   -80772.917    -30679.55    68891.777      74995.7   -4951.0973    7270.3228    80.861198 
   21600    2830.0559   -106.92488     2.560694   -104.36418   -17177.869    4.3144269    4.3144269    4.3144269   -17177.869   -39255.962    27993.589   -40271.233    676.42307   -511.32329     -17119.5     80.30995 
   21700    1588.6624    -105.7924    1.4374552   -104.35495    11771.379     4.289784     4.289784     4.289784    11771.379   -18989.135   -2141.8189    56445.092    51871.755   -6072.7609   -12996.452    78.941662 
   21800     2188.295   -106.36344    1.9800153   -104.38342    3080.7561    4.3008041    4.3008041    4.3008041    3080.7561   -48730.716   -22714.615    80687.599   -19845.715    -13802.46   -17664.069    79.551613 
   21900    2072.6785   -106.26182    1.8754031   -104.38642    2656.3822    4.3089053    4.3089053    4.3089053    2656.3822   -91600.986    33147.901    66422.232    16320.881   -4203.0897    9327.7318    80.002002 
   22000    1921.0777   -106.12941    1.7382315   -104.39117   -3757.6779    4.2999404    4.2999404    4.2999404   -3757.6779   -42826.193   -11259.373    42812.533    55179.171    19417.375   -8945.3784    79.503692 
   22100    1569.3365    -105.8174    1.4199687   -104.39743   -9830.8132    4.2986348    4.2986348    4.2986348   -9830.8132   -53186.535    9502.0204    14192.076   -41565.086   -24325.362    -6054.449    79.431297 
   22200    2800.5859   -106.92362    2.5340289   -104.38959    1020.2581    4.3000953    4.3000953    4.3000953    1020.2581   -45236.517    21772.799    26524.492     15322.47    9541.4619    10657.465    79.512285 
   22300    2134.1539   -106.34382    1.9310273   -104.41279   -33983.981    4.3014379    4.3014379    4.3014379   -33983.981   -71984.089   -36439.184     6471.332   -35713.383   -3195.6342    5901.1887    79.586788 
   22400    1339.0997   -105.63528    1.2116456   -104.42364   -25113.732    4.3006736    4.3006736    4.3006736   -25113.732   -48854.668   -19310.489   -7176.0381   -36448.216   -21620.383   -1348.8708     79.54437 
   22500    3038.3723   -107.13488    2.7491831    -104.3857   -42418.297    4.3203902    4.3203902    4.3203902   -42418.297    -66384.24   -32137.004   -28733.647    7871.2221   -4359.9025    19300.478    80.643417 
   22600    1307.7116   -105.53762     1.183245   -104.35438   -97254.974    4.3376145    4.3376145    4.3376145   -97254.974   -137294.39   -89732.778    -64737.75   -66376.168   -34784.555    1839.2631    81.611782 
   22700    2824.3226   -106.87078    2.5555064   -104.31528    25041.008    4.2881949    4.2881949    4.2881949    25041.008   -13768.712    24984.656    63907.078    43868.377    12460.264    17846.147    78.853969 
   22800    1764.0554   -105.91917    1.5961544   -104.32301    27369.647    4.2569453    4.2569453    4.2569453    27369.647    -42671.17     43308.82    81471.292   -33151.976   -18211.201   -20077.248    77.142587 
   22900     1819.579   -106.05332    1.6463933   -104.40693    1075.1344    4.2796348    4.2796348    4.2796348    1075.1344   -16678.107    2405.6553    17497.855   -5169.2277   -38151.201    12553.075    78.382686 
   23000    2202.8434   -106.40922     1.993179   -104.41604   -13267.969    4.3106748    4.3106748    4.3106748   -13267.969    -7750.906   -80849.109    48796.108    38162.376    25839.183   -7115.1708    80.100603 
   23100    1549.3857   -105.81306    1.4019168   -104.41115   -25078.546    4.3231069    4.3231069    4.3231069   -25078.546   -64957.695    14764.398   -25042.342   -45138.725   -49549.347    4900.9164    80.795641 
   23200    2530.4421   -106.65802    2.2895972   -104.36842   -30158.524    4.3085742    4.3085742    4.3085742   -30158.524   -30771.815   -15490.876   -44212.881    41590.842   -34275.503    2736.2751     79.98356 
   23300     1975.975   -106.16664    1.7879037   -104.37874    32681.098    4.2731513    4.2731513    4.2731513    32681.098    20845.835   -7091.9921    84289.453   -44195.716    15510.603    1610.6049    78.026983 
   23400     1694.822   -105.94619    1.5335105   -104.41268    31144.039    4.2566899    4.2566899    4.2566899    31144.039     5911.184    59615.885    27905.049   -28510.794   -55592.774   -6128.1337    77.128707 
   23500    1914.6189   -106.20458    1.7323875    -104.4722     40488.86    4.2826779    4.2826779    4.2826779     40488.86    98325.925    22559.258    581.39639    19898.769    10910.837    9133.7861    78.550009 
   23600    2064.5344   -106.31523    1.8680342   -104.44719   -44797.141    4.3258131    4.3258131    4.3258131   -44797.141   -39144.511   -59469.692   -35777.221   -41597.018   -20808.628    12595.737    80.947467 
   23700    2013.6155   -106.23134    1.8219616   -104.40937   -32470.131    4.3121733    4.3121733    4.3121733   -32470.131    -28601.67   -12587.775   -56220.948   -7568.3981   -57460.437   -23296.345    80.184166 
   23800    1616.0118   -105.85452    1.4622015   -104.39232     11087.48    4.2702301    4.2702301    4.2702301     11087.48    27130.353    21912.843   -15780.758    2961.9087     16780.05    36952.991     77.86707 
   23900    2394.1857   -106.58142    2.1663095   -104.41511    31685.013     4.263189     4.263189     4.263189    31685.013   -10623.789    51019.342    54659.488    -21078.45    12972.547    2821.7056    77.482524 
   24000    2163.4506   -106.42221    1.9575356   -104.46467     8674.838    4.2804035    4.2804035    4.2804035     8674.838   -5591.7264    3732.8054    27883.435    27135.481   -30091.232    14119.332    78.424931 
   24100    1300.3595   -105.67439    1.1765926   -104.49779   -30379.278     4.310916     4.310916     4.310916   -30379.278    699.13762    2052.6967   -93889.669   -2357.1079    12552.896     36025.52    80.114049 
   24200    1999.0669   -106.24623    1.8087977   -104.43744   -12772.455    4.3194966    4.3194966    4.3194966   -12772.455   -47919.103   -2801.0113     12402.75   -5021.2988    32017.141    -2570.336    80.593387 
   24300    2673.9607   -106.80416    2.4194558    -104.3847    9659.4924    4.2972767    4.2972767    4.2972767    9659.4924     107293.4   -66524.154   -11790.765   -3934.0569   -12519.048    17838.905    79.356032 
   24400    1637.4576   -105.87308    1.4816061   -104.39147   -20662.998    4.2875612    4.2875612    4.2875612   -20662.998   -24480.469    37569.889   -75078.412   -13634.087    55604.825    6170.6323    78.819014 
   24500    1952.9153    -106.1695    1.7670388   -104.40246    -7990.637    4.2979241    4.2979241    4.2979241    -7990.637   -48541.683     60588.84   -36019.068    21888.629   -39375.677   -24467.351    79.391903 
   24600     2288.659   -106.46386    2.0708268   -104.39303   -24855.914    4.3030863    4.3030863    4.3030863   -24855.914   -22082.427   -61192.302    8706.9855   -6422.1289    7214.5515    11003.785    79.678322 
   24700    1728.4622   -105.97471    1.5639489   -104.41076    -7016.972    4.2980508    4.2980508    4.2980508    -7016.972    44157.208    4856.5518   -70064.676   -2691.6245   -193.65934   -10327.811    79.398925 
   24800    2189.1046   -106.38661    1.9807478   -104.40586    9844.8133    4.2969808    4.2969808    4.2969808    9844.8133    72879.737    16190.996   -59536.293    3951.5286   -12916.602   -6913.7889    79.339644 
   24900    2239.5847   -106.42102    2.0264233   -104.39459   -14148.403    4.3145197    4.3145197    4.3145197   -14148.403    31618.183   -58429.686   -15633.706   -26772.941    12401.099   -5632.0003     80.31513 
   25000    1127.8501   -105.40813    1.0205025   -104.38763   -29374.211    4.3261743    4.3261743    4.3261743   -29374.211    4948.7102   -15550.993   -77520.349   -8422.9401   -12538.018   -5590.1455    80.967747 
   25100    2608.2257   -106.71242    2.3599774   -104.35244    7064.6186    4.3112584    4.3112584    4.3112584    7064.6186    11744.932    53699.968   -44251.045   -20622.964    27830.167    6421.8321    80.133142 
   25200    2321.2566   -106.45098    2.1003218   -104.35065    9576.5628    4.2882182    4.2882182    4.2882182    9576.5628   -16304.166    52775.439   -7741.5847   -37411.137   -39598.527    18685.333    78.855253 
   25300    1436.2352   -105.69796    1.2995358   -104.39842    11078.861    4.2789389    4.2789389    4.2789389    11078.861    49394.932     37321.56   -53479.909    8313.5512    9384.7851    18164.712    78.344451 
   25400    1662.5202   -105.94746    1.5042832   -104.44318    2090.9846     4.284244     4.284244     4.284244    2090.9846    73179.865   -486.94625   -66419.965   -946.58324    8847.1626    11249.969    78.636212 
   25500    3222.6951   -107.35177    2.9159623   -104.43581   -4306.1473    4.2976646    4.2976646    4.2976646   -4306.1473   -10906.669    28741.771   -30753.544   -27658.343   -8553.9851   -2367.6626    79.377524 
   25600    1532.2792   -105.83199    1.3864384   -104.44555   -35122.331    4.3163151    4.3163151    4.3163151   -35122.331    14066.355   -66072.759   -53360.589    3581.1704    32806.782   -5043.3383    80.415436 
   25700    1398.1578   -105.67736    1.2650825   -104.41228   -29737.055    4.3083222    4.3083222    4.3083222   -29737.055     28558.37   -57301.205   -60468.331    11540.663   -2188.6308    36629.225    79.969525 
   25800    3044.1593   -107.12141    2.7544193   -104.36699    13821.917    4.2834067    4.2834067    4.2834067    13821.917    28877.781    60649.429   -48061.458    13789.228   -25537.275   -10648.891    78.590118 
   25900    2201.5948   -106.39108    1.9920492   -104.39903    14232.024    4.2775587    4.2775587    4.2775587    14232.024    49674.102    3974.5085    -10952.54   -4889.7544    31975.333    15598.767    78.268668 
   26000    943.28411   -105.29354   0.85350328   -104.44004    121.43355    4.2818711    4.2818711    4.2818711    121.43355   -61106.894    42149.191    19322.003   -10258.049   -20701.263    23618.457    78.505625 
   26100     2378.414   -106.59293     2.152039   -104.44089    21663.025    4.3014914    4.3014914    4.3014914    21663.025    74054.097    49699.788   -58764.809    16859.766    20920.412   -3175.4653    79.589755 
   26200    2354.3694   -106.54838    2.1302829    -104.4181   -20886.907    4.3163316    4.3163316    4.3163316   -20886.907    5745.2167    6096.1216    -74502.06   -3846.1806   -30956.934    3557.4666    80.416359 
   26300    1354.3235    -105.6377    1.2254204   -104.41228   -17703.077    4.2869538    4.2869538    4.2869538   -17703.077   -56347.309     94395.46   -91157.382   -15026.617   -17922.068    6214.9909    78.785519 
   26400    2111.0027    -106.3052    1.9100796   -104.39512     38695.62    4.2571453    4.2571453    4.2571453     38695.62    58303.349    93757.505   -35973.994    15435.134    49073.066   -10880.706    77.153461 
   26500    2214.4842    -106.4362    2.0037118   -104.43249    23198.327    4.2638782    4.2638782    4.2638782    23198.327    20955.115     69342.92   -20703.055    6931.9628    -37605.31   -38790.619    77.520106 
   26600    2247.2268   -106.49124     2.033338    -104.4579    6569.4141    4.2859851    4.2859851    4.2859851    6569.4141    -41306.14    112750.18   -51735.799   -11704.839    23691.851    9590.4485    78.732122 
   26700    2328.2141   -106.54307    2.1066171   -104.43645   -16659.771    4.3052632    4.3052632    4.3052632   -16659.771     14631.07   -15521.588   -49088.794    9990.6342   -37.475468   -34297.307    79.799305 
   26800    1245.8744   -105.56493    1.1272933   -104.43764   -29092.678    4.2999403    4.2999403    4.2999403   -29092.678   -3644.8191   -25462.094   -58171.122    3236.1448   -8287.3346   -17904.456    79.503691 
   26900    2794.5345   -106.93216    2.5285536    -104.4036     20559.13    4.2829734    4.2829734    4.2829734     20559.13      61170.5    28762.002   -28255.112   -6065.7419    9596.3824     24109.29    78.566267 
   27000    2084.5488   -106.29425    1.8861436   -104.40811    3141.9807    4.2864848    4.2864848    4.2864848    3141.9807   -36530.759   -12049.606    58006.307   -899.55816   -8409.0905   -3443.7795    78.759668 
   27100    1301.7774   -105.58847    1.1778755    -104.4106    3569.1349    4.2958284    4.2958284    4.2958284    3569.1349    6569.5859   -26189.282    30327.101   -16489.389    10197.891    30170.948    79.275824 
   27200    2295.1419   -106.46144    2.0766926   -104.38475    -8288.878     4.310045     4.310045     4.310045    -8288.878    47325.387    -24849.35   -47342.671    16681.475    1744.1277    30541.944    80.065499 
   27300    1862.8257   -106.07048    1.6855238   -104.38496   -48692.058    4.3056605    4.3056605    4.3056605   -48692.058   -80645.779    -70049.53    4619.1358    27482.057    8565.0642   -17372.318    79.821403 
   27400    2118.3507   -106.30278    1.9167282   -104.38605   -6338.4267    4.2685482    4.2685482    4.2685482   -6338.4267    20999.354   -11327.677   -28686.957    5319.5255    4824.5479    44456.496    77.775099 
   27500    1947.2264   -106.17136    1.7618914   -104.40947    52138.607    4.2574179    4.2574179    4.2574179    52138.607    68905.677    98413.665    -10903.52   -7156.4601   -10340.952    -40621.75    77.168284 
   27600    1937.3795   -106.20043    1.7529817   -104.44745    27444.911     4.290221     4.290221     4.290221    27444.911    15104.126    59432.264    7798.3426   -3892.3317    12457.494    15119.875    78.965793 
   27700    1394.7824   -105.67969    1.2620284   -104.41766   -10484.605    4.3181225    4.3181225    4.3181225   -10484.605    12405.336     50471.16   -94330.309   -7910.3411    -4774.735   -46476.027    80.516495 
   27800    2039.3856    -106.2444     1.845279   -104.39912   -43758.302    4.3090217    4.3090217    4.3090217   -43758.302   -25556.812   -3839.0128   -101879.08   -1459.4955    4910.1505   -33386.424    80.008487 
   27900    2457.8382   -106.61983    2.2239037   -104.39592    27225.387    4.2658356    4.2658356    4.2658356    27225.387   -2436.7554    98941.494   -14828.578    2802.5935    39887.885    19340.382    77.626917 
   28000    1672.1372   -105.94012    1.5129849   -104.42714    -13765.61    4.2536031    4.2536031    4.2536031    -13765.61    42563.077   -19922.436    -63937.47    8485.7194   -6118.7935   -58676.027    76.961035 
   28100    1665.1702   -105.96568     1.506681   -104.45899   -19126.547    4.2729506    4.2729506    4.2729506   -19126.547     17591.56   -11618.325   -63352.876    5559.5688    12690.051    18796.861    78.015986 
   28200    2288.3557   -106.54046    2.0705523   -104.46991    7674.2697    4.2930646    4.2930646    4.2930646    7674.2697   -37608.903    108328.66   -47696.946   -6415.0135    38247.016   -332.73539    79.122915 
   28300    2522.2757   -106.72842    2.2822081   -104.44621   -19227.442    4.3071211    4.3071211    4.3071211   -19227.442   -6889.5029   -1240.7546   -49552.069   -5338.7793    -2121.454   -2868.7944     79.90266 
   28400     801.8427    -105.1634   0.72552413   -104.43788   -534.40473    4.2953977    4.2953977    4.2953977   -534.40473    44953.169    42947.331   -89503.715   -3783.0222    29614.107    55117.989    79.251981 
   28500    2638.1271   -106.78655    2.3870328   -104.39952    18936.915    4.2932456    4.2932456    4.2932456    18936.915     22312.79    54775.976    -20278.02   -16818.355   -25095.715   -10099.817    79.132921 
   28600    1574.7057   -105.82949    1.4248268   -104.40466    10900.483     4.299177     4.299177     4.299177    10900.483   -578.31508    58211.748   -24931.986   -4249.6186    23367.145    48658.613    79.461354 
   28700    1886.2687   -106.08577    1.7067355   -104.37903   -7306.3845    4.3140526    4.3140526    4.3140526   -7306.3845    9077.3408   -22686.643   -8309.8513   -3688.6679    15350.489    3722.6702    80.289048 
   28800    2368.1204   -106.49584    2.1427251   -104.35311   -47808.921    4.3160477    4.3160477    4.3160477   -47808.921   -41681.266   -38679.717   -63065.779    10892.829   -25398.447   -23799.015    80.400494 
   28900    1270.0123   -105.55757    1.1491338   -104.40844   -41239.393    4.2724743    4.2724743    4.2724743   -41239.393    12817.153    -50878.53   -85656.802    9280.4286    36522.455    107135.51    77.989904 
   29000    2429.5192   -106.60277      2.19828   -104.40449    39353.613    4.2302386    4.2302386    4.2302386    39353.613    60022.966    17468.874    40568.999    12712.624    13755.736   -23787.423    75.699773 
   29100    2601.9421   -106.81597    2.3542919   -104.46167    6131.4294    4.2515084    4.2515084    4.2515084    6131.4294    2115.1812    25753.862   -9474.7549    3338.9158    4307.5918    15835.009    76.847389 
   29200    1189.1433   -105.56868    1.0759618   -104.49272   -28095.933    4.2984224    4.2984224    4.2984224   -28095.933   -38724.227    9760.9887   -55324.561   -478.53493    33243.334    62958.251    79.419522 
   29300    2577.6968   -106.76552    2.3323543   -104.43317   -34931.847    4.3278843    4.3278843    4.3278843   -34931.847   -103807.43   -280.11047   -708.00113    12458.822   -29122.313   -10721.381    81.063792 
   29400    1761.8589   -105.97945     1.594167   -104.38528   -39310.958    4.3283611    4.3283611    4.3283611   -39310.958   -17182.391   -32484.268   -68266.214   -22224.455    48407.043    43499.881    81.090591 
   29500    2113.5738   -106.26919     1.912406   -104.35679    5741.5772    4.2922523    4.2922523    4.2922523    5741.5772   -1318.8153    62220.027    -43676.48    15045.178   -17558.189    3496.5562    79.078011 
   29600    2146.0158   -106.26974    1.9417602   -104.32798    33378.599    4.2706459    4.2706459    4.2706459    33378.599    26160.581    69635.165    4340.0519    630.85006   -4581.7605    7684.2932    77.889816 
   29700    1469.3318   -105.71828    1.3294822    -104.3888   -10325.166    4.2830814    4.2830814    4.2830814   -10325.166    30836.162   -6416.2387   -55395.421   -8112.1963     19826.25    48817.899    78.572215 
   29800    3128.1188   -107.22137    2.8303876   -104.39098   -7311.8155    4.2954513    4.2954513    4.2954513   -7311.8155   -51972.527    43972.966   -13935.885    2190.0718   -19808.469   -36179.428    79.254953 
   29900    1625.0164   -105.89585    1.4703489    -104.4255   -20228.858    4.2923882    4.2923882    4.2923882   -20228.858   -14111.415    17035.717   -63610.876   -13025.917    22621.368    50393.887     79.08552 
   30000    1604.4941    -105.8737    1.4517799   -104.42192    9788.0475    4.2809866    4.2809866    4.2809866    9788.0475   -8882.9271    18819.794    19427.275   -2370.7772   -5934.9357   -9624.6943    78.456983 
   30100    2232.5567   -106.44461    2.0200642   -104.42454      4438.33    4.2799871    4.2799871    4.2799871      4438.33   -51638.178   -23009.059    87962.226    37462.842   -12867.923   -10264.923    78.402041 
   30200    2519.0552   -106.70218    2.2792941   -104.42288    10453.672    4.2730719    4.2730719    4.2730719    10453.672   -28097.562    56456.052    3002.5266   -3496.2118    29592.979     37923.05    78.022634 
   30300    1613.2644   -105.91277    1.4597156   -104.45305   -6458.9132    4.2730564    4.2730564    4.2730564   -6458.9132    -39846.16    18284.991    2184.4293    18325.332    4160.2995   -27542.656    78.021783 
   30400    1499.2053   -105.81191    1.3565124   -104.45539   -1637.8491    4.2812788    4.2812788    4.2812788   -1637.8491   -70224.782   -4027.0573    69338.292    9362.1526    6778.2751    1586.0435    78.473047 
   30500    2828.2111    -106.9721    2.5590248   -104.41308   -22280.562    4.3036511    4.3036511    4.3036511   -22280.562   -58931.727      15810.3   -23720.259    -9275.662    14259.773    7932.5372    79.709698 
   30600    1310.7483   -105.59436    1.1859926   -104.40836   -60545.881     4.301359     4.301359     4.301359   -60545.881   -100300.86   -68040.706   -13296.076      20620.8   -25859.005   -21852.649    79.582409 
   30700    2563.7485   -106.70677    2.3197335   -104.38703    13719.423    4.2651082    4.2651082    4.2651082    13719.423   -39679.943    32744.839    48093.375   -19249.175    4401.8758    5346.0426    77.587215 
   30800    2261.8215   -106.45255    2.0465436   -104.40601   -4452.8898    4.2604434    4.2604434    4.2604434   -4452.8898    6604.7876    3505.6259   -23469.083    8449.9617    3524.2933    56757.849    77.332919 
   30900    2100.3935   -106.33342    1.9004802   -104.43294   -4187.4149    4.2611532    4.2611532    4.2611532   -4187.4149   -43742.314   -15217.401     46397.47    8852.2176   -21412.376   -39080.437    77.371574 
   31000    1719.8152   -106.02039    1.5561249   -104.46426    2369.9695    4.2722598    4.2722598    4.2722598    2369.9695    17091.782    3533.6727   -13515.546   -7643.2853    6049.6173    55006.944    77.978156 
   31100    1477.9803   -105.79438    1.3373076   -104.45708   -9142.8289    4.2952205    4.2952205    4.2952205   -9142.8289    48277.552   -60208.317   -15497.722    9345.1711     10843.44    55615.758    79.242177 
   31200    2232.1282   -106.42439    2.0196765   -104.40472    15757.634    4.2975057    4.2975057    4.2975057    15757.634   -16018.006   -2743.1794    66034.087    21192.994   -18563.545    -1991.548    79.368723 
   31300    1078.7056   -105.38192   0.97603546   -104.40589   -13973.841    4.2991719    4.2991719    4.2991719   -13973.841   -18278.138    36917.465   -60560.849   -14764.369    29504.327    87788.206    79.461072 
   31400    2860.3378   -106.97044    2.5880938   -104.38234    7931.0718    4.2854611    4.2854611    4.2854611    7931.0718   -63707.062    32046.258    55454.019    -10230.02    4064.2197   -41133.813    78.703249 
   31500    1203.1509   -105.50411    1.0886363   -104.41548    1449.5694    4.2617926    4.2617926    4.2617926    1449.5694    50669.957     13416.26   -59737.509      14985.9   -16980.387    104934.17    77.406413 
   31600    1747.1222   -106.00137    1.5808329   -104.42053    7031.0403    4.2574877    4.2574877    4.2574877    7031.0403   -13025.091    48137.097   -14018.885   -11802.081    53715.509    8011.2797    77.172079 
   31700     1989.699   -106.23138    1.8003215   -104.43105    15762.274     4.277377     4.277377     4.277377    15762.274    11548.086   -43467.803     79206.54    1603.7292   -12353.765    46261.479    78.258693 
   31800    2074.6956   -106.29296    1.8772281   -104.41573   -3385.2517    4.2955157    4.2955157    4.2955157   -3385.2517   -13351.874   -9328.9801    12525.099    9586.6193   -667.17878    46173.401    79.258514 
   31900    1752.6965   -105.98135    1.5858767   -104.39547    27208.409    4.2991281    4.2991281    4.2991281    27208.409   -16935.131    50033.096    48527.263    1266.5374    26690.234    -817.0905    79.458645 
   32000    1977.2454   -106.15554    1.7890532   -104.36649   -18402.054    4.3067611    4.3067611    4.3067611   -18402.054    38371.894   -15084.206    -78493.85   -6049.2954   -12395.445    70773.991    79.882631 
   32100     1822.677   -106.00322    1.6491965   -104.35402   -33799.332    4.2995628    4.2995628    4.2995628   -33799.332   -80018.424    5604.8425   -26984.415    -635.7479    69003.263   -22488.894    79.482749 
   32200     1562.486   -105.77076    1.4137702   -104.35699    8398.9104    4.2647107    4.2647107    4.2647107    8398.9104    88758.817   -15188.998   -48373.087   -24172.882    28555.171    75694.576    77.565524 
   32300     2400.134    -106.5463    2.1716917   -104.37461    33601.261    4.2596329    4.2596329    4.2596329    33601.261    52677.405    42021.399    6104.9799    12169.906   -32850.009   -7138.7939     77.28879 
   32400    1463.1147   -105.75356    1.3238569    -104.4297   -51702.411    4.2936071    4.2936071    4.2936071   -51702.411   -27385.927   -17668.291   -110053.02    8419.0126     42912.33    26219.874     79.15291 
   32500    2757.5435   -106.87214    2.4950833   -104.37706    16148.683    4.2988684    4.2988684    4.2988684    16148.683    102982.53    10580.699   -65117.177   -29778.466   -12264.726    15960.258    79.444247 
   32600     1111.343   -105.40785    1.0055665   -104.40228   -15482.831    4.2994867    4.2994867    4.2994867   -15482.831    -30656.36     58845.89   -74638.024   -441.15986    13814.459   -11440.914     79.47853 
   32700    2440.6709   -106.58525    2.2083703   -104.37688   -2193.3752     4.291621     4.291621     4.291621   -2193.3752    12993.343     434.1067   -20007.576    5352.9329    12409.639    7781.3343    79.043121 
   32800    2001.9705   -106.19293     1.811425    -104.3815    31384.934    4.2639594    4.2639594    4.2639594    31384.934    119986.31   -4173.7776   -21657.735    2480.3799   -1870.7582   -23620.605    77.524536 
   32900    1358.6159   -105.66965    1.2293042   -104.44034   -8023.9331    4.2768867    4.2768867    4.2768867   -8023.9331   -29208.966    60807.257    -55670.09   -9242.6964    53157.593   -9488.6077    78.231783 
   33000    3036.6218   -107.13347    2.7475992   -104.38587   -10158.535    4.3000975    4.3000975    4.3000975   -10158.535    37432.045   -52684.761   -15222.889   -10321.829     -26995.8    14525.354    79.512408 
   33100    1238.3546   -105.49704    1.1204892   -104.37655    10668.959    4.3027646    4.3027646    4.3027646    10668.959    78410.077   -4739.7533   -41663.446     8569.567    53504.886   -22285.027    79.660449 
   33200    2433.1444    -106.5703    2.2015602   -104.36874    -36720.81    4.2996286    4.2996286    4.2996286    -36720.81   -5503.5099   -49409.261   -55249.658    9087.4083    1137.2688    42913.071    79.486402 
   33300    1947.7534   -106.15466    1.7623682   -104.39229   -11351.008    4.2772586    4.2772586    4.2772586   -11351.008     32946.56   -15365.922   -51633.664    23300.325    13123.671    32659.277    78.252195 
   33400    1844.5892   -106.07739    1.6690231   -104.40837    16980.638    4.2779402    4.2779402    4.2779402    16980.638    56051.364    32221.578   -37331.028   -7541.2626    57133.096   -9728.9461     78.28961 
   33500    2142.9201   -106.33992    1.9389591   -104.40096   -23811.287    4.2998998    4.2998998    4.2998998   -23811.287    38412.437   -70991.062   -38855.234    8509.9486   -21212.944    60309.071     79.50144 
   33600    1652.5947    -105.8828    1.4953024   -104.38749    13700.554    4.3041348    4.3041348    4.3041348    13700.554    36662.988    6958.2787   -2519.6036    18474.299    36316.532   -27776.482    79.736579 
   33700    2136.8003   -106.31346    1.9334218   -104.38004     31814.36    4.2940833    4.2940833    4.2940833     31814.36    87293.052   -21216.159    29366.186   -6939.1537   -4988.1448    30079.794    79.179252 
[...]
   91300    3098.7135   -107.04981    2.8037811   -104.24603    10431.734    4.2865081    4.2865081    4.2865081    10431.734     12152.78    15608.502    3533.9211     38654.66   -1103.6331   -32224.507    78.760953 
   91400    1067.6288   -105.28078   0.96601293   -104.31477   -6699.9586    4.2622346    4.2622346    4.2622346   -6699.9586   -58909.341   -111979.52    150788.99   -133888.15    5186.5105   -9660.1739    77.430497 
   91500    2969.5719    -106.9826    2.6869311   -104.29567    48714.282    4.2546459    4.2546459    4.2546459    48714.282    37139.606    25809.903    83193.337    25611.301    15623.087    23408.318    77.017649 
   91600    1006.2346   -105.28463   0.91046218   -104.37417   -43786.932      4.27961      4.27961      4.27961   -43786.932   -86470.183   -122815.24    77924.623   -144792.28   -7299.3049   -24674.014    78.381323 
   91700     2960.117   -106.99908    2.6783761    -104.3207    848.76183    4.2942408    4.2942408    4.2942408    848.76183   -15286.306    5702.6124    12129.979    22168.147    19529.161    1604.1799    79.187964 
   91800    1054.0632   -105.28064   0.95373858    -104.3269    5299.7169    4.3052549    4.3052549    4.3052549    5299.7169   -47789.863   -29075.953    92764.967   -104094.49   -2533.2043    3712.8489    79.798848 
   91900    2567.6326   -106.60481     2.323248   -104.28156    1804.6274    4.3009198    4.3009198    4.3009198    1804.6274   -43848.497    12522.837    36739.542   -7059.8883   -2919.7176   -4134.9986    79.558035 
   92000    1686.1116   -105.83046    1.5256292   -104.30483   -9541.8665    4.2798216    4.2798216    4.2798216   -9541.8665   -82836.831   -10654.904    64866.136   -91003.247     2584.019     1004.973    78.392948 
   92100    2232.6869   -106.31662     2.020182   -104.29643    -19897.39    4.2753619    4.2753619    4.2753619    -19897.39   -57292.114    -46026.23    43626.173   -66759.266    15572.993    22793.338    78.148141 
   92200    2168.2584   -106.27167    1.9618857   -104.30979    4824.7587    4.2872825    4.2872825    4.2872825    4824.7587   -31498.948   -16504.917    62478.141   -51528.678   -6373.4894   -9116.6298    78.803645 
   92300    1339.2771   -105.53422    1.2118061   -104.32242   -15248.292    4.3043177    4.3043177    4.3043177   -15248.292   -48620.669   -113157.62    116033.41   -79865.493   -2465.9728    11869.868    79.746742 
   92400    2622.8267   -106.64367    2.3731887   -104.27048   -11938.741    4.3009057    4.3009057    4.3009057   -11938.741   -32765.538   -32867.912    29817.227    4675.9993   -11398.944    6494.8632     79.55725 
   92500    1303.2912   -105.47465    1.1792452   -104.29541   -19175.003    4.2838459    4.2838459    4.2838459   -19175.003   -73927.181   -79636.148    96038.321   -96266.493   -7754.0228   -5931.0936    78.614292 
   92600    2722.2682   -106.75774    2.4631654   -104.29457    20100.254    4.2792899    4.2792899    4.2792899    20100.254   -6412.5244   -17567.404    84280.689    16654.141   -2070.5056   -3044.9694    78.363733 
   92700    1289.6857   -105.51054    1.1669348   -104.34361   -22408.062    4.2800099    4.2800099    4.2800099   -22408.062    -57548.25   -81266.679    71590.742   -111717.41    12153.602    5991.5723    78.403297 
   92800    3115.0796   -107.15311    2.8185894   -104.33452    16003.317    4.2896804    4.2896804    4.2896804    16003.317   -9254.9373    4510.0696    52754.818    30586.621   -13046.905   -3573.3177    78.935944 
   92900    1307.1086   -105.53396    1.1826993   -104.35127   -82630.811    4.3149054    4.3149054    4.3149054   -82630.811   -147816.86   -129119.87    29044.303   -134619.14     8668.962   -18853.771    80.336671 
   93000    3080.4738   -107.08163    2.7872774   -104.29435   -10319.144    4.2947269    4.2947269    4.2947269   -10319.144   -19763.159   -25235.258    14040.987    34700.083    2395.3586   -23643.099    79.214859 
   93100    1456.6104    -105.6353    1.3179717   -104.31733   -17645.856    4.2828852    4.2828852    4.2828852   -17645.856   -41310.917   -126065.08    114438.43   -120974.58    5675.1594   -5948.0254    78.561418 
   93200    2890.7839   -106.91661     2.615642   -104.30097     28158.36    4.2857591    4.2857591    4.2857591     28158.36     97522.66    986.90547   -14034.487    33994.782    21367.877   -16018.788    78.719668 
   93300     1321.437   -105.55414     1.195664   -104.35848    -21917.83    4.2886403    4.2886403    4.2886403    -21917.83   -38821.661   -68868.508    41936.679   -130246.11    6762.4085    6221.1004    78.878542 
   93400    2734.5137   -106.81027    2.4742455   -104.33603    6658.4577    4.2895359    4.2895359    4.2895359    6658.4577    38623.251   -511.96349   -18135.914    32278.426   -515.64025    -5836.622    78.927967 
   93500    968.52107   -105.23321   0.87633822   -104.35687     36636.72    4.2898696    4.2898696    4.2898696     36636.72   -73082.202    51800.942    131191.42   -102902.66   -1010.4667   -31443.114    78.946389 
   93600    3113.5313   -107.11807    2.8171885   -104.30088    5153.4071    4.3142892    4.3142892    4.3142892    5153.4071   -65942.757    65292.026    16110.952    27947.393    2065.6825   -10465.585    80.302258 
   93700    858.69322   -105.08255   0.77696367   -104.30558   -17104.238    4.3200877    4.3200877    4.3200877   -17104.238   -104651.49     48592.64    4746.1379   -108167.41   -11534.332    2843.0912    80.626476 
   93800    2827.0608   -106.85344     2.557984   -104.29546   -1728.0582    4.3001192    4.3001192    4.3001192   -1728.0582   -21511.369    45208.726   -28881.532    31748.596    9343.9677    5370.4093    79.513611 
   93900    1260.2422   -105.50989    1.1402937    -104.3696    6690.1355     4.255755     4.255755     4.255755    6690.1355   -86821.411    16532.132    90359.686   -101933.86    8195.4217    25291.528    77.077898 
   94000     2392.214   -106.53983    2.1645255   -104.37531    30334.211    4.2397774    4.2397774    4.2397774    30334.211    21685.288    10818.204     58499.14   -9065.5203   -33900.368   -20465.309    76.213021 
   94100    2050.1646   -106.27498     1.855032   -104.41995   -33308.105    4.2769162    4.2769162    4.2769162   -33308.105   -41253.013   -73525.361    14854.058     -60864.8    11220.773   -2382.3923    78.233402 
   94200    2176.7755   -106.35965    1.9695922   -104.39006   -32216.029    4.3028961    4.3028961    4.3028961   -32216.029   -89190.647   -30297.181     22839.74    -49216.24   -12143.591    15818.669    79.667754 
   94300    2169.6288   -106.32111    1.9631258   -104.35799   -19392.694    4.3041433    4.3041433    4.3041433   -19392.694    -29698.23   -52414.487    23934.635   -29438.926   -23519.494   -13901.471    79.737048 
   94400    1698.6078    -105.8932     1.536936   -104.35627   -17654.157    4.2913468    4.2913468    4.2913468   -17654.157   -42907.144   -47221.614    37166.288   -76992.331    9789.3429    8706.6614    79.027971 
   94500    2568.5553   -106.66612    2.3240828   -104.34204     33773.59    4.2665409    4.2665409    4.2665409     33773.59    61512.817    26772.785    13035.169    13783.133   -5393.5893   -1096.7305    77.665427 
   94600     1088.683   -105.38332   0.98506322   -104.39826    730.91503    4.2555588    4.2555588    4.2555588    730.91503    35461.796   -92120.493    58851.442   -121796.46   -15124.998   -23883.508    77.067237 
   94700    3053.2803   -107.15069    2.7626722   -104.38802    37408.127    4.2655685    4.2655685    4.2655685    37408.127    72058.864    66249.348   -26083.829    46404.629    7327.1372   -2793.3921    77.612335 
   94800    1621.7567   -105.89864    1.4673996   -104.43124   -6246.8062    4.2687595    4.2687595    4.2687595   -6246.8062   -7929.3426    -55054.31    44243.234   -119702.97    5402.7722    6120.7938     77.78665 
   94900    2417.0911   -106.61523    2.1870348    -104.4282    13431.573    4.2832038    4.2832038    4.2832038    13431.573    14454.222    26734.147   -893.65024    21042.889   -20968.875   -35761.739    78.578947 
   95000     1521.559   -105.78666    1.3767385   -104.40993   -59737.438    4.2979222    4.2979222    4.2979222   -59737.438   -104477.97   -71783.244   -2951.1017    -87899.74    44874.913   -7456.6724    79.391801 
   95100    1883.9166   -106.09825    1.7046073   -104.39364     2802.091     4.267659     4.267659     4.267659     2802.091   -43630.388    9791.3975    42245.263   -59392.892   -8943.0876    4224.6115    77.726504 
   95200    2332.7095   -106.48806    2.1106845   -104.37738    31107.734    4.2501213    4.2501213    4.2501213    31107.734    27607.371    17834.805    47881.026   -25026.801   -13505.964   -29596.212    76.772199 
   95300    1476.0747   -105.74624    1.3355834   -104.41065   -20430.685    4.2781599    4.2781599    4.2781599   -20430.685   -101666.95    2594.4961    37780.402   -90938.904    21469.009   -7662.6389    78.301671 
   95400    2631.4018   -106.75765    2.3809477    -104.3767    692.53783    4.2892091    4.2892091    4.2892091    692.53783   -11224.606    38058.978   -24756.759     49146.65   -23177.145   -2694.6429    78.909931 
   95500    1174.5962   -105.45386    1.0627994   -104.39106   -2161.0728    4.2886701    4.2886701    4.2886701   -2161.0728   -67428.755   -22867.448    83812.985   -127852.45    6659.9479    1440.5404    78.880187 
   95600    3072.8331   -107.11902     2.780364   -104.33866    21646.686    4.2885325    4.2885325    4.2885325    21646.686   -28654.145    82898.065    10696.139    51215.898   -3517.4801    15835.271    78.872595 
   95700    773.35511   -105.07237   0.69974796   -104.37262   -5552.9959     4.275217     4.275217     4.275217   -5552.9959   -63917.713   -55623.173     102881.9    -118723.9   -16109.822    -3582.705    78.140193 
   95800    3344.7486   -107.37727    3.0263989   -104.35087    33666.936    4.2706304    4.2706304    4.2706304    33666.936    36344.905    47355.128    17300.776    29565.548    18600.345    20784.284    77.888971 
   95900    1170.1686   -105.45891    1.0587932   -104.40012   -2237.7825     4.276977     4.276977     4.276977   -2237.7825   -37471.454   -44948.094    75706.201   -108953.67   -3561.9083   -4497.0756    78.236739 
   96000    2679.5211   -106.79797     2.424487   -104.37349    10071.279    4.2847714    4.2847714    4.2847714    10071.279    17486.614    -14578.36    27305.584    11270.499   -5885.6332   -536.79601     78.66526 
   96100    1065.5297   -105.34831   0.96411367    -104.3842   -16784.468    4.2966539    4.2966539    4.2966539   -16784.468    5954.4717    -67974.94    11667.066   -76586.144    25893.153    24623.548    79.321537 
   96200    1887.1778   -106.07963    1.7075581   -104.37207   -8136.4175    4.2939828    4.2939828    4.2939828   -8136.4175    7871.7085   -53209.924    20928.963   -36573.496   -15914.206    8455.6564    79.173691 
   96300    2125.4808   -106.29127    1.9231797   -104.36809     4235.187    4.2840308    4.2840308    4.2840308     4235.187   -45004.169    9619.2351    48090.495   -47289.021    15790.549    12807.213    78.624473 
   96400    1939.9417   -106.10411    1.7553001   -104.34881   -2929.1168    4.2933262    4.2933262    4.2933262   -2929.1168   -32544.735   -5699.3518    29456.737   -54488.696    31300.475    12923.487    79.137379 
   96500    2617.9285   -106.69629    2.3687567   -104.32753   -18608.528    4.2970637    4.2970637    4.2970637   -18608.528   -51943.611     2823.474   -6705.4465   -30131.285   -11184.897   -7622.4362    79.344234 
   96600    888.94382     -105.178   0.80433505   -104.37367   -7072.4951    4.2795008    4.2795008    4.2795008   -7072.4951   -83575.936    62329.993    28.457751   -87737.615     23431.19    13528.915    78.375324 
   96700    2622.9698   -106.73459    2.3733182   -104.36127     37152.34     4.262866     4.262866     4.262866     37152.34    50365.724    48367.634    12723.661    15669.695   -2089.3601    13566.949    77.464916 
   96800    1050.4265   -105.35878   0.95044793   -104.40834    7829.6647    4.2736049    4.2736049    4.2736049    7829.6647   -67766.361    9383.4128    81871.943   -109317.64   -25707.689    -15572.46    78.051832 
   96900    3120.8617   -107.19255    2.8238213   -104.36872   -17687.217    4.2955685    4.2955685    4.2955685   -17687.217   -1993.9741    2020.7059   -53088.381    33557.973    18784.132    15955.434     79.26144 
   97000    1058.2785   -105.31709    0.9575526   -104.35954   -15323.922    4.3108502    4.3108502    4.3108502   -15323.922   -86618.827    7892.5172    32754.543    -96283.64   -9844.7244    97.623452    80.110381 
   97100    2971.0679   -106.99788    2.6882847   -104.30959   -16918.664      4.30629      4.30629      4.30629   -16918.664    -14025.09    47.195173   -36778.096    30468.259   -20375.055    1616.6944    79.856416 
   97200    1435.2386   -105.65345    1.2986341   -104.35482   -20116.381    4.2749467    4.2749467    4.2749467   -20116.381   -62911.146   -56510.861    59072.866   -91223.102    9248.3687   -21697.761    78.125377 
   97300    2291.5244    -106.4261    2.0734195   -104.35268    16619.771    4.2501441    4.2501441    4.2501441    16619.771   -11047.015    77506.733   -16600.405    9910.6942   -54612.672    13019.364    76.773432 
   97400    2167.9467   -106.35648    1.9616037   -104.39487   -18467.479    4.2604394    4.2604394    4.2604394   -18467.479   -43953.433   -26335.319    14886.317   -41707.725   -32512.913    118.82881    77.332701 
   97500    1534.9853   -105.82076     1.388887   -104.43187   -15977.142     4.272968     4.272968     4.272968   -15977.142    -31224.72   -43537.714    26831.008   -65864.611    6192.1086   -24066.492     78.01694 
   97600    2756.3567   -106.90103    2.4940095   -104.40702   -4041.6105    4.2799289    4.2799289    4.2799289   -4041.6105   -25831.433    62939.939   -49233.338    11107.938   -40398.765   -874.79119    78.398846 
   97700    1464.6383    -105.7355    1.3252355   -104.41027   -49086.603    4.2982986    4.2982986    4.2982986   -49086.603   -99438.663   -57720.346    9899.1988   -80819.552    2518.9724    3551.7009    79.412661 
   97800    2679.0207    -106.8079    2.4240343   -104.38387   -289.52855     4.279444     4.279444     4.279444   -289.52855    21089.117    15603.268   -37560.971    34735.451       4061.4   -33281.415      78.3722 
   97900    1197.8968   -105.47772    1.0838822   -104.39383    40323.681    4.2392276    4.2392276    4.2392276    40323.681     41337.14    23133.731     56500.17   -79158.707   -5477.8471    35814.463    76.183373 
   98000    2626.3954   -106.78988    2.3764178   -104.41346    38466.488    4.2505296    4.2505296    4.2505296    38466.488    20981.307    60781.409    33636.747    4657.1895    -25097.32    437.98082    76.794324 
   98100    2270.8611   -106.47571    2.0547228   -104.42098    -19217.22    4.2854955    4.2854955    4.2854955    -19217.22   -29944.004   -29385.941    1678.2842   -46812.662    27902.973   -1076.4476    78.705146 
   98200    1139.0539    -105.4645    1.0306399   -104.43386   -24312.062    4.2960249    4.2960249    4.2960249   -24312.062   -58310.183    -16655.28    2029.2761   -51508.471   -19608.626    22757.242    79.286704 
   98300    2759.4607   -106.87671     2.496818    -104.3799   -24372.051    4.2960519    4.2960519    4.2960519   -24372.051   -16139.414   -25047.394   -31929.346    26311.107   -20839.949   -37160.552      79.2882 
   98400    1042.6115   -105.32674   0.94337679   -104.38337   -21906.858    4.2802581    4.2802581    4.2802581   -21906.858   -80883.965   -6113.5271    21276.919   -89587.939    36233.451    4234.1182    78.416935 
   98500    3369.7293   -107.39229    3.0490019   -104.34329    26938.592    4.2590202    4.2590202    4.2590202    26938.592    6116.0792    73813.293     886.4034    30310.997   -26574.112    2550.4535    77.255445 
   98600    1234.5103   -105.52085    1.1170109   -104.40384   -28859.598    4.2621311    4.2621311    4.2621311   -28859.598   -80756.013   -69120.584    63297.803   -94378.504    18138.641    2007.2367    77.424857 
   98700    1970.3115   -106.19959    1.7827793   -104.41681    3872.7911    4.2727442    4.2727442    4.2727442    3872.7911   -52692.995    25986.114    38325.254   -3375.8104    38984.921   -1795.6956    78.004685 
   98800    2251.0137   -106.45489    2.0367645   -104.41812    13938.962    4.2844033    4.2844033    4.2844033    13938.962   -18098.361   -8529.8398    68445.088   -32822.267   -31784.891    18853.186    78.644984 
   98900    1789.3296   -106.02639     1.619023   -104.40736   -32891.495    4.2978133    4.2978133    4.2978133   -32891.495   -102337.41   -17017.852    20680.781   -43609.681    21916.797   -12275.209    79.385765 
   99000    2777.3569    -106.8757    2.5130109   -104.36269    20374.068    4.2843528    4.2843528    4.2843528    20374.068   -410.10428    34771.141    26761.167    12328.442   -20639.764    2357.4655    78.642207 
   99100    814.28136   -105.12774   0.73677888   -104.39096    1280.5782    4.2726197    4.2726197    4.2726197    1280.5782   -17316.113   -20669.612    41827.459    -56365.28   -32092.256    5534.5539    77.997864 
   99200    3295.5554   -107.32623    2.9818878   -104.34434    27788.407    4.2705942    4.2705942    4.2705942    27788.407    20744.842    47556.567    15063.813    28660.683     26781.29   -757.35232    77.886987 
   99300    1230.1342   -105.52098    1.1130512   -104.40793   -22750.228    4.2835503    4.2835503    4.2835503   -22750.228   -37569.519   -34694.261    4013.0956   -79332.317   -21389.747   -1031.9059     78.59802 
   99400     2770.338   -106.89349      2.50666   -104.38683    -34422.52    4.2978323    4.2978323    4.2978323    -34422.52   -27437.994   -43206.238   -32623.328   -15877.356   -13296.589   -1167.1516    79.386821 
   99500    2029.0376   -106.24914    1.8359158   -104.41322     3460.468    4.2703533    4.2703533    4.2703533     3460.468    63756.749   -30822.657   -22552.688   -8581.6919    22800.097   -19405.421     77.87381 
   99600    2040.2356   -106.23279    1.8460481   -104.38674    28784.404    4.2472629    4.2472629    4.2472629    28784.404    35723.874     16032.81    34596.529   -78955.778   -20223.881    12152.723    76.617403 
   99700    2003.8103    -106.2065    1.8130897   -104.39341    -16685.87    4.2721444    4.2721444    4.2721444    -16685.87    33661.945   -61916.939   -21802.615    68139.354    4038.7813    -26876.88    77.971839 
   99800    1319.6058   -105.58616     1.194007   -104.39216   -33529.595    4.2864949    4.2864949    4.2864949   -33529.595   -22755.607   -98754.537    20921.358   -72796.381    3604.5459   -13125.764    78.760223 
   99900    2352.6372   -106.50183    2.1287156   -104.37312     17589.57    4.2720377    4.2720377    4.2720377     17589.57    44768.647   -43352.393    51352.456    23449.077     9565.388    26704.563    77.965996 
  100000      1481.25   -105.74193    1.3402662   -104.40166    11484.244    4.2755269    4.2755269    4.2755269    11484.244    69268.047   -81567.599    46752.284    64831.477    3067.5021   -28193.596    78.157191 
Loop time of 22.8821 on 1 procs for 100000 steps with 8 atoms

Pair  time (%) = 7.19359 (31.4376)
Kspce time (%) = 5.39931 (23.5962)
Neigh time (%) = 0.295685 (1.29221)
Comm  time (%) = 1.17482 (5.1342)
Outpt time (%) = 0.022886 (0.100017)
Other time (%) = 8.79586 (38.4399)

Nlocal:    8 ave 8 max 8 min
Histogram: 1 0 0 0 0 0 0 0 0 0
Nghost:    2189 ave 2189 max 2189 min
Histogram: 1 0 0 0 0 0 0 0 0 0
Neighs:    2303 ave 2303 max 2303 min
Histogram: 1 0 0 0 0 0 0 0 0 0

Total # of neighbors = 2303
Ave neighs/atom = 287.875
Neighbor list builds = 3397
Dangerous builds = 0
unfix 20
unfix 21
print "seeds:7219837"
seeds:7219837
