# ['Ni']

10 atoms
1 atom types

    0.0000     3.2458 xlo xhi
    0.0000     2.3235 ylo yhi
    0.0000    23.2351 zlo zhi

    0.0000     0.0000     0.0000 xy xz yz

Atoms

1 1     0.0000     0.0000     0.0000
2 1     1.6229     1.1618     1.1618
3 1     0.0000     0.0000     2.3235
4 1     1.6229     1.1618     3.4853
5 1     0.0000     0.0000     4.6470
6 1     1.6229     1.1618     5.8088
7 1     0.0000     0.0000     6.9705
8 1     1.6229     1.1618     8.1323
9 1     0.0000     0.0000     9.2940
10 1     1.6229     1.1618    10.4558
