# ['Ni']

107 atoms
1 atom types

    0.0000     9.6597 xlo xhi
    0.0000     9.6597 ylo yhi
    0.0000     9.6597 zlo zhi

    0.0000    -0.0000    -0.0000 xy xz yz

Atoms

1 1     1.6099     1.6099     0.0000
2 1     1.6099     0.0000     1.6099
3 1     0.0000     1.6099     1.6099
4 1     0.0000     0.0000     3.2199
5 1     1.6099     1.6099     3.2199
6 1     1.6099     0.0000     4.8298
7 1     0.0000     1.6099     4.8298
8 1     0.0000     0.0000     6.4398
9 1     1.6099     1.6099     6.4398
10 1     1.6099     0.0000     8.0497
11 1     0.0000     1.6099     8.0497
12 1     0.0000     3.2199     0.0000
13 1     1.6099     4.8298     0.0000
14 1     1.6099     3.2199     1.6099
15 1     0.0000     4.8298     1.6099
16 1     0.0000     3.2199     3.2199
17 1     1.6099     4.8298     3.2199
18 1     1.6099     3.2199     4.8298
19 1     0.0000     4.8298     4.8298
20 1     0.0000     3.2199     6.4398
21 1     1.6099     4.8298     6.4398
22 1     1.6099     3.2199     8.0497
23 1     0.0000     4.8298     8.0497
24 1     0.0000     6.4398     0.0000
25 1     1.6099     8.0497     0.0000
26 1     1.6099     6.4398     1.6099
27 1     0.0000     8.0497     1.6099
28 1     0.0000     6.4398     3.2199
29 1     1.6099     8.0497     3.2199
30 1     1.6099     6.4398     4.8298
31 1     0.0000     8.0497     4.8298
32 1     0.0000     6.4398     6.4398
33 1     1.6099     8.0497     6.4398
34 1     1.6099     6.4398     8.0497
35 1     0.0000     8.0497     8.0497
36 1     3.2199     0.0000     0.0000
37 1     4.8298     1.6099     0.0000
38 1     4.8298     0.0000     1.6099
39 1     3.2199     1.6099     1.6099
40 1     3.2199     0.0000     3.2199
41 1     4.8298     1.6099     3.2199
42 1     4.8298     0.0000     4.8298
43 1     3.2199     1.6099     4.8298
44 1     3.2199     0.0000     6.4398
45 1     4.8298     1.6099     6.4398
46 1     4.8298     0.0000     8.0497
47 1     3.2199     1.6099     8.0497
48 1     3.2199     3.2199     0.0000
49 1     4.8298     4.8298     0.0000
50 1     4.8298     3.2199     1.6099
51 1     3.2199     4.8298     1.6099
52 1     3.2199     3.2199     3.2199
53 1     4.8298     4.8298     3.2199
54 1     4.8298     3.2199     4.8298
55 1     3.2199     4.8298     4.8298
56 1     3.2199     3.2199     6.4398
57 1     4.8298     4.8298     6.4398
58 1     4.8298     3.2199     8.0497
59 1     3.2199     4.8298     8.0497
60 1     3.2199     6.4398     0.0000
61 1     4.8298     8.0497     0.0000
62 1     4.8298     6.4398     1.6099
63 1     3.2199     8.0497     1.6099
64 1     3.2199     6.4398     3.2199
65 1     4.8298     8.0497     3.2199
66 1     4.8298     6.4398     4.8298
67 1     3.2199     8.0497     4.8298
68 1     3.2199     6.4398     6.4398
69 1     4.8298     8.0497     6.4398
70 1     4.8298     6.4398     8.0497
71 1     3.2199     8.0497     8.0497
72 1     6.4398     0.0000     0.0000
73 1     8.0497     1.6099     0.0000
74 1     8.0497     0.0000     1.6099
75 1     6.4398     1.6099     1.6099
76 1     6.4398     0.0000     3.2199
77 1     8.0497     1.6099     3.2199
78 1     8.0497     0.0000     4.8298
79 1     6.4398     1.6099     4.8298
80 1     6.4398     0.0000     6.4398
81 1     8.0497     1.6099     6.4398
82 1     8.0497     0.0000     8.0497
83 1     6.4398     1.6099     8.0497
84 1     6.4398     3.2199     0.0000
85 1     8.0497     4.8298     0.0000
86 1     8.0497     3.2199     1.6099
87 1     6.4398     4.8298     1.6099
88 1     6.4398     3.2199     3.2199
89 1     8.0497     4.8298     3.2199
90 1     8.0497     3.2199     4.8298
91 1     6.4398     4.8298     4.8298
92 1     6.4398     3.2199     6.4398
93 1     8.0497     4.8298     6.4398
94 1     8.0497     3.2199     8.0497
95 1     6.4398     4.8298     8.0497
96 1     6.4398     6.4398     0.0000
97 1     8.0497     8.0497     0.0000
98 1     8.0497     6.4398     1.6099
99 1     6.4398     8.0497     1.6099
100 1     6.4398     6.4398     3.2199
101 1     8.0497     8.0497     3.2199
102 1     8.0497     6.4398     4.8298
103 1     6.4398     8.0497     4.8298
104 1     6.4398     6.4398     6.4398
105 1     8.0497     8.0497     6.4398
106 1     8.0497     6.4398     8.0497
107 1     6.4398     8.0497     8.0497
