LAMMPS (11 Aug 2017)
Reading data file ...
  triclinic box = (0 0 0) to (3.5104 2.5129 25.1291) with tilt (0 0 0)
  1 by 1 by 1 MPI processor grid
  reading atoms ...
  10 atoms
10 atoms in group Ni
Neighbor list info ...
  update every 1 steps, delay 0 steps, check yes
  max neighbors/atom: 2000, page size: 100000
  master list distance cutoff = 11
  ghost atom cutoff = 11
  binsize = 5.5, bins = 1 1 5
  1 neighbor lists, perpetual/occasional/extra = 1 0 0
  (1) pair eam/alloy, perpetual
      attributes: half, newton on
      pair build: half/bin/newton/tri
      stencil: half/bin/3d/newton/tri
      bin: standard
Setting up cg style minimization ...
  Unit style    : metal
  Current step  : 0
Per MPI rank memory allocation (min/avg/max) = 4.341 | 4.341 | 4.341 Mbytes
Step PotEng Lx Ly Lz Xy Xz Yz Press Pxx Pyy Pzz Pxy Pxz Pyz c_eatoms 
       0   -42.439551       3.5104       2.5129      25.1291            0            0            0   -47970.577   -55045.604   -53801.341   -35064.785 -4.4623896e-12 1.6498994e-12  -0.25296927   -42.439551 
       1   -42.541764       3.5104       2.5129      25.1291            0            0            0    -39651.64   -46411.425   -46397.756   -26145.738 -7.9032175e-12 6.5110349e-12  -0.24649522   -42.541764 
       2   -42.576371       3.5104       2.5129      25.1291            0            0            0   -29144.483   -35290.139   -37263.588   -14879.721 -2.6599392e-12 1.6326472e-13 -0.038412121   -42.576371 
       3   -42.598683       3.5104       2.5129      25.1291            0            0            0   -21604.182   -27644.783   -31126.819   -6040.9442 -6.6224698e-12 -2.3070111e-12   0.12906336   -42.598683 
       4   -42.603293       3.5104       2.5129      25.1291            0            0            0   -17880.578   -24283.544   -28276.113   -1082.0776 -4.1383579e-12 2.9827341e-12   0.05062279   -42.603293 
       5   -42.604079       3.5104       2.5129      25.1291            0            0            0   -17386.125    -23896.65   -27936.223   -325.50224 -5.2180062e-13 -4.0480689e-12 -0.0027902168   -42.604079 
       6   -42.604114       3.5104       2.5129      25.1291            0            0            0   -17328.585   -23868.871   -27906.047    -210.8379 -2.0319075e-11 -1.7424977e-11 -0.023348317   -42.604114 
       7   -42.604117       3.5104       2.5129      25.1291            0            0            0   -17318.318   -23868.425   -27905.371   -181.15766 -2.358339e-11 2.0065252e-12 -0.030607565   -42.604117 
       8   -42.604119       3.5104       2.5129      25.1291            0            0            0   -17217.195   -23771.017    -27824.91   -55.655907 -1.9315537e-12 2.6156395e-12 -0.033538243   -42.604119 
       9    -42.60412       3.5104       2.5129      25.1291            0            0            0   -17166.237   -23716.702   -27781.061  -0.94836652 -9.4711662e-12 -1.4850686e-11 -0.032018032    -42.60412 
      10    -42.60412       3.5104       2.5129      25.1291            0            0            0   -17165.899   -23716.387   -27780.774    -0.535062 -1.1971147e-11 -4.9360213e-13 -0.030731696    -42.60412 
      11    -42.60412       3.5104       2.5129      25.1291            0            0            0   -17166.188   -23716.763   -27781.075  -0.72451701 4.1303257e-12 -4.1641443e-13 -0.029113416    -42.60412 
      12    -42.60412       3.5104       2.5129      25.1291            0            0            0   -17166.002    -23716.63   -27780.955   -0.4218525 -7.2962949e-12 -9.3519318e-12 -0.027969448    -42.60412 
      13    -42.60412       3.5104       2.5129      25.1291            0            0            0   -17165.742   -23716.369   -27780.742  -0.11616396 -6.3807195e-12 1.9589563e-12 -0.025935094    -42.60412 
      14    -42.60412       3.5104       2.5129      25.1291            0            0            0   -17165.635   -23716.262   -27780.654  0.010470481 -7.5121854e-12 -8.7998021e-12 -0.024936274    -42.60412 
      15    -42.60412       3.5104       2.5129      25.1291            0            0            0   -17165.641   -23716.269    -27780.66 0.0064143625 -1.503397e-12 -1.1583224e-11 -0.024698459    -42.60412 
      16    -42.60412       3.5104       2.5129      25.1291            0            0            0   -17165.637   -23716.268   -27780.659  0.015969616 -9.7697298e-12 2.5305334e-11 -0.023487807    -42.60412 
      17    -42.60412       3.5104       2.5129      25.1291            0            0            0   -17165.645   -23716.275   -27780.665 0.0057531895 -3.0596402e-11  2.71974e-12 -0.020650912    -42.60412 
      18    -42.60412       3.5104       2.5129      25.1291            0            0            0   -17165.644   -23716.273   -27780.663 0.0032426801 2.3939257e-11 -9.4038841e-12 -0.018995815    -42.60412 
      19    -42.60412       3.5104       2.5129      25.1291            0            0            0   -17165.645   -23716.274   -27780.664 0.0010851514 -2.4567043e-11 -1.5360892e-12   -0.0184616    -42.60412 
      20    -42.60412       3.5104       2.5129      25.1291            0            0            0   -17165.647   -23716.275   -27780.665 1.7741509e-06 -4.4052432e-11 3.8944526e-11 -0.017080182    -42.60412 
      21    -42.60412       3.5104       2.5129      25.1291            0            0            0   -17165.652    -23716.28   -27780.669 -0.0069901835 -1.0195634e-11 -6.7639373e-11 -0.016742262    -42.60412 
      22    -42.60412       3.5104       2.5129      25.1291            0            0            0   -17165.657   -23716.285   -27780.673 -0.012637582 1.0688734e-12 -3.8184159e-12 -0.015237837    -42.60412 
      23    -42.60412       3.5104       2.5129      25.1291            0            0            0   -17165.648   -23716.277   -27780.666 -0.00010829999 -3.2861195e-11 1.1638308e-10 -0.012170354    -42.60412 
      24    -42.60412       3.5104       2.5129      25.1291            0            0            0   -17165.647   -23716.275   -27780.665 -0.0011095078 -1.9352857e-11 -1.3517527e-10 -0.0074961404    -42.60412 
      25    -42.60412       3.5104       2.5129      25.1291            0            0            0   -17165.647   -23716.275   -27780.665 -0.0011002314 9.3243332e-12 7.6597297e-11 -0.0068108737    -42.60412 
      26    -42.60412       3.5104       2.5129      25.1291            0            0            0   -17165.649   -23716.278   -27780.667 -0.001908373 6.6979923e-12 -5.7918926e-11 -0.0058874721    -42.60412 
      27    -42.60412       3.5104       2.5129      25.1291            0            0            0   -17165.644   -23716.274   -27780.663 0.0044397338 -4.1134776e-12 2.9792629e-11 -0.0048367779    -42.60412 
      28    -42.60412       3.5104       2.5129      25.1291            0            0            0   -17165.643   -23716.271   -27780.662 0.0031551692 -9.1067775e-13 -2.8483663e-10 -0.0031323575    -42.60412 
      29    -42.60412       3.5104       2.5129      25.1291            0            0            0   -17165.646   -23716.274   -27780.664 0.00039487032  1.17005e-11 8.1975529e-10 -0.0026072022    -42.60412 
      30    -42.60412       3.5104       2.5129      25.1291            0            0            0   -17165.645   -23716.274   -27780.664 0.0016651091 4.7439092e-13 -5.3538098e-10 -0.0026474656    -42.60412 
      31    -42.60412       3.5104       2.5129      25.1291            0            0            0   -17165.646   -23716.275   -27780.664 0.0010037028 1.0905898e-11 9.8935134e-10 -0.0027200398    -42.60412 
      32    -42.60412       3.5104       2.5129      25.1291            0            0            0   -17165.647   -23716.276   -27780.665 -0.00034385597 -1.7325407e-11 -1.3442128e-09 -0.002775575    -42.60412 
      33    -42.60412       3.5104       2.5129      25.1291            0            0            0   -17165.647   -23716.276   -27780.665 -0.00034385597 -1.7325407e-11 -1.3442128e-09 -0.002775575    -42.60412 
Loop time of 0.00878692 on 1 procs for 33 steps with 10 atoms

96.5% CPU use with 1 MPI tasks x no OpenMP threads

Minimization stats:
  Stopping criterion = linesearch alpha is zero
  Energy initial, next-to-last, final = 
        -42.4395506311     -42.6041200922     -42.6041200922
  Force two-norm initial, final = 0.991615 6.57944e-08
  Force max component initial, final = 0.661056 2.78512e-08
  Final line search alpha, max atom move = 0.5 1.39256e-08
  Iterations, force evaluations = 33 63

MPI task timing breakdown:
Section |  min time  |  avg time  |  max time  |%varavg| %total
---------------------------------------------------------------
Pair    | 0.007829   | 0.007829   | 0.007829   |   0.0 | 89.10
Neigh   | 0          | 0          | 0          |   0.0 |  0.00
Comm    | 0.00042224 | 0.00042224 | 0.00042224 |   0.0 |  4.81
Output  | 0.00040841 | 0.00040841 | 0.00040841 |   0.0 |  4.65
Modify  | 0          | 0          | 0          |   0.0 |  0.00
Other   |            | 0.0001273  |            |       |  1.45

Nlocal:    10 ave 10 max 10 min
Histogram: 1 0 0 0 0 0 0 0 0 0
Nghost:    1357 ave 1357 max 1357 min
Histogram: 1 0 0 0 0 0 0 0 0 0
Neighs:    1766 ave 1766 max 1766 min
Histogram: 1 0 0 0 0 0 0 0 0 0

Total # of neighbors = 1766
Ave neighs/atom = 176.6
Neighbor list builds = 0
Dangerous builds = 0
pypospack:output_section:begin
tot_energy = -42.6041200921722
num_atoms = 10
a11 = 3.5104
a22 = 2.5129
a33 = 25.1291
a12 = 0
a13 = 0
a23 = 0
tot_press = -17165.6470752393
pxx = -23716.2756652723
pyy = -27780.6652165895
pzz = -0.000343855969199423
pxy = -1.73254067295294e-11
pxz = -1.34421283132466e-09
pyz = -0.00277557501095002
pypospack:output_section:done
pypospack:lammps_sim:done
Total wall time: 0:00:00
