LAMMPS (16 Mar 2018)
Reading data file ...
  triclinic box = (0 0 0) to (4.2565 4.2565 4.2565) with tilt (0 0 0)
  1 by 1 by 1 MPI processor grid
  reading atoms ...
  8 atoms
4 atoms in group Mg
4 atoms in group O
Setting atom values ...
  4 settings made for charge
Setting atom values ...
  4 settings made for charge
PPPM initialization ...
  using 12-bit tables for long-range coulomb (../kspace.cpp:321)
  G vector (1/distance) = 0.360194
  grid = 9 9 9
  stencil order = 5
  estimated absolute RMS force accuracy = 4.16277e-05
  estimated relative force accuracy = 2.89089e-06
  using double precision FFTs
  3d grid and FFT values/proc = 4096 729
Neighbor list info ...
  update every 1 steps, delay 0 steps, check yes
  max neighbors/atom: 2000, page size: 100000
  master list distance cutoff = 11
  ghost atom cutoff = 11
  binsize = 5.5, bins = 1 1 1
  1 neighbor lists, perpetual/occasional/extra = 1 0 0
  (1) pair buck/coul/long, perpetual
      attributes: half, newton on
      pair build: half/bin/newton/tri
      stencil: half/bin/3d/newton/tri
      bin: standard
Setting up cg style minimization ...
  Unit style    : metal
  Current step  : 0
WARNING: Energy due to 3 extra global DOFs will be included in minimizer energies
Per MPI rank memory allocation (min/avg/max) = 4.994 | 4.994 | 4.994 Mbytes
Step PotEng Xhi Xlo Yhi Ylo Zhi Xy Xz Yz Press Pxx Pyy Pzz Pxy Pxz Pyz c_eatoms 
       0   -210.47072       4.2565            0       4.2565            0       4.2565            0            0            0   -826137.05   -826137.05   -826137.05   -826137.05 -1.3708942e-10 -2.3961531e-11 2.4931547e-10   -210.47072 
      10   -211.64393    4.2352175    0.0212825    4.2352175    0.0212825    4.2352175            0            0            0    -814328.5    -814328.5    -814328.5    -814328.5 9.4020328e-11 -2.0301454e-12 -1.0709627e-10   -211.64393 
      20   -212.77368     4.213935     0.042565     4.213935     0.042565     4.213935            0            0            0   -797595.33   -797595.33   -797595.33   -797595.33 4.0388832e-10 -1.2506626e-11 4.0462843e-10   -212.77368 
      30   -213.85394    4.1926525    0.0638475    4.1926525    0.0638475    4.1926525            0            0            0   -775196.28   -775196.28   -775196.28   -775196.28 3.9686407e-10 -6.6358812e-11 6.6955253e-10   -213.85394 
      40   -214.87775      4.17137      0.08513      4.17137      0.08513      4.17137            0            0            0   -746285.28   -746285.28   -746285.28   -746285.28 3.9637799e-10 2.4516127e-10 9.9373784e-10   -214.87775 
      50   -215.84023    4.1500875    0.1064125    4.1500875    0.1064125    4.1500875            0            0            0   -709977.57   -709977.57   -709977.57   -709977.57 5.5388628e-10  2.53177e-10 -1.3075989e-10   -215.84023 
      60   -216.72793     4.128805     0.127695     4.128805     0.127695     4.128805            0            0            0   -665016.49   -665016.49   -665016.49   -665016.49 5.5464868e-11 3.4103392e-10 1.3581932e-09   -216.72793 
      70   -217.53455    4.1075225    0.1489775    4.1075225    0.1489775    4.1075225            0            0            0    -610326.3    -610326.3    -610326.3    -610326.3 6.7167888e-10 6.3895054e-11 -1.8145589e-10   -217.53455 
      80   -218.25684      4.08624      0.17026      4.08624      0.17026      4.08624            0            0            0   -544595.53   -544595.53   -544595.53   -544595.53 -5.3486287e-10 -2.7781442e-10 3.2160073e-10   -218.25684 
      90    -218.8691    4.0649575    0.1915425    4.0649575    0.1915425    4.0649575            0            0            0   -465721.08   -465721.08   -465721.08   -465721.08 -5.5747564e-10 -1.1509465e-09 -1.2698024e-09    -218.8691 
     100    -219.3666     4.043675     0.212825     4.043675     0.212825     4.043675            0            0            0   -372216.81   -372216.81   -372216.81   -372216.81 1.5222812e-10 -5.1683866e-10 -9.5222816e-10    -219.3666 
     110   -219.73529    4.0223925    0.2341075    4.0223925    0.2341075    4.0223925            0            0            0   -261821.76   -261821.76   -261821.76   -261821.76 1.3187692e-09 8.1293609e-11 1.3546951e-10   -219.73529 
     120   -219.96044      4.00111      0.25539      4.00111      0.25539      4.00111            0            0            0   -132183.59   -132183.59   -132183.59   -132183.59 4.2742231e-10 8.7564033e-10 1.3205369e-09   -219.96044 
     130   -220.02709    3.9823452   0.27415476    3.9823452   0.27415476    3.9823452            0            0            0    64.401656    64.401656    64.401656    64.401656 1.3079177e-09 2.3226836e-11 9.0261492e-10   -220.02709 
     132   -220.02709    3.9823542   0.27414575    3.9823542   0.27414575    3.9823542            0            0            0    -3.689441    -3.689441    -3.689441    -3.689441 -1.2280101e-09 1.220862e-10 4.2379331e-10   -220.02709 
Loop time of 0.120325 on 1 procs for 132 steps with 8 atoms

99.5% CPU use with 1 MPI tasks x no OpenMP threads

Minimization stats:
  Stopping criterion = linesearch alpha is zero
  Energy initial, next-to-last, final = 
        -210.470718682     -220.027092963     -220.027092963
  Force two-norm initial, final = 68.8748 0.00109995
  Force max component initial, final = 39.7649 0.000245852
  Final line search alpha, max atom move = 0.0078125 1.92072e-06
  Iterations, force evaluations = 132 160

MPI task timing breakdown:
Section |  min time  |  avg time  |  max time  |%varavg| %total
---------------------------------------------------------------
Pair    | 0.030534   | 0.030534   | 0.030534   |   0.0 | 25.38
Kspace  | 0.027547   | 0.027547   | 0.027547   |   0.0 | 22.89
Neigh   | 0.00011683 | 0.00011683 | 0.00011683 |   0.0 |  0.10
Comm    | 0.0019066  | 0.0019066  | 0.0019066  |   0.0 |  1.58
Output  | 0.00022745 | 0.00022745 | 0.00022745 |   0.0 |  0.19
Modify  | 0          | 0          | 0          |   0.0 |  0.00
Other   |            | 0.05999    |            |       | 49.86

Nlocal:    8 ave 8 max 8 min
Histogram: 1 0 0 0 0 0 0 0 0 0
Nghost:    2189 ave 2189 max 2189 min
Histogram: 1 0 0 0 0 0 0 0 0 0
Neighs:    2952 ave 2952 max 2952 min
Histogram: 1 0 0 0 0 0 0 0 0 0

Total # of neighbors = 2952
Ave neighs/atom = 369
Neighbor list builds = 1
Dangerous builds = 0
pypospack:output_section:begin
tot_energy = -220.027092962816
num_atoms = 8
a11 = 3.70820849871694
a22 = 3.70820849871694
a33 = 3.70820849871694
a12 = 0
a13 = 0
a23 = 0
tot_press = -3.68944098428004
pxx = -3.68944098376929
pyy = -3.68944099099844
pzz = -3.68944097807239
pxy = -1.22801008217265e-09
pxz = 1.22086202416239e-10
pyz = 4.23793309269158e-10
pypospack:output_section:done
pypospack:lammps_sim:done
Total wall time: 0:00:00
