# ['Ni']

28 atoms
1 atom types

    0.0000     2.4797 xlo xhi
    0.0000     4.2950 ylo yhi
    0.0000    28.3456 zlo zhi

    0.0000     0.0000     0.0000 xy xz yz

Atoms

1 1     0.0000     0.0000     0.0000
2 1     1.2399     2.1475     0.0000
3 1     1.2399     0.7158     2.0247
4 1     0.0000     2.8633     2.0247
5 1     0.0000     1.4317     4.0494
6 1     1.2399     3.5792     4.0494
7 1     0.0000     0.0000     6.0741
8 1     1.2399     2.1475     6.0741
9 1     1.2399     0.7158     8.0987
10 1     0.0000     2.8633     8.0987
11 1     0.0000     1.4317    10.1234
12 1     1.2399     3.5792    10.1234
13 1     0.0000     0.0000    12.1481
14 1     1.2399     2.1475    12.1481
15 1     0.0000     1.4317    14.1728
16 1     1.2399     3.5792    14.1728
17 1     0.0000     0.0000    16.1975
18 1     1.2399     2.1475    16.1975
19 1     1.2399     0.7158    18.2222
20 1     0.0000     2.8633    18.2222
21 1     0.0000     1.4317    20.2469
22 1     1.2399     3.5792    20.2469
23 1     0.0000     0.0000    22.2716
24 1     1.2399     2.1475    22.2716
25 1     1.2399     0.7158    24.2963
26 1     0.0000     2.8633    24.2963
27 1     0.0000     1.4317    26.3209
28 1     1.2399     3.5792    26.3209
