LAMMPS (10 Feb 2015)
Reading data file ...
  triclinic box = (0 0 0) to (4.2565 4.2565 4.2565) with tilt (0 0 0)
  1 by 1 by 1 MPI processor grid
  reading atoms ...
  8 atoms
4 atoms in group Mg
4 atoms in group O
Setting atom values ...
  4 settings made for charge
Setting atom values ...
  4 settings made for charge
PPPM initialization ...
  G vector (1/distance) = 0.352506
  grid = 8 8 8
  stencil order = 5
  estimated absolute RMS force accuracy = 3.81426e-05
  estimated relative force accuracy = 2.64886e-06
  using double precision FFTs
  3d grid and FFT values/proc = 3375 512
Neighbor list info ...
  1 neighbor list requests
  update every 1 steps, delay 0 steps, check yes
  master list distance cutoff = 11
Setting up minimization ...
Memory usage per processor = 4.06549 Mbytes
Step PotEng Lx Ly Lz Xy Xz Yz Press Pxx Pyy Pzz Pxy Pxz Pyz eatoms 
       0   -108.09373       4.2565       4.2565       4.2565            0            0            0    -32837.55    -32837.55    -32837.55    -32837.55 6.8800808e-12 1.9793426e-10 1.5308399e-10   -108.09373 
       9   -108.11055     4.226584     4.226584     4.226584            0            0            0    13.792758    13.792758    13.792758    13.792758 -4.4920118e-11 -8.154534e-11 2.0970287e-11   -108.11055 
Loop time of 0.0100331 on 1 procs for 9 steps with 8 atoms

Minimization stats:
  Stopping criterion = linesearch alpha is zero
  Energy initial, next-to-last, final = 
         -108.09372829     -108.110551709     -108.110551709
  Force two-norm initial, final = 4.74176 0.0024943
  Force max component initial, final = 4.74176 0.00196378
  Final line search alpha, max atom move = 0.00390625 7.67103e-06
  Iterations, force evaluations = 9 28

Pair  time (%) = 0.00269246 (26.8357)
Kspce time (%) = 0.00153995 (15.3486)
Neigh time (%) = 0 (0)
Comm  time (%) = 0.000293732 (2.92762)
Outpt time (%) = 0 (0)
Other time (%) = 0.00550699 (54.8881)

Nlocal:    8 ave 8 max 8 min
Histogram: 1 0 0 0 0 0 0 0 0 0
Nghost:    2189 ave 2189 max 2189 min
Histogram: 1 0 0 0 0 0 0 0 0 0
Neighs:    2344 ave 2344 max 2344 min
Histogram: 1 0 0 0 0 0 0 0 0 0

Total # of neighbors = 2344
Ave neighs/atom = 293
Neighbor list builds = 0
Dangerous builds = 0
pypospack:output_section:begin
tot_energy = -108.110551708828
num_atoms = 8
xx = 4.22658398474032
yy = 4.22658398474032
zz = 4.22658398474032
xy = 0
xz = 0
yz = 0
tot_press = 13.7927584127517
pxx = 13.7927584125475
pyy = 13.7927584121258
pzz = 13.7927584135819
pxy = -4.49201179574407e-11
pxz = -8.15453399591787e-11
pyz = 2.09702873442201e-11
pypospack:output_section:done
pypospack:lammps_sim:done
PPPM initialization ...
  G vector (1/distance) = 0.352801
  grid = 8 8 8
  stencil order = 5
  estimated absolute RMS force accuracy = 3.76353e-05
  estimated relative force accuracy = 2.61363e-06
  using double precision FFTs
  3d grid and FFT values/proc = 3375 512
Setting up run ...
Memory usage per processor = 3.06549 Mbytes
Step Temp PotEng KinEng TotEng Press Lx Ly Lz Press Pxx Pyy Pzz Pxy Pxz Pyz Volume 
       0          200   -108.11055    0.1809642   -107.92959    2574.1416     4.226584     4.226584     4.226584    2574.1416    1745.9442    892.87894    5083.6017    139.90442    963.84805    1645.2942    75.503748 
     100    101.76068   -107.99611  0.092075206   -107.90403   -1159.8255    4.2321277    4.2321277    4.2321277   -1159.8255    2869.1108   -4254.1103   -2094.4768    177.23283   -195.10462   -1870.6557    75.801238 
     200    124.80551   -107.96782   0.11292665    -107.8549   -3322.1083    4.2338412    4.2338412    4.2338412   -3322.1083     -81.0743   -8240.2546   -1644.9961    631.47953    491.37855   -3559.4766    75.893344 
     300    182.87739   -107.97734    0.1654713   -107.81187    7554.6933    4.2289175    4.2289175    4.2289175    7554.6933    4975.4734    411.11106    17277.495   -150.95208   -1118.5118    781.96525    75.628875 
     400    86.861665   -107.85969   0.07859426   -107.78109    1455.2871    4.2334577    4.2334577    4.2334577    1455.2871     8810.672   -4072.6767   -372.13397     9.266712   -2885.3345   -2910.3672    75.872725 
     500    105.59821   -107.85458  0.095547477   -107.75904   -5847.8837    4.2371238    4.2371238    4.2371238   -5847.8837    1416.8637   -11187.933   -7772.5815     26.21872   -361.71525   -5088.6624    76.070006 
     600    269.84873   -107.99161    0.2441648   -107.74745    5643.2754    4.2300153    4.2300153    4.2300153    5643.2754     6350.365    428.45106     10151.01   -486.92643   -1092.7374     619.1279    75.687789 
     700    213.67671   -107.93986   0.19333918   -107.74652     1701.598    4.2329542    4.2329542    4.2329542     1701.598    8290.2805   -2619.1396   -566.34709    616.84611    561.13762   -2688.3301    75.845654 
     800    211.75241   -107.93894   0.19159803   -107.74734   -9457.2865    4.2393901    4.2393901    4.2393901   -9457.2865    -7540.026   -16944.151   -3887.6824   -1026.3821   -91.809145   -4117.9848    76.192133 
     900    290.56762   -108.00985   0.26291168   -107.74694    8421.8903    4.2287343    4.2287343    4.2287343    8421.8903     6578.599    1968.4098    16718.662    962.13132      346.003    2718.7308    75.619045 
    1000    209.52224   -107.93825   0.18958013   -107.74867    3211.1049    4.2324202    4.2324202    4.2324202    3211.1049    3236.6378   -3715.2083    10111.885    749.15251    1031.1902   -3184.8353    75.816955 
    1100    119.38803   -107.85738    0.1080248   -107.74936   -8796.0165    4.2404619    4.2404619    4.2404619   -8796.0165   -4317.2708   -17777.892   -4292.8868    176.64042   -1629.3031   -5822.3096    76.249938 
    1200    210.73631   -107.93887   0.19067865   -107.74819    9554.8758    4.2276984    4.2276984    4.2276984    9554.8758    10211.406    4459.1941    13994.027    1652.1181   -389.49916    1044.3445    75.563489 
    1300    197.94935   -107.92744   0.17910873   -107.74834    -477.9741    4.2331408    4.2331408    4.2331408    -477.9741    5701.3755   -3919.4619   -3215.8359   -1030.7065    -1381.341   -2060.5277    75.855685 
    1400    103.07485   -107.84196  0.093264287    -107.7487   -12905.935    4.2412917    4.2412917    4.2412917   -12905.935   -2963.4586   -18188.272   -17566.076    1123.9842    1060.9357   -6187.6996    76.294712 
    1500    261.65764     -107.985   0.23675333   -107.74824     7730.801    4.2274858    4.2274858    4.2274858     7730.801    7788.3306    3924.1931    11479.879   -715.36493   -53.067609   -30.300505    75.552089 
    1600    231.27973   -107.95818   0.20926676   -107.74892    3764.4299    4.2331679    4.2331679    4.2331679    3764.4299    1642.7401   -5971.3001     15621.85   -1261.0507   -138.44251   -319.32797    75.857141 
    1700    155.79428    -107.8898   0.14096594   -107.74884   -11649.302    4.2413034    4.2413034    4.2413034   -11649.302   -10129.817   -19715.216   -5102.8735    969.11618     375.3718   -5391.2582    76.295341 
    1800    269.87237   -107.99272   0.24418619   -107.74853    7872.1181    4.2275232    4.2275232    4.2275232    7872.1181    7065.9703    1875.9804    14674.404   -780.44757   -998.97926    590.43054    75.554094 
    1900    252.88895   -107.97763   0.22881924   -107.74881   -897.50634    4.2335324    4.2335324    4.2335324   -897.50634    2713.1785    -6293.919    888.22155    636.48953    -591.6898   -2063.1682    75.876742 
    2000     121.5844   -107.85819   0.11001212   -107.74818   -14680.743    4.2413557    4.2413557    4.2413557   -14680.743   -3101.5433   -19066.857   -21873.827    301.59412   -862.33504   -6918.9614    76.298165 
    2100    190.50694    -107.9206   0.17237468   -107.74823    8346.4478    4.2285196    4.2285196    4.2285196    8346.4478    11240.494    2060.4184    11738.431   -431.76432    2605.1948     1046.834    75.607529 
    2200    206.69457   -107.93566   0.18702159   -107.74864    700.78029    4.2331076    4.2331076    4.2331076    700.78029    5661.8783   -6073.0607    2513.5233    437.16766    1770.3711   -1311.8229    75.853902 
    2300    68.222087   -107.80984  0.061728778   -107.74812   -12000.706    4.2414137    4.2414137    4.2414137   -12000.706     -7271.38   -18641.133   -10089.605   -92.358583    905.54636   -6903.2774    76.301293 
    2400    232.65941    -107.9585   0.21051513   -107.74799    6835.1561    4.2293368    4.2293368    4.2293368    6835.1561    7959.2771    -1258.324    13804.515   -689.10295    445.10261    722.90026    75.651376 
    2500     286.6385   -108.00761   0.25935654   -107.74825    2082.6395    4.2323119    4.2323119    4.2323119    2082.6395    83.586207   -5443.3283    11607.661   -215.93906   -771.04144    99.278008    75.811135 
    2600    185.30787   -107.91524   0.16767046   -107.74757   -14087.815     4.242296     4.242296     4.242296   -14087.815   -8754.0394    -19946.86   -13562.546   -7.0071596    475.08453   -6428.5966    76.348923 
    2700    277.97908   -107.99906   0.25152132   -107.74754    4575.1382    4.2300899    4.2300899    4.2300899    4575.1382    5765.5361   -1710.4459    9670.3243   -837.57673   -2450.2874   -452.43262    75.691792 
    2800    245.78055   -107.97161   0.22238741   -107.74922    3323.5796    4.2306643    4.2306643    4.2306643    3323.5796    6254.6852   -2948.2134     6664.267     21.16768    -284.5141   -1535.1348    75.722633 
    2900    103.70188   -107.84197  0.093831637   -107.74814   -12312.149    4.2430137    4.2430137    4.2430137   -12312.149   -6535.7034   -19885.694    -10515.05   -954.02013    2229.4528    -5073.806    76.387675 
    3000    116.99315   -107.85435   0.10585786   -107.74849    12054.799     4.229746     4.229746     4.229746    12054.799    13646.733   -866.57646    23384.241   -197.10212    2367.2306    513.53699    75.673331 
    3100    244.62073   -107.96939   0.22133798   -107.74805    5367.7175    4.2293153    4.2293153    4.2293153    5367.7175    7447.2159   -1114.9604    9770.8971    95.675426     3062.061   -162.74951    75.650217 
    3200    113.75909   -107.85138   0.10293162   -107.74845   -12967.393    4.2449297    4.2449297    4.2449297   -12967.393   -4861.7746   -20276.048   -13764.355   -1218.5406    -1178.925   -5188.7552    76.491207 
    3300    263.52969   -107.98641    0.2384472   -107.74796    3522.8069    4.2296622    4.2296622    4.2296622    3522.8069     8109.256   -2036.1865    4495.3513    1130.6555    1367.1432    -70.74248    75.668835 
    3400    286.98852   -108.00753   0.25967324   -107.74786    7214.2943    4.2292544    4.2292544    4.2292544    7214.2943     7143.036   -892.31857    15392.166   -1102.4688   -1566.2055    1533.6472    75.646954 
    3500    188.11469   -107.91775   0.17021012   -107.74754   -12580.997    4.2453459    4.2453459    4.2453459   -12580.997   -11476.641   -21805.029   -4461.3194    46.021311   -2172.4032   -6098.2681    76.513707 
    3600    186.17755     -107.917   0.16845736   -107.74854    7999.8145    4.2289942    4.2289942    4.2289942    7999.8145    10333.341   -2413.0214    16079.124    677.52671   -157.80111   -1170.1832    75.632992 
    3700    231.59646   -107.95725   0.20955335    -107.7477    7332.2751    4.2288538    4.2288538    4.2288538    7332.2751    7903.2727    -522.4661    14616.019   -2200.4781   -256.30897    1465.3651    75.625458 
    3800    158.35137   -107.89114   0.14327964   -107.74786   -15012.653    4.2458874    4.2458874    4.2458874   -15012.653   -6252.8676   -20770.661    -18014.43    21.881472    3403.2507   -4345.6101    76.542991 
    3900    132.29092   -107.86821   0.11969961   -107.74851       7549.5    4.2287874    4.2287874    4.2287874       7549.5    17191.203   -902.50187    6359.7992   -349.69529   -1411.5592    107.83016    75.621896 
    4000    277.48003   -107.99755   0.25106976   -107.74648    4040.5703    4.2295431    4.2295431    4.2295431    4040.5703    6565.6918   -728.49598    6284.5151   -1907.2208    755.48595     1120.453    75.662446 
    4100    139.37614   -107.87356   0.12611046   -107.74745    -11519.62    4.2448796    4.2448796    4.2448796    -11519.62   -4011.5078   -18193.723   -12353.628    121.99469   -268.48067   -4520.2298    76.488496 
    4200    197.76969   -107.92764   0.17894617    -107.7487    2961.7686    4.2296254    4.2296254    4.2296254    2961.7686    6930.6327   -4095.5526    6050.2256     306.8987   -985.05762   -570.60209    75.666862 
    4300    239.32857   -107.96415   0.21654952    -107.7476    9633.8575    4.2295492    4.2295492    4.2295492    9633.8575     5296.979     363.2974    23241.296   -920.80911    686.18032    1385.8826    75.662771 
    4400    229.03651   -107.95493   0.20723705   -107.74769    -11558.28    4.2442156    4.2442156    4.2442156    -11558.28   -5702.8641   -19064.668   -9907.3068    979.91268   -1458.7999   -5147.9232    76.452607 
    4500    156.96072   -107.89094   0.14202136   -107.74892    4672.5701    4.2306429    4.2306429    4.2306429    4672.5701    8596.8605   -3168.3327    8589.1825   -188.91687    2700.7776   -1379.9795     75.72148 
    4600     279.2041    -107.9998   0.25262974   -107.74717    3002.7029    4.2296407    4.2296407    4.2296407    3002.7029     6581.329   -875.51114    3302.2908   -1244.9806   -1067.2384     2241.106    75.667683 
    4700    157.29397   -107.89032   0.14232289   -107.74799    -9236.276    4.2430869    4.2430869    4.2430869    -9236.276    1910.3624   -15662.659   -13956.531    100.68338   -554.20818   -2611.6631    76.391628 
    4800    141.53185   -107.87735   0.12806099   -107.74929    3509.3742     4.231679     4.231679     4.231679    3509.3742    2486.0942   -4128.0514     12170.08   -950.41721   -1425.9614   -1407.6736    75.777131 
    4900    196.71823   -107.92588   0.17799478   -107.74788    10489.667    4.2287325    4.2287325    4.2287325    10489.667    11773.689    654.59007    19040.723   -116.57381   -818.10224    1543.4876    75.618949 
    5000    201.32712   -107.92982   0.18216501   -107.74765   -9149.2584    4.2432242    4.2432242    4.2432242   -9149.2584   -9429.3933   -15648.615    -2369.767   -740.66684    1447.5782   -2651.0009    76.399045 
    5100    206.83215   -107.93571   0.18714608   -107.74856    -1155.414    4.2328702    4.2328702    4.2328702    -1155.414   -1420.8775   -4949.1284     2903.764    402.52465   -802.93537   -1956.5888     75.84114 
    5200    240.90774    -107.9652   0.21797838   -107.74722    8363.9609    4.2287495    4.2287495    4.2287495    8363.9609    9035.0397    1050.3129     15006.53   -195.77513    1861.7887    2050.7775    75.619863 
    5300    277.26219   -107.99767   0.25087266   -107.74679   -10894.766    4.2432658    4.2432658    4.2432658   -10894.766   -9483.9173   -15878.715   -7321.6658   -648.08365   -441.64193   -3681.8441    76.401294 
    5400    119.55719   -107.85723   0.10817786   -107.74905    5485.9584    4.2326353    4.2326353    4.2326353    5485.9584    3848.8654   -3573.0736    16182.084    1364.8911   -1231.6603   -1219.8431    75.828512 
    5500    203.63061   -107.93176   0.18424925   -107.74751    7787.2244    4.2286559    4.2286559    4.2286559    7787.2244    9875.1619   -348.02124    13834.533   -1021.1695   -3485.1314    3736.7013    75.614842 
    5600    178.41872   -107.90876   0.16143701   -107.74732   -8139.1616      4.24331      4.24331      4.24331   -8139.1616   -9077.5641   -15111.225   -228.69588   -150.69242   -1632.7976   -2080.1848    76.403679 
    5700    146.00872   -107.88074   0.13211176   -107.74862    1387.8894    4.2325797    4.2325797    4.2325797    1387.8894    4189.7414   -3419.2797    3393.2065    804.89742    629.13807    -1748.108    75.825524 
    5800    234.36595   -107.95889   0.21205924   -107.74683    4914.3588    4.2292364    4.2292364    4.2292364    4914.3588    4910.6226   -1212.2504    11044.704   -1124.4619   -1484.9609    1897.6135    75.645985 
    5900    237.79611   -107.96259   0.21516292   -107.74743   -11119.161    4.2435336    4.2435336    4.2435336   -11119.161   -11496.461   -14486.337   -7374.6845   -375.35613    2519.4898   -1537.6102    76.415759 
    6000    178.79938   -107.91063   0.16178144   -107.74885   -1390.3023     4.232164     4.232164     4.232164   -1390.3023   -2412.9294   -4559.9165     2801.939   -239.25883   -1244.1007   -2579.9537    75.803185 
    6100    195.96497   -107.92542   0.17731323   -107.74811    5826.7997    4.2303763    4.2303763    4.2303763    5826.7997    84.040163   -3323.9166    20720.276   -838.17564    608.90239    1713.3958    75.707168 
    6200    245.27442   -107.96932   0.22192945   -107.74739   -8895.4573    4.2431224    4.2431224    4.2431224   -8895.4573   -9178.5588   -15740.377   -1767.4358   -521.09768   -2914.3926   -1746.1228     76.39355 
    6300    132.77444   -107.86937    0.1201371   -107.74923    4021.2308    4.2316905    4.2316905    4.2316905    4021.2308    5462.6391   -3179.0866    9780.1398    686.63821    -3039.366   -1674.8901    75.777747 
    6400    249.59505   -107.97338   0.22583885   -107.74754    514.76359    4.2315989    4.2315989    4.2315989    514.76359    6990.1765   -4857.8225   -588.06321   -1341.4942    1218.1443    2906.5484    75.772824 
    6500    193.89883   -107.92294   0.17544373   -107.74749   -7573.4875    4.2418665    4.2418665    4.2418665   -7573.4875   -3411.8625   -11244.573   -8064.0269    493.89917     -613.996   -960.79651    76.325733 
    6600    170.45176   -107.90269   0.15422833   -107.74847    103.08576    4.2320974    4.2320974    4.2320974    103.08576    1695.1225   -4231.4983    2845.6331    846.81001    3271.8016   -3108.7305     75.79961 
    6700    155.79497   -107.88905   0.14096656   -107.74809    6468.1138    4.2321415    4.2321415    4.2321415    6468.1138    2183.7994   -4146.2914    21366.833   -1503.9267    -274.8121    2031.8907    75.801979 
    6800    222.07141   -107.94783   0.20093487   -107.74689   -5592.4383    4.2409602    4.2409602    4.2409602   -5592.4383   -8161.6076   -11189.004    2573.2966    476.43802    1103.0292   -329.92936    76.276821 
    6900    202.46621   -107.93159   0.18319568   -107.74839   -88.152308    4.2327852    4.2327852    4.2327852   -88.152308   -1429.7755    -5112.824    6278.1426   -1113.8085   -603.41526   -3427.5109    75.836569 
    7000    215.43512    -107.9431   0.19493022   -107.74817    3120.1343    4.2323904    4.2323904    4.2323904    3120.1343    4265.9445   -4578.3252    9672.7836   -532.14709   -2852.4662    2383.6549    75.815353 
    7100     293.6777   -108.01257   0.26572576   -107.74685    -7251.124    4.2402305    4.2402305    4.2402305    -7251.124   -5777.8948    -10426.13   -5549.3473   -277.06563    754.73113   -401.76613    76.237459 
    7200    158.46242    -107.8919   0.14338013   -107.74852    5013.0879    4.2335222    4.2335222    4.2335222    5013.0879    6224.6949   -5744.6543    14559.223   -966.24057    814.66743    -2528.781    75.876191 
    7300     177.0671   -107.90869   0.16021404   -107.74848    5517.1368    4.2317144    4.2317144    4.2317144    5517.1368    7923.0551   -3652.3231    12280.678    899.51191    3371.8401    2789.8902    75.779033 
    7400     151.5205   -107.88491   0.13709893   -107.74782    111.97712    4.2392901    4.2392901    4.2392901    111.97712   -332.87899   -8433.8236    9102.6339   -559.01771    2314.9036   -1132.9572    76.186745 
    7500    204.31747   -107.93376   0.18487074   -107.74889   -936.86197    4.2345956    4.2345956    4.2345956   -936.86197    1556.6963   -6963.5192     2596.237    1025.4743    1201.4731   -2952.0759    75.933922 
    7600    148.65286   -107.88322   0.13450423   -107.74872    6515.9537    4.2306552    4.2306552    4.2306552    6515.9537    6769.6105    -490.0095     13268.26   -269.57021   -556.98269    1975.4678     75.72214 
    7700    286.05962   -108.00614   0.25883276   -107.74731   -8753.8898    4.2408635    4.2408635    4.2408635   -8753.8898   -8177.5734   -11595.919   -6488.1769   -1037.6168   -1296.8449    1447.7633    76.271607 
    7800    223.97981   -107.95096   0.20266164   -107.74829   -838.08444    4.2353217    4.2353217    4.2353217   -838.08444    588.89227   -8094.4131    4991.2675    617.09081   -1719.7837   -3096.9851     75.97299 
    7900    173.50298    -107.9055   0.15698914   -107.74851    7101.8982     4.229553     4.229553     4.229553    7101.8982    7454.6423   -1141.8779     14992.93   -1241.6081    -1039.536    1261.7457    75.662977 
    8000    243.43263   -107.96802   0.22026296   -107.74775   -5215.2966    4.2414134    4.2414134    4.2414134   -5215.2966   -4965.5081   -14599.466    3919.0839    -1088.956    376.42777    1344.3596    76.301278 
    8100    183.06644   -107.91405   0.16564236   -107.74841    3735.9238    4.2343825    4.2343825    4.2343825    3735.9238    5822.7246   -6925.8782    12310.925   -70.108166    2715.9147   -3695.7614     75.92246 
    8200    182.12397   -107.91268    0.1647896   -107.74789    5400.2126    4.2292355    4.2292355    4.2292355    5400.2126    14851.207   -573.10819    1922.5388    160.23311    1712.5586    1296.6478    75.645936 
    8300    190.76027   -107.92027    0.1726039   -107.74767   -7181.3564    4.2420206    4.2420206    4.2420206   -7181.3564   -3174.5855   -13642.274   -4727.2094    43.195703     -49.4329     1235.837    76.334051 
    8400    219.23436   -107.94595   0.19836786   -107.74758   -235.65507    4.2346061    4.2346061    4.2346061   -235.65507    7663.3066   -6702.4696   -1667.8022    651.12162    925.27938   -3043.5202    75.934485 
    8500    133.47434   -107.86871   0.12077039   -107.74794    10225.431    4.2287894    4.2287894    4.2287894    10225.431    9809.1039     1988.207    18878.983    214.10236   -2201.2978    2946.0935    75.622004 
    8600    218.07523   -107.94562   0.19731905    -107.7483   -7759.3174    4.2413451    4.2413451    4.2413451   -7759.3174   -9210.9144    -15656.34    1589.3023   -764.47273    584.74393    2569.1177    76.297592 
    8700    230.01307   -107.95706   0.20812066   -107.74894    -119.7137    4.2355657    4.2355657    4.2355657    -119.7137    819.54828    -7520.226    6341.5366    879.43113   -599.71141   -3433.4912    75.986118 
    8800     207.6586   -107.93553   0.18789387   -107.74764    6902.1814    4.2289358    4.2289358    4.2289358    6902.1814    12191.754    241.62863    8273.1611   -1797.2887    400.60533    2008.5269    75.629855 
    8900    227.99211    -107.9541   0.20629206   -107.74781   -8185.3822    4.2411325    4.2411325    4.2411325   -8185.3822    -4408.213   -16696.685   -3451.2489   -1118.4752     986.3951     2237.764    76.286118 
    9000    222.97747   -107.95035    0.2017547   -107.74859    321.49722    4.2367555    4.2367555    4.2367555    321.49722    5261.0263   -9162.1842    4865.6495    58.984703   -1949.5914   -2603.6736    76.050173 
    9100    172.03668   -107.90369    0.1556624   -107.74803     7907.291    4.2282683    4.2282683    4.2282683     7907.291    8407.3864    760.44143    14554.045   -415.95666    21.246157    1600.1358    75.594048 
    9200    136.40079   -107.87221    0.1234183   -107.74879   -7357.1255    4.2400707    4.2400707    4.2400707   -7357.1255    -6915.997   -16449.611    1294.2319    493.51474   -2204.9277    3305.9175    76.228836 
    9300    229.94673   -107.95706   0.20806064     -107.749   -4482.7817    4.2381707    4.2381707    4.2381707   -4482.7817   -4947.1519   -10636.913    2135.7199   -732.20955    2964.5125   -679.43304    76.126408 
    9400     193.6531   -107.92242   0.17522139    -107.7472    6656.3132    4.2284741    4.2284741    4.2284741    6656.3132    5979.6179    1884.8232    12104.499    955.43133    765.97117    1558.4521    75.605087 
    9500    206.50518   -107.93486   0.18685022   -107.74801    -11381.19    4.2401782    4.2401782    4.2401782    -11381.19   -9271.0171   -17712.884   -7159.6705   -336.61879   -299.55518    4224.5856    76.234637 
    9600    243.33483    -107.9685   0.22017447   -107.74833   -5863.9285    4.2397039    4.2397039    4.2397039   -5863.9285   -6301.1966   -11455.648    165.05935   -353.03542    1445.5122   -2155.1345    76.209058 
    9700    214.44938   -107.94105   0.19403831   -107.74701    6137.2561    4.2284444    4.2284444    4.2284444    6137.2561    10871.697   -332.60157    7872.6725   -303.09865   -2787.3376    542.38294    75.603495 
    9800    124.34282    -107.8609     0.112508   -107.74839   -3635.6512    4.2390303    4.2390303    4.2390303   -3635.6512   -3668.9953   -16802.288    9564.3296   -1453.6745   -3560.3504    4371.9317    76.172739 
    9900    213.16656   -107.94085   0.19287758   -107.74797   -2102.1251    4.2397841    4.2397841    4.2397841   -2102.1251     762.9632   -13149.911     6080.572    299.56145   -4078.0576   -1703.3191    76.213381 
   10000    182.19143   -107.91234   0.16485064   -107.74749    8478.8437    4.2291785    4.2291785    4.2291785    8478.8437    9596.4591    -845.6438    16685.716   -307.11382   -1250.9511    939.19881    75.642877 
   10100    166.74844   -107.89914   0.15087749   -107.74827   -8504.1725    4.2392179    4.2392179    4.2392179   -8504.1725   -3223.3755   -16169.137   -6120.0047   -870.43421    -463.8355    3615.4509     76.18285 
   10200    265.50395   -107.98772   0.24023355   -107.74748   -9811.1676    4.2408552    4.2408552    4.2408552   -9811.1676   -8167.8476   -13294.291   -7971.3642   -177.25026    3453.1772   -975.08107    76.271155 
   10300    214.19721   -107.94055   0.19381014   -107.74674    7025.6308    4.2296115    4.2296115    4.2296115    7025.6308     8628.761   -15.694508    12463.826    653.05617     1286.388    1594.4155    75.666113 
   10400    208.03498   -107.93665   0.18823442   -107.74841   -6911.8626     4.238114     4.238114     4.238114   -6911.8626   -7028.7558   -15624.574    1917.7419   -504.60035    665.27351    3220.2627    76.123354 
   10500     161.7768   -107.89496   0.14637905   -107.74858   -937.07209    4.2403746    4.2403746    4.2403746   -937.07209    -362.0354   -13175.973    10726.792    627.91597   -2781.5764   -1248.8527    76.245228 
   10600    252.82436    -107.9763   0.22876079   -107.74754    7884.4886    4.2294594    4.2294594    4.2294594    7884.4886    10229.573    -1902.133    15326.026   -82.182147    -5221.756     956.9631    75.657952 
   10700     110.3778   -107.84958  0.099872153   -107.74971    2559.9824    4.2374131    4.2374131    4.2374131    2559.9824    12762.813   -13684.151    8601.2846   -1227.8208   -1850.2212    2703.2261    76.085592 
   10800    226.04609   -107.95232   0.20453126   -107.74779   -4933.3138    4.2405912    4.2405912    4.2405912   -4933.3138    3155.0253    -14672.78   -3282.1869    833.69593   -2769.3445   -246.61647    76.256915 
   10900    253.81095   -107.97665   0.22965348     -107.747    7134.3837    4.2305863    4.2305863    4.2305863    7134.3837    14483.702   -2342.4582     9261.907   -886.76781     3082.869    -154.2768    75.718441 
   11000    169.84709   -107.90221   0.15368122   -107.74852   -3665.0049    4.2369803    4.2369803    4.2369803   -3665.0049    4031.7469   -12121.987   -2904.7747   -169.20567    824.88456    3406.4607    76.062277 
   11100    215.33845   -107.94231   0.19484276   -107.74747   -9333.6612    4.2405371    4.2405371    4.2405371   -9333.6612   -9237.3993   -16074.019   -2689.5654   -629.09757     1995.138    1153.9846    76.253997 
   11200    242.54809   -107.96641   0.21946261   -107.74695    5944.4599    4.2322832    4.2322832    4.2322832    5944.4599    8290.2638   -3455.2787    12998.395    69.938533    2108.4467   -536.05648     75.80959 
   11300    140.97899   -107.87623   0.12756075   -107.74867    2384.8547    4.2346273    4.2346273    4.2346273    2384.8547    8999.0504   -10431.711    8587.2253    -365.8084   -4040.8606    3909.0794    75.935624 
   11400    155.97314   -107.88941   0.14112777   -107.74828    -4786.111    4.2406352    4.2406352    4.2406352    -4786.111    2173.9014   -17222.938     690.7032   -850.97881   -861.10974    665.21547    76.259286 
   11500     261.8775   -107.98448   0.23695227   -107.74753     3339.452    4.2337184    4.2337184    4.2337184     3339.452    14611.783   -7358.5197    2765.0925     1253.319   -4051.6594    197.93708    75.886741 
   11600    133.88174   -107.87037   0.12113901   -107.74923    4906.7058    4.2320711    4.2320711    4.2320711    4906.7058    19797.541   -7014.8366    1937.4127   -1699.8402    193.82496     5069.745    75.798194 
   11700    246.81639   -107.97151   0.22332466   -107.74819   -12948.452    4.2414758    4.2414758    4.2414758   -12948.452   -9448.7881   -19954.745    -9441.824    1770.1819   -449.46268   -89.773885    76.304644 
   11800    233.62962   -107.95974   0.21139299   -107.74835    3095.2923    4.2352228    4.2352228    4.2352228    3095.2923    8890.8185   -5479.1661    5874.2245    346.04834   -165.83619     476.2512    75.967665 
   11900    230.30607   -107.95726   0.20838577   -107.74887    637.75932    4.2294414    4.2294414    4.2294414    637.75932      6667.06   -5368.9819    615.19986    -933.8087    2559.0213    4663.1867    75.656987 
   12000    115.91886   -107.85426   0.10488582   -107.74938   -8755.6195    4.2421832    4.2421832    4.2421832   -8755.6195   -3619.3586   -18573.693    -4073.807    109.56696   -2363.1572   -53.121771    76.342828 
   12100    214.14875   -107.94195   0.19376629   -107.74818    990.80465    4.2365717    4.2365717    4.2365717    990.80465    15442.551   -10484.034   -1986.1034   -449.12878    833.50194    709.04827    76.040275 
   12200    173.06367   -107.90477   0.15659165   -107.74818    9644.4681    4.2273598    4.2273598    4.2273598    9644.4681    20808.964   -798.27882     8922.719   -654.27557   -1530.1284    4130.8479    75.545333 
   12300     160.3343   -107.89384   0.14507385   -107.74877    -9495.096    4.2431501    4.2431501    4.2431501    -9495.096   -2285.3123    -19738.96   -6461.0159   -975.30212    -650.6411    89.354098    76.395042 
   12400    264.71983   -107.98737   0.23952407   -107.74785   -2556.0228    4.2366231    4.2366231    4.2366231   -2556.0228     766.2685   -9474.2807     1039.944    1160.3056    174.56004    981.56068    76.043043 
   12500    257.82352   -107.98067   0.23328414   -107.74739    7014.0903    4.2273431    4.2273431    4.2273431    7014.0903    18076.579    384.34272    2581.3498   -521.96918   -2309.8977    2788.6963    75.544436 
   12600    168.49196   -107.90112   0.15245507   -107.74867   -8638.2104     4.243134     4.243134     4.243134   -8638.2104   -3694.0227   -19194.135   -3026.4735     1988.804   -622.92465   -114.45306    76.394172 
   12700    184.72782   -107.91528   0.16714561   -107.74814    1290.5213    4.2364723    4.2364723    4.2364723    1290.5213    16093.846   -9971.1174   -2251.1641     1238.561   -996.26561    1188.8958    76.034924 
   12800     217.8536    -107.9442   0.19711851   -107.74708    9661.5885    4.2282324    4.2282324    4.2282324    9661.5885    20447.735   -708.47367    9245.5042    99.791812   -1579.9751    2397.6871    75.592123 
   12900    121.76645    -107.8591   0.11017684   -107.74892   -5612.7984    4.2417436    4.2417436    4.2417436   -5612.7984    2176.4965   -17106.035   -1908.8566   -225.63523   -1463.6627    464.15091    76.319102 
   13000    213.35072   -107.94138   0.19304422   -107.74833   -4736.6061    4.2366021    4.2366021    4.2366021   -4736.6061   -1396.5589   -11252.371   -1560.8887    452.07803    1078.2843    403.00207    76.041911 
   13100     253.2841   -107.97599   0.22917678   -107.74681    6323.2833     4.230493     4.230493     4.230493    6323.2833    13902.266   -3096.4768     8164.061   -78.835517    1752.4533    1822.5372    75.713436 
   13200    193.76231    -107.9241   0.17532021   -107.74878   -6264.2973    4.2401344    4.2401344    4.2401344   -6264.2973   -1950.6414   -14701.463   -2140.7873   -1194.6633    1244.9316    573.94595    76.232271 
   13300    195.02347    -107.9253   0.17646134   -107.74884   -4298.7682     4.237649     4.237649     4.237649   -4298.7682    4092.9958   -13453.195   -3536.1051    2144.8973    801.56182   -1226.0786      76.0983 
   13400    212.01455   -107.93933   0.19183522    -107.7475    8518.7584    4.2318219    4.2318219    4.2318219    8518.7584    24496.881    -4360.275    5419.6695   -237.93406   -1589.2741    1311.5552    75.784806 
   13500    217.71875   -107.94561    0.1969965   -107.74861   -6132.5351    4.2383986    4.2383986    4.2383986   -6132.5351    709.98797   -13747.635   -5359.9577    2240.0117    -2150.327    418.54234     76.13869 
   13600    128.17892   -107.86496   0.11597898   -107.74898   -3114.0007    4.2377785    4.2377785    4.2377785   -3114.0007    1588.0232   -13060.235    2130.2093    1255.7144   -1757.0875   -871.63397    76.105277 
   13700    283.94763   -108.00378   0.25692179   -107.74685    940.77236    4.2336846    4.2336846    4.2336846    940.77236    2423.0983   -6739.9649    7139.1837    63.764252   -753.90896    2102.1018    75.884923 
   13800    177.20172   -107.90903   0.16033584    -107.7487   -1875.2956    4.2366923    4.2366923    4.2366923   -1875.2956    1771.9225   -8901.5289    1503.7194    105.76184    1626.9985    402.95815    76.046772 
   13900    138.61973   -107.87429   0.12542605   -107.74887   -4360.0465    4.2382439    4.2382439    4.2382439   -4360.0465   -1136.6656   -14289.633    2346.1588   -674.45359    2901.5686   -531.14577    76.130349 
   14000    205.00608   -107.93326   0.18549381   -107.74776    5979.7652     4.233937     4.233937     4.233937    5979.7652    25079.799   -6143.3363   -997.16673   -404.12235    2956.2179    2184.9786    75.898495 
   14100    219.40553    -107.9467   0.19852273   -107.74818   -77.183002    4.2356127    4.2356127    4.2356127   -77.183002    8243.1236   -7704.6411   -770.03151   -1700.5443     1221.441   -672.36237    75.988647 
   14200    155.35194   -107.88953    0.1405657   -107.74897   -4438.1494    4.2385335    4.2385335    4.2385335   -4438.1494    2258.2288   -14545.452   -1027.2254    1383.6727    152.97478   -804.55766    76.145961 
   14300    278.04901   -107.99929   0.25158459    -107.7477    65.578328    4.2348593    4.2348593    4.2348593    65.578328    8102.2863   -6892.0247   -1013.5266   -33.729647   -400.30269     1688.285    75.948106 
   14400    263.81179   -107.98649   0.23870245   -107.74778   -1195.9926     4.235122     4.235122     4.235122   -1195.9926    2257.2194   -5462.4999   -382.69734    1334.3956   -2834.8412   -957.66059    75.962245 
   14500    101.92142   -107.84155  0.092220647   -107.74933   -1731.0454    4.2376657    4.2376657    4.2376657   -1731.0454    8547.8664    -14040.87    299.86745    1009.0597    1991.4691   -188.90089    76.099197 
   14600    235.87298   -107.96221   0.21342283   -107.74879   -642.06539    4.2353999    4.2353999    4.2353999   -642.06539    12540.405   -8850.3897   -5616.2118    313.38198    120.74454    1468.6088    75.977195 
   14700    141.28728    -107.8763    0.1278397   -107.74846    9449.7202    4.2338455    4.2338455    4.2338455    9449.7202    21208.357   -1982.3882    9123.1919   -59.785884    1736.0464   -314.26854    75.893577 
   14800    199.56873   -107.93016   0.18057398   -107.74958   -6473.5864    4.2376503    4.2376503    4.2376503   -6473.5864   -268.65447   -16513.782   -2638.3227   -719.55317    1912.3626    600.83869    76.098366 
   14900    193.91722   -107.92469   0.17546037   -107.74923    665.59469    4.2357893    4.2357893    4.2357893    665.59469     8818.079   -6297.3176   -523.97731    75.154949   -1217.9543    1455.6151    75.998155 
   15000    311.29475   -108.02937   0.28166603   -107.74771   -360.96691    4.2345341    4.2345341    4.2345341   -360.96691    2706.8769   -3600.5087   -189.26891   -1458.0895    1462.7359   -49.876668    75.930613 
   15100    153.92313   -107.88888   0.13927288   -107.74961   -2092.9423    4.2367256    4.2367256    4.2367256   -2092.9423    6597.3632   -13501.814    625.62442    1524.3011   -1858.6574    159.04414    76.048562 
   15200    185.96549   -107.91774   0.16826549   -107.74947   -932.00302    4.2363471    4.2363471    4.2363471   -932.00302    9935.9666   -8446.4473   -4285.5284    199.51197    1306.3814    1257.9382     76.02818 
   15300    199.93377   -107.92897   0.18090428   -107.74806     6417.745    4.2344474    4.2344474    4.2344474     6417.745     16446.16   -3258.5026    6065.5779    1134.4318    108.30261     411.4612    75.925949 
   15400    161.29156   -107.89495   0.14593999   -107.74901   -2735.9149    4.2360992    4.2360992    4.2360992   -2735.9149     6067.363   -13855.784   -419.32401     233.8829    320.64733   -373.37639    76.014835 
   15500     186.8271   -107.91773   0.16904509   -107.74868   -3663.5395    4.2367989    4.2367989    4.2367989   -3663.5395   -2169.9825   -7446.1653   -1374.4706    327.49295    1175.6096    1531.6788    76.052512 
   15600    241.17695     -107.966   0.21822198   -107.74778    2343.8347    4.2350722    4.2350722    4.2350722    2343.8347    7023.5928   -3765.1809    3773.0922    125.74355   -3223.5744    638.32943    75.959563 
   15700    232.80797    -107.9591   0.21064954   -107.74845   -3324.2357    4.2354129    4.2354129    4.2354129   -3324.2357    182.82287   -12316.198     2160.668   -1467.9325    749.51552   -1168.2059    75.977899 
   15800    120.37748   -107.85841   0.10892008   -107.74949    3272.0038    4.2368174    4.2368174    4.2368174    3272.0038    16923.771    -6749.152   -358.60747    606.84496   -2522.0847    1816.5636    76.053508 
   15900     265.8797   -107.98839   0.24057354   -107.74782    1416.8019    4.2355508    4.2355508    4.2355508    1416.8019    11912.352    -7284.842   -377.10408   -1555.9065     784.2922    477.81769    75.985316 
   16000    188.59807   -107.91921    0.1706475   -107.74856    885.07857     4.234902     4.234902     4.234902    885.07857    12857.147   -9541.2837   -660.62753    1074.3855    2083.6035    -1505.237    75.950404 
   16100    178.08863   -107.91022   0.16113834   -107.74908   -2286.5963    4.2371751    4.2371751    4.2371751   -2286.5963   -610.28478   -7303.3876    1053.8836    -186.5197    365.78922     2095.445    76.072769 
   16200    253.82833   -107.97749   0.22966921   -107.74782    -945.5785    4.2362173    4.2362173    4.2362173    -945.5785    4909.4037    -7094.464   -651.67521    597.55637    1024.1243   -105.67161    76.021196 
   16300    190.18799   -107.92059   0.17208609    -107.7485    2855.8887    4.2343073    4.2343073    4.2343073    2855.8887    9595.5769   -7377.1146    6349.2038   -50.300766   -3004.0841   -1544.9013    75.918412 
   16400     125.1746   -107.86288   0.11326061   -107.74962    2381.9665    4.2366572    4.2366572    4.2366572    2381.9665    12859.389   -7963.0649    2249.5749     456.9756   -521.55297     1959.908    76.044877 
   16500    221.23751   -107.94832   0.20018034   -107.74814    853.23598     4.236234     4.236234     4.236234    853.23598    16927.254   -7886.6901   -6480.8562    592.02021   -3139.4944   -372.47213    76.022092 
   16600    221.86541   -107.94952   0.20074848   -107.74877    2350.7943    4.2344914    4.2344914    4.2344914    2350.7943    8911.0381   -6825.8145    4967.1593   -969.10405    1491.8387     -1039.55    75.928317 
   16700     173.2531   -107.90603   0.15676305   -107.74927   -63.937193    4.2361024    4.2361024    4.2361024   -63.937193    6458.3847   -6258.7227   -391.47358    1183.6297    531.68465     1898.684     76.01501 
   16800    305.27242   -108.02391    0.2762169    -107.7477   -6972.4294    4.2379122    4.2379122    4.2379122   -6972.4294    -4113.419   -10909.618   -5894.2512   -1190.1707    302.20321   -744.65097    76.112477 
   16900    172.67849   -107.90457   0.15624313   -107.74833     5129.239    4.2344422    4.2344422    4.2344422     5129.239    14748.244   -3783.7309    4423.2035    315.05501    814.06541   -1257.2039    75.925667 
   17000    165.67929   -107.89902    0.1499101   -107.74911   -1179.3192    4.2351657    4.2351657    4.2351657   -1179.3192    7033.5182   -8455.9768   -2115.4991   -720.67162   -2472.4324    1661.3627    75.964596 
   17100    163.48683   -107.89662   0.14792632   -107.74869   -676.99135    4.2383577    4.2383577    4.2383577   -676.99135     14499.19   -11008.154   -5522.0098    398.61221   -181.86269    -678.5052    76.136485 
   17200    178.50414   -107.90971   0.16151429   -107.74819    5655.0262    4.2345721    4.2345721    4.2345721    5655.0262    13000.741   -3488.2741    7452.6116    24.543537   -3215.0931   -1248.2048    75.932657 
   17300    207.33033     -107.936   0.18759684   -107.74841   -1728.6499    4.2343056    4.2343056    4.2343056   -1728.6499    1812.3665   -8096.3361    1098.0199    876.42867    666.54428    1041.2644    75.918321 
   17400    215.63064    -107.9431   0.19510714   -107.74799   -4946.1967    4.2399304    4.2399304    4.2399304   -4946.1967   -1851.3105   -12362.629   -624.65015    1481.6617    910.85134   -102.60397    76.221272 
   17500    275.64627   -107.99687   0.24941054   -107.74746   -299.12933     4.234605     4.234605     4.234605   -299.12933    5882.7144   -3903.1067   -2876.9957   -870.87564    1035.0266   -621.00321    75.934426 
   17600    153.47406    -107.8882   0.13886656   -107.74933     2933.413     4.233374     4.233374     4.233374     2933.413    12508.446   -7349.0951    3640.8881    1409.5464    1562.6359    1009.7731    75.868221 
   17700    208.12651   -107.93689   0.18831724   -107.74858   -4717.9811    4.2405045    4.2405045    4.2405045   -4717.9811     7841.043   -14491.624   -7503.3622   -1001.6781   -3333.9127    302.30809    76.252237 
   17800    170.85097   -107.90279   0.15458955    -107.7482    7340.9018    4.2339344    4.2339344    4.2339344    7340.9018    18922.332   -788.75701     3889.131   -824.66229    -356.2066   -1499.1352    75.898355 
   17900    205.52263   -107.93425    0.1859612   -107.74829    6.7740361    4.2338379    4.2338379    4.2338379    6.7740361     2050.454   -7854.7144    5824.5825    -713.6296   -3234.4371    1128.2511    75.893168 
   18000     173.7802   -107.90548   0.15723998   -107.74824   -3954.4155    4.2407441    4.2407441    4.2407441   -3954.4155    1165.7617   -12552.179   -476.82911   -28.898778   -147.76495   -701.41621    76.265162 
   18100    261.65856   -107.98411   0.23675416   -107.74736    1267.9998     4.234426     4.234426     4.234426    1267.9998    1829.4755   -1464.0814    3438.6053    109.13673    1649.4363   -3114.2682      75.9248 
   18200    153.25126   -107.88689   0.13866496   -107.74822    5488.6812    4.2341646    4.2341646    4.2341646    5488.6812    14085.355     -6122.78    8503.4687    2056.0754    1520.2924    1432.5544     75.91074 
   18300    204.31159   -107.93308   0.18486542   -107.74822   -3859.1745    4.2393889    4.2393889    4.2393889   -3859.1745    5185.7376   -11804.917   -4958.3435    2593.5731     1887.513   -204.96847     76.19207 
   18400    205.24317   -107.93385   0.18570833   -107.74814    4046.9438    4.2348268    4.2348268    4.2348268    4046.9438    13414.777    -1504.637    230.69106    532.00449    -1191.014   -2313.0269     75.94636 
   18500    197.29981   -107.92648   0.17852102   -107.74796    2606.3411    4.2344948    4.2344948    4.2344948    2606.3411    11779.036   -6924.5188    2964.5061    2270.7287   -830.40174    2237.6292    75.928497 
   18600    224.54383   -107.95104   0.20317197   -107.74787   -5895.6268    4.2382963    4.2382963    4.2382963   -5895.6268   -3866.6921   -11583.668     -2236.52   -724.22715    -1210.207    552.15737    76.133175 
   18700    193.17543   -107.92305   0.17478919   -107.74826    1635.4024    4.2364249    4.2364249    4.2364249    1635.4024    5378.3802   -3050.8595    2578.6863   -787.41413   -2051.0808   -1403.0159    76.032371 
   18800    229.95999   -107.95583   0.20807263   -107.74775    1039.6535    4.2342584    4.2342584    4.2342584    1039.6535    4177.3168   -8308.0698    7249.7135   -1372.3203    1075.8889    1828.0312     75.91578 
   18900    134.50315    -107.8705   0.12170127    -107.7488    759.10653    4.2363875    4.2363875    4.2363875    759.10653     10223.97   -9779.2391     1832.589    404.32148    839.40125    -840.0701    76.030355 
   19000    228.93413   -107.95554   0.20714441   -107.74839   -2754.7254     4.238202     4.238202     4.238202   -2754.7254    5674.5695   -8372.5384   -5566.2073    738.13711    325.11144   -2671.6721    76.128091 
   19100    188.27573   -107.91835   0.17035584     -107.748    5706.9279     4.233275     4.233275     4.233275    5706.9279    19287.968   -5777.3579    3610.1734    1830.9301    637.23941    1023.5257    75.862901 
   19200    231.75441   -107.95786   0.20969626   -107.74816   -4162.7953    4.2363888    4.2363888    4.2363888   -4162.7953   -2837.3115   -9887.5109    236.43657    3523.8064   -1910.6417   -1289.9257    76.030427 
   19300    210.03361   -107.93833   0.19004283   -107.74829   -3374.0123    4.2398945    4.2398945    4.2398945   -3374.0123    2318.5139   -6975.4423   -5465.1086   -654.66363    865.25625   -2118.6702    76.219332 
   19400    243.52798   -107.96801   0.22034923   -107.74766     3219.226    4.2319013    4.2319013    4.2319013     3219.226    8616.2166   -3398.6573    4440.1187    2257.1127    480.06898    1355.7591    75.789071 
   19500    132.24537   -107.86865   0.11965839   -107.74899     1340.767    4.2358565    4.2358565    4.2358565     1340.767    8666.3844   -6998.0512    2353.9676   -919.98232    542.64809    472.27746    76.001772 
   19600    166.06208   -107.89895   0.15025646    -107.7487   -3202.1142    4.2405726    4.2405726    4.2405726   -3202.1142    13058.764   -11295.225   -11369.882   -2258.7243    1611.5201   -1609.7948    76.255911 
   19700    207.17565   -107.93575   0.18745688   -107.74829    7388.7935    4.2305646    4.2305646    4.2305646    7388.7935    14784.582   -1576.2907    8958.0893   -396.54353   -276.55598   -10.389579    75.717278 
   19800    177.73968   -107.90954    0.1608226   -107.74872   -589.36618    4.2369997    4.2369997    4.2369997   -589.36618    7759.9363   -8577.6986   -950.33627   -455.37815    1390.5899    796.30207    76.063325 
   19900     245.6591   -107.97013   0.22227752   -107.74786    -9209.384    4.2411528    4.2411528    4.2411528    -9209.384   -3486.7509   -14395.691   -9745.7104    749.27274   -2413.8223   -2629.1552    76.287212 
   20000    244.89832   -107.96878   0.22158915    -107.7472    4165.8104    4.2307995    4.2307995    4.2307995    4165.8104     12155.43    -1700.585    2042.5868    889.52386    890.70989   -767.90703    75.729891 
   20100    201.80326    -107.9305   0.18259583   -107.74791   -2415.1708    4.2373598    4.2373598    4.2373598   -2415.1708    5194.8192   -11599.062   -841.26897    2221.5549    1091.7255    307.52914    76.082722 
   20200    180.20193   -107.91075   0.16305049    -107.7477   -5581.1841    4.2404625    4.2404625    4.2404625   -5581.1841    9160.9522    -15845.79   -10058.714   -880.77673    829.17264   -3818.4724    76.249973 
   20300     188.0341   -107.91801   0.17013721   -107.74787    6786.3586    4.2312034    4.2312034    4.2312034    6786.3586    13126.661   -1505.8453    8738.2606    291.26731    4924.9778    484.06052    75.751581 
   20400    156.55348   -107.89015   0.14165288    -107.7485    663.21935    4.2372079    4.2372079    4.2372079    663.21935    10141.515   -10970.519    2818.6622   -59.779991    1647.7607    1252.6329    76.074537 
   20500    192.59495   -107.92209   0.17426396   -107.74783   -7728.9536    4.2400721    4.2400721    4.2400721   -7728.9536   -5341.0968   -14967.853   -2877.9106   -1609.0497    1432.8365   -3030.8858    76.228913 
   20600    216.66957   -107.94352   0.19604718   -107.74747    2555.8378    4.2331117    4.2331117    4.2331117    2555.8378    5068.7087   -2188.4926    4787.2973   -366.60193   -1526.5251    1314.6216    75.854121 
   20700    225.96253   -107.95229   0.20445564   -107.74784    -1892.673    4.2361248    4.2361248    4.2361248    -1892.673    643.21121   -9793.3637    3472.1336    278.71295   -2438.8707    1963.0593    76.016212 
   20800    201.36899   -107.93059   0.18220289   -107.74839    -6659.179    4.2403796    4.2403796    4.2403796    -6659.179    2303.4238   -14458.427   -7822.5337    452.08019    -1097.164   -3176.7072      76.2455 
   20900    207.73113   -107.93599   0.18795949   -107.74803    3322.1366    4.2338171    4.2338171    4.2338171    3322.1366    10421.366   -4053.4635    3598.5067    504.51186    1445.9121    128.25475     75.89205 
   21000     206.4971   -107.93505   0.18684292   -107.74821    1095.8115    4.2348606    4.2348606    4.2348606    1095.8115     9909.613   -8915.9779    2293.7993    2278.8913    2575.6591   -271.84908     75.94818 
   21100    131.44912   -107.86751   0.11893792   -107.74857   -2110.1906    4.2400943    4.2400943    4.2400943   -2110.1906    2323.6138   -15248.925    6594.7391   -1149.5253    3386.9902   -4183.7655    76.230111 
   21200    230.34931   -107.95613    0.2084249    -107.7477    1544.2316     4.234403     4.234403     4.234403    1544.2316    945.59358   -6624.1026    10311.204    553.51508    2960.1983   -150.95333    75.923562 
   21300    189.77976   -107.91992   0.17171671    -107.7482    3565.2429    4.2342964    4.2342964    4.2342964    3565.2429    5884.6328   -7152.6213    11963.717    537.57872   -551.22259     17.15766    75.917825 
   21400    189.64426   -107.91991   0.17159411   -107.74831   -5966.8316     4.239537     4.239537     4.239537   -5966.8316   -5978.6102   -15491.614     3569.729   -2302.4079    419.80495   -2559.8177    76.200056 
   21500    258.09425   -107.98119    0.2335291   -107.74766   -2019.2327    4.2355605    4.2355605    4.2355605   -2019.2327    6364.7237   -7585.9401   -4836.4816    497.52133   -2804.1976   -342.15212    75.985841 
   21600    205.02897   -107.93308   0.18551452   -107.74757    3888.8351    4.2339235    4.2339235    4.2339235    3888.8351    3820.3875   -6376.6947    14222.812   -239.46201   -780.68146    908.06332    75.897772 
   21700    181.98275   -107.91293   0.16466182   -107.74826   -3290.1977    4.2382954    4.2382954    4.2382954   -3290.1977    4157.3394   -15172.604    1144.6715   -708.78814    708.93126   -2875.0613    76.133128 
   21800    188.96842   -107.91958   0.17098259    -107.7486    2259.1858    4.2364174    4.2364174    4.2364174    2259.1858    1584.3582   -9740.2503    14933.449   -505.27099    1237.3534   -2796.9018    76.031968 
   21900    192.25326   -107.92259   0.17395479   -107.74864    5038.2193    4.2333762    4.2333762    4.2333762    5038.2193    8632.5209   -5419.4778    11901.615    978.51902    2270.8972    367.74863    75.868342 
   22000    175.55517   -107.90828   0.15884601   -107.74944   -4903.5122    4.2370426    4.2370426    4.2370426   -4903.5122   -4622.4672   -13900.857    3812.7873   -824.26247    -349.3497   -5011.7103    76.065636 
   22100     201.9266   -107.93153   0.18270743   -107.74882   -1331.3882    4.2380765    4.2380765    4.2380765   -1331.3882    5128.2559   -10136.806    1014.3859   -605.18087    1763.6745   -2111.6996    76.121332 
   22200    277.15159   -107.99808   0.25077258   -107.74731    1031.5926    4.2327722    4.2327722    4.2327722    1031.5926    1256.9173   -3958.7236     5796.584    1410.1457   -1796.2028    1340.5204    75.835871 
   22300    112.52889   -107.85138    0.1018185   -107.74957   -123.14632    4.2365283    4.2365283    4.2365283   -123.14632    3712.3799   -12308.713    8226.8938   -2337.5198    717.18567   -3760.8322    76.037937 
   22400     252.4988   -107.97745   0.22846622   -107.74898   -5108.4608    4.2391059    4.2391059    4.2391059   -5108.4608   -156.54057   -14416.625   -752.21646    11.967546    1063.5664   -1087.5165     76.17681 
   22500    150.81952   -107.88473   0.13646467   -107.74827    10792.291    4.2313429    4.2313429    4.2313429    10792.291    9933.1731   -1710.0743    24153.774    268.28725   -264.02285    1229.7113    75.759073 
   22600     208.3073   -107.93701   0.18848082   -107.74853   -5854.5653    4.2371618    4.2371618    4.2371618   -5854.5653   -2775.9844   -15516.488    728.77696   -1822.4738    988.32653   -3844.9982    76.072054 
   22700    188.03052   -107.91881   0.17013397   -107.74868   -358.89068    4.2388603    4.2388603    4.2388603   -358.89068    5174.3875     -12363.9    6112.8409   -343.06658   -1051.5496   -3031.2802    76.163575 
   22800    294.83257   -108.01406   0.26677071   -107.74729    1588.8226     4.231735     4.231735     4.231735    1588.8226    339.78127   -1899.0239    6325.7103    364.09964   -612.86985     792.2242    75.780138 
   22900     140.5532   -107.87614   0.12717549   -107.74897    -2364.568    4.2379657    4.2379657    4.2379657    -2364.568    2085.0206    -12978.47    3799.7454   -490.42011    -970.0877   -2466.8395     76.11536 
   23000    221.95001   -107.94961   0.20082503   -107.74878    -2989.205    4.2383971    4.2383971    4.2383971    -2989.205   -3351.7561   -13488.389    7872.5302    -1929.507    1243.6092   -1738.0157     76.13861 
   23100    185.34148    -107.9156   0.16770087    -107.7479     9058.329    4.2311655    4.2311655    4.2311655     9058.329    5852.9425     1070.879    20251.166    1026.3067    1505.4388    1301.0056    75.749547 
   23200    150.78462   -107.88516    0.1364331   -107.74873   -3495.9289    4.2383065    4.2383065    4.2383065   -3495.9289    238.82413   -14968.823    4242.2125   -1440.8856    1228.1638   -2120.0432    76.133727 
   23300    224.75328   -107.95228   0.20336149   -107.74892   -4765.0613    4.2377401    4.2377401    4.2377401   -4765.0613    1811.4478   -13197.239   -2909.3931   -1451.0564    139.66904   -2846.4998    76.103204 
   23400    229.67018   -107.95628   0.20781041   -107.74847     4610.009    4.2324448    4.2324448    4.2324448     4610.009    6234.1589   -742.04602    8337.9141    1590.0376   -1571.6673    698.35096    75.818278 
   23500    205.06396    -107.9347   0.18554618   -107.74916   -6977.3137     4.239194     4.239194     4.239194   -6977.3137   -3398.1983   -16202.919   -1330.8241   -1891.2898   -2591.4584   -2582.0844    76.181562 
   23600    186.82802   -107.91808   0.16904592   -107.74904   -2441.6109    4.2369779    4.2369779    4.2369779   -2441.6109   -1614.9301   -12722.939    7013.0362    214.22615    182.42027   -4299.6677     76.06215 
   23700    227.40931   -107.95326   0.20576472    -107.7475    4173.9582    4.2325217    4.2325217    4.2325217    4173.9582    1636.8347   -1894.3972    12779.437    123.04819   -1207.4761    2014.9003    75.822409 
   23800    162.07281   -107.89538   0.14664689   -107.74873    -4891.424    4.2390297    4.2390297    4.2390297    -4891.424   -2484.9754   -15667.415    3478.1187   -1145.6975    320.47948   -2062.1787    76.172705 
   23900    188.04566   -107.91906   0.17014767   -107.74892    -3659.058     4.236199     4.236199     4.236199    -3659.058    3730.3089   -12902.564   -1804.9187   -1129.9666    2415.5702   -3239.1707    76.020211 
   24000    209.90009   -107.93767   0.18992201   -107.74775    3737.3812    4.2340886    4.2340886    4.2340886    3737.3812    6753.8879   -1902.9039    6361.1596   -875.43087   -2908.2623    1830.6236    75.906652 
   24100    239.61294   -107.96499   0.21680682   -107.74818    -8900.822     4.238841     4.238841     4.238841    -8900.822   -3755.0154   -16275.502   -6671.9484   -679.11331    162.71699   -2897.5871    76.162535 
   24200    110.22751   -107.84875  0.099736167   -107.74901    1807.7643    4.2357881    4.2357881    4.2357881    1807.7643    9417.0372   -9280.5442    5286.8001   -1925.6235   -2743.3998   -4103.1349    75.998088 
   24300    284.18376   -108.00447   0.25713544   -107.74733    37.690913    4.2345381    4.2345381    4.2345381    37.690913   -3889.8535   -4904.9592    8907.8854    1378.2019   -936.77765   -102.73933    75.930829 
   24400    135.72786   -107.87222   0.12280942   -107.74942    2477.7716    4.2367143    4.2367143    4.2367143    2477.7716    3762.3634   -11586.228    15257.179   -404.01298    68.273166   -2918.8548    76.047955 
   24500    194.01188   -107.92499   0.17554603   -107.74944   -2014.1976    4.2370778    4.2370778    4.2370778   -2014.1976    831.82391   -11720.181    4845.7646   -465.18712    -160.6907   -4384.3201    76.067533 
   24600    248.13099    -107.9725   0.22451413   -107.74799    2805.9605    4.2347376    4.2347376    4.2347376    2805.9605    4937.8481    -4282.503    7762.5363     759.2577     3576.479    1577.8813    75.941558 
   24700    219.72051   -107.94715   0.19880774   -107.74834   -2638.2281    4.2364153    4.2364153    4.2364153   -2638.2281    3305.0137   -10785.455   -434.24283   -674.74776   -3172.4551   -244.33609    76.031852 
   24800    155.96845   -107.88997   0.14112353   -107.74884   -1059.8254     4.238092     4.238092     4.238092   -1059.8254    7295.3179   -12775.165    2300.3713   -503.43764    964.06747   -2795.0631    76.122166 
   24900    229.68471   -107.95549   0.20782356   -107.74767    5742.1664    4.2334673    4.2334673    4.2334673    5742.1664    3190.7104   -5094.8692    19130.658   -1005.8153   -3055.1689    1592.8967    75.873242 
   25000    178.36506   -107.91013   0.16138846   -107.74874    2858.3001    4.2357956    4.2357956    4.2357956    2858.3001    9468.6966   -10045.945    9152.1489    -597.2987   -1508.5845   -279.89982    75.998492 
   25100    162.70015   -107.89648   0.14721451   -107.74926   -2507.4587    4.2388551    4.2388551    4.2388551   -2507.4587   -6749.7538   -13872.641    13100.019   -1409.2578     1569.392   -3983.1479    76.163292 
   25200    255.40623   -107.97885   0.23109692   -107.74775    3167.8313    4.2331266    4.2331266    4.2331266    3167.8313    11384.223   -3945.1098    2064.3803     659.6114     -2012.04   -322.51201     75.85492 
   25300    237.15772   -107.96244   0.21458529   -107.74786   -1297.4759    4.2367562    4.2367562    4.2367562   -1297.4759    133.14857   -9480.6097    5455.0335   -289.05451    4043.9846   -399.85066    76.050212 
   25400    171.02894   -107.90336   0.15475058   -107.74861    -3703.904    4.2386769    4.2386769    4.2386769    -3703.904    552.17336   -11656.926   -6.9594817   -344.11754   -2235.1073   -3572.7284    76.153686 
   25500    219.56647   -107.94683   0.19866835   -107.74816    3894.9701    4.2329196    4.2329196    4.2329196    3894.9701    8637.3253   -5256.5055    8304.0906    2050.2634    1475.7144    2854.1635    75.843795 
   25600    170.15597   -107.90214    0.1539607   -107.74818    1776.9481    4.2368361    4.2368361    4.2368361    1776.9481    3425.9649   -7926.0416    9830.9209   -628.24084   -1537.9532    2315.5984    76.054515 
   25700    164.65986   -107.89788   0.14898771   -107.74889   -6006.3491     4.238269     4.238269     4.238269   -6006.3491    -5729.563   -13255.594    966.10955    492.99357   -1836.7647   -2896.9724    76.131706 
   25800    158.58766   -107.89217   0.14349345   -107.74868    5346.8624    4.2332457    4.2332457    4.2332457    5346.8624    14218.214   -6113.7406    7936.1138   -412.73035    1735.1277    2237.8765    75.861328 
   25900    296.56709   -108.01592   0.26834014   -107.74758   -5739.0619    4.2372877    4.2372877    4.2372877   -5739.0619   -5002.8392   -9725.3744    -2488.972   -131.96509   -4262.0869     1020.944    76.078836 
   26000    139.79573   -107.87555   0.12649011   -107.74906   -3872.8186    4.2376041    4.2376041    4.2376041   -3872.8186    3005.2103   -12063.121    -2560.545   -575.61744    3246.7105   -4759.1912     76.09588 
   26100    255.07838   -107.97928   0.23080028   -107.74848   -2590.4663    4.2342837    4.2342837    4.2342837   -2590.4663    6944.1836   -10777.773   -3937.8097   -1389.2827   -2177.4499   -55.025629    75.917142 
   26200     209.0384    -107.9379   0.18914234   -107.74876    1745.9638    4.2359345    4.2359345    4.2359345    1745.9638     3059.593   -7595.2557    9773.5541    1209.7358    599.65179     932.2982     76.00597 
   26300    164.28347   -107.89748   0.14864714   -107.74884   -2374.9181    4.2379979    4.2379979    4.2379979   -2374.9181    1584.7868   -13086.362    4376.8208   -1401.3095   -191.78118   -3238.9667    76.117098 
   26400    186.11487   -107.91722   0.16840065   -107.74881    1824.3899    4.2344659    4.2344659    4.2344659    1824.3899    6080.1083   -10066.139    9459.2006    1902.7462   -712.58843    2241.7649    75.926946 
   26500    200.61487   -107.93002   0.18152055    -107.7485    2088.3458    4.2356556    4.2356556    4.2356556    2088.3458    5470.6475   -4841.0028    5635.3926    294.24022    3562.8643    3146.4075    75.990957 
   26600    237.01594   -107.96276     0.214457   -107.74831   -6277.4803    4.2385488    4.2385488    4.2385488   -6277.4803   -1925.2511   -10290.845   -6616.3449   -469.96215   -2933.2799   -2364.7771    76.146785 
   26700    164.06352   -107.89729   0.14844812   -107.74884    2748.0827    4.2349395    4.2349395    4.2349395    2748.0827    14245.273   -8182.8896    2181.8648    544.38359    2614.6733    921.53717    75.952423 
   26800    259.62549    -107.9829    0.2349146   -107.74799    779.81412    4.2348301    4.2348301    4.2348301    779.81412    1589.2654   -4340.1129    5090.2899   -1560.1444   -3544.0368    2240.4531    75.946536 
   26900    168.43262   -107.90082   0.15240138   -107.74841    1974.6915    4.2385725    4.2385725    4.2385725    1974.6915    11595.565   -9479.7538     3808.263   -1531.7729   -2147.1537   -3817.1827    76.148062 
   27000    187.21318    -107.9182   0.16939442    -107.7488    1109.3684    4.2350779    4.2350779    4.2350779    1109.3684    2157.8496   -11013.704     12183.96   -740.67539   -789.92592     -1546.88    75.959871 
   27100    151.93092   -107.88635   0.13747029   -107.74888    6973.4995    4.2334299    4.2334299    4.2334299    6973.4995    12878.232   -3902.3987    11944.665   -60.970166   -1896.6235    3320.5851     75.87123 
   27200    270.24859   -107.99253    0.2445266     -107.748   -4903.8335    4.2398191    4.2398191    4.2398191   -4903.8335   -2264.3332   -12912.427    465.26021   -1523.0429    3567.7506    -2515.368     76.21527 
   27300    148.94314   -107.88335   0.13476688   -107.74858    1761.2911    4.2350178    4.2350178    4.2350178    1761.2911    10936.464   -9909.4623    4256.8716    1171.0589   -241.51233     797.7773    75.956636 
   27400    265.86357   -107.98841   0.24055895   -107.74785   -3117.8357     4.234057     4.234057     4.234057   -3117.8357    3639.2942   -7409.3992    -5583.402    337.02051    3282.0725     5300.363    75.904949 
   27500    213.27313   -107.94076   0.19297401   -107.74778   -2161.2338    4.2402025    4.2402025    4.2402025   -2161.2338    7421.9386   -10917.255   -2988.3847    -1.914533   -1327.1646   -1363.2963    76.235945 
   27600    202.13091   -107.93114    0.1828923   -107.74825   -2050.1824    4.2351805    4.2351805    4.2351805   -2050.1824    3880.5824    -12720.75    2689.6204    1277.6148   -1038.8456      1125.57    75.965392 
   27700    140.24171    -107.8755   0.12689364    -107.7486    4951.7273    4.2343201    4.2343201    4.2343201    4951.7273    11491.498   -7353.9934    10717.677    -1545.133   -2718.2159    4388.8747    75.919101 
   27800    218.08233   -107.94544   0.19732548   -107.74811   -765.12906    4.2391628    4.2391628    4.2391628   -765.12906    1068.0998   -11501.413    8137.9264    552.67389   -5409.3333   -2498.9442    76.179878 
   27900    167.16922   -107.90053   0.15125822   -107.74927   -92.662645    4.2350078    4.2350078    4.2350078   -92.662645     2982.116   -11427.533    8167.4289   -2333.5261    1360.8599   -1556.2618    75.956098 
   28000    175.97577    -107.9081   0.15922657   -107.74887    756.05648    4.2355131    4.2355131    4.2355131    756.05648      9964.91   -7206.9729   -489.76762    363.04148   -1020.0873    4350.5328    75.983288 
   28100     289.4703   -108.00953   0.26191881   -107.74761   -4999.4026    4.2384495    4.2384495    4.2384495   -4999.4026   -615.97418   -9408.5178   -4973.7157   -728.25726     2912.539   -1568.1589    76.141434 
   28200    173.20676   -107.90531   0.15672112   -107.74859    9.3835213    4.2346538    4.2346538    4.2346538    9.3835213    6453.9656   -8131.5388    1705.7238   -1130.5574    640.90764   -197.47032    75.937051 
   28300    204.30316   -107.93333   0.18485779   -107.74847   -2363.4295    4.2366092    4.2366092    4.2366092   -2363.4295    6767.0816   -10362.999   -3494.3713    2515.9803    1241.2499    6128.6327    76.042296 
   28400    181.67649   -107.91272   0.16438471   -107.74833    4055.6667    4.2362114    4.2362114    4.2362114    4055.6667    6268.7035   -7129.6366    13027.933   -1407.7823   -211.38447    151.17813    76.020874 
   28500    219.65296   -107.94729   0.19874661   -107.74854   -468.99561    4.2351494    4.2351494    4.2351494   -468.99561    919.65036   -10237.943    7911.3062    1291.5304   -3162.0143    319.35686    75.963715 
   28600    90.176999   -107.83123  0.081594044   -107.74964    5743.5103    4.2366448    4.2366448    4.2366448    5743.5103    15350.553   -10374.294    12254.272    1660.5892   -305.96799    5046.5981    76.044213 
   28700     314.4041   -108.03195   0.28447943   -107.74747   -3449.4374    4.2359856    4.2359856    4.2359856   -3449.4374   -3906.7232   -8572.3799     2130.791   -13.891411   -3694.9638    -238.2199    76.008719 
   28800    182.55738   -107.91397   0.16518175   -107.74879    2015.0169    4.2355482    4.2355482    4.2355482    2015.0169    11189.682   -7525.1497    2380.5188    485.97865     357.4409   -1577.1497    75.985179 
   28900    203.15036   -107.93314   0.18381472   -107.74933   -5102.1891    4.2372419    4.2372419    4.2372419   -5102.1891   -764.94436   -13404.383   -1137.2402    394.89416   -405.53983     5227.788    76.076369 
   29000    215.70481   -107.94387   0.19517424   -107.74869     2043.267    4.2347128    4.2347128    4.2347128     2043.267    8425.8747   -5228.3148    2932.2411   -93.575659    389.26188    288.70024    75.940228 
   29100    202.59912   -107.93184   0.18331594   -107.74853    2019.8086    4.2362665    4.2362665    4.2362665    2019.8086   -695.93295   -8481.6627    15237.021   -975.27907    526.44878   -789.60793    76.023843 
   29200    125.51273   -107.86315   0.11356655   -107.74958   -323.06546    4.2367806    4.2367806    4.2367806   -323.06546    4884.9688   -12928.814    7074.6484    1060.7271   -477.52103    5728.5839    76.051526 
   29300    217.76462   -107.94517     0.197038   -107.74813    821.28503     4.234649     4.234649     4.234649    821.28503     995.2809   -6650.4616    8119.0358   -517.15965    472.87304    1337.7887    75.936794 
   29400    273.56543   -107.99542   0.24752775   -107.74789    -2574.699    4.2365941    4.2365941    4.2365941    -2574.699    497.48259   -7836.6463   -384.93324    1187.4719   -2713.2868   -50.883798    76.041483 
   29500    137.54663   -107.87487   0.12445508   -107.75041    -2410.118    4.2358767    4.2358767    4.2358767    -2410.118    5183.9124   -11925.024   -489.24239    551.64666    1771.8437    4966.5887    76.002858 
   29600    229.87418   -107.95723   0.20799499   -107.74923   -2136.0486    4.2357206    4.2357206    4.2357206   -2136.0486   -269.47476   -8494.7927    2356.1215    848.42608   -4388.7868    1409.7275    75.994456 
   29700    227.86762   -107.95477   0.20617942   -107.74859    1801.6777    4.2362642    4.2362642    4.2362642    1801.6777   -923.23617   -6611.2027    12939.472    378.97389   -390.36673   -1784.3345    76.023721 
   29800    115.20211   -107.85411   0.10423729   -107.74988    -632.9313    4.2356431    4.2356431    4.2356431    -632.9313    3928.3577   -12682.146    6854.9939    113.98531   -294.16889    4986.8717    75.990284 
   29900    201.52036   -107.93118   0.18233986   -107.74884   -1374.6516    4.2365941    4.2365941    4.2365941   -1374.6516   -723.60386   -9686.3695    6286.0185    973.64934   -2976.1764    1340.0573    76.041483 
   30000     255.7162   -107.97943   0.23137739   -107.74805    2654.8865    4.2351904    4.2351904    4.2351904    2654.8865    5612.1169    -5140.336    7492.8785   -2006.2347    1701.4593   -1253.3366    75.965922 
   30100    173.99808   -107.90672   0.15743712   -107.74928   -2098.5633     4.235759     4.235759     4.235759   -2098.5633    7637.1776   -12050.381   -1882.4865    1189.5034     -1846.25    5373.0608    75.996526 
   30200    215.13653   -107.94367   0.19466006   -107.74901   -2568.0943    4.2376075    4.2376075    4.2376075   -2568.0943   -1197.2985   -11255.381    4748.3961    310.73401    3161.2841    2228.7155    76.096062 
   30300    226.14603   -107.95245   0.20462168   -107.74783    5737.2448    4.2342691    4.2342691    4.2342691    5737.2448    8311.8677   -3405.4418    12305.309   -1165.6691   -466.31338   -1113.0797     75.91636 
   30400    159.59427   -107.89362   0.14440425   -107.74921   -4.9597089    4.2359659    4.2359659    4.2359659   -4.9597089   -1042.9728   -12695.751    13723.845    1474.5539   -231.25125    3668.5136    76.007662 
   30500    174.69614   -107.90769   0.15806874   -107.74962    228.25822    4.2381869    4.2381869    4.2381869    228.25822    7689.6336   -12461.567    5456.7077   -559.59299   -956.33565    2629.7732    76.127279 
   30600    255.00877   -107.97866   0.23073729   -107.74792    6241.7703    4.2328692    4.2328692    4.2328692    6241.7703    4587.0894   -1211.6128    15349.834    514.61225   -4457.2212   -1499.7392    75.841089 
   30700    208.06269   -107.93738   0.18825949   -107.74912   -3122.6992    4.2367012    4.2367012    4.2367012   -3122.6992    7574.8974   -13185.621   -3757.3742    229.42645    1965.4721    4595.8186    76.047248 
   30800    165.25954   -107.89901    0.1495303   -107.74948   -1475.3504    4.2385189    4.2385189    4.2385189   -1475.3504    4970.9413   -12367.373    2970.3803    318.06022   -2205.2991    2609.9457    76.145171 
   30900    250.11242    -107.9738   0.22630698   -107.74749    5839.0312    4.2331475    4.2331475    4.2331475    5839.0312     8105.798   -2832.0983    12243.394    537.80256    2147.9963   -1387.3511    75.856047 
   31000    169.03803   -107.90162   0.15294916   -107.74867    213.57179    4.2367248    4.2367248    4.2367248    213.57179    3496.3474   -14320.976    11465.344    354.94087    1355.7514    4607.5137    76.048522 
   31100     132.2429   -107.86918   0.11965615   -107.74952    55.402965    4.2378773    4.2378773    4.2378773    55.402965    8189.8978   -12395.489    4371.7996    227.41965   -1178.2769     2005.975    76.110599 
   31200    300.59001   -108.01933   0.27198016   -107.74735    359.48963     4.233448     4.233448     4.233448    359.48963   -1228.3591   -4232.8558    6539.6838   -294.05324     440.7063   -1485.9278    75.872204 
   31300    165.42475   -107.89867   0.14967979   -107.74899   -632.60449    4.2361476    4.2361476    4.2361476   -632.60449    7234.0563   -10786.374    1654.5048     214.6405   -2736.4232     3495.738    76.017441 
   31400    223.43065   -107.95119   0.20216475   -107.74902   -8930.9077    4.2391754    4.2391754    4.2391754   -8930.9077   -2956.3511   -15826.468   -8009.9035   -157.37665    2087.4103    3291.9083     76.18056 
   31500    161.97495   -107.89517   0.14655834   -107.74862    8905.2651    4.2333303    4.2333303    4.2333303    8905.2651     8853.122   -2932.5346    20795.208    702.78784   -1609.9865   -1013.6946    75.865875 
   31600    233.87387   -107.96025     0.211614   -107.74864   -4028.8241    4.2364862    4.2364862    4.2364862   -4028.8241    837.59721   -13869.074    945.00453   -788.04033    668.19769    4553.8791    76.035673 
   31700    87.058655   -107.82851  0.078772501   -107.74974   -1196.7606    4.2383958    4.2383958    4.2383958   -1196.7606    4059.8563   -13635.909    5985.7708    1676.8843    2077.6983    3492.0494    76.138536 
   31800    286.06194   -108.00663   0.25883485    -107.7478   -578.77112    4.2339569    4.2339569    4.2339569   -578.77112   -942.91686   -5359.1798    4565.7833    746.36696   -3143.1332    -2158.927    75.899566 
   31900    219.50911   -107.94691   0.19861646    -107.7483   -1997.0095    4.2364121    4.2364121    4.2364121   -1997.0095    547.04235   -10262.583     3724.512   -467.58419    422.03787    3486.7767    76.031682 
   32000    174.33552   -107.90691   0.15774244   -107.74917   -6000.6568     4.238727     4.238727     4.238727   -6000.6568   -1440.2821   -15481.551   -1080.1376    3042.6613   -2333.7474    2583.1737    76.156387 
   32100    225.66668   -107.95258   0.20418795    -107.7484    3023.7146     4.234053     4.234053     4.234053    3023.7146   -518.91296   -5478.3757    15068.432   -1380.2991    910.06244    -2152.552    75.904735 
   32200    189.72696   -107.92072   0.17166894   -107.74905    1548.3616    4.2357441    4.2357441    4.2357441    1548.3616    1830.2617   -10427.579    13242.402    752.76249    1902.7551     2882.137    75.995722 
   32300    156.17655   -107.89105   0.14131183   -107.74974   -4923.8275    4.2387214    4.2387214    4.2387214   -4923.8275    198.84464   -15797.053     826.7261    1106.0942    1318.1579    4410.2249    76.156085 
   32400    207.91021   -107.93686   0.18812153   -107.74874    3379.5848    4.2343586    4.2343586    4.2343586    3379.5848    2359.9797    -4675.838    12454.613   -1994.8199    2188.4039   -1490.3442    75.921172 
   32500    259.45903   -107.98259   0.23476398   -107.74783   -1577.7809    4.2359778    4.2359778    4.2359778   -1577.7809    5122.3771   -9827.2513   -28.468599    1122.6593   -1424.0387    3010.0868    76.008301 
   32600    139.79296   -107.87516   0.12648761   -107.74868   -4211.4494    4.2393803    4.2393803    4.2393803   -4211.4494   -150.32908   -14021.827    1537.8078    158.20687   -415.86992    2918.3132    76.191609 
   32700    251.86494   -107.97586   0.22789269   -107.74796   -184.57167    4.2343557    4.2343557    4.2343557   -184.57167    -45.93842   -7296.9217    6789.1451   -634.04707   -2233.7691   -3004.6385    75.921017 
   32800    169.56676    -107.9017   0.15342757   -107.74827    5496.8371    4.2348861    4.2348861    4.2348861    5496.8371    4857.8896   -7205.7665    18838.388    1019.8698   -2368.1911    2023.8593    75.949548 
   32900    187.43037   -107.91832   0.16959094   -107.74873   -7369.0968    4.2392428    4.2392428    4.2392428   -7369.0968   -6097.6316   -15236.521   -773.13802    1275.9008    2739.5011    2498.3505    76.184194 
   33000    193.47774   -107.92384   0.17506273   -107.74878    1770.2085    4.2351823    4.2351823    4.2351823    1770.2085    8948.1694     -8176.64    4539.0962   -330.22843   -324.62445   -2401.7706    75.965488 
   33100    268.12296   -107.99037   0.24260329   -107.74777   -96.547374    4.2342658    4.2342658    4.2342658   -96.547374    2556.4466    -6074.382    3228.2933    1172.6626    124.43372    1881.0609    75.916178 
   33200     148.2787   -107.88295   0.13416569   -107.74878   -4562.2604    4.2390692    4.2390692    4.2390692   -4562.2604    4898.6146   -14757.634   -3827.7616    348.28389   -250.27779    4288.4528    76.174833 
   33300    200.42597   -107.93019   0.18134963   -107.74884     420.7483    4.2357347    4.2357347    4.2357347     420.7483     4770.304   -10849.721    7341.6618   -1550.8186   -792.63289   -2464.5996    75.995214 
   33400    207.99618   -107.93644   0.18819932   -107.74824    6008.4486    4.2329749    4.2329749    4.2329749    6008.4486    6273.8844   -3735.4915    15486.953     581.5457   -329.96397    1457.0046    75.846768 
   33500    181.39106   -107.91288   0.16412644   -107.74875   -5917.1835    4.2398713    4.2398713    4.2398713   -5917.1835   -959.66002   -16613.581   -178.30942    -1910.069   -563.41233    3829.3857    76.218083 
   33600    200.79045   -107.93047   0.18167942   -107.74879   -1578.9483    4.2366786    4.2366786    4.2366786   -1578.9483    6324.3594   -10818.995   -242.20962    50.903158    2038.4392   -3463.8667    76.046033 
   33700    257.17786   -107.98041   0.23269993   -107.74771    2939.1521    4.2325417    4.2325417    4.2325417    2939.1521    1503.9023   -2928.3293    10241.883   -586.44832   -1972.0067     1021.224    75.823485 
   33800     189.9701   -107.92046   0.17188894   -107.74857   -4371.7374     4.239575     4.239575     4.239575   -4371.7374     7843.378    -16064.79   -4893.7998   -645.46596   -242.47079    3397.2505    76.202106 
   33900    162.84751   -107.89677   0.14734785   -107.74943    604.19343      4.23675      4.23675      4.23675    604.19343    1203.0769   -11477.631    12087.134    1322.1146   -2962.1549   -2728.2074    76.049877 
   34000    197.00783   -107.92695   0.17825683   -107.74869    7962.4573    4.2316322    4.2316322    4.2316322    7962.4573     11979.32   -2966.9962    14875.048   -1830.8647   -3113.9623     27.11553    75.774618 
   34100    180.38818   -107.91212   0.16321902    -107.7489   -2439.5395    4.2403796    4.2403796    4.2403796   -2439.5395   -562.59806   -15439.788    8683.7675    1297.2761    948.74516    4539.6958    76.245501 
   34200     205.8595   -107.93495     0.186266   -107.74869   -3479.1456    4.2373513    4.2373513    4.2373513   -3479.1456    1488.1945   -12352.359    426.72745   -971.74226    248.79055   -2576.0183    76.082259 
   34300     246.1197   -107.97004   0.22269427   -107.74734    3326.0122    4.2322448    4.2322448    4.2322448    3326.0122    3627.5417   -3407.1543    9757.6492   -2149.5631    3598.3983   -678.75638    75.807529 
   34400    221.31357    -107.9479   0.20024917   -107.74765   -4922.4066    4.2399672    4.2399672    4.2399672   -4922.4066   -307.27384   -14323.397   -136.54921    388.17941    217.18116      3671.86    76.223257 
   34500    188.86875   -107.91965   0.17089242   -107.74875   -3590.7122    4.2371072    4.2371072    4.2371072   -3590.7122   -661.85016   -14206.032    4095.7452   -2344.5505    1053.3151   -3071.7629    76.069115 
   34600    147.44271   -107.88199   0.13340926   -107.74858    9058.5198    4.2327532    4.2327532    4.2327532    9058.5198    9746.1166    -3822.176    21251.619   -1598.2727   -3164.8878   -1061.4033    75.834851 
   34700    242.93598   -107.96789   0.21981358   -107.74807   -4522.0625    4.2397241    4.2397241    4.2397241   -4522.0625   -260.90137   -15617.824    2312.5376    216.47167   -4081.2147    2829.9506    76.210147 
   34800    107.18514    -107.8459  0.096983369   -107.74892    921.19334    4.2369379    4.2369379    4.2369379    921.19334    7115.3988   -12742.797    8390.9787   -1105.0459    -85.76322   -2645.7416    76.059995 
   34900    266.20488   -107.98823   0.24086777   -107.74736   -438.99262    4.2337824    4.2337824    4.2337824   -438.99262    5353.7255   -5793.0558   -877.64759   -1387.3774     -2800.41   -1564.3166    75.890183 
   35000    214.47384   -107.94222   0.19406044   -107.74816   -1339.1738    4.2376778    4.2376778    4.2376778   -1339.1738      4602.43   -11281.922    2661.9702    1815.6789    3518.6382    4026.4908     76.09985 
   35100    184.53687   -107.91575   0.16697284   -107.74878   -5095.5364    4.2378322    4.2378322    4.2378322   -5095.5364    144.27173   -14773.179   -657.70234   -1638.9813    415.02698   -2785.0412     76.10817 
   35200    212.36392   -107.94048   0.19215134   -107.74833     1986.279    4.2345019    4.2345019    4.2345019     1986.279    492.66765   -6271.3166    11737.486   -732.30986    1381.7218   -2340.6994    75.928878 
[...]
   91200    223.77545    -107.9509   0.20247673   -107.74843     -756.804     4.236492     4.236492     4.236492     -756.804     5177.461   -9411.1748    1963.3018   -1359.4063    -193.9769     2298.094    76.035984 
   91300    242.67888   -107.96788   0.21958095    -107.7483    121.44532    4.2387695    4.2387695    4.2387695    121.44532    6799.2774   -10190.977    3756.0353    99.886615   -2574.3646   -1080.8225    76.158678 
   91400    204.70508   -107.93383   0.18522146   -107.74861   -2716.2478    4.2379083    4.2379083    4.2379083   -2716.2478   -3263.5601   -8062.3588    3177.1754   -1047.9199    319.92621    405.21307    76.112271 
   91500    231.48757   -107.95734   0.20945481   -107.74788   -1992.5733    4.2371012    4.2371012    4.2371012   -1992.5733    601.74893   -9171.1581    2591.6894   -2019.1749    2116.5127    1706.6848    76.068789 
   91600    229.46363   -107.95514   0.20762352   -107.74751    371.91893    4.2393618    4.2393618    4.2393618    371.91893    7823.9459   -7413.5892    705.40004    1980.3481    897.64441   -2220.6903     76.19061 
   91700    171.88422   -107.90355   0.15552445   -107.74803    -128.3034    4.2371665    4.2371665    4.2371665    -128.3034    8294.9746   -4392.5141   -4287.3706    1483.3065   -1377.8789    2445.7547    76.072309 
   91800    124.09689   -107.86102   0.11228548   -107.74873    4316.2882    4.2374264    4.2374264    4.2374264    4316.2882    12725.873   -5541.9159    5764.9075    1515.1888   -1625.8354    2430.7047    76.086306 
   91900    252.53095   -107.97616   0.22849531   -107.74767   -990.29255    4.2390721    4.2390721    4.2390721   -990.29255    1075.2332    -2297.924   -1748.1869     3079.628   -2037.1177    828.92547    76.174989 
   92000    98.292423   -107.83752   0.08893705   -107.74859    4732.7948    4.2367788    4.2367788    4.2367788    4732.7948    288.31213    315.10114    13594.971    466.55594   -4633.0518    4149.0633    76.051428 
   92100     244.2411   -107.96881   0.22099448   -107.74782   -4332.1861    4.2386703    4.2386703    4.2386703   -4332.1861   -7510.7405   -6178.4375    692.61966   -631.05731    2413.7532    2309.5304    76.153331 
   92200    212.02549   -107.93908   0.19184512   -107.74724     1695.324     4.238574     4.238574     4.238574     1695.324    -2587.976   -38.123628    7712.0716   -1540.6275    739.11174    430.39078    76.148139 
   92300    231.38022   -107.95732   0.20935769   -107.74796   -3776.7829    4.2373026    4.2373026    4.2373026   -3776.7829   -88.921803   -6332.3285   -4909.0985   -2086.7893   -285.53477    113.78023     76.07964 
   92400    189.01265   -107.91958   0.17102262   -107.74856   -1016.2348    4.2386523    4.2386523    4.2386523   -1016.2348    5554.8429   -8354.5498   -248.99748   -1097.8027    2618.0035    690.86556    76.152363 
   92500    233.02636    -107.9586   0.21084714   -107.74775    631.35931    4.2385534    4.2385534    4.2385534    631.35931    9686.3678    -5758.598   -2033.6919    -1435.128   -3499.8582   -2515.7192    76.147032 
   92600    159.68286   -107.89303   0.14448441   -107.74855    2056.5229    4.2375926    4.2375926    4.2375926    2056.5229    5090.4765   -9212.3143    10291.407    976.32626   -4427.2183    1529.3434    76.095258 
   92700    175.68131   -107.90718   0.15896014   -107.74822    49.940616    4.2392293    4.2392293    4.2392293    49.940616    4847.5383   -10420.344    5722.6277    1682.9668   -2077.6063    3287.6577    76.183464 
   92800    203.60282   -107.93128   0.18422411   -107.74706    2505.2798    4.2385682    4.2385682    4.2385682    2505.2798   -1723.6151   -3356.0818    12595.536    717.90736   -1355.6938    1521.1997    76.147827 
   92900    235.99747   -107.96125   0.21353547   -107.74772   -3205.0387    4.2377888    4.2377888    4.2377888   -3205.0387   -4884.8782   -6361.8169    1631.5791    1939.4822    43.817862    4216.3456    76.105827 
   93000     205.4196   -107.93385   0.18586797   -107.74798    -2442.891    4.2391507    4.2391507    4.2391507    -2442.891    841.27789     -4081.35   -4088.6007   -803.37258    2618.9414    2733.7796     76.17923 
   93100    259.41324     -107.982   0.23472255   -107.74728   -818.27022    4.2382714    4.2382714    4.2382714   -818.27022   -4366.1592    772.39112    1138.9574    -857.3476    2384.3178    -782.4339    76.131834 
   93200    209.87557   -107.93762   0.18989983   -107.74772   -415.03986    4.2377571    4.2377571    4.2377571   -415.03986    2686.2913   -5968.5565    2037.1456    -980.3876   -2066.6511   -1166.1055    76.104123 
   93300    95.547744   -107.83536  0.086453607   -107.74891    5553.0554      4.23877      4.23877      4.23877    5553.0554     8694.056   -3872.5105    11837.621    -3519.744   -2589.7275   -196.07068    76.158707 
   93400    208.83002   -107.93656   0.18895379    -107.7476    4097.1314    4.2373921    4.2373921    4.2373921    4097.1314    1892.5504   -3627.7554    14026.599   -1137.2134   -1948.1757   -3225.9798    76.084459 
   93500    124.61442   -107.86098   0.11275375   -107.74822    6316.8857    4.2376809    4.2376809    4.2376809    6316.8857    13535.375   -8135.4958    13550.778   -934.48801    -5984.737    512.79404    76.100019 
   93600    204.34351   -107.93292    0.1848943   -107.74803   -1608.6899    4.2392089    4.2392089    4.2392089   -1608.6899    4261.8455   -7804.4938   -1283.4214   -1233.8769   -476.88517    3162.3433    76.182365 
   93700    257.79964   -107.97989   0.23326254   -107.74663    351.07825    4.2374292    4.2374292    4.2374292    351.07825   -85.785163   -4306.1583    5445.1782    1533.7874    3098.9978   -14.552563     76.08646 
   93800     278.2909    -107.9988   0.25180345   -107.74699   -4364.3014    4.2393154    4.2393154    4.2393154   -4364.3014    565.18899   -10990.654   -2667.4395    646.69118   -59.656235    3094.4457    76.188105 
   93900    196.85221   -107.92588   0.17811602   -107.74776   -1442.5324    4.2391706    4.2391706    4.2391706   -1442.5324   -7422.2448    -5394.934    8489.5816    1704.1743    2800.1701    2823.0518      76.1803 
   94000    262.10547   -107.98425   0.23715854    -107.7471   -103.11291    4.2374057    4.2374057    4.2374057   -103.11291   -3770.1001   -5853.4426    9314.2039    1777.8633    1171.6264   -524.13092    76.085193 
   94100    183.38058   -107.91359   0.16592661   -107.74767    1330.1056    4.2392778    4.2392778    4.2392778    1330.1056     1698.785   -8192.0115    10483.543   -682.63194   -4795.3927   -1070.1512    76.186078 
   94200      129.252   -107.86587   0.11694993   -107.74892    2940.7595    4.2377697    4.2377697    4.2377697    2940.7595    6803.3923   -2128.5603    4147.4464    -855.2992   -3221.3835    457.39938    76.104802 
   94300    205.26816   -107.93354   0.18573094    -107.7478     3020.271    4.2376836    4.2376836    4.2376836     3020.271    12934.215   -4207.0384    333.63646   -2535.2795   -1505.2847   -1664.0241    76.100163 
   94400    172.74072   -107.90431   0.15629943   -107.74801    1176.1831     4.239834     4.239834     4.239834    1176.1831    10096.312   -4962.9999   -1604.7625   -2366.8513   -999.39652    296.80808    76.216073 
   94500    169.55099   -107.90149    0.1534133   -107.74808   -495.67758    4.2373492    4.2373492    4.2373492   -495.67758    4074.1902   -740.72101   -4820.5019   -1715.3044    1086.3059    3552.3965    76.082147 
   94600     229.4804   -107.95478   0.20763869   -107.74714   -123.29264    4.2381413    4.2381413    4.2381413   -123.29264   -1023.1033   -5946.5047    6599.7301    -570.6343    4056.3222    1169.4992    76.124826 
   94700     260.1637   -107.98317   0.23540158   -107.74777   -5775.0325    4.2394377    4.2394377    4.2394377   -5775.0325   -9431.1482   -6370.1612    -1523.788     2291.124    -434.9765    2591.6819      76.1947 
   94800    133.51474   -107.86979   0.12080694   -107.74898    113.77444    4.2366716    4.2366716    4.2366716    113.77444    -2384.903   -3761.3458    6487.5721    749.53439    -4479.282    3122.9823    76.045657 
   94900    279.47283   -108.00054   0.25287289   -107.74767   -4699.0234    4.2391652    4.2391652    4.2391652   -4699.0234    2068.0362   -12270.373   -3894.7332    1234.2153    937.84684    87.470876    76.180008 
   95000    152.52542   -107.88614    0.1380082   -107.74813    1676.4536    4.2387583    4.2387583    4.2387583    1676.4536    10442.504   -5231.1337   -182.00925     1320.538   -4562.1807   -53.261143    76.158074 
   95100    157.58496    -107.8908   0.14258618   -107.74821    -970.7497    4.2372232    4.2372232    4.2372232    -970.7497    15840.656   -8879.4435    -9873.462   -2621.2914   -2245.6243    2026.0156    76.075363 
   95200    203.17149   -107.93118   0.18383384   -107.74735    1136.8853    4.2390801    4.2390801    4.2390801    1136.8853    12348.524   -9382.3367      444.469   -1520.6822    3894.1434   -265.26611    76.175424 
   95300    234.89073   -107.95988   0.21253407   -107.74734   -3133.9511    4.2387226    4.2387226    4.2387226   -3133.9511    2048.2936   -4102.1463   -7348.0004   -2677.4405   -425.05119    620.39978    76.156152 
   95400     163.8514   -107.89634   0.14825619   -107.74808   -1485.1465    4.2378395    4.2378395    4.2378395   -1485.1465   -1921.0651   -5648.8912    3114.5168    -1643.977   -287.55314    4461.7586    76.108562 
   95500    285.85786   -108.00594    0.2586502   -107.74729   -4389.2904     4.239415     4.239415     4.239415   -4389.2904   -2590.8064   -6608.1209   -3968.9439    784.52271    253.53129    407.94688    76.193478 
   95600    149.62035   -107.88338   0.13537964     -107.748    3868.8399    4.2371365    4.2371365    4.2371365    3868.8399    6669.5765    10.180312    4926.7629    706.25538   -4450.7682    2415.0602    76.070689 
   95700     181.2061   -107.91266   0.16395909   -107.74871   -2601.2399    4.2389471    4.2389471    4.2389471   -2601.2399    12748.119   -10302.754   -10249.084    2414.2116   -3198.1638     3254.459     76.16825 
   95800    144.41465   -107.87923   0.13066941   -107.74856    6511.8656    4.2370948    4.2370948    4.2370948    6511.8656    20262.075   -4461.3033    3734.8252    618.89883   -185.26246   -1134.9856    76.068444 
   95900    241.36701   -107.96652   0.21839395   -107.74813   -1502.8529    4.2375118    4.2375118    4.2375118   -1502.8529    9005.6071   -5526.1628   -7988.0029   -431.61469    2042.5387    1391.1666    76.090909 
   96000    167.71045   -107.90023   0.15174794   -107.74849   -1991.1933    4.2395477    4.2395477    4.2395477   -1991.1933     7557.682   -12342.231   -1189.0313   -932.21526   -694.40687    1749.5818    76.200635 
   96100    295.25389   -108.01405   0.26715193    -107.7469   -4093.5925    4.2375971    4.2375971    4.2375971   -4093.5925   -5066.1733   -7337.0981    122.49391   -3212.6836    2398.7219   -539.38226    76.095505 
   96200    238.16467   -107.96302    0.2154964   -107.74753   -1665.0836    4.2379289    4.2379289    4.2379289   -1665.0836     128.4599   -6515.2645    1391.5537   -18.095794    177.75651    2009.1136    76.113376 
   96300    170.54985    -107.9031   0.15431709   -107.74878   -2304.4383    4.2401917    4.2401917    4.2401917   -2304.4383    9432.6647   -13527.141   -2818.8388   -563.28572   -4614.5241     2914.829    76.235363 
   96400    166.88323   -107.89886   0.15099946   -107.74787    5462.8188    4.2365104    4.2365104    4.2365104    5462.8188    15129.243   -4049.2022    5308.4161    672.24983    888.45612    182.55912    76.036977 
   96500     173.6202   -107.90482   0.15709521   -107.74773    3490.2992     4.237769     4.237769     4.237769    3490.2992    23511.049   -6468.0319   -6572.1197     4139.191   -1796.2601    1440.3325    76.104765 
   96600    123.71265   -107.86112   0.11193781   -107.74918    247.80381    4.2396931    4.2396931    4.2396931    247.80381    7889.6115   -8448.3913    1302.1912    1501.0314   -410.36725    3053.8091    76.208473 
   96700     246.2265   -107.97041   0.22279092   -107.74762   -596.90703    4.2363656    4.2363656    4.2363656   -596.90703    2593.3318   -1075.2307   -3308.8222    2292.9692    1698.8373   -1599.3279    76.029179 
   96800    235.85766   -107.96103   0.21340897   -107.74762    -1276.542    4.2388703    4.2388703    4.2388703    -1276.542   -3977.8054   -3758.0702    3906.2496    63.744802    1334.0745    642.74675    76.164111 
   96900    198.68951   -107.92843   0.17977845   -107.74865   -4716.5178    4.2389589    4.2389589    4.2389589   -4716.5178   -2623.6656   -8176.7675   -3349.1203   -2305.9493   -961.64139     2130.887     76.16889 
   97000    199.91291   -107.92891    0.1808854   -107.74803    1934.9608    4.2368361    4.2368361    4.2368361    1934.9608    7359.3289   -3901.4156    2346.9691   -2223.3688   -1656.9312   -1413.3669    76.054513 
   97100    213.09982   -107.94059   0.19281719   -107.74777    894.32571    4.2384086    4.2384086    4.2384086    894.32571    12589.929   -10008.552    101.60043   -2242.3406    1013.4892    2059.9904    76.139228 
   97200    132.80464   -107.86903   0.12016443   -107.74886   -355.84553    4.2383529    4.2383529    4.2383529   -355.84553    16827.596    -12759.69   -5135.4432    733.13224   -2865.6763    3143.5439    76.136228 
   97300    224.28535   -107.95118    0.2029381   -107.74824   -627.29062     4.237211     4.237211     4.237211   -627.29062    6339.6511   -7373.2742   -848.24879    813.22371    991.30194   -299.59153    76.074702 
   97400    234.42062    -107.9597   0.21210871   -107.74759   -1708.2605    4.2394187    4.2394187    4.2394187   -1708.2605     3639.132   -9461.7635    697.85003    1714.0726     2549.321    1013.6636    76.193679 
   97500    214.17269   -107.94151   0.19378795   -107.74772   -6352.5559     4.238108     4.238108     4.238108   -6352.5559   -3779.8706   -8263.0952    -7014.702      2371.85   -2141.2417    2797.4948    76.123028 
   97600    219.24572   -107.94607   0.19837813   -107.74769   -1339.1043    4.2380136    4.2380136    4.2380136   -1339.1043   -1255.7676   -3018.9189    257.37344   -1744.9991    -421.3323   -2265.4606    76.117941 
   97700    208.12341     -107.936   0.18831443   -107.74768    843.91833    4.2383869    4.2383869    4.2383869    843.91833    6923.0514   -5042.9597    651.66321   -1617.1167   -863.10412    457.22334    76.138056 
   97800    140.94975   -107.87586    0.1275343   -107.74832   -772.51801    4.2378912    4.2378912    4.2378912   -772.51801    11858.847   -6726.2415   -7450.1597   -2745.4143   -3264.4836    2343.1582    76.111347 
   97900    122.87954   -107.85976   0.11118399   -107.74857    4778.0582    4.2379783    4.2379783    4.2379783    4778.0582      19905.3   -4521.9601    -1049.165   -4454.6981    -1824.581   -2460.8372    76.116042 
   98000    239.30903   -107.96442   0.21653184   -107.74789   -950.18497    4.2378083    4.2378083    4.2378083   -950.18497    10121.107   -7784.6469   -5187.0146   -1097.3581    1464.7582    2532.6273     76.10688 
   98100    157.74202   -107.89106    0.1427283   -107.74833   -2290.2501    4.2387449    4.2387449    4.2387449   -2290.2501    8465.7742   -9400.0678   -5936.4568   -1551.5771    1151.1683    3164.4612    76.157353 
   98200    276.58689    -107.9975   0.25026163   -107.74724   -6495.7717    4.2385685    4.2385685    4.2385685   -6495.7717   -6645.4421   -8292.5262   -4549.3469    307.09094   -835.27554    -526.0326    76.147845 
   98300    235.02144   -107.96051   0.21265234   -107.74786   -1201.7668    4.2374808    4.2374808    4.2374808   -1201.7668    497.03501   -9266.1634     5163.828    2266.9174    1117.0939    3103.8717    76.089235 
   98400    206.98274   -107.93564   0.18728234   -107.74835   -4729.7247    4.2397197    4.2397197    4.2397197   -4729.7247    4852.5348   -13556.873   -5484.8362   -18.352947    -3384.535    1536.7719    76.209905 
   98500    159.42175   -107.89258   0.14424815   -107.74833    2133.9922     4.238301     4.238301     4.238301    2133.9922    8332.9073   -8470.1362    6539.2054    357.90931   -4727.7271   -874.43172     76.13343 
   98600    200.92429   -107.92899   0.18180052   -107.74719    1777.7286    4.2372874    4.2372874    4.2372874    1777.7286    18585.535    -9563.352   -3688.9969   -1580.8953   -523.78121    330.00954    76.078822 
   98700    154.49448   -107.88759   0.13978985    -107.7478    13.672813    4.2391092    4.2391092    4.2391092    13.672813    8955.6326   -6938.8141   -1975.8001   -2401.1158    -1834.103    1110.5494     76.17699 
   98800    208.32405   -107.93557   0.18849598   -107.74707   -1347.6302    4.2384916    4.2384916    4.2384916   -1347.6302    2748.1819   -3671.9164    -3119.156   -2460.0054   -285.62952   -1457.4436    76.143703 
   98900    240.86987   -107.96476   0.21794412   -107.74681   -398.29512    4.2372211    4.2372211    4.2372211   -398.29512   -2202.1967   -1580.3341    2587.6455   -1799.3518    2701.8119    1975.2548    76.075251 
   99000    216.06962   -107.94347   0.19550433   -107.74796   -2972.1342    4.2390327    4.2390327    4.2390327   -2972.1342   -3039.7801   -2997.2998   -2879.3227    1362.6804    550.88686    3840.6428    76.172865 
   99100    167.83402   -107.89987   0.15185975   -107.74801    1763.9817    4.2382559    4.2382559    4.2382559    1763.9817   -1235.2598   -2610.4198    9137.6248     865.8189   -1383.5943    65.071062    76.130998 
   99200    238.61402   -107.96293   0.21590298   -107.74703     423.9389    4.2370094    4.2370094    4.2370094     423.9389    9087.4756   -4255.1073   -3560.5516    2538.2273   -1733.5656    2657.7559    76.063845 
   99300    85.052922   -107.82552  0.076957671   -107.74856    7152.6447     4.238216     4.238216     4.238216    7152.6447    18521.034   -7622.2479    10559.147    2590.5723   -2103.3461    3257.6341    76.128847 
   99400    245.88694   -107.97099   0.22248367   -107.74851   -2275.5175    4.2374679    4.2374679    4.2374679   -2275.5175    9799.4838   -9719.5715   -6906.4647   -2.0800206   -4830.5713   -1698.3819    76.088544 
   99500    159.34451   -107.89291   0.14417826   -107.74873    4457.9151    4.2377398    4.2377398    4.2377398    4457.9151    13874.648   -7098.1278    6597.2251   -89.754418    1118.9276    205.19442    76.103188 
   99600    282.43737   -108.00321   0.25555527   -107.74766   -6143.5205    4.2388842    4.2388842    4.2388842   -6143.5205   -2856.0582   -11804.835   -3769.6681   -156.61409    399.65384    2160.2671    76.164863 
   99700    223.43478   -107.94957   0.20216848    -107.7474    -1614.489    4.2377453    4.2377453    4.2377453    -1614.489    1444.7055   -6868.9612    580.78872   -2296.3415   -1060.0343   -2437.7402    76.103488 
   99800    247.26659   -107.97064   0.22373201   -107.74691   -1782.9115    4.2379197    4.2379197    4.2379197   -1782.9115    4413.1739   -7907.4586   -1854.4499    919.04906    588.27317    684.17184    76.112881 
   99900    154.64926   -107.88793    0.1399299     -107.748    2895.3156    4.2379409    4.2379409    4.2379409    2895.3156    10509.283   -6792.4338    4969.0979    980.27539   -1100.9259    3788.4784    76.114027 
  100000    184.11904   -107.91474   0.16659477   -107.74815    1196.3163    4.2371585    4.2371585    4.2371585    1196.3163    17865.607   -6440.6966   -7835.9618    784.11685   -1396.3835   -2092.1636    76.071876 
Loop time of 23.1606 on 1 procs for 100000 steps with 8 atoms

Pair  time (%) = 7.57209 (32.6939)
Kspce time (%) = 5.50029 (23.7485)
Neigh time (%) = 0 (0)
Comm  time (%) = 1.11088 (4.79642)
Outpt time (%) = 0.0286858 (0.123856)
Other time (%) = 8.94863 (38.6373)

Nlocal:    8 ave 8 max 8 min
Histogram: 1 0 0 0 0 0 0 0 0 0
Nghost:    2189 ave 2189 max 2189 min
Histogram: 1 0 0 0 0 0 0 0 0 0
Neighs:    2472 ave 2472 max 2472 min
Histogram: 1 0 0 0 0 0 0 0 0 0

Total # of neighbors = 2472
Ave neighs/atom = 309
Neighbor list builds = 0
Dangerous builds = 0
seeds:5985419
