LAMMPS (11 Aug 2017)
Reading data file ...
  triclinic box = (0 0 0) to (4.8791 4.8791 4.8791) with tilt (0 0 0)
  1 by 1 by 1 MPI processor grid
  reading atoms ...
  8 atoms
8 atoms in group Ni
Neighbor list info ...
  update every 1 steps, delay 0 steps, check yes
  max neighbors/atom: 2000, page size: 100000
  master list distance cutoff = 5.64464
  ghost atom cutoff = 5.64464
  binsize = 2.82232, bins = 2 2 2
  1 neighbor lists, perpetual/occasional/extra = 1 0 0
  (1) pair eam/alloy, perpetual
      attributes: half, newton on
      pair build: half/bin/newton/tri
      stencil: half/bin/3d/newton/tri
      bin: standard
Setting up cg style minimization ...
  Unit style    : metal
  Current step  : 0
WARNING: Energy due to 3 extra global DOFs will be included in minimizer energies
Per MPI rank memory allocation (min/avg/max) = 4.21 | 4.21 | 4.21 Mbytes
Step PotEng Xhi Xlo Yhi Ylo Zhi Xy Xz Yz Press Pxx Pyy Pzz Pxy Pxz Pyz c_eatoms 
       0   -31.232606       4.8791            0       4.8791            0       4.8791            0            0            0    -74664.12    -74664.12    -74664.12    -74664.12   -13.288549   -13.288549   -13.288549   -31.232606 
      10    -31.37003    4.8547045    0.0243955    4.8547045    0.0243955    4.8547045            0            0            0   -52287.138   -52287.138   -52287.138   -52287.138   -15.034055   -15.034055   -15.034055    -31.37003 
      20   -31.453396     4.830309     0.048791     4.830309     0.048791     4.830309            0            0            0   -25933.011   -25933.011   -25933.011   -25933.011   -16.439704   -16.439704   -16.439704   -31.453396 
      30   -31.476794     4.809555   0.06954503     4.809555   0.06954503     4.809555            0            0            0    16.091922    16.091922    16.091922    16.091922   -8.8586246   -8.8586246   -8.8586246   -31.476794 
      40   -31.476794     4.809567  0.069532975     4.809567  0.069532975     4.809567            0            0            0 0.00046544786 0.00046545171 0.00046543959 0.00046545228 0.0024902572 0.0024902574 0.0024902575   -31.476794 
      50   -33.269768    4.8119245  0.067175509    4.8115808  0.067519173    4.8119415            0            0            0   -153030.08      -153033   -153023.74   -153033.49   -38879.305   -38866.508   -38878.741   -33.269768 
      60   -33.829064    4.7929613  0.086138742    4.7925398  0.086560179    4.7929821            0            0            0   -149681.45   -149698.84   -149643.95   -149701.57   -39307.368   -39290.828   -39306.628   -33.829064 
      70    -34.13003     4.768566   0.11053396    4.7681503   0.11094972    4.7685866            0            0            0   -128326.58   -128345.86   -128284.98   -128348.89   -44239.359   -44222.688   -44238.616    -34.13003 
      80   -34.393991    4.7441709    0.1349291    4.7437622   0.13533784    4.7441911            0            0            0   -103791.07   -103808.25      -103754   -103810.95   -49243.536   -49227.076   -49242.807   -34.393991 
      90   -34.628229    4.7197759   0.15932406     4.719378   0.15972204    4.7197956            0            0            0   -76110.561   -76129.048   -76070.673   -76131.964   -53890.592   -53875.828   -53889.946   -34.628229 
     100   -34.857433    4.6953814   0.18371858    4.6950031   0.18409694    4.6954001            0            0            0   -46260.002   -46279.442   -46218.052   -46282.512    -57281.85   -57269.483   -57281.319   -34.857433 
     110   -35.174173    4.6709881   0.20811194    4.6706524   0.20844764    4.6710046            0            0            0   -19862.188   -19880.697    -19822.24   -19883.626   -56269.099   -56261.924   -56268.812   -35.174173 
     120    -35.77559    4.6465972   0.23250279    4.6463541    0.2327459    4.6466091            0            0            0   -9114.3562    -9127.947   -9085.0187   -9130.1027   -43248.726   -43250.407   -43248.851    -35.77559 
     130   -36.519456    4.6222078   0.25689217    4.6220868   0.25701322    4.6222136            0            0            0   -3394.7368   -3401.3013   -3380.5728   -3402.3362   -18785.152   -18790.651   -18785.446   -36.519456 
     140   -37.005748    4.6099035   0.26919652    4.6099009   0.26919908    4.6099035            0            0            0    -3462.384   -3462.4934    -3462.148   -3462.5106    2507.1016    2507.2457    2507.1072   -37.005748 
     150   -37.046857    4.6050201   0.27407986    4.6050259   0.27407409    4.6050197            0            0            0    5450.2114    5450.2373    5450.1585    5450.2384   -2154.5451    -2152.139   -2154.4344   -37.046857 
     160   -37.067385    4.6064444   0.27265556    4.6064664   0.27263363    4.6064425            0            0            0    419.60283    421.41383    415.44972    421.94494   -794.08103   -791.75055   -793.98773   -37.067385 
     170    -37.20458     4.597274     0.281826    4.6138899   0.26521005    4.5954486            0            0            0   -14526.517    5523.3368   -58319.563     9216.676    -5941.324    11272.469   -6432.7252    -37.20458 
     180   -37.308295    4.6003729   0.27872711    4.5894944   0.28960555    4.5999944            0            0            0   -8990.2149    10607.314   -51264.695    13686.737   -5084.7242    14443.538   -5757.8864   -37.308295 
     190   -37.399509    4.6062149   0.27288513    4.5650989   0.31400105    4.6072177            0            0            0   -5273.3994    11158.064   -40288.348    13310.086    -3223.953    16753.885   -4062.0023   -37.399509 
     200   -37.495676    4.6131931   0.26590686    4.5407034   0.33839655    4.6153669            0            0            0   -3413.8414    9271.4696   -30120.727    10607.733   -1236.4071    18896.566   -2162.3715   -37.495676 
     210   -37.603239    4.6204356   0.25866438    4.5163079   0.36279205    4.6235336            0            0            0   -2394.4091    6006.3175   -19874.754    6685.2093    862.94782    20774.627   -86.905256   -37.603239 
     220   -37.749277    4.6265834   0.25251655    4.4919124   0.38718755    4.6303406            0            0            0   -1942.0157    1609.0399   -9248.2561    1813.1693    3243.4986    22198.758     2355.124   -37.749277 
     230   -38.192917    4.6181208   0.26097923    4.4718338   0.40726617    4.6218435            0            0            0   -1977.7231   -2633.9627   -560.53465   -2738.6721    6270.7414      21829.8      5512.05   -38.192917 
     240   -39.011625    4.5951142   0.28398576     4.457023   0.42207699    4.5978319            0            0            0   -8907.2727   -8487.0565   -9760.9384   -8473.8232    3257.3458     21135.24    2574.9566   -39.011625 
     250   -39.516247    4.5835939   0.29550612    4.4326275   0.44647249    4.5864224            0            0            0   -963.97522   -149.69092   -2581.7876    -160.4471   -905.90661    21381.603   -1736.5041   -39.516247 
     260   -39.925315    4.5808782   0.29822177     4.408232   0.47086799    4.5833893            0            0            0   -649.51932    628.04945   -3101.7586    525.15116   -4165.0167    20382.585   -5263.3478   -39.925315 
     270   -40.207306    4.5837303    0.2953697    4.3838365   0.49526349     4.585311            0            0            0    -204.0589    1339.6931   -3091.1353    1139.2655   -5262.3505    18461.347   -6818.2343   -40.207306 
     280   -40.404095    4.5901352   0.28896475     4.359441   0.51965899    4.5903129            0            0            0    400.54127     1992.912   -2548.7922     1757.504   -4518.0665    15860.449   -6655.7088   -40.404095 
     290   -40.552277    4.5986441   0.28045585    4.3350455   0.54405449    4.5973575            0            0            0    698.32931    2197.6955   -2117.0172    2014.3096   -2646.5534     12863.13   -5404.9555   -40.552277 
     300   -40.676098     4.608065   0.27103503      4.31065   0.56844999    4.6056481            0            0            0     867.0383    2259.4859   -1801.1224    2142.7515   -512.27286     9886.054   -3784.2332   -40.676098 
     310   -40.786303    4.6176222   0.26147779    4.2870689   0.59203115     4.614545            0            0            0    744.73625     2059.951   -1831.8065    2006.0642    1182.1885    7324.4682   -2406.1679   -40.786303 
     320   -40.891669    4.6270553   0.25204466    4.2636974   0.61540263    4.6237107            0            0            0    1121.8662    2408.9888   -1455.3613    2411.9712     2225.822    5280.3827   -1487.9799   -40.891669 
     330   -40.992561     4.636501   0.24259905    4.2413232   0.63777678    4.6332222            0            0            0    790.75565    2069.5581   -1804.9425    2107.6514    2569.8738    3740.2558    -1039.837   -40.992561 
     340   -41.096978    4.6461681   0.23293188    4.2183357   0.66076428    4.6432256            0            0            0    1133.1368    2371.5381   -1422.0983    2449.9708    2384.9435    2589.5106   -910.34344   -41.096978 
     350   -41.199457    4.6558135   0.22328646    4.1962933   0.68280673    4.6533208            0            0            0    1120.1313     2326.303   -1374.6105    2408.7015    1827.8985    1865.9165   -989.59256   -41.199457 
     360   -41.297985    4.6652939   0.21380612    4.1752396   0.70386043    4.6633308            0            0            0    1209.6509     2354.702   -1192.0825    2466.3333    1114.7167    1399.3502   -1130.4548   -41.297985 
     370   -41.390336    4.6744157   0.20468434    4.1554084   0.72369158    4.6731668            0            0            0    1334.7695    2406.2263   -921.47976    2519.5621    439.27625    1051.6268   -1192.6829   -41.390336 
     380   -41.473078    4.6832452   0.19585477    4.1371853   0.74191468    4.6826415            0            0            0    1288.9873    2289.8141   -806.85864    2384.0065   -56.582689    796.51108    -1137.749   -41.473078 
     390   -41.547548    4.6919507   0.18714928    4.1198475   0.75925248    4.6918747            0            0            0    1551.0639    2443.7283   -303.48987    2512.9531   -332.45091     571.6183   -968.86416   -41.547548 
     400   -41.610688    4.7003432    0.1787568    4.1042469    0.7748531    4.7006207            0            0            0    1446.9203    2218.1941   -134.08978    2256.6564   -385.16318    376.79364   -711.40505   -41.610688 
     410   -41.663222    4.7084348   0.17066519    4.0902375   0.78886249    4.7088837            0            0            0    905.01398    1540.4205    -376.5971    1551.2185   -320.80029    215.63112   -423.52761   -41.663222 
     420   -41.708973    4.7162294   0.16287057    4.0759492   0.80315081    4.7166631            0            0            0    2447.8694    2822.1521    1705.2113    2816.2449   -170.52936    89.484855   -192.33971   -41.708973 
     430   -41.742384    4.7235011   0.15559889    4.0649599   0.81414013     4.723741            0            0            0    1333.5762    1489.2855    1031.8502    1479.5928   -38.876253    19.297435   -38.552874   -41.742384 
     440   -41.761592    4.7280103   0.15108974    4.0581419    0.8209581    4.7288481            0            0            0   -26.129581    417.03121   -45.396898   -450.02305 -0.043113487   0.01403283 -0.052666812   -41.761592 
     450   -41.761681    4.7284712    0.1506288    4.0580649   0.82103513    4.7284754            0            0            0   -9.5757878   -7.1535145   -10.042892   -11.530956 -4.9693085e-06 1.0141519e-05 -8.1649944e-06   -41.761681 
     460   -41.761681    4.7284712   0.15062881    4.0580617   0.82103826    4.7284712            0            0            0 0.0025377896  0.016036101 -0.0079428385 -0.00047989402 -6.2083692e-10 1.7888228e-09 -9.2809071e-10   -41.761681 
     470   -41.761681    4.7284712   0.15062878    4.0580617   0.82103828    4.7284712            0            0            0 -2.3297922e-06 -2.4837542e-06 -1.710732e-06 -2.7948905e-06 5.9754445e-11 5.965906e-11 -8.9136818e-12   -41.761681 
     480   -41.761681    4.7284712   0.15062878    4.0580617   0.82103828    4.7284712            0            0            0 -6.5353354e-10 -2.7652749e-09 1.5847968e-09 -7.8012257e-10 -2.7446509e-11 6.3386111e-11 7.9680275e-11   -41.761681 
     490   -41.761681    4.7284712   0.15062878    4.0580617   0.82103828    4.7284712            0            0            0 -3.5613405e-10 -9.0391001e-10 -2.881621e-10 1.2366997e-10 5.1543666e-11 2.8163816e-11 -1.0598857e-10   -41.761681 
     496   -41.761681    4.7284712   0.15062878    4.0580617   0.82103828    4.7284712            0            0            0 5.537261e-11 -2.7184841e-10 1.8262677e-11 4.1970356e-10 8.1019504e-12 2.0994269e-12 -1.0585797e-11   -41.761681 
Loop time of 0.015959 on 1 procs for 496 steps with 8 atoms

97.7% CPU use with 1 MPI tasks x no OpenMP threads

Minimization stats:
  Stopping criterion = energy tolerance
  Energy initial, next-to-last, final = 
        -31.2326061651     -41.7616809518     -41.7616809518
  Force two-norm initial, final = 9.37522 3.20356e-14
  Force max component initial, final = 5.41278 1.89399e-14
  Final line search alpha, max atom move = 1 1.89399e-14
  Iterations, force evaluations = 496 581

MPI task timing breakdown:
Section |  min time  |  avg time  |  max time  |%varavg| %total
---------------------------------------------------------------
Pair    | 0.0098622  | 0.0098622  | 0.0098622  |   0.0 | 61.80
Neigh   | 0.00024605 | 0.00024605 | 0.00024605 |   0.0 |  1.54
Comm    | 0.0011311  | 0.0011311  | 0.0011311  |   0.0 |  7.09
Output  | 0.001121   | 0.001121   | 0.001121   |   0.0 |  7.02
Modify  | 0          | 0          | 0          |   0.0 |  0.00
Other   |            | 0.003599   |            |       | 22.55

Nlocal:    8 ave 8 max 8 min
Histogram: 1 0 0 0 0 0 0 0 0 0
Nghost:    437 ave 437 max 437 min
Histogram: 1 0 0 0 0 0 0 0 0 0
Neighs:    344 ave 344 max 344 min
Histogram: 1 0 0 0 0 0 0 0 0 0

Total # of neighbors = 344
Ave neighs/atom = 43
Neighbor list builds = 9
Dangerous builds = 0
pypospack:output_section:begin
tot_energy = -41.7616809517544
num_atoms = 8
a11 = 4.57784244210063
a22 = 3.23702343401294
a33 = 4.57784244210063
a12 = 0
a13 = 0
a23 = 0
tot_press = 5.53726100661062e-11
pxx = -2.71848410789145e-10
pyy = 1.82626770429769e-11
pzz = 4.19703563944487e-10
pxy = 8.1019503875461e-12
pxz = 2.09942685650738e-12
pyz = -1.05857973774069e-11
pypospack:output_section:done
pypospack:lammps_sim:done
Total wall time: 0:00:00
