# ['Ni']

20 atoms
1 atom types

    0.0000     4.1149 xlo xhi
    0.0000     4.1149 ylo yhi
    0.0000    41.1487 zlo zhi

    0.0000    -0.0000     0.0000 xy xz yz

Atoms

1 1     0.0000     0.0000     0.0000
2 1     2.0574     2.0574     0.0000
3 1     2.0574     0.0000     2.0574
4 1     0.0000     2.0574     2.0574
5 1     0.0000     0.0000     4.1149
6 1     2.0574     2.0574     4.1149
7 1     2.0574     0.0000     6.1723
8 1     0.0000     2.0574     6.1723
9 1     0.0000     0.0000     8.2297
10 1     2.0574     2.0574     8.2297
11 1     2.0574     0.0000    10.2872
12 1     0.0000     2.0574    10.2872
13 1     0.0000     0.0000    12.3446
14 1     2.0574     2.0574    12.3446
15 1     2.0574     0.0000    14.4020
16 1     0.0000     2.0574    14.4020
17 1     0.0000     0.0000    16.4595
18 1     2.0574     2.0574    16.4595
19 1     2.0574     0.0000    18.5169
20 1     0.0000     2.0574    18.5169
