LAMMPS (11 Aug 2017)
Reading data file ...
  triclinic box = (0 0 0) to (10.5386 10.5386 10.5386) with tilt (0 -0 -0)
  1 by 1 by 1 MPI processor grid
  reading atoms ...
  107 atoms
107 atoms in group Ni
Neighbor list info ...
  update every 1 steps, delay 0 steps, check yes
  max neighbors/atom: 2000, page size: 100000
  master list distance cutoff = 11
  ghost atom cutoff = 11
  binsize = 5.5, bins = 2 2 2
  1 neighbor lists, perpetual/occasional/extra = 1 0 0
  (1) pair eam/alloy, perpetual
      attributes: half, newton on
      pair build: half/bin/newton/tri
      stencil: half/bin/3d/newton/tri
      bin: standard
Setting up cg style minimization ...
  Unit style    : metal
  Current step  : 0
Per MPI rank memory allocation (min/avg/max) = 4.384 | 4.384 | 4.384 Mbytes
Step PotEng Lx Ly Lz Xy Xz Yz Press Pxx Pyy Pzz Pxy Pxz Pyz c_eatoms 
       0   -479.90996      10.5386      10.5386      10.5386            0           -0           -0   -8734.5717   -8734.5717   -8734.5717   -8734.5717 1.1805104e-12 2.3322964e-11 3.012384e-11   -479.90996 
       1   -480.08366      10.5386      10.5386      10.5386            0           -0           -0   -11215.963   -11215.963   -11215.963   -11215.963 -2.5313098e-11 -2.9741825e-11 -1.6865516e-11   -480.08366 
       2    -480.1017      10.5386      10.5386      10.5386            0           -0           -0   -11387.724   -11387.724   -11387.724   -11387.724 -2.458431e-11 1.7052614e-11 1.7947952e-11    -480.1017 
       3   -480.10434      10.5386      10.5386      10.5386            0           -0           -0   -11513.406   -11513.406   -11513.406   -11513.406 2.7967882e-11 4.7725253e-12 -9.377279e-12   -480.10434 
       4   -480.10462      10.5386      10.5386      10.5386            0           -0           -0   -11530.533   -11530.533   -11530.533   -11530.533 5.7492056e-13 4.8630683e-11 1.979382e-11   -480.10462 
       5   -480.10467      10.5386      10.5386      10.5386            0           -0           -0   -11526.777   -11526.777   -11526.777   -11526.777 -9.2596942e-13 1.6445349e-11 2.6372703e-11   -480.10467 
       6   -480.10468      10.5386      10.5386      10.5386            0           -0           -0   -11522.351   -11522.351   -11522.351   -11522.351 4.4952006e-12 1.932502e-11 -8.920269e-12   -480.10468 
       7   -480.10468      10.5386      10.5386      10.5386            0           -0           -0   -11523.772   -11523.772   -11523.772   -11523.772 -1.3802917e-11 1.4766321e-11 1.7626165e-11   -480.10468 
       8   -480.10468      10.5386      10.5386      10.5386            0           -0           -0   -11524.009   -11524.009   -11524.009   -11524.009 3.8910972e-12 2.8322766e-11 1.7494555e-11   -480.10468 
       9   -480.10468      10.5386      10.5386      10.5386            0           -0           -0   -11523.919   -11523.919   -11523.919   -11523.919 2.248475e-11 1.4755774e-11 2.3464536e-11   -480.10468 
      10   -480.10468      10.5386      10.5386      10.5386            0           -0           -0   -11523.894   -11523.894   -11523.894   -11523.894 -2.7897249e-11 5.840941e-12 -1.123015e-11   -480.10468 
      11   -480.10468      10.5386      10.5386      10.5386            0           -0           -0    -11523.89    -11523.89    -11523.89    -11523.89 4.1635713e-11 1.1653132e-11 2.1974067e-11   -480.10468 
      12   -480.10468      10.5386      10.5386      10.5386            0           -0           -0   -11523.891   -11523.891   -11523.891   -11523.891 7.6775933e-12 -2.2414185e-11 7.1121306e-12   -480.10468 
      13   -480.10468      10.5386      10.5386      10.5386            0           -0           -0   -11523.891   -11523.891   -11523.891   -11523.891 -4.6935491e-11 -5.1899692e-12 1.5761193e-11   -480.10468 
      14   -480.10468      10.5386      10.5386      10.5386            0           -0           -0   -11523.891   -11523.891   -11523.891   -11523.891 8.2144401e-12 -1.8104129e-11 6.3570378e-12   -480.10468 
      15   -480.10468      10.5386      10.5386      10.5386            0           -0           -0   -11523.891   -11523.891   -11523.891   -11523.891 -1.6128017e-11 -2.3915772e-11 -2.718249e-11   -480.10468 
      16   -480.10468      10.5386      10.5386      10.5386            0           -0           -0   -11523.891   -11523.891   -11523.891   -11523.891 1.7580252e-11 3.6623777e-12 9.8752416e-12   -480.10468 
      17   -480.10468      10.5386      10.5386      10.5386            0           -0           -0   -11523.891   -11523.891   -11523.891   -11523.891 -7.7397911e-12 -2.7036953e-11 -2.0148995e-11   -480.10468 
      18   -480.10468      10.5386      10.5386      10.5386            0           -0           -0   -11523.891   -11523.891   -11523.891   -11523.891 1.9950613e-11 1.174198e-11 7.0308977e-12   -480.10468 
      19   -480.10468      10.5386      10.5386      10.5386            0           -0           -0   -11523.891   -11523.891   -11523.891   -11523.891 -1.5921479e-11 3.1391338e-12 -1.0329418e-11   -480.10468 
      20   -480.10468      10.5386      10.5386      10.5386            0           -0           -0   -11523.891   -11523.891   -11523.891   -11523.891 1.9499985e-11 -5.0259956e-11 -2.1719928e-11   -480.10468 
      21   -480.10468      10.5386      10.5386      10.5386            0           -0           -0   -11523.891   -11523.891   -11523.891   -11523.891 -3.5695628e-11 -2.9510821e-11 -4.3072168e-11   -480.10468 
      22   -480.10468      10.5386      10.5386      10.5386            0           -0           -0   -11523.891   -11523.891   -11523.891   -11523.891 -4.3105713e-12 4.7413215e-12 -2.3911621e-11   -480.10468 
      23   -480.10468      10.5386      10.5386      10.5386            0           -0           -0   -11523.891   -11523.891   -11523.891   -11523.891 2.4004862e-11 2.297591e-11 -2.3341419e-12   -480.10468 
      24   -480.10468      10.5386      10.5386      10.5386            0           -0           -0   -11523.891   -11523.891   -11523.891   -11523.891 -2.4242453e-11 1.701077e-12 7.1816992e-12   -480.10468 
      25   -480.10468      10.5386      10.5386      10.5386            0           -0           -0   -11523.891   -11523.891   -11523.891   -11523.891 6.069548e-12 1.4060534e-11 2.2115657e-11   -480.10468 
      26   -480.10468      10.5386      10.5386      10.5386            0           -0           -0   -11523.891   -11523.891   -11523.891   -11523.891 8.0146113e-12 1.8059299e-11 5.4265349e-12   -480.10468 
      27   -480.10468      10.5386      10.5386      10.5386            0           -0           -0   -11523.891   -11523.891   -11523.891   -11523.891 1.4560293e-11 6.7666994e-12 2.7294143e-11   -480.10468 
      28   -480.10468      10.5386      10.5386      10.5386            0           -0           -0   -11523.891   -11523.891   -11523.891   -11523.891 2.6222565e-11 1.7271963e-11 9.8763964e-12   -480.10468 
      29   -480.10468      10.5386      10.5386      10.5386            0           -0           -0   -11523.891   -11523.891   -11523.891   -11523.891 2.101521e-11 -9.7394252e-12 1.7143433e-11   -480.10468 
      30   -480.10468      10.5386      10.5386      10.5386            0           -0           -0   -11523.891   -11523.891   -11523.891   -11523.891 7.2643953e-12 5.1647993e-12 2.7635711e-11   -480.10468 
      31   -480.10468      10.5386      10.5386      10.5386            0           -0           -0   -11523.891   -11523.891   -11523.891   -11523.891 -2.1356175e-12 1.7812803e-12 2.2428642e-11   -480.10468 
      32   -480.10468      10.5386      10.5386      10.5386            0           -0           -0   -11523.891   -11523.891   -11523.891   -11523.891 -9.2808117e-12 -4.1837339e-12 2.976143e-11   -480.10468 
      33   -480.10468      10.5386      10.5386      10.5386            0           -0           -0   -11523.891   -11523.891   -11523.891   -11523.891 1.5819965e-12 -1.0140734e-11 1.047316e-11   -480.10468 
      34   -480.10468      10.5386      10.5386      10.5386            0           -0           -0   -11523.891   -11523.891   -11523.891   -11523.891 2.493251e-12 -1.6122296e-11 7.3791951e-12   -480.10468 
      35   -480.10468      10.5386      10.5386      10.5386            0           -0           -0   -11523.891   -11523.891   -11523.891   -11523.891 1.8758108e-11 -3.3814134e-12 2.7148916e-11   -480.10468 
Loop time of 0.139335 on 1 procs for 35 steps with 107 atoms

91.7% CPU use with 1 MPI tasks x no OpenMP threads

Minimization stats:
  Stopping criterion = energy tolerance
  Energy initial, next-to-last, final = 
        -479.909960617     -480.104678655     -480.104678655
  Force two-norm initial, final = 1.04046 2.36053e-14
  Force max component initial, final = 0.205992 4.56579e-15
  Final line search alpha, max atom move = 1 4.56579e-15
  Iterations, force evaluations = 35 70

MPI task timing breakdown:
Section |  min time  |  avg time  |  max time  |%varavg| %total
---------------------------------------------------------------
Pair    | 0.13678    | 0.13678    | 0.13678    |   0.0 | 98.17
Neigh   | 0          | 0          | 0          |   0.0 |  0.00
Comm    | 0.0013835  | 0.0013835  | 0.0013835  |   0.0 |  0.99
Output  | 0.00072479 | 0.00072479 | 0.00072479 |   0.0 |  0.52
Modify  | 0          | 0          | 0          |   0.0 |  0.00
Other   |            | 0.000447   |            |       |  0.32

Nlocal:    107 ave 107 max 107 min
Histogram: 1 0 0 0 0 0 0 0 0 0
Nghost:    3259 ave 3259 max 3259 min
Histogram: 1 0 0 0 0 0 0 0 0 0
Neighs:    28093 ave 28093 max 28093 min
Histogram: 1 0 0 0 0 0 0 0 0 0

Total # of neighbors = 28093
Ave neighs/atom = 262.551
Neighbor list builds = 0
Dangerous builds = 0
pypospack:output_section:begin
tot_energy = -480.104678655131
num_atoms = 107
a11 = 10.5386
a22 = 10.5386
a33 = 10.5386
a12 = 0
a13 = -0
a23 = -0
tot_press = -11523.8906563622
pxx = -11523.8906563622
pyy = -11523.8906563622
pzz = -11523.8906563622
pxy = 1.87581082616691e-11
pxz = -3.38141337303665e-12
pyz = 2.71489163421554e-11
pypospack:output_section:done
pypospack:lammps_sim:done
Total wall time: 0:00:00
