# ['Ni']

107 atoms
1 atom types

    0.0000    10.5386 xlo xhi
    0.0000    10.5386 ylo yhi
    0.0000    10.5386 zlo zhi

    0.0000    -0.0000    -0.0000 xy xz yz

Atoms

1 1     1.7564     1.7564     0.0000
2 1     1.7564     0.0000     1.7564
3 1     0.0000     1.7564     1.7564
4 1     0.0000     0.0000     3.5129
5 1     1.7564     1.7564     3.5129
6 1     1.7564     0.0000     5.2693
7 1     0.0000     1.7564     5.2693
8 1     0.0000     0.0000     7.0257
9 1     1.7564     1.7564     7.0257
10 1     1.7564     0.0000     8.7822
11 1     0.0000     1.7564     8.7822
12 1     0.0000     3.5129     0.0000
13 1     1.7564     5.2693     0.0000
14 1     1.7564     3.5129     1.7564
15 1     0.0000     5.2693     1.7564
16 1     0.0000     3.5129     3.5129
17 1     1.7564     5.2693     3.5129
18 1     1.7564     3.5129     5.2693
19 1     0.0000     5.2693     5.2693
20 1     0.0000     3.5129     7.0257
21 1     1.7564     5.2693     7.0257
22 1     1.7564     3.5129     8.7822
23 1     0.0000     5.2693     8.7822
24 1     0.0000     7.0257     0.0000
25 1     1.7564     8.7822     0.0000
26 1     1.7564     7.0257     1.7564
27 1     0.0000     8.7822     1.7564
28 1     0.0000     7.0257     3.5129
29 1     1.7564     8.7822     3.5129
30 1     1.7564     7.0257     5.2693
31 1     0.0000     8.7822     5.2693
32 1     0.0000     7.0257     7.0257
33 1     1.7564     8.7822     7.0257
34 1     1.7564     7.0257     8.7822
35 1     0.0000     8.7822     8.7822
36 1     3.5129     0.0000     0.0000
37 1     5.2693     1.7564     0.0000
38 1     5.2693     0.0000     1.7564
39 1     3.5129     1.7564     1.7564
40 1     3.5129     0.0000     3.5129
41 1     5.2693     1.7564     3.5129
42 1     5.2693     0.0000     5.2693
43 1     3.5129     1.7564     5.2693
44 1     3.5129     0.0000     7.0257
45 1     5.2693     1.7564     7.0257
46 1     5.2693     0.0000     8.7822
47 1     3.5129     1.7564     8.7822
48 1     3.5129     3.5129     0.0000
49 1     5.2693     5.2693     0.0000
50 1     5.2693     3.5129     1.7564
51 1     3.5129     5.2693     1.7564
52 1     3.5129     3.5129     3.5129
53 1     5.2693     5.2693     3.5129
54 1     5.2693     3.5129     5.2693
55 1     3.5129     5.2693     5.2693
56 1     3.5129     3.5129     7.0257
57 1     5.2693     5.2693     7.0257
58 1     5.2693     3.5129     8.7822
59 1     3.5129     5.2693     8.7822
60 1     3.5129     7.0257     0.0000
61 1     5.2693     8.7822     0.0000
62 1     5.2693     7.0257     1.7564
63 1     3.5129     8.7822     1.7564
64 1     3.5129     7.0257     3.5129
65 1     5.2693     8.7822     3.5129
66 1     5.2693     7.0257     5.2693
67 1     3.5129     8.7822     5.2693
68 1     3.5129     7.0257     7.0257
69 1     5.2693     8.7822     7.0257
70 1     5.2693     7.0257     8.7822
71 1     3.5129     8.7822     8.7822
72 1     7.0257     0.0000     0.0000
73 1     8.7822     1.7564     0.0000
74 1     8.7822     0.0000     1.7564
75 1     7.0257     1.7564     1.7564
76 1     7.0257     0.0000     3.5129
77 1     8.7822     1.7564     3.5129
78 1     8.7822     0.0000     5.2693
79 1     7.0257     1.7564     5.2693
80 1     7.0257     0.0000     7.0257
81 1     8.7822     1.7564     7.0257
82 1     8.7822     0.0000     8.7822
83 1     7.0257     1.7564     8.7822
84 1     7.0257     3.5129     0.0000
85 1     8.7822     5.2693     0.0000
86 1     8.7822     3.5129     1.7564
87 1     7.0257     5.2693     1.7564
88 1     7.0257     3.5129     3.5129
89 1     8.7822     5.2693     3.5129
90 1     8.7822     3.5129     5.2693
91 1     7.0257     5.2693     5.2693
92 1     7.0257     3.5129     7.0257
93 1     8.7822     5.2693     7.0257
94 1     8.7822     3.5129     8.7822
95 1     7.0257     5.2693     8.7822
96 1     7.0257     7.0257     0.0000
97 1     8.7822     8.7822     0.0000
98 1     8.7822     7.0257     1.7564
99 1     7.0257     8.7822     1.7564
100 1     7.0257     7.0257     3.5129
101 1     8.7822     8.7822     3.5129
102 1     8.7822     7.0257     5.2693
103 1     7.0257     8.7822     5.2693
104 1     7.0257     7.0257     7.0257
105 1     8.7822     8.7822     7.0257
106 1     8.7822     7.0257     8.7822
107 1     7.0257     8.7822     8.7822
