LAMMPS (11 Aug 2017)
# ---- initialize simulations
clear
units metal
dimension 3
boundary p p p
atom_style atomic
atom_modify map array
# ---- create atoms
read_data /home/eugene/repos/pypospack/tests/tests_integration/pyposmat/PyposmatIterativeSampler/test__eam_Ni/rank_3/Ni_fcc.lmps_min_all/lammps.structure
  triclinic box = (0 0 0) to (3.52 3.52 3.52) with tilt (0 0 0)
  1 by 1 by 1 MPI processor grid
  reading atoms ...
  4 atoms
# ---- define interatomic potential
include potential.mod
mass 1 58.6934

group Ni type 1
4 atoms in group Ni

pair_style eam/alloy
pair_coeff * * /home/eugene/repos/pypospack/tests/tests_integration/pyposmat/PyposmatIterativeSampler/test__eam_Ni/rank_3/Ni_fcc.lmps_min_all/Ni.eam.alloy Ni

neighbor 1.0 bin
neigh_modify every 1 delay 0 check yes
# ---- define settings
compute eng all pe/atom
compute eatoms all reduce sum c_eng
# ---- run minimization
reset_timestep 0
fix 1 all box/relax iso 0.0 vmax 0.001
thermo 10
thermo_style custom step pe lx ly lz xy xz yz press pxx pyy pzz pxy pxz pyz c_eatoms
min_style cg
minimize 1e-25 1e-25 5000 10000
Neighbor list info ...
  update every 1 steps, delay 0 steps, check yes
  max neighbors/atom: 2000, page size: 100000
  master list distance cutoff = 4.916
  ghost atom cutoff = 4.916
  binsize = 2.458, bins = 2 2 2
  1 neighbor lists, perpetual/occasional/extra = 1 0 0
  (1) pair eam/alloy, perpetual
      attributes: half, newton on
      pair build: half/bin/newton/tri
      stencil: half/bin/3d/newton/tri
      bin: standard
Per MPI rank memory allocation (min/avg/max) = 4.21 | 4.21 | 4.21 Mbytes
Step PotEng Lx Ly Lz Xy Xz Yz Press Pxx Pyy Pzz Pxy Pxz Pyz c_eatoms 
       0   -76.014626         3.52         3.52         3.52            0            0            0   -6294223.4   -6294223.4   -6294223.4   -6294223.4 2.6101927e-10            0            0   -76.014626 
      10   -81.297142       3.4848       3.4848       3.4848            0            0            0   -6778637.6   -6778637.6   -6778637.6   -6778637.6 -3.3626139e-10 -3.3626139e-10            0   -81.297142 
      20   -86.867191       3.4496       3.4496       3.4496            0            0            0   -7286433.4   -7286433.4   -7286433.4   -7286433.4 -6.239889e-10 -2.773284e-10 -3.466605e-10   -86.867191 
      30   -92.727192       3.4144       3.4144       3.4144            0            0            0   -7815046.9   -7815046.9   -7815046.9   -7815046.9            0 6.4348716e-10 6.4348716e-10   -92.727192 
      40   -98.876316       3.3792       3.3792       3.3792            0            0            0   -8360582.9   -8360582.9   -8360582.9   -8360582.9 -2.2126878e-10 -1.4751252e-10 7.3756259e-11   -98.876316 
      50   -105.30958        3.344        3.344        3.344            0            0            0   -8917431.1   -8917431.1   -8917431.1   -8917431.1 -3.8055004e-10 -8.3721008e-10 -8.3721008e-10   -105.30958 
      60   -112.01676       3.3088       3.3088       3.3088            0            0            0   -9477785.2   -9477785.2   -9477785.2   -9477785.2 7.8564983e-10 1.0213448e-09 1.6498646e-09   -112.01676 
      70     -118.981       3.2736       3.2736       3.2736            0            0            0    -10031071    -10031071    -10031071    -10031071 4.8676011e-10 -2.4338006e-10 -3.2450674e-10     -118.981 
      80   -126.17728       3.2384       3.2384       3.2384            0            0            0    -10563373    -10563373    -10563373    -10563373 -1.6760196e-10 5.0280588e-10 5.0280588e-10   -126.17728 
      90   -133.57076       3.2032       3.2032       3.2032            0            0            0    -11057254    -11057254    -11057254    -11057254 8.659412e-11 -6.9275296e-10 -1.0391294e-09   -133.57076 
     100   -141.13542        3.168        3.168        3.168            0            0            0    -11567101    -11567101    -11567101    -11567101 4.6085096e-10 1.1283506e-09 2.182923e-09   -141.13542 
     110   -148.85796       3.1328       3.1328       3.1328            0            0            0    -12035963    -12035963    -12035963    -12035963 -2.5744389e-10 9.0611571e-10 9.668609e-10   -148.85796 
     120   -156.69653       3.0976       3.0976       3.0976            0            0            0    -12478092    -12478092    -12478092    -12478092 6.1343485e-10 -3.3065635e-09 -3.3888535e-09   -156.69653 
     130   -164.66501       3.0624       3.0624       3.0624            0            0            0    -13068675    -13068675    -13068675    -13068675 6.2554162e-10 -3.5922192e-10 3.4064148e-10   -164.66501 
     140   -173.00256       3.0272       3.0272       3.0272            0            0            0    -14469495    -14469495    -14469495    -14469495 6.7005975e-10 3.029696e-09 2.7732138e-09   -173.00256 
     150   -182.69895        2.992        2.992        2.992            0            0            0    -18882726    -18882726    -18882726    -18882726 5.1135975e-10 3.2541075e-09 -3.9182111e-10   -182.69895 
     160   -197.08435       2.9568       2.9568       2.9568            0            0            0    -33258992    -33258992    -33258992    -33258992 1.094087e-09 1.0321576e-09 4.4038723e-10   -197.08435 
     170   -226.55116       2.9216       2.9216       2.9216            0            0            0    -78943935    -78943935    -78943935    -78943935 -1.1412435e-10 3.3381371e-09 2.9101708e-09   -226.55116 
     180   -294.35582       2.8864       2.8864       2.8864            0            0            0 -1.4540712e+08 -1.4540712e+08 -1.4540712e+08 -1.4540712e+08 3.6392856e-09 -2.2871283e-08 2.5741289e-09   -294.35582 
     190   -376.13427       2.8512       2.8512       2.8512            0            0            0 -1.5621103e+08 -1.5621103e+08 -1.5621103e+08 -1.5621103e+08 1.1664903e-09 -1.6760624e-08 -2.0812643e-08   -376.13427 
     200   -461.71836        2.816        2.816        2.816            0            0            0 -1.6730773e+08 -1.6730773e+08 -1.6730773e+08 -1.6730773e+08 4.3333277e-09 4.0529359e-08 3.0460745e-08   -461.71836 
     210   -550.96136       2.7808       2.7808       2.7808            0            0            0 -1.7854842e+08 -1.7854842e+08 -1.7854842e+08 -1.7854842e+08 9.9264182e-10 -1.5882269e-08 -2.3558699e-08   -550.96136 
     220   -643.66746       2.7456       2.7456       2.7456            0            0            0 -1.8999378e+08 -1.8999378e+08 -1.8999378e+08 -1.8999378e+08 -3.5752146e-09 4.3108838e-08 4.3590117e-08   -643.66746 
     230   -739.64007       2.7104       2.7104       2.7104            0            0            0 -2.0130085e+08 -2.0130085e+08 -2.0130085e+08 -2.0130085e+08 1.8581628e-08 2.4870794e-08 -5.0027459e-10   -739.64007 
     240   -838.42324       2.6752       2.6752       2.6752            0            0            0 -2.1198131e+08 -2.1198131e+08 -2.1198131e+08 -2.1198131e+08 -1.010836e-08 5.0616128e-08 4.8980952e-08   -838.42324 
     250   -939.37806         2.64         2.64         2.64            0            0            0 -2.2155864e+08 -2.2155864e+08 -2.2155864e+08 -2.2155864e+08 1.0827466e-08 -4.5166001e-08 -3.4957247e-08   -939.37806 
     260   -1041.6544       2.6048       2.6048       2.6048            0            0            0 -2.2940835e+08 -2.2940835e+08 -2.2940835e+08 -2.2940835e+08 -3.4783331e-08 5.7972219e-08 6.5218746e-08   -1041.6544 
     270   -1144.1427       2.5696       2.5696       2.5696            0            0            0 -2.3471853e+08 -2.3471853e+08 -2.3471853e+08 -2.3471853e+08 -2.9019512e-08 7.1793937e-08 3.304534e-08   -1144.1427 
     280   -1245.4164       2.5344       2.5344       2.5344            0            0            0 -2.3644027e+08 -2.3644027e+08 -2.3644027e+08 -2.3644027e+08 -2.2727855e-08 2.8497233e-08 3.7763205e-08   -1245.4164 
     290   -1343.6616       2.4992       2.4992       2.4992            0            0            0 -2.3322549e+08 -2.3322549e+08 -2.3322549e+08 -2.3322549e+08 -4.1933911e-09 3.9381412e-08 4.9956051e-08   -1343.6616 
     300   -1436.6237        2.464        2.464        2.464            0            0            0 -2.2378582e+08 -2.2378582e+08 -2.2378582e+08 -2.2378582e+08 8.7038131e-09 -3.7875558e-08 -2.9456373e-08   -1436.6237 
     310   -1521.8253       2.4288       2.4288       2.4288            0            0            0 -2.0646526e+08 -2.0646526e+08 -2.0646526e+08 -2.0646526e+08 1.1685581e-08 -1.7480264e-08 -1.4559644e-08   -1521.8253 
     320   -1595.8881       2.3936       2.3936       2.3936            0            0            0 -1.7778312e+08 -1.7778312e+08 -1.7778312e+08 -1.7778312e+08 -9.6632259e-10 5.3309877e-09 2.0882945e-08   -1595.8881 
     330   -1654.5037       2.3584       2.3584       2.3584            0            0            0 -1.3424602e+08 -1.3424602e+08 -1.3424602e+08 -1.3424602e+08 -3.0442796e-09 -2.9100329e-08 -2.6747623e-08   -1654.5037 
     340   -1692.3572       2.3232       2.3232       2.3232            0            0            0    -71425057    -71425057    -71425057    -71425057 3.3762745e-09 -2.0966948e-08 -1.4583236e-08   -1692.3572 
     350   -1703.3716    2.2937433    2.2937433    2.2937433            0            0            0   -357.71643   -357.71643   -357.71643   -357.71643 -1.2975283e-07 -1.4503781e-07 -1.5874565e-07   -1703.3716 
     356   -1703.3716    2.2937432    2.2937432    2.2937432            0            0            0   1.2298e-07 1.1528223e-07 1.2748664e-07 1.2617112e-07 6.0137639e-09 7.5466841e-09 4.4218852e-10   -1703.3716 
Loop time of 0.00942421 on 1 procs for 356 steps with 4 atoms

95.5% CPU use with 1 MPI tasks x no OpenMP threads

Minimization stats:
  Stopping criterion = energy tolerance
  Energy initial, next-to-last, final = 
        -76.0146261735     -1703.37157098     -1703.37157098
  Force two-norm initial, final = 514.021 4.26639e-12
  Force max component initial, final = 514.021 4.26459e-12
  Final line search alpha, max atom move = 1 4.26459e-12
  Iterations, force evaluations = 356 364

MPI task timing breakdown:
Section |  min time  |  avg time  |  max time  |%varavg| %total
---------------------------------------------------------------
Pair    | 0.0044677  | 0.0044677  | 0.0044677  |   0.0 | 47.41
Neigh   | 0.00011802 | 0.00011802 | 0.00011802 |   0.0 |  1.25
Comm    | 0.00095296 | 0.00095296 | 0.00095296 |   0.0 | 10.11
Output  | 0.00053501 | 0.00053501 | 0.00053501 |   0.0 |  5.68
Modify  | 0          | 0          | 0          |   0.0 |  0.00
Other   |            | 0.00335    |            |       | 35.55

Nlocal:    4 ave 4 max 4 min
Histogram: 1 0 0 0 0 0 0 0 0 0
Nghost:    662 ave 662 max 662 min
Histogram: 1 0 0 0 0 0 0 0 0 0
Neighs:    280 ave 280 max 280 min
Histogram: 1 0 0 0 0 0 0 0 0 0

Total # of neighbors = 280
Ave neighs/atom = 70
Neighbor list builds = 4
Dangerous builds = 0
# ---- define output variables ----
variable natoms equal "count(all)"
variable tot_energy equal "c_eatoms"
variable length_x equal "lx"
variable length_y equal "ly"
variable length_z equal "lz"
variable tilt_xy equal "xy"
variable tilt_xz equal "xz"
variable tilt_yz equal "yz"
variable tot_press equal "press"
variable press_xx equal "pxx"
variable press_yy equal "pyy"
variable press_zz equal "pzz"
variable press_xy equal "pxy"
variable press_xz equal "pxz"
variable press_yz equal "pyz"

# ---- output ----
print "pypospack:output_section:begin"
pypospack:output_section:begin
print "tot_energy = ${tot_energy}"
tot_energy = -1703.37157097969
print "num_atoms = ${natoms}"
num_atoms = 4
print "xx = ${length_x}"
xx = 2.29374319241761
print "yy = ${length_y}"
yy = 2.29374319241761
print "zz = ${length_z}"
zz = 2.29374319241761
print "xy = ${tilt_xy}"
xy = 0
print "xz = ${tilt_xz}"
xz = 0
print "yz = ${tilt_yz}"
yz = 0
print "tot_press = ${tot_press}"
tot_press = 1.22979997399599e-07
print "pxx = ${press_xx}"
pxx = 1.15282232236065e-07
print "pyy = ${press_yy}"
pyy = 1.27486635405823e-07
print "pzz = ${press_zz}"
pzz = 1.26171124556908e-07
print "pxy = ${press_xy}"
pxy = 6.01376388074984e-09
print "pxz = ${press_xz}"
pxz = 7.54668408564686e-09
print "pyz = ${press_yz}"
pyz = 4.42188520643371e-10
print "pypospack:output_section:done"
pypospack:output_section:done
print "pypospack:lammps_sim:done"
pypospack:lammps_sim:done
Total wall time: 0:00:00
